Membrane in water
40347
    1TMC1    C1    1   3.384   1.771  11.804 -0.5819  0.3273 -0.1191
    1TMC1    C2    2   3.426   1.897  11.845 -1.6675 -0.4497 -0.4115
    1TMC1    C3    3   3.441   1.983  11.742 -0.6987 -0.1677  0.0891
    1TMC1    C4    4   3.346   1.733  11.680  0.2731 -0.5275  0.2228
    1TMC1    C5    5   3.339   1.836  11.585 -0.1795  0.0500 -0.7083
    1TMC1    C6    6   3.400   1.955  11.622  0.7397 -0.4068 -0.4359
    1TMC1     C    7   3.338   1.690  11.911  0.4118 -0.1702  0.0484
    1TMC1     O    8   3.337   1.732  12.025 -0.0700 -0.6811 -0.2277
    1TMC1     H    9   3.451   1.914  11.949 -0.2176  0.3652 -0.8854
    1TMC1    H1   10   3.296   1.641  11.654  2.4034 -1.8225  0.7963
    1TMC1    H2   11   3.412   2.029  11.544 -0.2926 -1.4633 -1.6033
    1TMC1    C7   12   3.280   1.808  11.453  0.3423  0.0745  0.1091
    1TMC1    C8   13   3.504   2.113  11.760  0.3511 -0.5125 -0.3032
    1TMC1    O1   14   3.258   1.695  11.418 -0.1110 -0.5386 -0.3453
    1TMC1    O2   15   3.620   2.126  11.786  0.0210 -0.1848  0.3747
    1TMC1    O3   16   3.226   1.922  11.409  0.5235 -0.0213  0.1673
    1TMC1    H3   17   3.221   1.988  11.481  0.1223 -0.9387  0.9908
    1TMC1    O5   18   3.409   2.205  11.741 -0.1788  0.0497 -0.3212
    1TMC1    H5   19   3.319   2.166  11.744  1.3388 -3.4522 -0.7365
    2MPD2     C   20   3.131   1.243  12.069 -1.2740  0.0898  0.5588
    2MPD2    C1   21   3.162   1.358  12.143  0.2913 -0.3452  0.3432
    2MPD2    C2   22   3.222   1.465  12.078 -0.4789  0.1620  1.0802
    2MPD2    C3   23   3.241   1.453  11.944  0.1947 -0.0811 -0.7066
    2MPD2    C4   24   3.205   1.346  11.870  0.0331  0.0662  0.3738
    2MPD2    C5   25   3.155   1.236  11.934 -0.4865  0.6632  0.1896
    2MPD2     H   26   3.248   1.553  12.136  1.3165 -0.7493  1.6756
    2MPD2    H1   27   3.229   1.342  11.765  2.9070  0.2759  1.0301
    2MPD2    H2   28   3.073   1.166  12.118 -1.0474  0.0996  0.8410
    2MPD2    H3   29   3.121   1.156  11.869 -1.5979  1.1546  0.1543
    2MPD2     N   30   3.302   1.560  11.866  0.4171 -0.2140  0.2441
    2MPD2    H5   31   3.337   1.536  11.774  1.8344  2.5781  0.0534
    2MPD2    N1   32   3.139   1.375  12.283 -0.8431 -0.4945  0.1238
    2MPD2    H7   33   3.168   1.461  12.328 -0.2870 -0.6417  0.0515
    3TMC1    C1   34   2.307   4.290  10.268  0.2906 -0.1376  0.1132
    3TMC1    C2   35   2.386   4.363  10.355 -0.6128 -0.5051  0.2862
    3TMC1    C3   36   2.446   4.473  10.296  0.2850 -0.2314 -0.5023
    3TMC1    C4   37   2.292   4.316  10.142  0.3125  0.7515 -0.3388
    3TMC1    C5   38   2.361   4.425  10.094  0.8262 -0.2508 -0.1605
    3TMC1    C6   39   2.435   4.511  10.167  0.1572  0.2752  0.0001
    3TMC1     C   40   2.249   4.158  10.308  0.0431 -0.1528 -0.2159
    3TMC1     O   41   2.209   4.084  10.222  0.1279 -0.0300  0.1721
    3TMC1     H   42   2.409   4.328  10.455 -1.7339 -3.2917 -0.4329
    3TMC1    H1   43   2.218   4.273  10.076  0.1826 -0.0914  0.3702
    3TMC1    H2   44   2.507   4.577  10.119 -0.2037  0.3866 -0.3819
    3TMC1    C7   45   2.344   4.451   9.950 -0.1955  0.0004  0.2735
    3TMC1    C8   46   2.527   4.560  10.379  0.7472 -0.3268 -0.6723
    3TMC1    O1   47   2.311   4.358   9.875 -0.6099  0.2851  0.8750
    3TMC1    O2   48   2.523   4.683  10.372  0.1852 -0.0017  0.0459
    3TMC1    O3   49   2.288   4.574   9.944  0.0764 -0.0101  0.6800
    3TMC1    H3   50   2.316   4.634  10.016 -0.3606  0.6876  0.2755
    3TMC1    O5   51   2.586   4.488  10.474  0.1123 -0.2273  0.5113
    3TMC1    H5   52   2.597   4.392  10.453 -0.8782  0.0468 -1.1971
    4MPD2     C   53   2.157   3.803  10.665  0.2749 -0.0659 -0.0028
    4MPD2    C1   54   2.139   3.926  10.720 -0.1721  0.3922 -0.1951
    4MPD2    C2   55   2.175   4.039  10.653 -0.2834  0.5402 -0.0057
    4MPD2    C3   56   2.224   4.037  10.522  0.6623 -0.8091 -0.2611
    4MPD2    C4   57   2.252   3.909  10.471  0.0466 -0.0524  0.0068
    4MPD2    C5   58   2.221   3.800  10.543 -0.6804 -0.5581 -0.1659
    4MPD2     H   59   2.166   4.135  10.703  0.2631  0.6028 -0.0307
    4MPD2    H1   60   2.308   3.902  10.378  0.7888 -0.1058  0.4602
    4MPD2    H2   61   2.131   3.711  10.715  1.5732  0.8395  2.3018
    4MPD2    H3   62   2.253   3.701  10.512 -0.0251 -0.5150  0.3615
    4MPD2     N   63   2.249   4.152  10.445 -0.1661 -1.0912 -0.6993
    4MPD2    H5   64   2.233   4.240  10.493  0.9023 -0.3692 -1.6859
    4MPD2    N1   65   2.089   3.943  10.856  0.5356  0.2194 -0.1313
    4MPD2    H7   66   2.081   4.040  10.886  1.8083  0.6685 -1.2490
    5TCq1    O1   67   1.833   4.656  11.631  0.1667 -0.0454  0.3408
    5TCq1    C1   68   1.950   4.655  11.698 -0.2156 -0.0210 -0.3770
    5TCq1    O2   69   1.994   4.562  11.761 -0.5007 -0.3702 -0.9466
    5TCq1    C2   70   2.036   0.002  11.616 -0.2754 -0.6010  0.2100
    5TCq1    C3   71   1.984   0.120  11.568 -0.6376  0.1398 -0.8419
    5TCq1    C4   72   2.048   0.172  11.460 -0.0070  0.0456 -0.2953
    5TCq1    C5   73   2.144   0.102  11.390 -0.2284  0.1226  1.1574
    5TCq1    C6   74   2.204   0.005  11.458  0.1576  0.1107 -0.1633
    5TCq1    C7   75   2.155   4.684  11.574  0.9043 -0.3533 -0.5332
    5TCq1    C8   76   2.342   4.712  11.424 -0.3109  0.1020 -0.1793
    5TCq1    O4   77   2.382   4.609  11.469 -0.9434  0.3899  0.1937
    5TCq1    C9   78   1.996   0.295  11.408 -0.0283  0.2138  0.6455
    5TCq1    O5   79   2.055   0.345  11.309 -0.0045 -0.2922 -0.0022
    5TCq1    O6   80   1.888   0.337  11.458 -0.3979  0.1504  0.1257
    5TCq1    H1   81   1.821   4.715  11.553  0.3019 -0.2037  0.2015
    5TCq1    H2   82   1.904   0.178  11.613  0.7934  2.2384 -0.9772
    5TCq1    H3   83   2.190   0.150  11.304  0.8801 -0.0388  1.6568
    5TCq1    H4   84   2.211   4.610  11.631  2.2734 -0.3839 -1.8999
    6MPD2     C   85   2.598   0.196  11.295 -0.0826  0.2995 -0.0760
    6MPD2    C1   86   2.538   0.082  11.334 -0.9418 -0.4729  0.3572
    6MPD2    C2   87   2.607   4.695  11.319  0.5983  0.0948 -0.4121
    6MPD2    C3   88   2.730   4.692  11.257 -0.0635  0.3447  0.3806
    6MPD2    C4   89   2.787   0.079  11.214  0.2163  0.0322  0.7637
    6MPD2    C5   90   2.717   0.198  11.221 -0.3763 -0.5664 -0.5174
    6MPD2     H   91   2.566   4.596  11.335 -0.1869  0.7452  1.6225
    6MPD2    H1   92   2.889   0.081  11.179 -1.0666 -1.3439 -3.0169
    6MPD2    H2   93   2.545   0.290  11.303 -0.3622  0.1337  0.0333
    6MPD2    H3   94   2.768   0.291  11.198  2.0723 -1.9314 -0.7209
    6MPD2     N   95   2.791   4.564  11.228 -0.2603 -0.1728  0.5432
    6MPD2    H5   96   2.729   4.487  11.252  1.6751 -2.3333 -1.4134
    6MPD2    N1   97   2.408   0.089  11.378  0.2756  0.0715 -0.3145
    6MPD2    H7   98   2.362   0.179  11.369 -0.9002 -0.4930 -0.0016
    7TCq1    O1   99   4.396   3.232  12.874 -0.2770 -0.1277 -0.4170
    7TCq1    C1  100   4.532   3.241  12.861  0.8178 -1.2119  0.4974
    7TCq1    O2  101   4.594   3.344  12.868  0.3381 -0.5888  0.2747
    7TCq1    C2  102   4.583   3.106  12.871  0.6649  0.4140  0.3813
    7TCq1    C3  103   4.515   2.998  12.830  0.1074 -0.3053  0.3078
    7TCq1    C4  104   4.549   2.874  12.863  0.0471 -0.1297 -0.1575
    7TCq1    C5  105   4.656   2.849  12.945 -0.0843  0.8063  0.2228
    7TCq1    C6  106   0.001   2.958  12.984  0.1445  0.5834 -1.0760
    7TCq1    C7  107   4.701   3.093  12.941 -1.0131 -1.0768 -0.0603
    7TCq1    C8  108   0.109   2.942  13.078  0.0120  0.0949  0.3739
    7TCq1    O4  109   0.130   2.824  13.096  0.1957  0.0019 -0.0690
    7TCq1    C9  110   4.464   2.769  12.820  0.3293  0.1207  0.4334
    7TCq1    O5  111   4.366   2.805  12.745  0.6217  0.9627 -0.2816
    7TCq1    O6  112   4.504   2.652  12.832  0.0809  0.2155  0.2227
    7TCq1    H1  113   4.347   3.148  12.888  1.6931 -0.9855  1.2603
    7TCq1    H2  114   4.439   3.017  12.754 -0.1125 -2.5792 -0.0505
    7TCq1    H3  115   4.677   2.747  12.972 -1.3462  0.1385 -1.3081
    7TCq1    H4  116   0.022   3.181  12.975 -1.4948  0.1187 -2.3916
    8MPD2     C  117   0.542   3.079  13.320  0.1938 -0.1060  0.1974
    8MPD2    C1  118   0.472   2.960  13.328  0.6168 -0.0492  0.1023
    8MPD2    C2  119   0.348   2.947  13.257 -1.0057  0.4877  0.4790
    8MPD2    C3  120   0.302   3.054  13.180 -0.7031 -0.6531  0.1180
    8MPD2    C4  121   0.386   3.163  13.172 -0.2366  0.3282 -0.7142
    8MPD2    C5  122   0.496   3.180  13.248 -0.1117 -0.5065  0.0400
    8MPD2     H  123   0.292   2.854  13.260  0.2333 -0.2431  0.9362
    8MPD2    H1  124   0.366   3.249  13.108 -4.8623 -0.0262  0.2090
    8MPD2    H2  125   0.641   3.094  13.361 -0.2455  0.0311  1.2044
    8MPD2    H3  126   0.549   3.275  13.251 -0.6763 -0.1648 -0.9114
    8MPD2     N  127   0.190   3.048  13.093  0.2989 -0.2419 -0.0091
    8MPD2    H5  128   0.172   3.136  13.046  0.4554 -0.0077  0.3695
    8MPD2    N1  129   0.526   2.861  13.413 -0.1068  0.2368 -0.5136
    8MPD2    H7  130   0.619   2.888  13.446  0.2492 -1.5997 -0.0009
    9TMC1    C1  131   2.495   2.583  11.409  0.2056  0.4029  0.4459
    9TMC1    C2  132   2.484   2.645  11.291  0.3826  1.3450 -0.4842
    9TMC1    C3  133   2.586   2.642  11.203 -0.5253 -0.5869 -0.1646
    9TMC1    C4  134   2.619   2.523  11.433 -0.4545 -0.0410 -0.6409
    9TMC1    C5  135   2.726   2.529  11.352 -0.3007 -0.2978 -0.1693
    9TMC1    C6  136   2.715   2.592  11.231  0.5075 -0.4180 -0.6093
    9TMC1     C  137   2.382   2.558  11.489 -0.2026  0.0808  0.4956
    9TMC1     O  138   2.280   2.553  11.422  0.1481  0.2866 -0.0130
    9TMC1     H  139   2.388   2.679  11.255  0.5379  2.1538 -0.1137
    9TMC1    H1  140   2.635   2.457  11.517 -0.8687  0.0758 -0.4719
    9TMC1    H2  141   2.792   2.614  11.159  2.5141 -0.1567  1.5966
    9TMC1    C7  142   2.843   2.445  11.391 -0.0913 -0.3621 -0.3209
    9TMC1    C8  143   2.582   2.733  11.084  0.3835 -0.4538  0.8103
    9TMC1    O1  144   2.866   2.422  11.511 -0.5714 -0.1931 -0.4013
    9TMC1    O2  145   2.653   2.708  10.989 -1.2559  0.1306  0.4420
    9TMC1    O3  146   2.925   2.417  11.283  0.0040  0.5949 -0.4609
    9TMC1    H3  147   2.902   2.461  11.199 -0.1084  0.7008 -0.3743
    9TMC1    O5  148   2.569   2.855  11.135  0.2201 -0.6245  0.5253
    9TMC1    H5  149   2.545   2.862  11.230  1.5681 -1.5000  0.9327
   10MPD2     C  150   2.214   2.468  11.711 -0.0996 -0.4777 -0.3756
   10MPD2    C1  151   2.350   2.476  11.720  0.0822  0.0334 -0.5472
   10MPD2    C2  152   2.411   2.435  11.839 -0.3244  0.5149 -0.4221
   10MPD2    C3  153   2.333   2.384  11.941 -0.1887 -0.5501 -0.5529
   10MPD2    C4  154   2.195   2.375  11.928  0.4871  0.6458  0.7632
   10MPD2    C5  155   2.139   2.406  11.807 -0.3319  0.0107 -0.1370
   10MPD2     H  156   2.519   2.429  11.844 -0.5351 -0.7752  2.7946
   10MPD2    H1  157   2.143   2.320  12.006  1.7672 -1.4611  0.1446
   10MPD2    H2  158   2.166   2.489  11.617 -1.5117  0.3673  0.5333
   10MPD2    H3  159   2.035   2.385  11.784 -1.2126  0.7036  3.2322
   10MPD2     N  160   2.390   2.341  12.063 -0.2215 -0.1644 -0.7431
   10MPD2    H5  161   2.339   2.271  12.115 -0.0517  1.1152  1.1306
   10MPD2    N1  162   2.425   2.527  11.616  0.4728  0.4763 -0.3763
   10MPD2    H7  163   2.521   2.557  11.631  0.2023  1.7088 -1.1513
   11TCq1    O1  164   4.052   1.973  14.604 -0.0523 -0.3111  0.0344
   11TCq1    C1  165   3.930   1.910  14.635 -0.0511 -0.0073 -0.1174
   11TCq1    O2  166   3.891   1.808  14.580 -0.0634 -0.1323  0.2346
   11TCq1    C2  167   3.833   2.007  14.683  0.7251  0.0215  0.0260
   11TCq1    C3  168   3.880   2.125  14.748  0.0439 -0.4724 -0.6102
   11TCq1    C4  169   3.790   2.206  14.805 -0.2743  0.3450  0.6633
   11TCq1    C5  170   3.657   2.172  14.816 -0.0221 -0.1017 -0.1485
   11TCq1    C6  171   3.618   2.056  14.756 -0.6313 -0.2650  0.1033
   11TCq1    C7  172   3.701   1.984  14.671 -0.4306 -0.1184  0.5514
   11TCq1    C8  173   3.470   2.039  14.751 -0.1542 -0.0203  0.4110
   11TCq1    O4  174   3.400   2.137  14.780  0.8322 -0.2444 -0.0708
   11TCq1    C9  175   3.841   2.322  14.867  0.1573 -0.7694 -0.1246
   11TCq1    O5  176   3.968   2.339  14.855  0.4292  0.1254 -0.0161
   11TCq1    O6  177   3.768   2.394  14.932 -0.1480 -0.7157  0.1706
   11TCq1    H1  178   4.039   2.070  14.616  2.8970 -0.2487  2.6105
   11TCq1    H2  179   3.986   2.143  14.766 -0.3316  0.7787  0.3271
   11TCq1    H3  180   3.581   2.225  14.872 -1.8043 -1.1550 -1.5882
   11TCq1    H4  181   3.659   1.892  14.632 -1.1274  0.2953  0.3303
   12MPD2     C  182   3.190   1.919  14.712 -0.6744 -0.3732  0.0062
   12MPD2    C1  183   3.309   1.867  14.672  0.0592 -0.5602  0.1848
   12MPD2    C2  184   3.305   1.750  14.600 -0.4431 -0.0422  0.2964
   12MPD2    C3  185   3.187   1.684  14.555  0.6579  0.1781  0.1640
   12MPD2    C4  186   3.073   1.739  14.600  0.3889 -0.5575 -0.3845
   12MPD2    C5  187   3.071   1.852  14.675 -0.0259 -1.2938 -0.2380
   12MPD2     H  188   3.400   1.702  14.579  0.0328  0.6360  0.9220
   12MPD2    H1  189   2.972   1.703  14.587  0.6161 -1.0592 -0.7832
   12MPD2    H2  190   3.185   2.014  14.763  1.6148  0.6943 -1.7842
   12MPD2    H3  191   2.974   1.888  14.706 -0.6491 -1.3974 -2.0581
   12MPD2     N  192   3.178   1.562  14.487 -0.4250  0.0640 -0.6019
   12MPD2    H5  193   3.091   1.510  14.488 -0.5090  0.2704  1.3233
   12MPD2    N1  194   3.436   1.916  14.706 -0.2773  0.1355 -0.0132
   12MPD2    H7  195   3.512   1.851  14.691 -1.5604 -1.2587 -0.5084
   13TCq1    O1  196   2.755   2.036  12.026  0.2216 -0.2944  0.2669
   13TCq1    C1  197   2.725   1.943  11.927  0.3855 -0.4803  0.7188
   13TCq1    O2  198   2.621   1.880  11.935  0.5004  0.3991 -0.1942
   13TCq1    C2  199   2.776   1.990  11.799 -0.6644 -0.7043  0.9058
   13TCq1    C3  200   2.903   2.030  11.808 -0.7809 -0.3084  0.2220
   13TCq1    C4  201   2.958   2.083  11.695  0.1691  0.3661  0.4878
   13TCq1    C5  202   2.875   2.110  11.584 -0.2546  0.6759  0.4422
   13TCq1    C6  203   2.747   2.061  11.589  0.7939 -0.0755  0.2148
   13TCq1    C7  204   2.693   1.989  11.692 -0.1684 -0.7350 -0.4175
   13TCq1    C8  205   2.651   2.101  11.488  0.3247 -0.2083 -0.1010
   13TCq1    O4  206   2.531   2.072  11.511 -0.5870  0.6414  0.6467
   13TCq1    C9  207   3.100   2.116  11.687 -0.2222 -0.4530  0.8838
   13TCq1    O5  208   3.154   2.120  11.574  0.6141 -0.0007  0.2294
   13TCq1    O6  209   3.169   2.091  11.794  0.2336 -0.3555 -0.1711
   13TCq1    H1  210   2.832   2.090  12.000  0.4398 -1.1538 -0.8793
   13TCq1    H2  211   2.956   2.010  11.900  1.0986  1.8190 -0.3907
   13TCq1    H3  212   2.919   2.153  11.495  0.2574 -1.0104 -0.1258
   13TCq1    H4  213   2.593   1.948  11.696 -0.8325  0.8203 -1.1491
   14MPD2     C  214   2.690   2.238  11.154  0.2108  0.2679  0.0044
   14MPD2    C1  215   2.627   2.214  11.268 -0.0557  0.2263 -0.0188
   14MPD2    C2  216   2.494   2.238  11.275  0.6899  0.0659  0.2722
   14MPD2    C3  217   2.422   2.297  11.166 -0.3860  0.7104 -0.8038
   14MPD2    C4  218   2.489   2.327  11.055  0.1756  0.0542 -0.4406
   14MPD2    C5  219   2.623   2.296  11.046  0.1242 -0.5589  0.0008
   14MPD2     H  220   2.453   2.240  11.375 -1.5780 -0.6309 -0.6463
   14MPD2    H1  221   2.445   2.368  10.965 -1.5092  0.4971  0.5875
   14MPD2    H2  222   2.795   2.215  11.140 -0.5029 -2.0090 -1.6538
   14MPD2    H3  223   2.677   2.325  10.957  2.3953 -0.0451  1.5311
   14MPD2     N  224   2.297   2.352  11.192 -0.5792 -0.7738  0.0178
   14MPD2    H5  225   2.251   2.320  11.277  2.1160  0.3930  1.9093
   14MPD2    N1  226   2.700   2.175  11.380  0.1903  0.1505 -0.1013
   14MPD2    H7  227   2.801   2.179  11.369  0.1477 -1.3146 -1.0222
   15TCq1    O1  228   0.950   2.324   2.209  0.1951 -0.0505 -0.4716
   15TCq1    C1  229   0.829   2.301   2.147  0.4024 -0.5955 -0.2490
   15TCq1    O2  230   0.714   2.299   2.201 -0.5895 -0.4921 -0.5134
   15TCq1    C2  231   0.861   2.254   2.010  0.1827  0.2146  0.7830
   15TCq1    C3  232   0.971   2.302   1.944  0.2140 -0.2411  0.1977
   15TCq1    C4  233   1.009   2.254   1.827 -0.6837  0.2670  0.0242
   15TCq1    C5  234   0.927   2.163   1.769  0.0756 -0.4456 -0.5336
   15TCq1    C6  235   0.806   2.120   1.827 -0.4493  0.4003 -0.0748
   15TCq1    C7  236   0.777   2.160   1.956 -0.0740  0.4365  0.2571
   15TCq1    C8  237   0.736   2.007   1.767 -0.1898  0.2539  0.0707
   15TCq1    O4  238   0.807   1.945   1.684 -0.7058 -0.5847  0.1122
   15TCq1    C9  239   1.125   2.300   1.755  0.5535 -0.2726 -0.4521
   15TCq1    O5  240   1.162   2.418   1.786  0.1448 -0.5750  0.1073
   15TCq1    O6  241   1.164   2.224   1.661 -0.6803  0.6245  0.2171
   15TCq1    H1  242   1.024   2.301   2.148  1.7512  0.6501  1.1282
   15TCq1    H2  243   1.028   2.382   1.989 -2.5001  1.3902  0.7277
   15TCq1    H3  244   0.950   2.129   1.668 -3.1205 -1.6789 -0.8471
   15TCq1    H4  245   0.701   2.121   2.023 -0.7758  2.0173  0.3811
   16MPD2     C  246   0.381   1.901   1.767  0.9088 -0.4943  0.1033
   16MPD2    C1  247   0.518   1.896   1.751 -1.3587 -0.0948  0.0377
   16MPD2    C2  248   0.577   1.781   1.692  0.5113 -0.2227 -0.5879
   16MPD2    C3  249   0.497   1.672   1.666  0.0670  0.4371  0.5320
   16MPD2    C4  250   0.358   1.678   1.676 -0.5360  0.3852 -0.7445
   16MPD2    C5  251   0.307   1.796   1.724  0.5744  0.1670  0.1852
   16MPD2     H  252   0.685   1.769   1.689  0.5575  1.3219 -4.7029
   16MPD2    H1  253   0.281   1.605   1.655 -0.2682 -0.3788  0.9886
   16MPD2    H2  254   0.331   1.989   1.804  0.7786  0.1945 -1.7136
   16MPD2    H3  255   0.202   1.792   1.751  0.4925 -0.1897 -0.1930
   16MPD2     N  256   0.561   1.549   1.646 -0.0253  0.3364  0.1568
   16MPD2    H5  257   0.661   1.550   1.660 -0.1072  0.7959  0.6987
   16MPD2    N1  258   0.599   1.997   1.793 -0.2466  0.2960 -0.0892
   16MPD2    H7  259   0.558   2.055   1.865  0.0328  1.2622 -0.7160
   17TMC1    C1  260   3.201   0.860  12.073  0.3262 -0.4918  0.4955
   17TMC1    C2  261   3.334   0.892  12.073  0.0256 -0.7787  0.6218
   17TMC1    C3  262   3.397   0.902  12.192  0.3659 -1.0087  0.2398
   17TMC1    C4  263   3.127   0.861  12.185 -0.4436  0.8207 -0.3775
   17TMC1    C5  264   3.190   0.904  12.301 -0.1919 -0.9450  0.0288
   17TMC1    C6  265   3.326   0.921  12.305 -0.5408  0.0493  0.1640
   17TMC1     C  266   3.134   0.833  11.949 -0.3197  0.8200  0.3345
   17TMC1     O  267   3.028   0.776  11.956 -0.4626 -0.0675  0.2829
   17TMC1     H  268   3.390   0.885  11.981 -1.5269 -1.2479 -0.2846
   17TMC1    H1  269   3.024   0.827  12.177  0.2636 -1.0794 -1.5318
   17TMC1    H2  270   3.377   0.936  12.399  0.0936  0.1693 -0.1971
   17TMC1    C7  271   3.131   0.883  12.427 -0.2655 -0.2504  1.3694
   17TMC1    C8  272   3.544   0.900  12.185 -0.4348 -0.0179  0.1364
   17TMC1    O1  273   3.173   0.921  12.537 -0.7481  0.2221  0.0302
   17TMC1    O2  274   3.601   0.897  12.079 -0.0370  0.2631  0.3399
   17TMC1    O3  275   3.079   0.757  12.418 -0.2282 -0.1778 -0.2430
   17TMC1    H3  276   3.075   0.729  12.324 -0.9465 -1.0993  0.0557
   17TMC1    O5  277   3.584   0.826  12.294  0.2073 -0.2681 -0.3861
   17TMC1    H5  278   3.512   0.772  12.331  1.0545 -1.6690 -0.7729
   18MPD2     C  279   3.034   0.838  11.668 -0.2782 -0.2763  0.5395
   18MPD2    C1  280   3.139   0.913  11.709  0.8066 -0.3433 -1.0435
   18MPD2    C2  281   3.205   0.992  11.617  0.2285  0.5839  0.5066
   18MPD2    C3  282   3.157   1.017  11.489 -0.6631  0.4621  0.7594
   18MPD2    C4  283   3.052   0.934  11.451 -0.5122 -0.1447 -0.5144
   18MPD2    C5  284   2.997   0.844  11.537 -0.2894 -0.1624 -0.1736
   18MPD2     H  285   3.276   1.058  11.666 -0.4229  0.4731  1.6013
   18MPD2    H1  286   3.002   0.958  11.358  0.2749 -0.4376 -1.0168
   18MPD2    H2  287   2.967   0.780  11.730 -1.0798  0.3339  0.2329
   18MPD2    H3  288   2.908   0.786  11.512  0.1002 -0.5561 -0.6547
   18MPD2     N  289   3.192   1.118  11.404  0.2073 -0.7284  0.6818
   18MPD2    H5  290   3.126   1.134  11.329  2.2970  0.5739 -0.9057
   18MPD2    N1  291   3.194   0.906  11.842 -0.6454 -0.4239 -0.2757
   18MPD2    H7  292   3.275   0.966  11.854  0.8014 -2.5287  0.4740
   19TMC2    C1  293   4.380   1.806  14.219 -0.1028  0.0362  0.3256
   19TMC2    C2  294   4.281   1.890  14.174  0.1492  0.4440 -1.0273
   19TMC2    C3  295   4.169   1.896  14.243 -0.5828  0.1398 -0.2424
   19TMC2    C4  296   4.362   1.733  14.338  0.1214 -0.3352 -0.1367
   19TMC2    C5  297   4.242   1.744  14.401 -0.3273  1.2558 -0.5526
   19TMC2    C6  298   4.147   1.832  14.354 -0.2141 -0.8256  0.4651
   19TMC2     C  299   4.512   1.824  14.166 -0.3142 -0.0802  1.5542
   19TMC2     O  300   4.519   1.926  14.102 -0.1528  0.1850  0.3044
   19TMC2     H  301   4.294   1.944  14.080  1.1498  0.0250 -1.1359
   19TMC2    H1  302   4.431   1.668  14.390  0.7620  1.1716  0.9058
   19TMC2    H2  303   4.051   1.847  14.401  0.2047  1.1575  0.6968
   19TMC2    C7  304   4.186   1.610  14.424 -0.3375 -0.3085  0.1871
   19TMC2    C8  305   4.037   1.924  14.182 -0.9239 -0.2313  0.1575
   19TMC2    O1  306   4.260   1.521  14.463 -0.2046  0.6508  0.0697
   19TMC2    O2  307   3.952   1.836  14.186 -0.6855  0.2349 -0.4286
   19TMC2    O5  308   4.054   2.000  14.079  0.2701  0.1312  0.2535
   19TMC2    H5  309   4.119   2.069  14.104 -1.4249  2.1371 -0.8596
   20MPD2     C  310   0.058   1.830  14.071 -0.6490  0.2730  0.2936
   20MPD2    C1  311   0.013   1.736  14.165 -0.7653  0.5213  0.2039
   20MPD2    C2  312   0.104   1.646  14.220  0.2946 -0.4921  0.3256
   20MPD2    C3  313   0.237   1.657  14.178 -0.0963 -0.2522 -0.5986
   20MPD2    C4  314   0.274   1.754  14.082 -0.0336  0.2546 -0.2914
   20MPD2    C5  315   0.186   1.841  14.028 -0.0985  0.5617 -0.1690
   20MPD2     H  316   0.060   1.576  14.289  0.1360 -2.6504 -1.9698
   20MPD2    H1  317   0.376   1.754  14.048  0.6273  0.9231  1.6888
   20MPD2    H2  318   4.712   1.869  14.007 -0.5220  1.2361  0.7324
   20MPD2    H3  319   0.214   1.911  13.950 -2.9456 -0.5151 -2.1836
   20MPD2     N  320   0.341   1.596  14.245 -0.0991 -0.0647  0.3397
   20MPD2    H5  321   0.437   1.617  14.223 -0.0021 -1.1323 -0.2636
   20MPD2    N1  322   4.611   1.740  14.215  0.1165  0.1341 -0.2402
   20MPD2    H7  323   4.594   1.660  14.275  0.9113  0.5500  0.5371
   21TMC2    C1  324   2.030   1.846  15.253  0.5224  0.1584 -0.2468
   21TMC2    C2  325   2.037   1.745  15.346  0.5117 -0.3406 -0.2023
   21TMC2    C3  326   1.932   1.725  15.425  0.7700  0.0799  0.2829
   21TMC2    C4  327   1.915   1.924  15.235  0.3175  0.0460 -0.2756
   21TMC2    C5  328   1.810   1.897  15.325  0.6500  0.1720 -0.0136
   21TMC2    C6  329   1.816   1.800  15.422 -0.3233 -1.0311 -0.7140
   21TMC2     C  330   2.148   1.871  15.180 -0.5883 -0.0296 -0.4896
   21TMC2     O  331   2.225   1.780  15.151 -0.0265  0.1357 -0.0079
   21TMC2     H  332   2.127   1.686  15.359 -0.5152 -1.8673  0.0345
   21TMC2    H1  333   1.902   2.000  15.159  1.6769  0.1102 -0.4401
   21TMC2    H2  334   1.742   1.801  15.501 -0.2458 -0.6675 -0.6466
   21TMC2    C7  335   1.700   1.991  15.344 -0.6439 -0.5771  0.0412
   21TMC2    C8  336   1.955   1.662  15.550  0.1108 -0.2714 -0.2130
   21TMC2    O1  337   1.650   2.001  15.458  0.1822 -0.1302  0.0480
   21TMC2    O2  338   2.051   1.586  15.557  0.4046 -1.1401  0.0712
   21TMC2    O5  339   1.951   1.752  15.641 -0.5034  0.1058  0.0470
   21TMC2    H5  340   1.914   1.840  15.619 -2.3605 -0.7660 -0.3380
   22MPD2     C  341   2.493   2.197  14.970  0.8914 -0.5680 -0.4221
   22MPD2    C1  342   2.506   2.065  15.013  0.2503  0.1332  0.0856
   22MPD2    C2  343   2.401   1.993  15.060  0.3534  0.2958  0.4153
   22MPD2    C3  344   2.271   2.052  15.072 -0.1255 -0.8248  0.3841
   22MPD2    C4  345   2.261   2.188  15.029 -0.4758 -0.3513 -0.3986
   22MPD2    C5  346   2.373   2.260  14.977  0.2500 -0.4514 -0.3936
   22MPD2     H  347   2.417   1.900  15.114  1.7726  0.0697 -0.4089
   22MPD2    H1  348   2.168   2.243  15.037  0.7986  1.8718 -1.0328
   22MPD2    H2  349   2.579   2.258  14.944  1.2586 -1.0575 -0.3441
   22MPD2    H3  350   2.369   2.366  14.954  0.7722 -0.0171  1.4863
   22MPD2     N  351   2.151   1.999  15.124  0.5208  0.3625  0.2024
   22MPD2    H5  352   2.077   2.068  15.131  0.8307  1.0583 -3.3941
   22MPD2    N1  353   2.631   1.997  15.002  0.1402 -0.4047 -0.4714
   22MPD2    H7  354   2.638   1.899  15.029 -1.7978 -0.9295 -1.8790
   23TMC2    C1  355   3.503   3.297  14.957 -0.5201 -0.6488 -0.2246
   23TMC2    C2  356   3.501   3.402  14.861 -0.4411  0.6553  0.3233
   23TMC2    C3  357   3.468   3.367  14.735 -0.9737  0.5610 -0.2738
   23TMC2    C4  358   3.455   3.173  14.927 -0.2503 -0.1959  0.0187
   23TMC2    C5  359   3.404   3.157  14.799  0.3033  0.9496  0.1947
   23TMC2    C6  360   3.411   3.250  14.701  0.5285 -0.6255  0.1354
   23TMC2     C  361   3.539   3.321  15.094 -0.2504  0.1009 -0.7700
   23TMC2     O  362   3.589   3.220  15.146 -0.0782  0.4671  0.5519
   23TMC2     H  363   3.559   3.490  14.886  0.6026 -0.7744  2.8880
   23TMC2    H1  364   3.446   3.089  14.995 -1.3371  0.0078  0.1346
   23TMC2    H2  365   3.365   3.240  14.603  1.0019  0.8429 -0.2417
   23TMC2    C7  366   3.321   3.036  14.775 -0.2837 -0.1047 -0.7323
   23TMC2    C8  367   3.475   3.459  14.625  0.5044 -0.5608 -0.1118
   23TMC2    O1  368   3.349   2.940  14.844  0.3744 -0.3387 -0.1658
   23TMC2    O2  369   3.569   3.535  14.617 -0.0469  0.4190  0.0349
   23TMC2    O5  370   3.350   3.505  14.621  0.4106  0.2416  0.1740
   23TMC2    H5  371   3.287   3.456  14.678 -0.9221 -0.0646 -1.5807
   24MPD2     C  372   3.641   3.610  15.502 -0.1834  0.1629 -0.4499
   24MPD2    C1  373   3.660   3.471  15.481  0.4791 -0.4992  0.1320
   24MPD2    C2  374   3.637   3.415  15.359 -0.0623 -0.0240  0.1142
   24MPD2    C3  375   3.583   3.499  15.258 -0.8292 -0.3450 -0.2388
   24MPD2    C4  376   3.551   3.634  15.282 -0.4349  0.2149  0.2726
   24MPD2    C5  377   3.582   3.689  15.406  0.4925 -0.2084 -0.1432
   24MPD2     H  378   3.665   3.313  15.336 -2.6131 -0.3163 -1.6393
   24MPD2    H1  379   3.504   3.699  15.209 -2.7485  0.9240  2.3871
   24MPD2    H2  380   3.673   3.662  15.591 -1.5146  0.2506 -0.0117
   24MPD2    H3  381   3.562   3.794  15.423  0.7206 -0.1133 -0.4683
   24MPD2     N  382   3.541   3.455  15.129  0.1293  0.2667 -0.0458
   24MPD2    H5  383   3.494   3.523  15.070 -2.1946 -0.3753  1.0625
   24MPD2    N1  384   3.717   3.389  15.578 -0.6473 -0.6173 -0.0215
   24MPD2    H7  385   3.750   3.298  15.549 -0.9868 -0.9495  0.6249
   25TMC2    C1  386   2.758   1.330  11.946 -0.2845  0.2567  0.1195
   25TMC2    C2  387   2.829   1.447  11.936  0.3340 -0.1573 -0.0262
   25TMC2    C3  388   2.794   1.542  12.027  0.1043  0.0484 -0.0191
   25TMC2    C4  389   2.655   1.315  12.039 -0.0538 -0.3487 -0.8197
   25TMC2    C5  390   2.627   1.418  12.130 -0.1710 -0.4271  0.4179
   25TMC2    C6  391   2.699   1.529  12.130 -0.9111  0.1540 -0.8015
   25TMC2     C  392   2.760   1.250  11.829 -0.8403  0.1876  0.2119
   25TMC2     O  393   2.850   1.282  11.755  0.6387 -0.1567  0.2272
   25TMC2     H  394   2.903   1.460  11.857 -1.0961  1.3712 -1.1076
   25TMC2    H1  395   2.588   1.230  12.035 -0.6096 -0.0232  1.1597
   25TMC2    H2  396   2.674   1.609  12.199  0.2897  0.8583 -1.1697
   25TMC2    C7  397   2.527   1.396  12.230  0.0422 -0.8552  0.3256
   25TMC2    C8  398   2.876   1.658  12.043 -0.0201  0.5937 -0.1316
   25TMC2    O1  399   2.519   1.278  12.274  0.2073  0.0030  0.3543
   25TMC2    O2  400   2.891   1.715  12.152  0.6283  0.1386 -0.5879
   25TMC2    O5  401   2.917   1.707  11.922  0.1267 -0.0778  0.5381
   25TMC2    H5  402   2.872   1.661  11.847  0.9138  1.0171 -0.5964
   26MPD2     C  403   2.594   0.907  11.472  0.3212 -0.5802  0.0686
   26MPD2    C1  404   2.498   0.910  11.583 -0.2663  0.1397  0.3710
   26MPD2    C2  405   2.513   1.002  11.686 -0.2942 -0.0620 -0.1003
   26MPD2    C3  406   2.624   1.081  11.698  0.4787  0.1177  0.8183
   26MPD2    C4  407   2.716   1.076  11.593 -0.5264 -0.3379  0.2188
   26MPD2    C5  408   2.706   0.988  11.488 -0.3293  0.0255 -0.3279
   26MPD2     H  409   2.455   1.005  11.777 -0.6073 -1.8819 -0.2333
   26MPD2    H1  410   2.799   1.145  11.589 -2.3814  1.8366 -1.4404
   26MPD2    H2  411   2.599   0.829  11.397 -1.9174 -1.5266  0.9049
   26MPD2    H3  412   2.766   0.996  11.397 -1.5310 -1.2084 -1.2335
   26MPD2     N  413   2.643   1.163  11.811  0.0943 -0.4766 -0.1431
   26MPD2    H5  414   2.571   1.166  11.881 -2.2532 -0.9955 -2.5447
   26MPD2    N1  415   2.382   0.838  11.563  0.2635  0.4499 -0.5135
   26MPD2    H7  416   2.377   0.782  11.479  0.1383 -1.0675  0.5071
   27TMC2    C1  417   1.334   3.043  12.290  0.4404  0.1134 -0.3361
   27TMC2    C2  418   1.398   3.142  12.222  0.5690  0.3143  0.6802
   27TMC2    C3  419   1.515   3.195  12.265  0.2239  0.2870  0.2633
   27TMC2    C4  420   1.391   2.991  12.400 -0.2603  0.6658 -0.2629
   27TMC2    C5  421   1.499   3.052  12.453  0.0332  0.3001  0.4407
   27TMC2    C6  422   1.567   3.152  12.388 -0.2015  0.4744  0.2483
   27TMC2     C  423   1.211   2.998  12.235  0.8926 -0.4233 -0.2563
   27TMC2     O  424   1.192   3.009  12.114 -0.3060 -0.3745  0.0550
   27TMC2     H  425   1.354   3.176  12.128 -0.9675  0.0668  1.3064
   27TMC2    H1  426   1.348   2.912  12.460  2.1166  0.2890  0.9307
   27TMC2    H2  427   1.662   3.195  12.416  0.7337 -0.7118 -1.0733
   27TMC2    C7  428   1.548   3.003  12.584  0.2996 -0.0819  0.4478
   27TMC2    C8  429   1.562   3.321  12.207 -0.1475 -0.6878  0.5476
   27TMC2    O1  430   1.530   2.886  12.615 -0.0045 -0.1292 -0.5755
   27TMC2    O2  431   1.684   3.337  12.213  0.3658 -0.1561  0.4959
   27TMC2    O5  432   1.464   3.408  12.177 -0.5576  0.5644 -0.0217
   27TMC2    H5  433   1.371   3.376  12.171 -1.2262  2.3691  0.8662
   28MPD2     C  434   0.749   2.779  12.275 -0.0708  0.6855  0.3195
   28MPD2    C1  435   0.759   2.854  12.389 -0.2236 -0.6391  0.2983
   28MPD2    C2  436   0.886   2.919  12.399 -0.6852 -0.1654  0.1108
   28MPD2    C3  437   0.989   2.914  12.305 -0.1721  0.1932 -0.7622
   28MPD2    C4  438   0.965   2.843  12.192  0.2661  0.2793  0.2114
   28MPD2    C5  439   0.851   2.768  12.185  0.3621  0.2011 -0.2587
   28MPD2     H  440   0.913   2.964  12.493 -4.5080  0.8553  0.7272
   28MPD2    H1  441   1.041   2.831  12.116  0.6754  0.1945  0.6352
   28MPD2    H2  442   0.667   2.710  12.257  0.9829 -0.9865  1.8863
   28MPD2    H3  443   0.829   2.713  12.094  0.2658  2.1514 -1.4048
   28MPD2     N  444   1.118   2.970  12.332  0.2992 -0.3780  0.4184
   28MPD2    H5  445   1.124   3.015  12.423 -2.3436 -1.1100  0.9717
   28MPD2    N1  446   0.660   2.848  12.485 -0.2357 -0.9094  0.1266
   28MPD2    H7  447   0.584   2.780  12.479 -3.2057  2.4411 -0.4804
   29TMC2    C1  448   0.973   0.711  14.455  0.2212 -0.1778 -0.0759
   29TMC2    C2  449   0.899   0.758  14.559  0.0077  0.4574 -0.0602
   29TMC2    C3  450   0.937   0.877  14.615 -0.2293 -0.4031  0.3257
   29TMC2    C4  451   1.096   0.768  14.432  0.4444  0.6109 -0.5815
   29TMC2    C5  452   1.132   0.884  14.491  0.1885  0.2910  1.0065
   29TMC2    C6  453   1.053   0.943  14.581 -0.4026 -0.3143 -0.4117
   29TMC2     C  454   0.941   0.587  14.389 -0.1371 -0.8613  0.5393
   29TMC2     O  455   1.027   0.529  14.332  0.0967  0.4045 -0.0679
   29TMC2     H  456   0.799   0.722  14.582  0.2548  0.4623  1.0249
   29TMC2    H1  457   1.165   0.718  14.366 -0.6107 -0.9272 -0.5137
   29TMC2    H2  458   1.069   1.046  14.611 -0.2676 -0.6094  0.5225
   29TMC2    C7  459   1.258   0.942  14.441  0.4395 -0.1605 -0.4090
   29TMC2    C8  460   0.847   0.944  14.702 -0.1235  0.3340  0.1318
   29TMC2    O1  461   1.289   0.927  14.321 -0.3099  0.1596 -0.1213
   29TMC2    O2  462   0.855   0.929  14.824  0.3673  0.1461 -0.4684
   29TMC2    O5  463   0.808   1.051  14.628 -0.4686 -0.0336  1.4245
   29TMC2    H5  464   0.820   1.031  14.532  0.1943 -0.6357  1.6360
   30MPD2     C  465   0.615   0.218  14.274  0.3572 -0.3829 -0.3918
   30MPD2    C1  466   0.753   0.211  14.279 -0.7517 -0.1487  0.1469
   30MPD2    C2  467   0.822   0.326  14.317  0.3770 -0.1074  0.0849
   30MPD2    C3  468   0.751   0.440  14.352 -0.2445 -0.5468 -0.9507
   30MPD2    C4  469   0.612   0.432  14.360 -0.2045  0.2918  0.1439
   30MPD2    C5  470   0.545   0.326  14.315 -0.1279  0.0907 -0.0185
   30MPD2     H  471   0.930   0.317  14.327  0.2097 -0.6957  1.4382
   30MPD2    H1  472   0.562   0.520  14.400 -2.4600 -1.6436  1.5458
   30MPD2    H2  473   0.548   0.138  14.243 -0.1585 -0.0309 -0.1736
   30MPD2    H3  474   0.437   0.325  14.326 -0.1037  2.9773  0.3689
   30MPD2     N  475   0.810   0.561  14.386 -0.3002 -0.0936  0.1412
   30MPD2    H5  476   0.751   0.633  14.428 -0.0854 -0.1518  0.5393
   30MPD2    N1  477   0.823   0.098  14.243 -0.2300 -0.2944 -0.1992
   30MPD2    H7  478   0.925   0.102  14.246 -0.3180  1.1284  0.8289
   31TMC2    C1  479   3.335   3.901  15.912  0.0555  0.3371  1.2484
   31TMC2    C2  480   3.206   3.944  15.913  0.8489 -0.1311  0.8062
   31TMC2    C3  481   3.123   3.909  16.022 -0.4505 -0.0890 -0.2542
   31TMC2    C4  482   3.382   3.815  16.008  0.2426 -0.1304 -0.4381
   31TMC2    C5  483   3.298   3.778  16.112  0.1792 -0.6768 -0.0048
   31TMC2    C6  484   3.167   3.816  16.122  0.5356  0.3368  0.0113
   31TMC2     C  485   3.410   3.925  15.797  0.6134  0.2613  0.0067
   31TMC2     O  486   3.355   3.973  15.703  0.2107  0.2313  0.2212
   31TMC2     H  487   3.177   4.016  15.837  1.8351 -0.2341  0.3275
   31TMC2    H1  488   3.482   3.773  16.005  0.6672  0.8885 -0.5817
   31TMC2    H2  489   3.104   3.802  16.209  0.3278 -0.0929 -0.2116
   31TMC2    C7  490   3.361   3.754  16.236 -0.5480 -0.5318  0.9382
   31TMC2    C8  491   2.990   3.948  16.020  0.3584  0.2137  1.2523
   31TMC2    O1  492   3.315   3.666  16.307 -0.2097  0.7082 -0.0742
   31TMC2    O2  493   2.919   3.896  16.107 -0.3554  0.1280 -1.1944
   31TMC2    O5  494   2.980   4.077  15.999 -0.3194  0.0835  0.1166
   31TMC2    H5  495   3.063   4.109  15.958  0.9751 -2.1281  1.0135
   32MPD2     C  496   3.870   3.986  15.570  0.4732  0.8539  0.2111
   32MPD2    C1  497   3.747   3.998  15.522  0.4668 -0.4944  0.3440
   32MPD2    C2  498   3.637   3.960  15.598  0.8262  0.0899 -0.0230
   32MPD2    C3  499   3.648   3.921  15.733 -0.3585  0.2556 -0.6361
   32MPD2    C4  500   3.782   3.916  15.778  0.4456 -0.0061 -0.1133
   32MPD2    C5  501   3.887   3.944  15.698  0.4017 -0.0682 -0.1831
   32MPD2     H  502   3.537   3.968  15.559  0.5545 -0.5745  0.5321
   32MPD2    H1  503   3.798   3.902  15.884 -0.2097  0.1932  0.0127
   32MPD2    H2  504   3.954   4.019  15.510 -1.2219  2.1812 -1.4212
   32MPD2    H3  505   3.990   3.939  15.731  0.5181  2.3294 -0.2378
   32MPD2     N  506   3.542   3.901  15.818 -0.2247  0.2955  0.2391
   32MPD2    H5  507   3.570   3.860  15.906  3.7732  0.2455 -1.0762
   32MPD2    N1  508   3.735   4.051  15.395 -0.0880  0.3202 -0.6107
   32MPD2    H7  509   3.824   4.082  15.358 -0.2443 -2.0837 -3.0392
   33TMC2    C1  510   3.918   2.239  11.413 -0.1526 -0.2721 -0.4370
   33TMC2    C2  511   4.044   2.277  11.384 -0.4098  1.2337  0.1056
   33TMC2    C3  512   4.051   2.402  11.322  0.2575  0.6880  0.2692
   33TMC2    C4  513   3.804   2.300  11.358  0.3096 -0.1198 -0.9236
   33TMC2    C5  514   3.823   2.419  11.290 -0.1182 -0.2496 -0.4472
   33TMC2    C6  515   3.946   2.479  11.276 -0.1345  0.0281 -0.4487
   33TMC2     C  516   3.901   2.116  11.497  0.1787  0.0291  0.2186
   33TMC2     O  517   4.000   2.069  11.553  0.1728 -0.0901  0.4479
   33TMC2     H  518   4.131   2.229  11.428  1.3124  1.5237 -2.9892
   33TMC2    H1  519   3.710   2.272  11.402 -0.2536  1.3534 -1.1768
   33TMC2    H2  520   3.957   2.582  11.242  0.0566  0.3959  0.7103
   33TMC2    C7  521   3.712   2.480  11.216  0.7798 -0.6692 -0.3695
   33TMC2    C8  522   4.178   2.466  11.353 -0.3947 -0.5701 -0.2974
   33TMC2    O1  523   3.739   2.571  11.142  0.0270 -0.1262 -0.5517
   33TMC2    O2  524   4.254   2.438  11.441  0.6514 -0.0262 -0.7918
   33TMC2    O5  525   4.202   2.556  11.255  0.3514  0.1525 -0.0455
   33TMC2    H5  526   4.160   2.529  11.170  0.8142  1.9005 -0.8416
   34MPD2     C  527   3.695   1.660  11.591  0.3865 -0.3042 -0.2993
   34MPD2    C1  528   3.638   1.707  11.477 -0.2787  0.4776  0.0680
   34MPD2    C2  529   3.670   1.843  11.434  0.3897 -0.1257 -0.7996
   34MPD2    C3  530   3.757   1.922  11.505  0.7375  0.6123 -0.5487
   34MPD2    C4  531   3.819   1.865  11.614  0.2544 -0.1785  0.0812
   34MPD2    C5  532   3.787   1.738  11.654  0.1043 -0.3488 -0.2661
   34MPD2     H  533   3.616   1.883  11.349 -2.3866 -0.4670  0.8069
   34MPD2    H1  534   3.894   1.911  11.676 -1.6255  1.8413  0.8570
   34MPD2    H2  535   3.681   1.561  11.632 -0.6514  0.1507  0.4449
   34MPD2    H3  536   3.836   1.720  11.749  0.1808  2.9804  0.3448
   34MPD2     N  537   3.780   2.053  11.465 -0.6416 -0.3366 -0.0328
   34MPD2    H5  538   3.718   2.085  11.390  1.1960  0.5061 -1.2056
   34MPD2    N1  539   3.568   1.608  11.408 -0.9415  0.3419 -0.5066
   34MPD2    H7  540   3.562   1.515  11.448 -1.7646  0.2047 -0.9389
   35TMC2    C1  541   4.304   2.914  11.384  0.6024 -0.6399  0.5740
   35TMC2    C2  542   4.257   2.917  11.257  1.0125 -0.0669  0.2073
   35TMC2    C3  543   4.132   2.873  11.243  0.1007  0.0747 -0.0504
   35TMC2    C4  544   4.234   2.873  11.494  0.7077  0.0716 -0.5171
   35TMC2    C5  545   4.105   2.832  11.477 -0.3482  0.4395 -0.2149
   35TMC2    C6  546   4.056   2.843  11.355 -0.2678  0.7185 -0.1335
   35TMC2     C  547   4.400   3.018  11.413  0.3482  0.2743  0.1096
   35TMC2     O  548   4.399   3.113  11.343  0.2458  0.9610  0.3671
   35TMC2     H  549   4.322   2.958  11.180  0.9998 -0.5721 -0.0703
   35TMC2    H1  550   4.280   2.894  11.590 -1.1993  1.6075  0.0727
   35TMC2    H2  551   3.953   2.812  11.337 -0.2860  1.3365 -1.0934
   35TMC2    C7  552   4.052   2.744  11.574 -0.0961  0.1448 -0.7256
   35TMC2    C8  553   4.069   2.851  11.119 -0.3676 -0.5803  0.1506
   35TMC2    O1  554   4.126   2.681  11.654  0.3443 -0.0471 -0.5062
   35TMC2    O2  555   3.948   2.820  11.119 -0.1004 -0.3366  0.0343
   35TMC2    O5  556   4.160   2.795  11.042 -0.1355  0.3814  0.1331
   35TMC2    H5  557   4.253   2.809  11.070  0.3084  0.2068 -1.2273
   36MPD2     C  558   0.004   3.256  11.719 -0.1985  0.7868 -0.2529
   36MPD2    C1  559   4.730   3.126  11.757 -0.2638 -0.1598  0.1617
   36MPD2    C2  560   4.638   3.040  11.695 -0.1212 -0.2170  0.2903
   36MPD2    C3  561   4.558   3.081  11.595  0.7910  0.0562  0.1962
   36MPD2    C4  562   4.565   3.211  11.559  0.3424 -0.7610 -0.3868
   36MPD2    C5  563   4.650   3.295  11.620  0.5707 -0.1237 -0.5196
   36MPD2     H  564   4.628   2.937  11.727  0.5669 -0.6730 -0.9623
   36MPD2    H1  565   4.497   3.260  11.490  0.4650  0.5421  0.4145
   36MPD2    H2  566   0.068   3.326  11.772  1.4858 -1.0873  0.1937
   36MPD2    H3  567   4.640   3.401  11.600  1.2558  0.4353  2.0837
   36MPD2     N  568   4.472   2.992  11.525 -0.5214  0.0145 -0.3699
   36MPD2    H5  569   4.464   2.898  11.561  0.1384  0.6733  1.5041
   36MPD2    N1  570   0.065   3.091  11.868  0.3712  0.7831 -0.0213
   36MPD2    H7  571   0.099   3.165  11.929  2.4071 -0.7586  0.7069
   37TMC2    C1  572   2.125   3.762  11.930 -0.3411  0.7538 -0.0374
   37TMC2    C2  573   2.071   3.836  11.826  0.5169  0.4576 -0.1097
   37TMC2    C3  574   2.153   3.841  11.718 -0.5053 -0.7932 -0.3902
   37TMC2    C4  575   2.245   3.698  11.931  0.4487  0.1420  0.8115
   37TMC2    C5  576   2.326   3.716  11.820 -0.4869  0.1987 -0.3283
   37TMC2    C6  577   2.276   3.784  11.712  0.2772  0.4661  0.0833
   37TMC2     C  578   2.028   3.756  12.031  0.6254 -0.7139 -0.8093
   37TMC2     O  579   1.957   3.852  12.048 -0.5361 -0.3880  0.2042
   37TMC2     H  580   1.975   3.886  11.833  0.5552  0.4142  0.7251
   37TMC2    H1  581   2.284   3.647  12.018  1.7929 -0.1555  0.0418
   37TMC2    H2  582   2.330   3.788  11.618  0.1898 -0.3432  0.0032
   37TMC2    C7  583   2.436   3.622  11.813  0.4481 -0.0645 -0.1769
   37TMC2    C8  584   2.089   3.858  11.586  0.0561  0.2161 -0.6196
   37TMC2    O1  585   2.453   3.547  11.905  0.7498 -0.3793  0.3135
   37TMC2    O2  586   2.115   3.787  11.491  0.4596 -0.3442 -0.2084
   37TMC2    O5  587   1.970   3.918  11.604  0.7377  0.0248  0.4012
   37TMC2    H5  588   1.979   3.994  11.665 -1.0321  0.6673 -0.1224
   38MPD2     C  589   1.846   3.512  12.443 -0.2601 -0.7710 -0.0420
   38MPD2    C1  590   1.963   3.448  12.403  0.0457  0.0584  0.4054
   38MPD2    C2  591   2.032   3.501  12.296  0.2494 -0.6296  0.3313
   38MPD2    C3  592   1.983   3.613  12.227 -0.4469  0.3663  0.0695
   38MPD2    C4  593   1.876   3.679  12.274 -0.1036 -0.1289 -0.0726
   38MPD2    C5  594   1.807   3.627  12.380  0.7259  0.2161 -0.8642
   38MPD2     H  595   2.117   3.454  12.248 -0.1343  1.5987 -2.4993
   38MPD2    H1  596   1.835   3.770  12.231 -1.3097 -1.0909 -0.9660
   38MPD2    H2  597   1.775   3.478  12.517  2.0588 -0.4462  2.3662
   38MPD2    H3  598   1.706   3.655  12.410  0.9261 -1.2852  1.2725
   38MPD2     N  599   2.050   3.650  12.113 -0.1773  0.7886 -0.8263
   38MPD2    H5  600   2.110   3.574  12.080 -0.4802  1.4000 -2.7947
   38MPD2    N1  601   2.006   3.329  12.453  0.6251  0.4080  0.3187
   38MPD2    H7  602   2.080   3.280  12.405 -0.6746 -0.2996 -0.9403
   39TMC2    C1  603   0.506   0.989   1.828 -0.3331  0.2241 -0.3901
   39TMC2    C2  604   0.623   0.931   1.863  0.3672  0.2266  0.4713
   39TMC2    C3  605   0.701   0.994   1.954  1.2910 -0.0024 -0.3141
   39TMC2    C4  606   0.474   1.107   1.890 -0.2221  0.8785  0.3750
   39TMC2    C5  607   0.555   1.167   1.985 -0.1836 -0.1493 -0.2595
   39TMC2    C6  608   0.667   1.101   2.036  0.0030  0.1643 -0.1438
   39TMC2     C  609   0.431   0.953   1.709 -0.0012 -0.3838 -0.1415
   39TMC2     O  610   0.359   1.033   1.654  0.5732  0.3401  0.4217
   39TMC2     H  611   0.659   0.842   1.812 -1.8343 -0.3160 -0.1190
   39TMC2    H1  612   0.381   1.154   1.862 -0.0106  2.0606  1.6937
   39TMC2    H2  613   0.734   1.134   2.114  0.6205 -0.6117 -0.3486
   39TMC2    C7  614   0.524   1.306   2.016 -0.0539 -0.0668 -0.0475
   39TMC2    C8  615   0.822   0.927   1.988 -0.4618 -0.3601  0.4372
   39TMC2    O1  616   0.413   1.340   2.006  0.2058 -0.1641  0.1740
   39TMC2    O2  617   0.886   0.860   1.907 -0.3705  0.1024  0.2828
   39TMC2    O5  618   0.799   0.892   2.116 -0.2794  0.1323  0.6336
   39TMC2    H5  619   0.713   0.928   2.147  0.0568  0.0293  1.6879
   40MPD2     C  620   0.473   0.644   1.520 -0.2654  0.4269 -0.4115
   40MPD2    C1  621   0.401   0.753   1.565  0.0171  0.3818  1.1069
   40MPD2    C2  622   0.283   0.784   1.503 -0.1777  0.5738 -0.2175
   40MPD2    C3  623   0.242   0.711   1.382  0.1802 -0.1818 -1.2173
   40MPD2    C4  624   0.318   0.607   1.340  0.0658 -0.2461  0.3996
   40MPD2    C5  625   0.437   0.575   1.408  0.1016  0.0524  0.2623
   40MPD2     H  626   0.228   0.868   1.545 -3.1114 -0.6435 -1.5882
   40MPD2    H1  627   0.284   0.545   1.258  1.4740 -1.6184  0.8415
   40MPD2    H2  628   0.560   0.613   1.576 -0.6764  0.4932  0.2583
   40MPD2    H3  629   0.500   0.489   1.386  0.5450  0.5969 -0.5807
   40MPD2     N  630   0.130   0.739   1.308 -0.2118  0.0137  0.5232
   40MPD2    H5  631   0.088   0.680   1.237 -1.1260  1.5846 -0.2347
   40MPD2    N1  632   0.455   0.824   1.679 -0.1408 -0.2101  0.1736
   40MPD2    H7  633   0.515   0.764   1.735  2.6889  1.3107 -1.2701
   41TMC2    C1  634   4.126   3.031  13.507 -0.2038 -0.2119  0.3774
   41TMC2    C2  635   4.211   3.126  13.557  0.5197 -0.0381  0.7884
   41TMC2    C3  636   4.203   3.246  13.495  0.9308  0.5846  0.1154
   41TMC2    C4  637   4.042   3.058  13.405 -0.3204 -1.0643  0.0809
   41TMC2    C5  638   4.045   3.179  13.339 -0.3442  0.6799 -0.5608
   41TMC2    C6  639   4.125   3.276  13.381 -0.3063 -1.2452  0.0242
   41TMC2     C  640   4.111   2.909  13.580 -0.1620 -0.6184 -0.4136
   41TMC2     O  641   4.071   2.804  13.537 -0.5413  0.6092 -0.8915
   41TMC2     H  642   4.292   3.116  13.627  1.3376 -1.6214 -0.3792
   41TMC2    H1  643   3.989   2.977  13.357  0.6815 -1.3705 -0.5042
   41TMC2    H2  644   4.106   3.379  13.355 -0.1979 -1.2496 -0.0733
   41TMC2    C7  645   3.986   3.203  13.208 -0.2149  0.6378 -0.2388
   41TMC2    C8  646   4.297   3.352  13.521  0.2921 -0.6000  0.6372
   41TMC2    O1  647   3.968   3.321  13.174 -0.2755  0.2296  0.2210
   41TMC2    O2  648   4.326   3.432  13.435  0.0344 -0.2351  0.9632
   41TMC2    O5  649   4.311   3.369  13.652 -0.5258 -0.4894 -0.0265
   41TMC2    H5  650   4.282   3.295  13.710  0.4072 -1.2912 -0.5830
   42MPD2     C  651   4.165   2.723  13.818 -0.2330  0.7594 -0.1105
   42MPD2    C1  652   4.190   2.857  13.817  0.4475  0.1815 -0.1980
   42MPD2    C2  653   4.260   2.921  13.924  0.2626 -0.0546 -0.2442
   42MPD2    C3  654   4.313   2.844  14.028 -0.0803 -0.0068 -0.2706
   42MPD2    C4  655   4.276   2.712  14.032 -0.2673 -0.0739 -0.1557
   42MPD2    C5  656   4.211   2.652  13.927 -0.0119  0.4571  0.5414
   42MPD2     H  657   4.281   3.027  13.912  2.7062 -0.5762 -0.6246
   42MPD2    H1  658   4.296   2.649  14.118  1.2222  0.9543  0.2474
   42MPD2    H2  659   4.114   2.672  13.737  0.1186  1.9793 -1.1028
   42MPD2    H3  660   4.182   2.547  13.934  0.7852  0.0802 -1.7789
   42MPD2     N  661   4.390   2.897  14.136  0.3859 -0.2302 -0.2442
   42MPD2    H5  662   4.420   2.829  14.205  0.7215 -2.6250 -2.7497
   42MPD2    N1  663   4.156   2.941  13.707 -1.1445  0.2909  0.6584
   42MPD2    H7  664   4.203   3.030  13.720  2.3629 -1.6096  1.1428
   43TMC2    C1  665   1.314   1.906   1.030 -0.2146  0.0902 -0.1366
   43TMC2    C2  666   1.179   1.913   1.049 -0.4205  0.6831 -0.3789
   43TMC2    C3  667   1.132   2.003   1.137  0.0350 -0.7140  0.3409
   43TMC2    C4  668   1.407   1.971   1.103 -0.0053  0.2786 -0.3609
   43TMC2    C5  669   1.359   2.052   1.202  0.2782  0.1773 -0.1339
   43TMC2    C6  670   1.221   2.070   1.222 -0.1022 -0.4709  0.1677
   43TMC2     C  671   1.358   1.846   0.903 -0.5569  0.2138  0.1524
   43TMC2     O  672   1.283   1.773   0.839  0.8652  0.3332  0.3156
   43TMC2     H  673   1.115   1.873   0.971 -3.0364  3.7063  0.1799
   43TMC2    H1  674   1.514   1.955   1.089 -0.3503 -0.8974 -1.5558
   43TMC2    H2  675   1.185   2.150   1.285 -0.0687  0.0833 -0.5219
   43TMC2    C7  676   1.457   2.109   1.290 -0.2627  0.1371  0.0738
   43TMC2    C8  677   0.995   1.994   1.177 -0.7242 -0.2154  0.6240
   43TMC2    O1  678   1.569   2.070   1.267 -0.7734  0.3709  0.2771
   43TMC2    O2  679   0.902   2.014   1.100 -0.1234  0.5525  0.0440
   43TMC2    O5  680   0.993   1.982   1.308  0.2365 -0.2510  0.3257
   43TMC2    H5  681   1.082   1.988   1.350  1.3866 -1.0878 -1.9769
   44MPD2     C  682   1.651   1.827   0.493 -0.9520  0.3805  0.5222
   44MPD2    C1  683   1.577   1.727   0.554 -0.2922  0.4516  0.0635
   44MPD2    C2  684   1.506   1.756   0.665  0.0807 -0.5857  0.0868
   44MPD2    C3  685   1.526   1.873   0.729 -1.2364 -0.4479  0.2405
   44MPD2    C4  686   1.600   1.972   0.669 -0.3044  0.3859  0.3380
   44MPD2    C5  687   1.651   1.955   0.544  0.1918  0.5598 -0.1212
   44MPD2     H  688   1.449   1.680   0.717 -0.4417  0.0437  0.4313
   44MPD2    H1  689   1.632   2.065   0.716  1.8077 -0.4436  0.5659
   44MPD2    H2  690   1.701   1.814   0.397 -0.4094 -0.0827  0.8668
   44MPD2    H3  691   1.696   2.038   0.490 -0.4831  1.5245  0.7923
   44MPD2     N  692   1.473   1.905   0.853  0.0208  0.3386 -0.1438
   44MPD2    H5  693   1.508   1.988   0.900  1.0341 -0.6015  0.7419
   44MPD2    N1  694   1.572   1.596   0.501  0.1721  0.3430  0.5214
   44MPD2    H7  695   1.502   1.539   0.547 -0.2991  3.3505  3.5291
   45TMC2    C1  696   1.410   3.755  10.140 -0.8618 -0.5436  0.2617
   45TMC2    C2  697   1.361   3.748  10.016 -0.5335  0.0337  0.7004
   45TMC2    C3  698   1.341   3.869   9.953 -0.1316 -0.4472  0.5342
   45TMC2    C4  699   1.459   3.866  10.200  0.6621 -0.1251  0.0356
   45TMC2    C5  700   1.445   3.987  10.131  0.3685 -0.6331 -0.1216
   45TMC2    C6  701   1.390   3.984  10.001 -0.2153  0.3247 -0.2555
   45TMC2     C  702   1.419   3.640  10.231 -0.4933 -0.2444 -0.0496
   45TMC2     O  703   1.442   3.656  10.351  0.3239  0.7489  0.0794
   45TMC2     H  704   1.335   3.652   9.972  0.3747  0.1361 -0.0539
   45TMC2    H1  705   1.499   3.875  10.300 -1.4055  0.2189  0.8285
   45TMC2    H2  706   1.380   4.077   9.946 -0.8071  0.8737  0.7777
   45TMC2    C7  707   1.513   4.104  10.191  0.9414 -0.1210 -0.1934
   45TMC2    C8  708   1.302   3.871   9.814  0.3340  0.8851 -0.2673
   45TMC2    O1  709   1.569   4.091  10.302  0.2353 -0.3036 -0.3359
   45TMC2    O2  710   1.340   3.964   9.742  0.3826  0.5821  0.0779
   45TMC2    O5  711   1.237   3.762   9.773 -0.3953 -0.2632  0.0830
   45TMC2    H5  712   1.204   3.714   9.852  1.1212 -2.4433 -0.6100
   46MPD2     C  713   1.517   3.391  10.328  0.2854 -0.8705 -0.1322
   46MPD2    C1  714   1.414   3.401  10.235 -0.8760 -0.1168  0.1922
   46MPD2    C2  715   1.347   3.285  10.198 -0.3737 -0.9970  0.7657
   46MPD2    C3  716   1.368   3.167  10.266 -0.1469  0.5576 -0.6267
   46MPD2    C4  717   1.467   3.156  10.358 -0.7454  0.0053 -0.4995
   46MPD2    C5  718   1.542   3.269  10.389  0.3066  0.1138  0.0549
   46MPD2     H  719   1.262   3.290  10.132  0.7965 -0.4386 -0.7215
   46MPD2    H1  720   1.475   3.061  10.411  2.0564  2.5927  3.7616
   46MPD2    H2  721   1.578   3.474  10.362 -3.3251  2.4470 -1.7741
   46MPD2    H3  722   1.631   3.267  10.451 -0.6202  3.5407  1.5035
   46MPD2     N  723   1.278   3.059  10.236  0.2448  0.0492 -0.4441
   46MPD2    H5  724   1.208   3.078  10.165  0.1214 -0.7890 -0.5469
   46MPD2    N1  725   1.378   3.523  10.174  0.1333  0.0485 -0.0468
   46MPD2    H7  726   1.326   3.510  10.088  1.0601  1.0286 -0.7560
   47TMC2    C1  727   3.843   3.619   9.472 -0.6543  0.0864  0.3885
   47TMC2    C2  728   3.797   3.562   9.355  0.6276  0.3274 -0.0819
   47TMC2    C3  729   3.667   3.591   9.316  0.0896 -0.1250  0.2561
   47TMC2    C4  730   3.766   3.706   9.552 -0.8708  0.6699 -0.3248
   47TMC2    C5  731   3.642   3.736   9.510  0.2409 -0.3156  0.2016
   47TMC2    C6  732   3.595   3.681   9.388 -0.2211  0.3876  0.1500
   47TMC2     C  733   3.971   3.573   9.519 -1.0252 -0.0628  0.5100
   47TMC2     O  734   4.043   3.519   9.437 -0.5681 -0.0198 -0.5979
   47TMC2     H  735   3.869   3.517   9.288 -0.4434 -2.5704  0.7071
   47TMC2    H1  736   3.795   3.741   9.650  1.4024 -0.3088 -0.6469
   47TMC2    H2  737   3.492   3.700   9.360  0.1201 -0.7126 -1.8442
   47TMC2    C7  738   3.556   3.799   9.609 -0.2446  0.3865 -0.0978
   47TMC2    C8  739   3.629   3.556   9.183  0.4130 -0.0682 -0.7187
   47TMC2    O1  740   3.436   3.785   9.599  0.1242  0.1726  0.4679
   47TMC2    O2  741   3.704   3.536   9.086  0.4800 -0.5211  0.2705
   47TMC2    O5  742   3.496   3.526   9.194  0.6501  0.3610 -0.6725
   47TMC2    H5  743   3.474   3.522   9.290  3.7641 -0.7820  0.0067
   48MPD2     C  744   4.215   3.530   9.684  0.2924 -0.5483 -0.2577
   48MPD2    C1  745   4.082   3.523   9.734  0.3143  0.2523 -0.0010
   48MPD2    C2  746   4.069   3.487   9.870  0.2630  0.2572  0.1038
   48MPD2    C3  747   4.181   3.452   9.950  0.2500 -0.5581  0.2294
   48MPD2    C4  748   4.306   3.459   9.897 -0.5329  0.1519 -0.4463
   48MPD2    C5  749   4.321   3.489   9.760  0.3259 -0.4261 -0.2526
   48MPD2     H  750   3.972   3.501   9.917 -0.6452 -0.4163 -1.5666
   48MPD2    H1  751   4.389   3.426   9.958 -0.5417  1.8082  0.4482
   48MPD2    H2  752   4.235   3.544   9.579 -0.9084  0.2369 -0.3927
   48MPD2    H3  753   4.418   3.480   9.714  0.2434 -1.8313 -0.1496
   48MPD2     N  754   4.149   3.439  10.092  0.4707  0.1036 -0.4159
   48MPD2    H5  755   4.049   3.427  10.104  0.7500 -1.1724  0.7011
   48MPD2    N1  756   3.968   3.547   9.655 -0.2525  0.2903 -0.2562
   48MPD2    H7  757   3.888   3.568   9.713 -0.7931 -0.2043 -0.8227
   49TMC2    C1  758   2.501   1.610  10.757 -0.4021 -0.1780 -0.0731
   49TMC2    C2  759   2.455   1.509  10.681  0.2058  0.5720 -1.0186
   49TMC2    C3  760   2.519   1.478  10.567 -0.1871 -0.4849 -0.3763
   49TMC2    C4  761   2.614   1.686  10.724 -0.3579  0.2953 -0.3226
   49TMC2    C5  762   2.667   1.656  10.604  0.0327  0.2614 -0.1975
   49TMC2    C6  763   2.623   1.554  10.517 -0.7196  0.2433  0.4633
   49TMC2     C  764   2.450   1.639  10.889 -0.0303  0.1287  0.3278
   49TMC2     O  765   2.531   1.678  10.972 -0.0231 -0.2595 -0.1641
   49TMC2     H  766   2.366   1.455  10.713  2.1071 -2.6244 -1.1703
   49TMC2    H1  767   2.640   1.773  10.784  4.7252 -1.9892  0.7938
   49TMC2    H2  768   2.668   1.539  10.419 -0.7550  0.3751  0.4267
   49TMC2    C7  769   2.782   1.724  10.542  0.0607 -0.3548 -0.4538
   49TMC2    C8  770   2.474   1.376  10.479 -0.1599  0.5655 -0.4515
   49TMC2    O1  771   2.811   1.725  10.422  0.0913  0.3214  0.1667
   49TMC2    O2  772   2.449   1.412  10.366  0.3903 -0.1690  0.0519
   49TMC2    O5  773   2.432   1.268  10.546 -0.2804  0.0099  0.2824
   49TMC2    H5  774   2.455   1.280  10.641  0.7206 -1.6544  0.2537
   50MPD2     C  775   2.284   1.761  11.103  0.2094 -0.4456 -0.0350
   50MPD2    C1  776   2.230   1.679  10.997  0.4269  0.2119 -0.6408
   50MPD2    C2  777   2.090   1.678  10.982 -0.0628 -0.1467 -0.1438
   50MPD2    C3  778   2.011   1.727  11.081  0.4243  0.3547  0.0454
   50MPD2    C4  779   2.067   1.792  11.189  0.9041  0.2691 -0.8389
   50MPD2    C5  780   2.196   1.822  11.187 -0.6448  0.3019 -0.4454
   50MPD2     H  781   2.048   1.630  10.895  1.7709 -0.4243 -0.8871
   50MPD2    H1  782   2.028   1.835  11.281  0.2422  0.7536 -1.3478
   50MPD2    H2  783   2.389   1.771  11.128  0.6785 -2.4193 -1.1773
   50MPD2    H3  784   2.234   1.882  11.269  0.6693  0.4240 -1.1418
   50MPD2     N  785   1.873   1.723  11.087 -0.5617 -0.0658  0.2486
   50MPD2    H5  786   1.823   1.766  11.164  0.7070  0.4898  0.7504
   50MPD2    N1  787   2.310   1.634  10.890 -0.5852  0.2965 -0.2317
   50MPD2    H7  788   2.266   1.597  10.806 -1.0098  2.1201 -0.8158
   51TMC2    C1  789   4.482   0.367   1.750  0.1092  0.4717 -0.6728
   51TMC2    C2  790   4.558   0.284   1.828 -0.2665  0.3384  0.1884
   51TMC2    C3  791   4.641   0.342   1.924 -0.2079 -0.6181 -0.1337
   51TMC2    C4  792   4.471   0.501   1.778 -0.1298 -0.1941  0.6471
   51TMC2    C5  793   4.541   0.544   1.889  0.3376 -0.6574  1.0623
   51TMC2    C6  794   4.629   0.470   1.966 -0.8887  0.3448 -0.5070
   51TMC2     C  795   4.416   0.298   1.643 -0.4927  0.0059 -1.0911
   51TMC2     O  796   4.473   0.196   1.609  0.5135 -0.1424  0.3541
   51TMC2     H  797   4.571   0.180   1.801  0.5698  0.2678  0.8548
   51TMC2    H1  798   4.418   0.572   1.715 -0.8990 -0.7962  0.6114
   51TMC2    H2  799   4.680   0.513   2.052 -3.8295 -0.0220  1.3902
   51TMC2    C7  800   4.508   0.677   1.945  0.1466  0.2234  0.2397
   51TMC2    C8  801   0.039   0.287   1.942 -0.6242 -0.4744  0.7299
   51TMC2    O1  802   4.578   0.721   2.033  0.0228 -0.1196  0.7488
   51TMC2    O2  803   0.127   0.357   1.987 -0.5273  0.4737  0.1735
   51TMC2    O5  804   0.056   0.162   1.896 -0.2548 -0.1655 -0.2518
   51TMC2    H5  805   4.704   0.115   1.907  0.4793 -1.5975 -0.6962
   52MPD2     C  806   4.070   0.232   1.275 -0.9917 -0.1920 -1.0789
   52MPD2    C1  807   4.178   0.153   1.306  0.4483  0.2430 -0.2542
   52MPD2    C2  808   4.257   0.195   1.413 -0.0383  0.5162 -0.6812
   52MPD2    C3  809   4.237   0.316   1.473 -0.7660 -0.4787  0.7749
   52MPD2    C4  810   4.133   0.397   1.426 -0.6765  0.3293 -0.0226
   52MPD2    C5  811   4.043   0.352   1.331  0.9302  0.2498 -0.4380
   52MPD2     H  812   4.333   0.127   1.450 -1.8366  0.2777  2.5914
   52MPD2    H1  813   4.107   0.487   1.480  1.7767  0.5862  0.7668
   52MPD2    H2  814   4.015   0.213   1.183 -1.3078 -3.0061 -0.3188
   52MPD2    H3  815   3.960   0.412   1.296  1.2575 -0.6285 -2.7120
   52MPD2     N  816   4.315   0.367   1.581 -0.1453  0.4770 -0.7725
   52MPD2    H5  817   4.288   0.443   1.641  1.1430  1.5406 -1.5400
   52MPD2    N1  818   4.200   0.025   1.244 -0.3942  0.2977 -0.2293
   52MPD2    H7  819   4.282   4.706   1.272 -1.3571 -0.8281  0.4884
   53TMC2    C1  820   2.866   3.029  11.842  1.0380  0.2996  0.1617
   53TMC2    C2  821   2.878   2.919  11.768 -0.1787  0.2820 -0.9315
   53TMC2    C3  822   2.814   2.803  11.802  0.4214  0.3222 -0.4287
   53TMC2    C4  823   2.776   3.033  11.947  0.0675  0.1810 -0.4889
   53TMC2    C5  824   2.710   2.915  11.982  0.0667 -1.4369  0.1354
   53TMC2    C6  825   2.732   2.800  11.913 -0.4429 -0.0631  0.4439
   53TMC2     C  826   2.882   3.157  11.770 -0.4020 -0.3549  0.4092
   53TMC2     O  827   2.986   3.159  11.702 -0.2155 -0.2072  0.7117
   53TMC2     H  828   2.925   2.930  11.671  1.2448 -1.1311 -0.4032
   53TMC2    H1  829   2.744   3.130  11.982  0.2041  0.6236 -1.6130
   53TMC2    H2  830   2.676   2.709  11.931 -0.5747 -0.4564 -1.8881
   53TMC2    C7  831   2.613   2.930  12.083  0.0256 -0.7530 -0.1456
   53TMC2    C8  832   2.763   2.718  11.689 -0.5208  0.1727 -0.3584
   53TMC2    O1  833   2.626   3.031  12.151  0.2064 -0.1074  0.5254
   53TMC2    O2  834   2.659   2.661  11.705 -0.3449  0.0874  0.1567
   53TMC2    O5  835   2.857   2.701  11.596 -0.2400 -0.1892 -0.1716
   53TMC2    H5  836   2.944   2.739  11.620 -0.5884 -0.5690  1.6424
   54MPD2     C  837   2.881   3.427  11.651 -0.0314 -0.1350  0.2193
   54MPD2    C1  838   2.770   3.363  11.703  0.2850 -0.8065  0.8394
   54MPD2    C2  839   2.654   3.438  11.716 -0.0801 -0.1362  0.0472
   54MPD2    C3  840   2.642   3.569  11.679  0.6955 -0.6150  0.1480
   54MPD2    C4  841   2.744   3.617  11.603 -0.5141  0.4025  0.3371
   54MPD2    C5  842   2.867   3.556  11.598 -0.0524  0.5727  0.4202
   54MPD2     H  843   2.572   3.398  11.774 -0.2913  0.2978  0.0495
   54MPD2    H1  844   2.749   3.718  11.562 -0.1441  0.5168  0.6695
   54MPD2    H2  845   2.973   3.370  11.636  0.1137  0.6705 -2.0533
   54MPD2    H3  846   2.943   3.609  11.541 -1.1254  0.5301 -1.0373
   54MPD2     N  847   2.523   3.644  11.708  0.3819 -0.1213  0.1698
   54MPD2    H5  848   2.528   3.740  11.676  0.7609 -0.6059 -1.2111
   54MPD2    N1  849   2.781   3.243  11.766  0.7484  0.1549 -0.0034
   54MPD2    H7  850   2.707   3.219  11.830  0.2744 -1.0307 -1.0073
   55TMC2    C1  851   3.831   2.374   1.365 -1.0294 -0.3962  0.7321
   55TMC2    C2  852   3.879   2.494   1.369 -0.1188  0.4395 -0.7571
   55TMC2    C3  853   3.996   2.499   1.435  0.1770  1.2408 -0.0210
   55TMC2    C4  854   3.885   2.263   1.421 -0.3097  0.3360  0.1569
   55TMC2    C5  855   3.998   2.277   1.490 -0.0348 -0.2019 -0.1527
   55TMC2    C6  856   4.066   2.391   1.484 -0.1014  1.2677  0.0096
   55TMC2     C  857   3.701   2.349   1.311 -0.3454 -1.0128 -0.1552
   55TMC2     O  858   3.674   2.231   1.278 -0.3039 -0.4382  0.0513
   55TMC2     H  859   3.843   2.581   1.315 -1.6835  0.2403 -0.0340
   55TMC2    H1  860   3.826   2.172   1.426 -0.1068  0.0590 -2.4715
   55TMC2    H2  861   4.168   2.396   1.521  0.1091  0.6107 -0.4855
   55TMC2    C7  862   4.069   2.157   1.521  0.1955  0.3279  0.0402
   55TMC2    C8  863   4.073   2.626   1.438  0.1172 -0.6461  0.5616
   55TMC2    O1  864   4.152   2.160   1.606  0.0243  0.1503  0.4225
   55TMC2    O2  865   4.066   2.714   1.354  0.5374  0.1376 -0.6456
   55TMC2    O5  866   4.126   2.645   1.564  0.0184  0.4391 -0.0233
   55TMC2    H5  867   4.095   2.579   1.630  2.5119  0.0642  0.7768
   56MPD2     C  868   3.442   2.606   1.294 -0.0059 -0.2823  0.0211
   56MPD2    C1  869   3.503   2.490   1.259 -0.0781 -0.1214 -0.0495
   56MPD2    C2  870   3.441   2.395   1.176  0.4463  0.9546 -0.0985
   56MPD2    C3  871   3.306   2.398   1.156  0.0115  0.1052 -0.3393
   56MPD2    C4  872   3.237   2.503   1.205  0.0008  0.3000 -0.6832
   56MPD2    C5  873   3.303   2.612   1.269  0.5068 -0.1658  0.6385
   56MPD2     H  874   3.502   2.312   1.142  0.5538  0.7116  0.6848
   56MPD2    H1  875   3.131   2.513   1.184  0.3307 -0.6807 -2.7863
   56MPD2    H2  876   3.487   2.678   1.361 -1.2236 -3.0413  3.8174
   56MPD2    H3  877   3.242   2.697   1.295  0.4541 -0.3341  1.0675
   56MPD2     N  878   3.242   2.285   1.095 -0.2602 -0.1204  0.1038
   56MPD2    H5  879   3.295   2.199   1.080  0.5039  0.4739 -0.5918
   56MPD2    N1  880   3.626   2.462   1.313 -0.6404  0.0610 -0.0425
   56MPD2    H7  881   3.670   2.528   1.375 -1.2624 -1.4114  1.9680
   57TMC2    C1  882   3.171   1.939  14.181 -0.0122 -0.4868  0.1397
   57TMC2    C2  883   3.272   1.891  14.269 -0.1683 -0.1969 -1.3716
   57TMC2    C3  884   3.387   1.858  14.217  0.0599 -0.1604 -0.0879
   57TMC2    C4  885   3.198   1.956  14.048 -0.6470 -0.1089  0.1950
   57TMC2    C5  886   3.322   1.936  14.001  0.9651 -0.1129  0.3997
   57TMC2    C6  887   3.420   1.889  14.084  0.1208  0.6895 -0.1885
   57TMC2     C  888   3.048   1.991  14.228 -0.0834  0.3649 -0.0871
   57TMC2     O  889   2.956   2.007  14.149  0.1163  0.3492 -0.1673
   57TMC2     H  890   3.263   1.887  14.377  1.6221 -0.2411 -1.2300
   57TMC2    H1  891   3.121   1.980  13.975 -2.1341 -0.7619  1.5376
   57TMC2    H2  892   3.518   1.868  14.043 -0.3747 -0.4924 -0.7701
   57TMC2    C7  893   3.335   1.934  13.859 -0.3921  0.1269 -0.1535
   57TMC2    C8  894   3.495   1.824  14.306 -0.0753 -0.5440  0.3177
   57TMC2    O1  895   3.252   1.993  13.791 -0.0626 -0.0640  0.1702
   57TMC2    O2  896   3.526   1.893  14.403  0.0261 -0.5502 -0.0332
   57TMC2    O5  897   3.569   1.730  14.249 -0.0485 -0.0662 -0.2736
   57TMC2    H5  898   3.510   1.679  14.190  0.8999 -1.5277  0.0410
   58MPD2     C  899   2.747   2.111  14.618  0.0540  0.2549  0.3970
   58MPD2    C1  900   2.729   2.058  14.494 -0.1725 -0.5507 -0.1217
   58MPD2    C2  901   2.831   2.031  14.405  0.0419 -0.6161 -0.0261
   58MPD2    C3  902   2.956   2.067  14.438 -0.5535 -0.0085 -0.4320
   58MPD2    C4  903   2.989   2.117  14.566  0.2859  0.2937  0.1254
   58MPD2    C5  904   2.881   2.138  14.655 -0.2582  0.3892  0.2128
   58MPD2     H  905   2.814   1.973  14.315 -0.6971 -0.4488  0.0060
   58MPD2    H1  906   3.087   2.151  14.596 -0.8293  1.5141  2.4104
   58MPD2    H2  907   2.662   2.130  14.682  0.6186 -0.2689  1.3059
   58MPD2    H3  908   2.900   2.182  14.752  1.5296 -2.2450  1.0693
   58MPD2     N  909   3.064   2.037  14.354 -0.1209 -0.0423  0.0044
   58MPD2    H5  910   3.159   2.045  14.390  0.1200  0.0001 -0.6477
   58MPD2    N1  911   2.598   2.009  14.443 -0.0991 -0.4902 -0.5738
   58MPD2    H7  912   2.601   1.963  14.353 -1.3877 -1.9148  0.1279
   59TMC2    C1  913   0.576   2.202  12.905  0.2369  0.4168  0.6673
   59TMC2    C2  914   0.530   2.088  12.969 -0.2061 -0.1951 -0.2865
   59TMC2    C3  915   0.441   2.012  12.887 -0.1884 -0.4418  0.0237
   59TMC2    C4  916   0.540   2.238  12.779 -0.6682  0.5782  0.8066
   59TMC2    C5  917   0.462   2.157  12.698  0.5801  0.4175  0.4362
   59TMC2    C6  918   0.417   2.041  12.759  0.1762 -0.2949  0.2954
   59TMC2     C  919   0.676   2.290  12.968 -0.5214  0.4298 -0.4576
   59TMC2     O  920   0.722   2.383  12.907  0.3217  0.2186 -0.3407
   59TMC2     H  921   0.562   2.065  13.070 -2.9175 -0.2055  0.5957
   59TMC2    H1  922   0.582   2.330  12.740 -0.8674  0.5743  0.5774
   59TMC2    H2  923   0.361   1.970  12.699 -1.1177  0.9319  0.0191
   59TMC2    C7  924   0.475   2.157  12.554 -0.9272  0.4613 -0.2593
   59TMC2    C8  925   0.351   1.920  12.944  0.4043  0.0320  0.1285
   59TMC2    O1  926   0.463   2.054  12.485 -0.1255 -0.0663  0.1321
   59TMC2    O2  927   0.235   1.929  12.902 -0.2999  0.1373 -0.2970
   59TMC2    O5  928   0.377   1.923  13.073  0.7534 -0.1125 -0.2759
   59TMC2    H5  929   0.474   1.920  13.091  1.0861 -1.2601 -2.2230
   60MPD2     C  930   0.963   2.326  13.035 -0.0163  0.4892 -0.1126
   60MPD2    C1  931   0.873   2.273  13.124  0.4312  0.7539  0.1093
   60MPD2    C2  932   0.914   2.252  13.255  0.6533  1.1904 -0.0908
   60MPD2    C3  933   1.043   2.290  13.294  0.1111 -0.3049  0.3283
   60MPD2    C4  934   1.131   2.352  13.201 -0.3443 -0.1896  0.3964
   60MPD2    C5  935   1.084   2.374  13.074 -0.4527  0.0005 -0.3223
   60MPD2     H  936   0.846   2.212  13.329  2.6278 -0.9203  0.6001
   60MPD2    H1  937   1.228   2.385  13.237 -1.6999 -0.1199  3.9776
   60MPD2    H2  938   0.944   2.352  12.932  1.9115 -0.4654 -0.7000
   60MPD2    H3  939   1.147   2.424  13.002 -0.6133  1.0119  0.2434
   60MPD2     N  940   1.104   2.269  13.423  0.2690 -0.2914  0.4283
   60MPD2    H5  941   1.202   2.293  13.434 -0.1433  1.2973  0.6346
   60MPD2    N1  942   0.736   2.241  13.087  0.7867  0.7034  0.2059
   60MPD2    H7  943   0.680   2.178  13.144  2.0360 -0.8112 -0.2420
   61TMC2    C1  944   0.589   3.539  15.891  1.0202 -0.6879  0.4662
   61TMC2    C2  945   0.606   3.497  16.019 -0.3417  0.1795 -0.2478
   61TMC2    C3  946   0.536   3.553  16.120  0.5992 -0.2346 -0.0230
   61TMC2    C4  947   0.514   3.650  15.862  0.3843 -0.1377  0.3982
   61TMC2    C5  948   0.451   3.709  15.967  0.0803 -0.3530 -0.1350
   61TMC2    C6  949   0.458   3.660  16.095  0.0687  0.5205 -0.9293
   61TMC2     C  950   0.675   3.479  15.793  0.6556  0.8647  0.6286
   61TMC2     O  951   0.770   3.434  15.850 -0.1629  0.6251  0.6126
   61TMC2     H  952   0.666   3.409  16.038  0.6073  1.0597  0.8436
   61TMC2    H1  953   0.508   3.687  15.760 -1.7185  0.5374  0.7468
   61TMC2    H2  954   0.410   3.714  16.176  1.7053 -0.2471  0.5606
   61TMC2    C7  955   0.363   3.816  15.930 -0.1733 -0.2156  0.2839
   61TMC2    C8  956   0.528   3.512  16.255  0.9354 -0.2138 -0.2313
   61TMC2    O1  957   0.399   3.883  15.832 -0.1077  0.3819 -0.0023
   61TMC2    O2  958   0.444   3.561  16.328  0.2425 -0.4208 -0.3615
   61TMC2    O5  959   0.654   3.490  16.297  0.1656  0.3313  0.2650
   61TMC2    H5  960   0.721   3.449  16.238  0.1747  2.0073 -0.8900
   62MPD2     C  961   0.882   3.478  15.572  0.1639  0.0954 -0.0493
   62MPD2    C1  962   0.752   3.515  15.555 -0.4086 -0.4383  0.1676
   62MPD2    C2  963   0.713   3.567  15.439 -0.0838 -0.2969  0.4059
   62MPD2    C3  964   0.795   3.567  15.329  0.1088  0.2764 -0.3681
   62MPD2    C4  965   0.926   3.529  15.346 -0.0873 -0.3465  0.5464
   62MPD2    C5  966   0.971   3.488  15.471  0.9982  0.1170  0.4001
   62MPD2     H  967   0.609   3.597  15.430  0.1740  0.5194  0.2361
   62MPD2    H1  968   0.994   3.525  15.262 -2.0524  0.5218 -1.0889
   62MPD2    H2  969   0.910   3.436  15.668  0.6418 -1.7535 -0.9976
   62MPD2    H3  970   1.075   3.459  15.480  0.2191 -2.8566 -0.3872
   62MPD2     N  971   0.754   3.624  15.210 -0.0549 -0.3551  0.4745
   62MPD2    H5  972   0.827   3.649  15.143  0.8119 -1.3099  1.0730
   62MPD2    N1  973   0.657   3.522  15.666  0.0751  0.3593 -0.5307
   62MPD2    H7  974   0.562   3.553  15.647  0.9484  2.3201 -1.6969
   63TMC2    C1  975   4.115   4.098  10.632 -0.6520  0.0148  0.1530
   63TMC2    C2  976   4.252   4.101  10.641  0.1741 -0.2149 -0.1233
   63TMC2    C3  977   4.326   4.131  10.529  0.3336 -0.4907  0.8472
   63TMC2    C4  978   4.062   4.105  10.510 -0.5544  0.4807  0.2207
   63TMC2    C5  979   4.139   4.147  10.400 -0.3070 -0.6661  0.5018
   63TMC2    C6  980   4.272   4.170  10.412 -0.3863  0.7514  0.2809
   63TMC2     C  981   4.037   4.039  10.737  0.2054  0.4137  0.6693
   63TMC2     O  982   3.937   3.983  10.698 -0.1399 -0.6714 -0.1801
   63TMC2     H  983   4.305   4.075  10.732  0.5150  2.4930  0.4602
   63TMC2    H1  984   3.956   4.097  10.490 -0.4042 -2.5435  0.6711
   63TMC2    H2  985   4.326   4.191  10.320  1.3156 -0.7952  0.9238
   63TMC2    C7  986   4.074   4.209  10.290 -0.4180  0.2221 -0.8490
   63TMC2    C8  987   4.468   4.096  10.536  0.2928 -0.2724  0.0665
   63TMC2    O1  988   3.950   4.197  10.287 -0.0008  0.0042 -0.6216
   63TMC2    O2  989   4.501   4.014  10.618 -0.2456 -0.0899  0.0174
   63TMC2    O5  990   4.535   4.149  10.433  0.1495  0.3764  0.4031
   63TMC2    H5  991   4.485   4.226  10.402 -1.4197 -1.0264 -0.5323
   64MPD2     C  992   3.988   3.850  11.210  0.1185  0.3237 -0.2211
   64MPD2    C1  993   3.942   3.803  11.085 -0.3201  0.4544  0.0406
   64MPD2    C2  994   3.973   3.875  10.973 -0.6529 -0.3307 -0.1801
   64MPD2    C3  995   4.055   3.981  10.977 -0.1142  0.0349  0.0419
   64MPD2    C4  996   4.094   4.028  11.101 -0.6422  0.2936  0.0629
   64MPD2    C5  997   4.073   3.962  11.215 -0.3013  0.1460  0.5036
   64MPD2     H  998   3.943   3.838  10.876  1.1792 -0.9149 -0.5187
   64MPD2    H1  999   4.153   4.119  11.104  1.4446 -1.0965  1.4747
   64MPD2    H2 1000   3.963   3.798  11.302 -2.6930 -0.8841 -1.6382
   64MPD2    H3 1001   4.108   4.001  11.310  2.6330 -0.1876 -0.4555
   64MPD2     N 1002   4.102   4.041  10.859 -0.0779  0.5154 -0.2466
   64MPD2    H5 1003   4.181   4.103  10.870 -0.8703  0.7834  3.9828
   64MPD2    N1 1004   3.873   3.681  11.066 -0.0968  0.6121  0.1765
   64MPD2    H7 1005   3.850   3.655  10.970  0.5474  0.3639  0.0859
   65TMC2    C1 1006   1.385   3.262  15.979 -0.3279  0.6999 -0.3137
   65TMC2    C2 1007   1.520   3.261  15.946  0.4076  1.2883  0.2049
   65TMC2    C3 1008   1.557   3.359  15.863  0.4421  0.9564 -0.2128
   65TMC2    C4 1009   1.291   3.350  15.950 -0.5616  0.3385  0.3032
   65TMC2    C5 1010   1.332   3.450  15.869  0.1403  0.4420  0.4305
   65TMC2    C6 1011   1.466   3.458  15.824  0.1605  0.2491 -0.5798
   65TMC2     C 1012   1.344   3.132  16.031  0.2175  0.4043  0.5424
   65TMC2     O 1013   1.417   3.076  16.113  0.0673  0.6356  0.1666
   65TMC2     H 1014   1.582   3.181  15.986  0.0949  0.5735 -0.7306
   65TMC2    H1 1015   1.192   3.338  15.993  0.0964 -2.1944  1.0845
   65TMC2    H2 1016   1.496   3.537  15.756  0.2641  1.4057  0.7999
   65TMC2    C7 1017   1.243   3.561  15.833 -0.4856 -0.5500  0.1704
   65TMC2    C8 1018   1.672   3.346  15.775 -0.2946 -0.9914  0.6747
   65TMC2    O1 1019   1.289   3.623  15.734 -0.1090 -0.1373  0.5049
   65TMC2    O2 1020   1.678   3.379  15.657  0.0417  0.3794 -0.1629
   65TMC2    O5 1021   1.767   3.280  15.849  0.2890 -0.3791  0.0356
   65TMC2    H5 1022   1.753   3.278  15.947  0.8966  0.9478  0.1476
   66MPD2     C 1023   1.170   2.906  16.087 -0.1508  0.2805 -0.5320
   66MPD2    C1 1024   1.165   2.967  15.967 -0.1489 -0.2387 -0.0773
   66MPD2    C2 1025   1.080   2.911  15.871 -0.0306  0.5537 -1.1781
   66MPD2    C3 1026   1.005   2.802  15.894  0.3024 -0.1783  0.3432
   66MPD2    C4 1027   1.010   2.737  16.021  0.1972  0.1815 -0.2439
   66MPD2    C5 1028   1.096   2.791  16.116  0.5349  0.1469  0.2526
   66MPD2     H 1029   1.078   2.950  15.770  1.5117 -1.8900 -2.1484
   66MPD2    H1 1030   0.950   2.652  16.048  0.8486 -0.2122 -0.0353
   66MPD2    H2 1031   1.233   2.952  16.163  3.8335 -2.2359 -2.3477
   66MPD2    H3 1032   1.119   2.752  16.215 -0.3116  0.2934  0.5090
   66MPD2     N 1033   0.927   2.741  15.794 -0.7257 -0.1057 -0.7399
   66MPD2    H5 1034   0.872   2.661  15.824  0.4670  0.0672  1.9500
   66MPD2    N1 1035   1.241   3.089  15.949 -0.4002 -0.1757  0.0250
   66MPD2    H7 1036   1.223   3.146  15.866 -0.3870  2.3064  1.7389
   67TMC2    C1 1037   0.717   2.775  14.392 -0.0561 -0.1251 -0.2454
   67TMC2    C2 1038   0.726   2.910  14.376 -0.5264  0.8985  0.5744
   67TMC2    C3 1039   0.826   2.966  14.449  0.5491 -0.0959  0.3249
   67TMC2    C4 1040   0.790   2.708  14.485 -0.5745  0.0366 -0.2263
   67TMC2    C5 1041   0.887   2.770  14.555  0.2943  0.3934  0.0275
   67TMC2    C6 1042   0.909   2.899  14.537 -0.1964 -0.2109  0.5409
   67TMC2     C 1043   0.649   2.691  14.295 -0.1434  0.4326  0.3344
   67TMC2     O 1044   0.652   2.571  14.310 -0.9629 -0.4428 -0.2053
   67TMC2     H 1045   0.683   2.967  14.295  2.3378  1.8201 -0.2891
   67TMC2    H1 1046   0.770   2.602  14.493  0.1622 -0.0108  1.0257
   67TMC2    H2 1047   0.984   2.952  14.595  0.1955  2.1914 -2.0985
   67TMC2    C7 1048   0.953   2.704  14.665  0.0488  0.7537  0.9268
   67TMC2    C8 1049   0.866   3.103  14.411  0.0329  0.4725  0.0781
   67TMC2    O1 1050   0.995   2.772  14.755  0.3266 -0.6008  0.0190
   67TMC2    O2 1051   0.982   3.138  14.385 -0.1935 -0.3178 -0.0345
   67TMC2    O5 1052   0.752   3.183  14.404  0.2409 -0.0395 -0.2304
   67TMC2    H5 1053   0.672   3.139  14.440 -1.0838  0.8458 -2.0656
   68MPD2     C 1054   0.453   2.593  14.092  0.0402  0.7977  0.3716
   68MPD2    C1 1055   0.502   2.717  14.099  0.2120  0.2857 -0.1838
   68MPD2    C2 1056   0.467   2.810  13.998  0.3523 -0.1628  0.4570
   68MPD2    C3 1057   0.410   2.773  13.879  0.3116 -0.3918  0.0625
   68MPD2    C4 1058   0.366   2.641  13.876  0.0849  0.2852 -0.5040
   68MPD2    C5 1059   0.386   2.550  13.978  0.2359 -0.5129 -0.1563
   68MPD2     H 1060   0.488   2.914  14.018 -0.0232  0.3724 -1.9158
   68MPD2    H1 1061   0.308   2.609  13.791  0.7240 -2.1979  0.0002
   68MPD2    H2 1062   0.468   2.529  14.178  0.6413  1.0594  0.4626
   68MPD2    H3 1063   0.333   2.456  13.974 -0.6298 -0.0311 -0.1119
   68MPD2     N 1064   0.377   2.867  13.779  0.4789 -0.0522 -0.3858
   68MPD2    H5 1065   0.314   2.840  13.704 -2.0938 -0.0680  1.7588
   68MPD2    N1 1066   0.583   2.765  14.204  0.3102  0.6831 -0.7584
   68MPD2    H7 1067   0.588   2.866  14.208 -0.4506  0.6977 -0.1445
   69TMC2    C1 1068   2.985   3.339  12.759 -0.7159 -0.1332 -0.5786
   69TMC2    C2 1069   3.070   3.396  12.857 -0.0106 -0.0849 -0.4008
   69TMC2    C3 1070   3.149   3.494  12.808  0.3202  0.7270  0.7020
   69TMC2    C4 1071   2.971   3.389  12.633 -0.0331 -0.8006  0.1595
   69TMC2    C5 1072   3.053   3.484  12.593  1.0964  0.0410 -0.0434
   69TMC2    C6 1073   3.140   3.545  12.675  0.6783  0.5520 -0.6425
   69TMC2     C 1074   2.913   3.225  12.814  0.6744  0.5561  0.8744
   69TMC2     O 1075   2.952   3.174  12.918  0.3241  0.1275 -0.4197
   69TMC2     H 1076   3.081   3.349  12.954 -0.8761  0.0048 -0.2611
   69TMC2    H1 1077   2.922   3.333  12.554 -0.3117 -0.3975  0.0500
   69TMC2    H2 1078   3.203   3.620  12.629  1.2778 -0.4358 -1.4335
   69TMC2    C7 1079   3.072   3.523  12.452  0.2678  0.1781  0.7135
   69TMC2    C8 1080   3.231   3.579  12.893  1.0621  0.3583  0.1241
   69TMC2    O1 1081   3.187   3.556  12.414  0.1373 -0.4708  0.8605
   69TMC2    O2 1082   3.314   3.657  12.845 -0.4171  0.0037 -0.3144
   69TMC2    O5 1083   3.162   3.593  13.011  0.2324  0.5852 -0.0548
   69TMC2    H5 1084   3.105   3.518  13.038 -1.4077  1.9327  0.2772
   70MPD2     C 1085   2.706   2.990  12.632  0.4749  0.0592 -0.0752
   70MPD2    C1 1086   2.767   3.054  12.740 -0.0940  0.5147 -0.7484
   70MPD2    C2 1087   2.732   3.008  12.867 -0.0729 -0.2640  0.2121
   70MPD2    C3 1088   2.639   2.900  12.884 -0.1395  0.0385  0.2254
   70MPD2    C4 1089   2.588   2.837  12.772 -0.3701 -0.1014 -0.0514
   70MPD2    C5 1090   2.622   2.887  12.651  0.5178  0.2892 -0.3886
   70MPD2     H 1091   2.772   3.047  12.960  1.9936 -0.8594 -0.4212
   70MPD2    H1 1092   2.512   2.760  12.779 -1.4259  1.0419  1.2266
   70MPD2    H2 1093   2.722   3.009  12.527  0.6970  0.6477  0.0676
   70MPD2    H3 1094   2.584   2.833  12.565  2.4210 -2.5124  0.5007
   70MPD2     N 1095   2.607   2.865  13.014 -0.1440 -0.7559  0.1433
   70MPD2    H5 1096   2.644   2.919  13.092 -1.1475 -0.5167  0.4517
   70MPD2    N1 1097   2.827   3.176  12.720 -0.1058 -0.3756 -0.2010
   70MPD2    H7 1098   2.840   3.217  12.629  1.7469 -3.4397 -1.3026
   71TMC2    C1 1099   1.207   0.454   1.576  0.5027 -0.1392  0.4464
   71TMC2    C2 1100   1.329   0.444   1.636  0.0944 -0.7932  0.2649
   71TMC2    C3 1101   1.321   0.430   1.767  0.4315  0.1771 -0.0372
   71TMC2    C4 1102   1.088   0.447   1.637  0.4422 -0.7458  0.2976
   71TMC2    C5 1103   1.084   0.423   1.773 -0.8119  0.3649  0.5381
   71TMC2    C6 1104   1.203   0.417   1.838 -1.0010  0.2092  0.2231
   71TMC2     C 1105   1.196   0.479   1.434 -0.6288 -0.7442  0.1866
   71TMC2     O 1106   1.111   0.559   1.398  0.4138  0.1825 -0.3001
   71TMC2     H 1107   1.428   0.449   1.591 -0.2294 -0.2015 -0.3798
   71TMC2    H1 1108   0.997   0.453   1.578  0.5046 -1.9107  0.0791
   71TMC2    H2 1109   1.204   0.399   1.945  0.0823 -1.5221 -0.0803
   71TMC2    C7 1110   0.970   0.453   1.856  0.1996  0.0738 -0.3678
   71TMC2    C8 1111   1.444   0.400   1.836  0.2994  0.1338  1.1881
   71TMC2    O1 1112   0.980   0.415   1.968 -0.3088  0.2617  0.3910
   71TMC2    O2 1113   1.450   0.308   1.915 -0.1665  1.1149  0.0663
   71TMC2    O5 1114   1.527   0.509   1.826 -0.0878  0.2384  0.2475
   71TMC2    H5 1115   1.494   0.568   1.755  0.9294 -0.4665 -0.8171
   72MPD2     C 1116   1.383   0.530   0.959  0.7210  0.6462  0.7139
   72MPD2    C1 1117   1.254   0.563   1.013 -0.3867 -0.0438 -0.1042
   72MPD2    C2 1118   1.223   0.530   1.142 -0.1732  0.9125 -0.0868
   72MPD2    C3 1119   1.317   0.461   1.224  0.8226  0.4262 -0.0562
   72MPD2    C4 1120   1.443   0.425   1.165  0.1570 -0.6953 -0.1909
   72MPD2    C5 1121   1.473   0.461   1.035 -0.0212  0.9675 -1.4623
   72MPD2     H 1122   1.123   0.557   1.174 -1.2128  0.2288 -2.6677
   72MPD2    H1 1123   1.527   0.380   1.217 -0.3494 -1.4059  0.0045
   72MPD2    H2 1124   1.409   0.563   0.859  3.2982 -0.8783  0.8786
   72MPD2    H3 1125   1.569   0.419   1.006  0.8443  0.8309  1.5040
   72MPD2     N 1126   1.308   0.429   1.362 -0.3324  0.0312 -0.5647
   72MPD2    H5 1127   1.391   0.398   1.412  0.0056  1.2540 -0.3531
   72MPD2    N1 1128   1.153   0.625   0.935 -0.0798 -0.0646 -0.0257
   72MPD2    H7 1129   1.064   0.644   0.981  0.6270 -1.1775  1.8107
   73TMC2    C1 1130   4.496   1.109  14.472  0.2787  0.8773 -0.1876
   73TMC2    C2 1131   4.493   1.182  14.589  0.1714  0.1619 -0.0918
   73TMC2    C3 1132   4.552   1.139  14.701 -0.2280  0.0908 -0.1432
   73TMC2    C4 1133   4.557   0.984  14.474 -0.4696 -1.1988 -0.5367
   73TMC2    C5 1134   4.641   0.956  14.578  0.1307 -0.3012 -0.3289
   73TMC2    C6 1135   4.623   1.020  14.697  0.6589 -0.8047  0.3173
   73TMC2     C 1136   4.543   1.188  14.358  0.4681 -1.0659 -0.6817
   73TMC2     O 1137   4.632   1.131  14.295 -0.3050 -0.1648  0.0300
   73TMC2     H 1138   4.446   1.279  14.583 -1.1369 -0.3125  2.3390
   73TMC2    H1 1139   4.569   0.922  14.385  2.3292 -0.7841 -0.4516
   73TMC2    H2 1140   4.691   0.994  14.778  0.3118 -1.7841  0.2968
   73TMC2    C7 1141   0.048   0.918  14.557  1.3464 -0.3228 -0.6363
   73TMC2    C8 1142   4.556   1.222  14.823  0.0054  0.4211  0.5039
   73TMC2    O1 1143   0.114   0.863  14.648 -0.1660 -0.5068 -0.8769
   73TMC2    O2 1144   4.542   1.344  14.823 -0.2385  0.0635 -0.2973
   73TMC2    O5 1145   4.540   1.138  14.927 -0.3658 -0.2645 -0.0140
   73TMC2    H5 1146   4.510   1.050  14.896 -1.0940  0.2226 -0.7056
   74MPD2     C 1147   4.467   1.527  13.991  0.1246  0.5198  0.4219
   74MPD2    C1 1148   4.580   1.446  14.014 -0.1632 -0.7210  0.7274
   74MPD2    C2 1149   4.577   1.375  14.131  0.3012 -0.1727 -0.9253
   74MPD2    C3 1150   4.465   1.373  14.211 -0.1529  0.0315  0.1326
   74MPD2    C4 1151   4.347   1.443  14.176  0.0368 -0.2013  0.2183
   74MPD2    C5 1152   4.352   1.532  14.071 -0.2126 -0.0430 -0.2879
   74MPD2     H 1153   4.665   1.316  14.153 -0.1332 -0.0225  1.2285
   74MPD2    H1 1154   4.258   1.435  14.237  0.9254 -1.4458  1.3192
   74MPD2    H2 1155   4.477   1.590  13.903 -1.6417  0.7969  0.4233
   74MPD2    H3 1156   4.258   1.574  14.038 -1.6749 -3.3532 -0.2750
   74MPD2     N 1157   4.453   1.282  14.320 -0.3035  0.0576 -0.5376
   74MPD2    H5 1158   4.360   1.288  14.360  0.6715  0.8090  1.6028
   74MPD2    N1 1159   4.693   1.452  13.931  0.0320 -0.2188 -0.5872
   74MPD2    H7 1160   4.698   1.530  13.867  0.8900  1.4876  1.5676
   75TMC2    C1 1161   0.360   3.069  13.677  0.4407 -0.3029  0.3611
   75TMC2    C2 1162   0.406   3.199  13.660  0.7061 -0.1708  0.1068
   75TMC2    C3 1163   0.340   3.276  13.572 -0.5680  0.1688  0.6270
   75TMC2    C4 1164   0.239   3.032  13.614  0.4301 -0.4240  0.1393
   75TMC2    C5 1165   0.180   3.118  13.524 -0.5404 -0.4691  0.4515
   75TMC2    C6 1166   0.233   3.241  13.495 -0.3503 -0.6823  0.2865
   75TMC2     C 1167   0.431   2.988  13.771  0.6026  0.3176  0.5081
   75TMC2     O 1168   0.532   3.036  13.819  0.9244 -0.4134  0.2304
   75TMC2     H 1169   0.485   3.246  13.718  1.1223 -0.0705 -0.5355
   75TMC2    H1 1170   0.187   2.942  13.642  0.7549 -0.2143  1.4199
   75TMC2    H2 1171   0.188   3.317  13.432 -1.8563 -1.8639 -0.0735
   75TMC2    C7 1172   0.076   3.059  13.451 -0.0987  0.2852 -0.2241
   75TMC2    C8 1173   0.411   3.387  13.519  0.5012  0.3092  0.0039
   75TMC2    O1 1174   0.065   2.937  13.468 -0.1085  0.4305  0.2750
   75TMC2    O2 1175   0.530   3.391  13.496  0.2027  0.2846 -0.3441
   75TMC2    O5 1176   0.329   3.494  13.510  0.0067  0.2482 -0.0215
   75TMC2    H5 1177   0.250   3.482  13.568 -1.2719  0.8582 -1.6167
   76TMC2    C1 1178   3.331   2.495  11.935  1.2667 -0.7474  0.2421
   76TMC2    C2 1179   3.197   2.468  11.940  0.0569 -0.5345  0.0049
   76TMC2    C3 1180   3.156   2.349  11.992 -0.0164  0.6568  0.4229
   76TMC2    C4 1181   3.427   2.407  11.978  0.2442  0.2854  0.4891
   76TMC2    C5 1182   3.379   2.298  12.045 -0.2927 -0.2468  0.3528
   76TMC2    C6 1183   3.244   2.272  12.054 -0.6832 -0.0625 -0.3430
   76TMC2     C 1184   3.370   2.635  11.904  0.4751  0.0114 -0.5415
   76TMC2     O 1185   3.269   2.705  11.879  0.0718 -0.0224 -0.2790
   76TMC2     H 1186   3.115   2.528  11.902  0.8751  0.5250 -0.1043
   76TMC2    H1 1187   3.533   2.429  11.966 -0.1607  0.5360 -2.5913
   76TMC2    H2 1188   3.201   2.178  12.085  1.1579 -1.5429 -2.2670
   76TMC2    C7 1189   3.458   2.213  12.134 -0.1208 -0.0648  0.0394
   76TMC2    C8 1190   3.018   2.295  11.989  0.2506  0.4112 -0.1150
   76TMC2    O1 1191   3.418   2.101  12.164  0.0883  0.1098 -0.0280
   76TMC2    O2 1192   2.969   2.232  12.083 -0.4425  0.3430 -0.2402
   76TMC2    O5 1193   2.952   2.351  11.881 -0.1621  0.3182  0.0983
   76TMC2    H5 1194   3.016   2.391  11.818 -0.1059 -1.1493 -0.7682
   77MPD2     C 1195   3.691   3.023  11.808 -0.0464 -0.0052 -0.4982
   77MPD2    C1 1196   3.558   3.016  11.798  0.3654 -0.4873  0.7056
   77MPD2    C2 1197   3.494   2.898  11.838 -0.0576  0.2379 -0.1146
   77MPD2    C3 1198   3.561   2.793  11.893  0.0543 -0.1928 -0.7689
   77MPD2    C4 1199   3.694   2.799  11.899  0.2002  0.3904 -0.3501
   77MPD2    C5 1200   3.758   2.913  11.850  0.0121  0.2032 -0.1284
   77MPD2     H 1201   3.386   2.901  11.827 -0.1766  1.2757  1.2781
   77MPD2    H1 1202   3.757   2.719  11.935  0.4087  0.4876 -0.5007
   77MPD2    H2 1203   3.747   3.110  11.777 -0.4319  0.6839  0.7606
   77MPD2    H3 1204   3.867   2.908  11.852 -0.0366 -1.3867 -0.7697
   77MPD2     N 1205   3.503   2.666  11.930 -0.1316  0.2736  0.3651
   77MPD2    H5 1206   3.557   2.587  11.963 -1.1754  0.0841  1.6135
   77MPD2    N1 1207   3.481   3.128  11.759  0.6031 -0.8954  0.1768
   77MPD2    H7 1208   3.381   3.114  11.768  0.5973 -0.0934  1.3607
   78TMC2    C1 1209   0.486   0.113   2.047 -0.3489 -0.0687  0.3754
   78TMC2    C2 1210   0.381   0.052   1.987  0.0514  0.4111  0.0486
   78TMC2    C3 1211   0.387   0.017   1.856  0.2764 -0.3207  0.3501
   78TMC2    C4 1212   0.604   0.142   1.977 -0.0930  0.0500  0.1659
   78TMC2    C5 1213   0.604   0.102   1.844  0.0224  0.2841 -0.0363
   78TMC2    C6 1214   0.494   0.056   1.781 -0.7474 -0.4950 -0.1891
   78TMC2     C 1215   0.460   0.160   2.182 -0.5842 -1.0309  0.2945
   78TMC2     O 1216   0.389   0.103   2.258 -0.3362 -0.0675 -0.1179
   78TMC2     H 1217   0.284   0.048   2.035 -0.4172 -0.1805 -0.9399
   78TMC2    H1 1218   0.684   0.202   2.019  0.4435  0.3198 -1.2537
   78TMC2    H2 1219   0.487   0.024   1.678  1.8641  0.1444 -0.5670
   78TMC2    C7 1220   0.720   0.121   1.762  0.2824  0.8521  0.7206
   78TMC2    C8 1221   0.264   4.696   1.788  0.1712  0.4100  0.5753
   78TMC2    O1 1222   0.826   0.117   1.818  0.2820 -0.0242 -0.7436
   78TMC2    O2 1223   0.263   4.692   1.663  0.0865  0.5126  0.4688
   78TMC2    O5 1224   0.218   4.601   1.868 -0.2260 -0.1710 -0.2145
   78TMC2    H5 1225   0.241   4.596   1.963 -0.1396  1.6822 -0.1382
   79MPD1     C 1226   0.681   0.356   2.614  0.1401  0.5228 -0.1263
   79MPD1    C1 1227   0.558   0.302   2.591 -0.1726  0.6260 -0.3001
   79MPD1    C2 1228   0.514   0.275   2.463 -0.2399 -0.0372  0.1365
   79MPD1    C3 1229   0.601   0.289   2.356  0.7230  0.0300 -0.7251
   79MPD1    C4 1230   0.736   0.318   2.375 -0.0360 -0.1634 -0.1428
   79MPD1    C5 1231   0.764   0.359   2.502  0.2430  0.6777 -0.1659
   79MPD1     H 1232   0.411   0.241   2.453 -0.0689 -0.8698  1.2346
   79MPD1    H1 1233   0.804   0.314   2.290  0.9682  2.0972  0.5461
   79MPD1    H2 1234   0.724   0.379   2.711  1.9860 -2.9288 -0.0955
   79MPD1    H3 1235   0.864   0.395   2.522 -0.0222  0.6486  1.1762
   79MPD1     N 1236   0.568   0.234   2.230 -0.0626 -0.0675 -0.0628
   79MPD1    H5 1237   0.643   0.246   2.163  0.8159  0.2602  0.9876
   79MPD1    N1 1238   0.474   0.286   2.703 -0.2636  0.7472  0.3712
   79MPD1    H6 1239   0.520   0.261   2.790 -0.6096  0.0640  0.3633
   79MPD1    H7 1240   0.399   0.217   2.692 -0.8778  1.4305  0.2378
   80TMC2    C1 1241   1.817   2.082  12.019  0.2981 -0.4992 -0.2065
   80TMC2    C2 1242   1.799   1.993  11.916  0.1769  0.1380  0.8155
   80TMC2    C3 1243   1.748   1.868  11.953 -0.2001  0.1070 -0.1806
   80TMC2    C4 1244   1.784   2.048  12.153 -0.2927  0.0057 -0.0766
   80TMC2    C5 1245   1.740   1.928  12.182  0.5582 -0.0690 -0.1634
   80TMC2    C6 1246   1.709   1.834  12.083 -0.4006 -0.4886 -0.6916
   80TMC2     C 1247   1.848   2.221  11.980 -0.7674  0.1299  0.1304
   80TMC2     O 1248   1.880   2.238  11.863 -0.7913  0.0535  0.3704
   80TMC2     H 1249   1.827   2.017  11.815  0.8384 -3.2303  0.2301
   80TMC2    H1 1250   1.798   2.117  12.236  3.9044 -2.2897  1.1394
   80TMC2    H2 1251   1.681   1.734  12.113 -2.3559  0.0766 -0.6512
   80TMC2    C7 1252   1.751   1.875  12.318  0.4940 -0.8922 -0.0406
   80TMC2    C8 1253   1.726   1.774  11.843 -0.4549 -0.5897 -0.3588
   80TMC2    O1 1254   1.676   1.779  12.327  0.3505  0.0717  0.3230
   80TMC2    O2 1255   1.792   1.777  11.736  0.0801 -0.2521 -0.8665
   80TMC2    O5 1256   1.606   1.727  11.855  0.4443 -0.5155  0.1526
   80TMC2    H5 1257   1.542   1.764  11.920  1.9287 -1.6255  2.2627
   81MPD2     C 1258   1.866   2.524  11.947 -0.4585  0.0318 -0.2615
   81MPD2    C1 1259   1.867   2.456  12.065  0.2357 -0.1754 -0.0049
   81MPD2    C2 1260   1.881   2.538  12.183 -0.1067  0.9803 -0.8237
   81MPD2    C3 1261   1.895   2.674  12.176  0.2198 -0.3010 -0.1504
   81MPD2    C4 1262   1.894   2.734  12.049  0.2593 -0.6092  0.1248
   81MPD2    C5 1263   1.870   2.655  11.942  1.0197  0.3710 -0.1191
   81MPD2     H 1264   1.867   2.492  12.280 -2.5889  0.8984 -1.2239
   81MPD2    H1 1265   1.917   2.835  12.018 -1.6823  0.2705  1.5259
   81MPD2    H2 1266   1.864   2.468  11.854  2.8404  1.6285 -1.2550
   81MPD2    H3 1267   1.867   2.703  11.845 -1.8579 -1.1797 -0.7985
   81MPD2     N 1268   1.896   2.749  12.291  0.4550 -0.0441 -0.0329
   81MPD2    H5 1269   1.890   2.698  12.379  2.1053  0.8480  0.5941
   81MPD2    N1 1270   1.841   2.315  12.086  1.1000  0.1622 -0.1997
   81MPD2    H7 1271   1.848   2.273  12.178  1.1021 -2.5761 -1.4726
   82TMC2    C1 1272   0.812   2.307  11.810 -0.0889 -0.0388 -0.0758
   82TMC2    C2 1273   0.811   2.356  11.935  0.7198  0.2853  0.2651
   82TMC2    C3 1274   0.793   2.257  12.027  0.3799  0.6912 -0.6691
   82TMC2    C4 1275   0.784   2.176  11.769  0.2975 -0.7743 -0.0318
   82TMC2    C5 1276   0.754   2.089  11.867 -0.5300  0.4807  0.2553
   82TMC2    C6 1277   0.764   2.127  11.997 -0.3035 -0.3049 -0.1378
   82TMC2     C 1278   0.818   2.397  11.698  0.4658 -0.4808  0.2490
   82TMC2     O 1279   0.832   2.347  11.590  0.2439 -0.0462 -0.2947
   82TMC2     H 1280   0.851   2.453  11.965 -1.3019  1.1462  0.1814
   82TMC2    H1 1281   0.781   2.151  11.664  0.0805 -3.1452  0.5245
   82TMC2    H2 1282   0.729   2.065  12.078  0.5277 -0.0444  0.4140
   82TMC2    C7 1283   0.647   1.989  11.844  0.1796  0.7474  0.0168
   82TMC2    C8 1284   0.788   2.293  12.167 -0.3021  0.0010  0.6326
   82TMC2    O1 1285   0.577   1.973  11.942  1.0669 -0.3253 -0.2282
   82TMC2    O2 1286   0.812   2.216  12.258 -0.4487  0.0106 -0.3525
   82TMC2    O5 1287   0.752   2.428  12.172 -0.0483  0.5392 -0.1507
   82TMC2    H5 1288   0.709   2.461  12.090 -0.0812 -2.0470 -1.1736
   83MPD2     C 1289   0.677   2.845  11.474 -0.1052 -0.3539  0.0033
   83MPD2    C1 1290   0.667   2.717  11.431  0.0080  0.3684  0.0769
   83MPD2    C2 1291   0.715   2.606  11.504  0.2130 -0.1001 -0.7472
   83MPD2    C3 1292   0.756   2.627  11.635  0.1634  0.1457  1.0943
   83MPD2    C4 1293   0.753   2.756  11.680  1.3556  0.0088 -0.9702
   83MPD2    C5 1294   0.716   2.863  11.602 -0.6473 -0.1522  0.0135
   83MPD2     H 1295   0.718   2.502  11.474  3.1025  0.2805 -1.7280
   83MPD2    H1 1296   0.779   2.781  11.782  0.9179 -0.1719 -0.8158
   83MPD2    H2 1297   0.656   2.932  11.413 -0.0473  0.3267  0.9498
   83MPD2    H3 1298   0.726   2.963  11.643 -0.7454 -0.0166 -0.2918
   83MPD2     N 1299   0.790   2.528  11.726 -0.2321 -0.5119  0.1141
   83MPD2    H5 1300   0.792   2.564  11.821  1.7576  3.0207 -1.2459
   83MPD2    N1 1301   0.607   2.692  11.303  0.5318  0.8645  0.2055
   83MPD2    H7 1302   0.549   2.767  11.268 -1.1492 -0.1780  0.7692
   84TMC2    C1 1303   1.495   1.758  11.128  0.1974 -0.0701 -0.3885
   84TMC2    C2 1304   1.437   1.643  11.177 -0.0063  0.2829 -0.2072
   84TMC2    C3 1305   1.501   1.523  11.149  0.2368 -0.2409  0.4813
   84TMC2    C4 1306   1.615   1.748  11.063 -0.7923 -0.1405 -0.2904
   84TMC2    C5 1307   1.670   1.629  11.043 -0.4945  0.0017 -0.4588
   84TMC2    C6 1308   1.609   1.514  11.083  0.3457 -0.4087  0.8330
   84TMC2     C 1309   1.441   1.891  11.162 -0.2316  0.4932  0.5786
   84TMC2     O 1310   1.345   1.888  11.237  0.0271 -0.1987 -0.5274
   84TMC2     H 1311   1.344   1.647  11.232 -0.1995  0.2479 -0.5273
   84TMC2    H1 1312   1.658   1.837  11.020 -0.2331 -0.7580 -1.0074
   84TMC2    H2 1313   1.657   1.418  11.069 -1.5565 -0.9838 -1.6307
   84TMC2    C7 1314   1.808   1.628  11.017 -0.2716 -0.5044  0.2479
   84TMC2    C8 1315   1.472   1.409  11.225  0.5660  0.6259 -0.0079
   84TMC2    O1 1316   1.850   1.534  10.948 -0.0623 -0.4300 -0.3868
   84TMC2    O2 1317   1.520   1.299  11.193  0.3299 -0.3041 -0.5568
   84TMC2    O5 1318   1.451   1.436  11.357  0.5915  0.6825 -0.6112
   84TMC2    H5 1319   1.429   1.526  11.390 -2.2986 -0.2137 -0.0653
   85TMC2    C1 1320   3.235   4.403  16.192 -0.3655 -0.2251 -1.0469
   85TMC2    C2 1321   3.127   4.468  16.245 -0.9953  0.4338 -0.5259
   85TMC2    C3 1322   3.090   4.590  16.191 -0.0476  0.0913  0.0650
   85TMC2    C4 1323   3.324   4.473  16.102 -0.3471 -0.3704 -0.6133
   85TMC2    C5 1324   3.278   4.585  16.047  0.2467 -0.4935 -0.1980
   85TMC2    C6 1325   3.163   4.644  16.085 -0.5904  0.2063 -1.0223
   85TMC2     C 1326   3.279   4.281  16.251 -0.1357 -0.2943  0.8966
   85TMC2     O 1327   3.398   4.270  16.277 -0.1366 -0.0976  0.6119
   85TMC2     H 1328   3.077   4.426  16.331  0.7013 -0.6467 -0.0617
   85TMC2    H1 1329   3.420   4.433  16.072  0.4534  0.6923  0.5046
   85TMC2    H2 1330   3.123   0.000  16.037 -0.7089  1.7718  1.9799
   85TMC2    C7 1331   3.330   4.609  15.910 -0.6090  0.1531  0.5276
   85TMC2    C8 1332   2.960   4.647  16.221 -0.5380  0.2507  0.0987
   85TMC2    O1 1333   3.428   4.543  15.869  0.0147  0.1673 -0.3538
   85TMC2    O2 1334   2.919   0.023  16.175 -0.2395 -0.5957 -0.7932
   85TMC2    O5 1335   2.875   4.546  16.219  0.4116 -1.0575  0.5110
   85TMC2    H5 1336   2.907   4.454  16.232  0.4780 -1.0817  0.1658
   86MPD2     C 1337   3.171   3.874  16.558 -0.1483 -0.2537 -0.6021
   86MPD2    C1 1338   3.058   3.910  16.494  0.7720 -0.2454 -0.3596
   86MPD2    C2 1339   3.052   4.025  16.409  0.0081  0.4228 -0.2925
   86MPD2    C3 1340   3.171   4.098  16.386 -0.2563  0.6563 -0.2354
   86MPD2    C4 1341   3.285   4.052  16.447 -0.0083  0.2424 -0.0513
   86MPD2    C5 1342   3.283   3.945  16.535 -0.4636 -0.3051 -0.5697
   86MPD2     H 1343   2.962   4.054  16.356  0.3645 -0.2435 -1.2775
   86MPD2    H1 1344   3.379   4.096  16.414 -0.4364  0.3676 -1.1210
   86MPD2    H2 1345   3.177   3.794  16.631  1.1422  0.6232  0.2465
   86MPD2    H3 1346   3.375   3.914  16.582 -0.3336 -0.5528 -0.9854
   86MPD2     N 1347   3.170   4.207  16.294 -0.0958  0.6561  0.1055
   86MPD2    H5 1348   3.077   4.239  16.268 -0.7060 -0.7863  0.5193
   86MPD2    N1 1349   2.932   3.838  16.508 -0.5088  0.3406 -0.0111
   86MPD2    H7 1350   2.847   3.864  16.458  0.9728  0.5074 -2.4603
   87TMC2    C1 1351   0.854   2.968   1.095  0.6725  0.1399  0.9172
   87TMC2    C2 1352   0.938   3.037   1.168  0.0826  0.5352  0.6059
   87TMC2    C3 1353   0.893   3.113   1.272  0.7922 -0.4750  0.7780
   87TMC2    C4 1354   0.720   2.954   1.127  0.4200  0.2347 -0.7190
   87TMC2    C5 1355   0.680   3.016   1.243  0.0837  0.5385 -0.7242
   87TMC2    C6 1356   0.760   3.103   1.309 -0.7992  0.0436 -0.1368
   87TMC2     C 1357   0.901   2.916   0.973  0.3105  0.2635  0.1498
   87TMC2     O 1358   0.826   2.835   0.918 -0.3978 -0.1185  0.4127
   87TMC2     H 1359   1.036   3.024   1.124 -0.0910 -2.3453  1.0678
   87TMC2    H1 1360   0.656   2.884   1.075 -0.2695  0.0789  0.3414
   87TMC2    H2 1361   0.724   3.165   1.390  0.4898  0.9801 -0.2787
   87TMC2    C7 1362   0.533   3.009   1.271 -0.3189  0.4542  0.3153
   87TMC2    C8 1363   0.982   3.126   1.384 -0.1590 -0.2305 -0.1047
   87TMC2    O1 1364   0.466   2.974   1.170 -0.3914 -0.0329  0.0063
   87TMC2    O2 1365   0.939   3.139   1.498  0.0498 -0.4090  0.2237
   87TMC2    O5 1366   1.108   3.095   1.348  0.3066 -0.2295  0.2679
   87TMC2    H5 1367   1.129   3.135   1.260  0.8087  2.3683  1.5751
   88MPD2     C 1368   0.362   3.165   1.551 -0.2446 -0.0381 -0.0491
   88MPD2    C1 1369   0.378   3.101   1.429 -0.1907 -0.3414  0.2727
   88MPD2    C2 1370   0.271   3.104   1.340 -0.6270  0.6658 -0.0646
   88MPD2    C3 1371   0.158   3.176   1.371 -0.2092  0.4465 -0.3100
   88MPD2    C4 1372   0.142   3.234   1.493  0.2238 -0.2460 -0.4140
   88MPD2    C5 1373   0.246   3.235   1.584  0.3613  0.0472 -0.0790
   88MPD2     H 1374   0.279   3.059   1.242  1.6703 -1.1416  0.9431
   88MPD2    H1 1375   0.048   3.283   1.514  0.8390  0.8233 -0.1555
   88MPD2    H2 1376   0.446   3.177   1.619 -1.8599  0.3190  1.8877
   88MPD2    H3 1377   0.243   3.285   1.680 -0.9346 -0.8396  0.3421
   88MPD2     N 1378   0.047   3.188   1.283 -0.1524 -0.9671  0.0031
   88MPD2    H5 1379   4.693   3.232   1.313  0.7776  0.8728 -0.0168
   88MPD2    N1 1380   0.499   3.045   1.401 -0.2504  0.3930 -0.2816
   88MPD2    H7 1381   0.571   3.035   1.472  1.7715  0.4767 -2.3132
   89TMC2    C1 1382   1.109   1.897   1.926  0.0416 -0.2822 -0.6921
   89TMC2    C2 1383   1.105   1.850   1.798 -0.2932 -0.3220 -1.4923
   89TMC2    C3 1384   1.200   1.900   1.716  0.1535  0.6850  0.1551
   89TMC2    C4 1385   1.211   1.970   1.983  0.5462  0.4156 -0.1144
   89TMC2    C5 1386   1.308   2.005   1.890  0.3591  0.3584  0.0850
   89TMC2    C6 1387   1.298   1.982   1.760  0.1128 -0.0203  0.6549
   89TMC2     C 1388   1.003   1.858   2.015 -0.7516 -0.0247  0.4028
   89TMC2     O 1389   0.950   1.949   2.079 -0.2706 -0.2446 -0.0576
   89TMC2     H 1390   1.032   1.791   1.743  2.0766 -1.8394 -3.0276
   89TMC2    H1 1391   1.209   2.004   2.086  2.2467  2.4092 -0.7339
   89TMC2    H2 1392   1.383   2.005   1.697  0.8756  0.6364  1.9182
   89TMC2    C7 1393   1.427   2.053   1.948  0.0504  0.1259  0.3180
   89TMC2    C8 1394   1.186   1.887   1.571 -0.1463  0.3566 -0.3927
   89TMC2    O1 1395   1.415   2.107   2.055  0.7809  0.4135 -0.2383
   89TMC2    O2 1396   1.140   1.788   1.522  0.2309 -0.3177 -0.6650
   89TMC2    O5 1397   1.174   2.009   1.527 -0.5766  0.3695  0.2751
   89TMC2    H5 1398   1.192   2.084   1.588 -3.1390  0.5464  0.8225
   90MPD2     C 1399   0.569   1.584   2.076  0.2555 -0.0108  0.3135
   90MPD2    C1 1400   0.669   1.504   2.035 -0.4857 -0.2278  0.3743
   90MPD2    C2 1401   0.800   1.558   2.006  1.2539  0.1875  0.2268
   90MPD2    C3 1402   0.830   1.690   2.023  0.0034  0.1717 -0.1091
   90MPD2    C4 1403   0.722   1.769   2.061 -0.7020 -0.1800 -0.5110
   90MPD2    C5 1404   0.601   1.715   2.102  0.6921  0.1115 -0.7501
   90MPD2     H 1405   0.881   1.496   1.972 -0.1791 -0.8243 -1.3164
   90MPD2    H1 1406   0.732   1.877   2.066 -1.4301 -0.1228 -0.3030
   90MPD2    H2 1407   0.466   1.552   2.088 -0.1875  1.3581  0.1472
   90MPD2    H3 1408   0.518   1.774   2.139  0.8617  0.6640 -1.2357
   90MPD2     N 1409   0.948   1.742   1.969  0.1098 -0.2663  0.2852
   90MPD2    H5 1410   1.015   1.683   1.921  1.3976  0.6233  0.9789
   90MPD2    N1 1411   0.645   1.369   2.013  0.2542  0.1504  0.1001
   90MPD2    H7 1412   0.727   1.311   1.997 -1.5611 -2.5155  0.4321
   91TMC2    C1 1413   2.631   0.401  16.578 -0.3021  0.2184  0.5187
   91TMC2    C2 1414   2.709   0.363  16.683 -0.1744  0.3633 -0.4843
   91TMC2    C3 1415   2.707   0.229  16.721 -0.1050 -0.2248 -0.1672
   91TMC2    C4 1416   2.563   0.303  16.497 -0.3092  0.1347 -1.1989
   91TMC2    C5 1417   2.575   0.175  16.541  0.2638  0.1996  1.0058
   91TMC2    C6 1418   2.633   0.135  16.660  0.1793  0.6131  0.4186
   91TMC2     C 1419   2.684   0.513  16.498 -0.6084  0.4509 -0.1558
   91TMC2     O 1420   2.609   0.604  16.473  0.0483 -0.4402  0.0296
   91TMC2     H 1421   2.763   0.437  16.740  1.8644 -0.7018 -1.0223
   91TMC2    H1 1422   2.519   0.324  16.400  2.7245  0.6276 -2.4667
   91TMC2    H2 1423   2.646   0.031  16.689 -1.5253  0.3168  0.1331
   91TMC2    C7 1424   2.573   0.068  16.446 -0.3123  0.5012  0.0639
   91TMC2    C8 1425   2.812   0.183  16.801 -0.0289  0.0469 -0.7951
   91TMC2    O1 1426   2.631   4.694  16.472  0.2515 -0.1266 -0.2766
   91TMC2    O2 1427   2.893   0.098  16.764  0.5425  0.3378  0.4725
   91TMC2    O5 1428   2.837   0.271  16.901 -0.4531 -0.1753  0.2451
   91TMC2    H5 1429   2.757   0.320  16.930  0.2889  1.6434 -0.7960
   92MPD2     C 1430   2.868   0.727  16.395 -0.4346 -0.0518  0.0022
   92MPD2    C1 1431   2.904   0.609  16.443 -0.3167 -0.1809  0.1288
   92MPD2    C2 1432   3.042   0.588  16.456  0.6086  0.5340  0.4695
   92MPD2    C3 1433   3.138   0.685  16.450  0.3381  0.4353  0.0805
   92MPD2    C4 1434   3.096   0.810  16.404  0.4253 -0.3015  0.2804
   92MPD2    C5 1435   2.966   0.824  16.369 -0.2536  0.0723 -0.3450
   92MPD2     H 1436   3.075   0.490  16.490 -0.5861 -0.1901 -0.4811
   92MPD2    H1 1437   3.169   0.887  16.379  1.3689 -0.6558  1.9409
   92MPD2    H2 1438   2.764   0.745  16.370  0.1174  1.6406 -1.0663
   92MPD2    H3 1439   2.940   0.921  16.327 -0.4415 -0.0683 -0.5488
   92MPD2     N 1440   3.271   0.661  16.486 -0.2467  0.3480  0.1997
   92MPD2    H5 1441   3.291   0.565  16.516 -1.2205  0.0885  0.0047
   92MPD2    N1 1442   2.819   0.507  16.488 -0.2650 -0.1826 -0.0608
   92MPD2    H7 1443   2.868   0.418  16.501  0.3545  0.4907  2.2786
   93TMC2    C1 1444   0.470   0.113  13.754  0.8971  0.1511  0.1519
   93TMC2    C2 1445   0.454   4.710  13.748  1.0104 -0.2416 -0.2845
   93TMC2    C3 1446   0.558   4.633  13.703 -0.0586 -0.0143  0.6711
   93TMC2    C4 1447   0.579   0.167  13.694 -0.5800  0.3656  0.0903
   93TMC2    C5 1448   0.679   0.088  13.651 -0.1825  0.2292  0.2259
   93TMC2    C6 1449   0.674   4.681  13.668  0.2332 -0.1406  0.4832
   93TMC2     C 1450   0.391   0.190  13.851  0.1373  0.3517 -0.4034
   93TMC2     O 1451   0.447   0.288  13.891 -0.6258  0.1292  0.2676
   93TMC2     H 1452   0.366   4.659  13.785  0.1495  0.4385 -1.4178
   93TMC2    H1 1453   0.598   0.274  13.695 -1.5701  0.5494 -1.1804
   93TMC2    H2 1454   0.752   4.612  13.638  0.5903  0.3506  0.2757
   93TMC2    C7 1455   0.796   0.149  13.598  0.1503 -0.5566  0.6306
   93TMC2    C8 1456   0.557   4.486  13.736  0.2370  0.2075 -0.1371
   93TMC2    O1 1457   0.906   0.100  13.630 -0.3120 -0.1128  0.3423
   93TMC2    O2 1458   0.618   4.388  13.691  0.3976 -0.0598 -0.1190
   93TMC2    O5 1459   0.494   4.478  13.858 -0.2917  0.1268  0.3229
   93TMC2    H5 1460   0.451   4.558  13.895  0.2700  0.3850  0.4173
   94MPD2     C 1461   0.235   0.263  14.094  0.2145  0.1707 -0.5937
   94MPD2    C1 1462   0.182   0.194  13.988 -0.3893 -0.2943  0.7341
   94MPD2    C2 1463   0.050   0.155  13.994 -0.4076  0.4646  0.3049
   94MPD2    C3 1464   4.696   0.195  14.096  0.1547 -0.2114  0.0929
   94MPD2    C4 1465   0.024   0.266  14.196  0.5476  0.0022 -0.5182
   94MPD2    C5 1466   0.157   0.305  14.197  0.1054  0.2921 -0.4252
   94MPD2     H 1467   0.014   0.095  13.911 -0.3666  0.2829  0.4176
   94MPD2    H1 1468   4.701   0.306  14.281 -1.2720 -1.5961 -0.9575
   94MPD2    H2 1469   0.340   0.292  14.095  0.3519 -0.3930  0.5259
   94MPD2    H3 1470   0.199   0.373  14.270  0.6577 -0.9884  0.4660
   94MPD2     N 1471   4.558   0.170  14.098  0.3705 -0.7191  0.5601
   94MPD2    H5 1472   4.509   0.199  14.182 -0.7533 -0.2370 -0.2561
   94MPD2    N1 1473   0.261   0.153  13.876  0.0925 -0.4362  0.2283
   94MPD2    H7 1474   0.231   0.074  13.820 -0.2476  0.4527 -0.8509
   95TMC2    C1 1475   0.174   2.452  16.326  0.5413 -0.1357 -0.3811
   95TMC2    C2 1476   0.109   2.347  16.382  0.2037  0.0416 -0.1610
   95TMC2    C3 1477   0.101   2.326  16.516 -0.2010  0.5344 -0.1630
   95TMC2    C4 1478   0.227   2.543  16.413  0.0878  0.0974 -0.0551
   95TMC2    C5 1479   0.200   2.529  16.548 -0.7008 -0.4587  0.3185
   95TMC2    C6 1480   0.137   2.424  16.608 -0.4359 -0.8747 -0.3476
   95TMC2     C 1481   0.227   2.453  16.192 -0.2036 -0.2103 -0.5000
   95TMC2     O 1482   0.316   2.533  16.170 -0.6349  0.4929 -0.3366
   95TMC2     H 1483   0.068   2.266  16.322  2.2064  0.4515 -2.0766
   95TMC2    H1 1484   0.270   2.636  16.376 -1.0764  1.3692  1.7730
   95TMC2    H2 1485   0.160   2.396  16.710 -0.5416 -3.5308 -1.0292
   95TMC2    C7 1486   0.267   2.617  16.646 -1.0766  0.2883 -0.1429
   95TMC2    C8 1487   0.018   2.212  16.557  0.0168  0.0778 -0.1709
   95TMC2    O1 1488   0.224   2.616  16.762 -0.1268 -0.1820 -0.0035
   95TMC2    O2 1489   0.006   2.115  16.484  0.3014 -0.0781  0.3610
   95TMC2    O5 1490   4.650   2.255  16.636  0.4597  0.1115  0.3941
   95TMC2    H5 1491   4.649   2.348  16.668 -0.1684  0.2066  0.1022
   96MPD2     C 1492   0.294   2.224  15.729  0.0440  0.8298 -0.3168
   96MPD2    C1 1493   0.354   2.339  15.782  0.2699  0.1494 -0.5506
   96MPD2    C2 1494   0.322   2.375  15.914  0.1853  0.3391  0.1212
   96MPD2    C3 1495   0.222   2.309  15.986 -0.6001 -0.4987  0.0979
   96MPD2    C4 1496   0.168   2.195  15.930  1.0319 -0.2279  0.3025
   96MPD2    C5 1497   0.205   2.154  15.804  0.0462  0.2813  0.0153
   96MPD2     H 1498   0.362   2.466  15.956  0.0270  0.0705  0.8420
   96MPD2    H1 1499   0.105   2.135  15.996  0.7376  0.3345  0.5291
   96MPD2    H2 1500   0.321   2.192  15.629  1.4778  0.2470  0.2448
   96MPD2    H3 1501   0.165   2.064  15.759 -0.7814  0.6703 -0.0469
   96MPD2     N 1502   0.186   2.347  16.117  0.2818  0.4408  0.1001
   96MPD2    H5 1503   0.110   2.291  16.154  0.5178 -1.0236 -1.6074
   96MPD2    N1 1504   0.443   2.408  15.694  0.9704 -0.3221  0.3071
   96MPD2    H7 1505   0.467   2.360  15.608  1.2869 -0.3416  0.4053
   97TMC2    C1 1506   2.790   0.003   0.475  0.1654  0.4452 -0.2392
   97TMC2    C2 1507   2.916   4.688   0.451 -0.2598 -0.2687  0.2807
   97TMC2    C3 1508   3.004   0.042   0.398  0.2057 -0.0746  0.1325
   97TMC2    C4 1509   2.757   0.138   0.467  0.6830 -0.2998  0.0791
   97TMC2    C5 1510   2.856   0.226   0.423  0.0049 -0.1574 -0.9695
   97TMC2    C6 1511   2.979   0.176   0.392  0.3179  0.1335 -0.4744
   97TMC2     C 1512   2.710   4.654   0.563 -0.9279  0.3712 -0.3843
   97TMC2     O 1513   2.590   4.676   0.569 -0.0913 -0.0125  0.2172
   97TMC2     H 1514   2.940   4.583   0.452  1.6444  0.1788  1.9116
   97TMC2    H1 1515   2.656   0.173   0.487  1.4920  0.4455  2.9299
   97TMC2    H2 1516   3.049   0.244   0.345  0.4683 -0.3515 -0.9505
   97TMC2    C7 1517   2.831   0.369   0.411 -0.1043 -0.0753 -0.1536
   97TMC2    C8 1518   3.141   4.728   0.381  0.7354  0.1697  0.6415
   97TMC2    O1 1519   2.929   0.439   0.421  0.3932  0.3139  0.2585
   97TMC2    O2 1520   3.188   4.631   0.439 -0.3122  0.2791 -0.8002
   97TMC2    O5 1521   3.216   0.067   0.293  0.3933 -0.3922 -0.3779
   97TMC2    H5 1522   3.165   0.135   0.243  0.8436 -0.3467 -0.7676
   98MPD2     C 1523   2.617   4.310   0.915  0.3844  0.9368 -0.6852
   98MPD2    C1 1524   2.541   4.417   0.885 -0.5638 -0.3309 -0.4793
   98MPD2    C2 1525   2.593   4.506   0.795 -0.1992 -0.0373  0.0111
   98MPD2    C3 1526   2.718   4.484   0.741  0.7063  0.0550  0.5149
   98MPD2    C4 1527   2.801   4.385   0.788  0.4904  0.8834  0.7485
   98MPD2    C5 1528   2.749   4.294   0.870  0.3234 -0.6342 -0.5158
   98MPD2     H 1529   2.538   4.596   0.769  2.5633  1.7006  0.1608
   98MPD2    H1 1530   2.904   4.371   0.759  0.4505  1.0636  0.5236
   98MPD2    H2 1531   2.571   4.230   0.972 -0.4246  1.6159 -0.3834
   98MPD2    H3 1532   2.804   4.204   0.895  2.0627  0.5581 -0.0919
   98MPD2     N 1533   2.779   4.565   0.639  0.1253 -0.2265  0.0660
   98MPD2    H5 1534   2.880   4.560   0.633  0.0620  0.9270 -1.6659
   98MPD2    N1 1535   2.421   4.436   0.954  0.8127  0.1630  0.4474
   98MPD2    H7 1536   2.374   4.356   0.995 -0.1703  1.7343  2.4173
   99TMC2    C1 1537   1.411   2.604   1.970 -0.3460 -0.1929  0.1497
   99TMC2    C2 1538   1.458   2.636   2.091 -0.1810  0.8848  0.1307
   99TMC2    C3 1539   1.380   2.709   2.175  0.1139 -0.4526 -0.5991
   99TMC2    C4 1540   1.285   2.626   1.926 -0.0920  0.7251 -0.3443
   99TMC2    C5 1541   1.199   2.687   2.012  0.3835  0.0060 -0.0937
   99TMC2    C6 1542   1.253   2.735   2.129 -0.0757 -0.3152  0.9614
   99TMC2     C 1543   1.510   2.544   1.881 -0.6135 -0.1313  0.7442
   99TMC2     O 1544   1.626   2.539   1.918  0.1577 -0.3660 -0.0439
   99TMC2     H 1545   1.560   2.616   2.121 -0.8109  0.1333  1.7448
   99TMC2    H1 1546   1.253   2.607   1.825  0.4468 -0.0887 -0.3667
   99TMC2    H2 1547   1.191   2.790   2.198  1.0952  1.1313  0.8417
   99TMC2    C7 1548   1.054   2.708   1.977 -0.7825 -0.4089 -0.0986
   99TMC2    C8 1549   1.434   2.793   2.282  0.5133  0.0605 -0.1007
   99TMC2    O1 1550   0.997   2.760   2.072 -0.5756 -0.8849 -0.1139
   99TMC2    O2 1551   1.382   2.897   2.322  0.8854  0.0078 -0.0953
   99TMC2    O5 1552   1.530   2.723   2.343  0.0557  0.3484 -0.4926
   99TMC2    H5 1553   1.536   2.629   2.316 -0.8825 -0.3185  1.6696
  100MPD2     C 1554   1.642   2.351   1.702  0.5747  0.6933  0.6163
  100MPD2    C1 1555   1.509   2.382   1.689 -1.5893 -0.3800 -0.1389
  100MPD2    C2 1556   1.432   2.323   1.588 -1.0470 -0.3892 -0.3527
  100MPD2    C3 1557   1.488   2.227   1.500 -0.5787  0.4933 -0.5171
  100MPD2    C4 1558   1.621   2.189   1.520  0.5403  0.6289  0.1254
  100MPD2    C5 1559   1.690   2.258   1.616  0.7127  0.1689  0.4061
  100MPD2     H 1560   1.331   2.362   1.577 -0.6401  0.5441 -0.7933
  100MPD2    H1 1561   1.677   2.114   1.467  1.4053  1.6521 -0.4148
  100MPD2    H2 1562   1.709   2.388   1.778  0.9763  0.1502  0.5281
  100MPD2    H3 1563   1.793   2.227   1.629  0.8533  1.0732  1.4695
  100MPD2     N 1564   1.405   2.186   1.390 -0.7896  0.2278 -0.0569
  100MPD2    H5 1565   1.305   2.202   1.390 -0.6034  1.4064 -0.6983
  100MPD2    N1 1566   1.452   2.478   1.775  0.3084 -0.1009  0.6766
  100MPD2    H7 1567   1.350   2.484   1.779  0.3653  0.0648  1.8262
  101TMC2    C1 1568   1.739   2.967  13.708  0.3271  0.7175  0.6006
  101TMC2    C2 1569   1.645   3.049  13.768  0.2264  0.2882 -0.1734
  101TMC2    C3 1570   1.646   3.177  13.731 -0.3245  0.3301 -0.1796
  101TMC2    C4 1571   1.821   3.003  13.609 -0.0842 -0.1534  0.7517
  101TMC2    C5 1572   1.807   3.132  13.563 -0.8263 -0.0541  0.7573
  101TMC2    C6 1573   1.729   3.223  13.626  0.3788 -0.4219 -0.3705
  101TMC2     C 1574   1.717   2.828  13.731  0.3093 -0.8845 -0.6791
  101TMC2     O 1575   1.646   2.798  13.826 -0.7904  0.3517  0.5179
  101TMC2     H 1576   1.585   3.009  13.849  1.6461 -0.0720  0.7041
  101TMC2    H1 1577   1.905   2.947  13.571 -0.8274 -1.8387  1.5996
  101TMC2    H2 1578   1.733   3.329  13.601  0.2979 -0.1815  0.6172
  101TMC2    C7 1579   1.902   3.167  13.456  0.0324  0.6888  0.2020
  101TMC2    C8 1580   1.562   3.271  13.794 -0.1684  0.8329 -0.0242
  101TMC2    O1 1581   2.001   3.094  13.445  0.0326 -0.3018 -0.6582
  101TMC2    O2 1582   1.532   3.375  13.741 -0.5847 -0.2869  0.0203
  101TMC2    O5 1583   1.492   3.223  13.896  0.0645  0.5991 -0.4781
  101TMC2    H5 1584   1.552   3.167  13.949  0.6615  1.2272 -0.4932
  102MPD2     C 1585   1.871   2.527  13.578 -0.3926 -0.1938 -0.1156
  102MPD2    C1 1586   1.764   2.593  13.641  0.1413  0.4210 -1.0174
  102MPD2    C2 1587   1.659   2.528  13.699 -0.6182 -0.4374  0.3482
  102MPD2    C3 1588   1.647   2.387  13.685  0.0064 -0.3274  1.0866
  102MPD2    C4 1589   1.744   2.320  13.605  0.0904 -0.3206 -0.1371
  102MPD2    C5 1590   1.852   2.393  13.547 -0.2448  0.5290  0.1429
  102MPD2     H 1591   1.576   2.582  13.743 -2.1207 -1.1238 -1.6504
  102MPD2    H1 1592   1.733   2.220  13.565 -1.5527 -0.8374  1.5784
  102MPD2    H2 1593   1.963   2.579  13.554  1.2134 -2.1485  1.7524
  102MPD2    H3 1594   1.917   2.342  13.476 -1.2587  1.5965 -1.5594
  102MPD2     N 1595   1.531   2.330  13.738 -0.0640 -0.4261  0.2561
  102MPD2    H5 1596   1.475   2.388  13.799 -1.7581 -1.6711 -0.0976
  102MPD2    N1 1597   1.785   2.737  13.654 -0.2394  0.0207  0.8736
  102MPD2    H7 1598   1.848   2.787  13.593  0.0861 -0.5146  0.7714
  103TMC2    C1 1599   4.076   2.452  12.557 -0.1685  0.6890 -0.2840
  103TMC2    C2 1600   4.181   2.374  12.596 -0.2068  0.5149  0.5075
  103TMC2    C3 1601   4.255   2.410  12.703 -0.0116  0.2324  0.8380
  103TMC2    C4 1602   4.035   2.572  12.627 -0.9634 -0.8588  0.3903
  103TMC2    C5 1603   4.109   2.591  12.742 -0.0713  0.1188  0.9315
  103TMC2    C6 1604   4.219   2.524  12.777 -0.2665  0.1976 -0.0276
  103TMC2     C 1605   3.976   2.404  12.471  0.4937  0.5784 -1.0608
  103TMC2     O 1606   3.924   2.486  12.402 -0.1056  0.6275  0.4373
  103TMC2     H 1607   4.218   2.300  12.525  2.7283  0.5811  1.9847
  103TMC2    H1 1608   3.939   2.616  12.604 -0.1010  0.5841 -0.4746
  103TMC2    H2 1609   4.269   2.566  12.864 -1.5244 -0.9783  1.2686
  103TMC2    C7 1610   4.061   2.692  12.832 -0.0089  0.0340  0.2089
  103TMC2    C8 1611   4.385   2.363  12.702  0.2412  0.2797  0.4260
  103TMC2    O1 1612   4.083   2.674  12.951  0.2584 -0.0845 -0.9836
  103TMC2    O2 1613   4.411   2.257  12.649 -0.6996 -0.1322 -0.0072
  103TMC2    O5 1614   4.448   2.410  12.807 -0.2877 -0.1812  0.2011
  103TMC2    H5 1615   4.447   2.508  12.817  1.1375 -0.1782  0.2848
  104MPD2     C 1616   3.857   2.061  12.436  0.1472 -0.2247  0.4456
  104MPD2    C1 1617   3.862   2.195  12.412 -0.2179 -0.8304  0.2312
  104MPD2    C2 1618   3.771   2.253  12.315  0.1300 -0.4369 -0.3288
  104MPD2    C3 1619   3.667   2.188  12.262 -0.1873 -0.4682  0.4900
  104MPD2    C4 1620   3.665   2.054  12.284 -0.1585  0.7243  0.2693
  104MPD2    C5 1621   3.760   1.994  12.359  0.8011 -0.0774 -1.0303
  104MPD2     H 1622   3.777   2.360  12.301 -1.5087 -0.3756 -0.4900
  104MPD2    H1 1623   3.595   1.984  12.241 -0.8921  1.2822  0.5624
  104MPD2    H2 1624   3.939   2.008  12.482  0.6304 -0.0226 -0.1818
  104MPD2    H3 1625   3.756   1.886  12.365 -0.2477 -0.0899 -2.0458
  104MPD2     N 1626   3.579   2.268  12.176  0.3415  0.5442 -0.4815
  104MPD2    H5 1627   3.601   2.364  12.154  0.2579  0.7663  0.3847
  104MPD2    N1 1628   3.963   2.267  12.477 -0.2934  0.0230 -0.1799
  104MPD2    H7 1629   4.017   2.211  12.542 -2.6679  0.1701  1.9059
  105TMC2    C1 1630   1.369   2.409   0.306  0.4254  0.3675 -0.5886
  105TMC2    C2 1631   1.279   2.318   0.340  0.3090  0.5304 -0.6060
  105TMC2    C3 1632   1.173   2.365   0.409  0.4667  0.8169 -0.7838
  105TMC2    C4 1633   1.357   2.538   0.327  0.6226  0.3272 -0.1752
  105TMC2    C5 1634   1.244   2.586   0.397  0.0860  0.1990  0.1797
  105TMC2    C6 1635   1.145   2.497   0.425  0.3649 -0.4328  0.1157
  105TMC2     C 1636   1.481   2.360   0.221  0.0282 -0.8408 -0.2510
  105TMC2     O 1637   1.512   2.243   0.218 -0.9173  0.3991 -0.4925
  105TMC2     H 1638   1.277   2.216   0.305 -1.3877  0.1581  0.5817
  105TMC2    H1 1639   1.434   2.611   0.307  1.2961 -0.6891 -1.2695
  105TMC2    H2 1640   1.058   2.536   0.476 -1.4795 -3.3604 -0.7977
  105TMC2    C7 1641   1.239   2.727   0.447  0.2755 -0.4845  0.0232
  105TMC2    C8 1642   1.078   2.267   0.433 -0.4155 -0.7287  0.1664
  105TMC2    O1 1643   1.303   2.806   0.376  0.2666 -0.3376  0.2329
  105TMC2    O2 1644   1.060   2.166   0.365  0.2787  0.6618  0.4803
  105TMC2    O5 1645   0.989   2.309   0.527 -0.2098  0.6095  0.4806
  105TMC2    H5 1646   1.029   2.372   0.591 -0.3724 -0.3866  1.5582
  106MPD2     C 1647   1.762   2.408  17.526  0.6062  0.2188  0.2390
  106MPD2    C1 1648   1.662   2.499  17.522 -0.0773  1.0288 -0.0078
  106MPD2    C2 1649   1.592   2.518  17.637  0.5379 -0.5055  0.6258
  106MPD2    C3 1650   1.614   2.439   0.022 -0.0795 -0.3697  0.0510
  106MPD2    C4 1651   1.717   2.340   0.022  0.1824  0.0380  0.5900
  106MPD2    C5 1652   1.796   2.331  17.636 -0.2955 -0.0244  0.3211
  106MPD2     H 1653   1.512   2.591  17.627  0.8718 -0.4693 -1.9451
  106MPD2    H1 1654   1.734   2.269   0.102 -0.1303  0.0856  0.6980
  106MPD2    H2 1655   1.833   2.403  17.444  0.9592  2.9573  0.3519
  106MPD2    H3 1656   1.881   2.266  17.647  0.2503  0.8043  1.0127
  106MPD2     N 1657   1.507   2.450   0.119  0.5217 -0.2097  0.4958
  106MPD2    H5 1658   1.451   2.533   0.105  2.3605  0.8485 -0.6269
  106MPD2    N1 1659   1.619   2.565  17.405  0.0059 -0.5374  0.4630
  106MPD2    H7 1660   1.541   2.629  17.415  0.6163  0.0335  1.5750
  107TMC2    C1 1661   1.188   2.474  11.760  0.3765 -0.3553  0.2948
  107TMC2    C2 1662   1.139   2.599  11.789 -0.4806 -0.0745 -0.2061
  107TMC2    C3 1663   1.121   2.690  11.682  0.2723 -0.8087 -0.7794
  107TMC2    C4 1664   1.223   2.431  11.634 -0.0398  0.2175  0.9778
  107TMC2    C5 1665   1.215   2.523  11.530  0.3559  0.1103 -0.3876
  107TMC2    C6 1666   1.162   2.648  11.551 -0.3743 -0.0056 -0.3524
  107TMC2     C 1667   1.177   2.383  11.876  0.4690 -0.7227 -0.1322
  107TMC2     O 1668   1.179   2.437  11.988  0.4680  0.6821 -0.5517
  107TMC2     H 1669   1.110   2.632  11.888  0.3340  1.8214 -0.5961
  107TMC2    H1 1670   1.284   2.343  11.623 -0.0811  0.2667  0.3662
  107TMC2    H2 1671   1.152   2.716  11.468  2.1933  0.8529  0.0264
  107TMC2    C7 1672   1.290   2.489  11.409  0.6844 -0.2101  0.2049
  107TMC2    C8 1673   1.082   2.825  11.717 -0.1283 -0.0864 -0.1822
  107TMC2    O1 1674   1.326   2.586  11.343 -0.7198  0.4473  0.2197
  107TMC2    O2 1675   1.049   2.835  11.835 -0.2278  0.1623 -0.2617
  107TMC2    O5 1676   1.010   2.879  11.619 -0.1165  0.2407  0.0138
  107TMC2    H5 1677   1.031   2.853  11.527 -1.6730 -0.0959 -0.2429
  108MPD2     C 1678   1.135   2.017  11.875 -0.0162  0.3802  0.2656
  108MPD2    C1 1679   1.147   2.139  11.932 -0.0960  0.0067 -0.5563
  108MPD2    C2 1680   1.145   2.152  12.071 -0.4308  0.1624 -0.2064
  108MPD2    C3 1681   1.122   2.040  12.147  0.4283 -0.5523  0.3579
  108MPD2    C4 1682   1.080   1.924  12.077  1.0221  0.3623  0.0334
  108MPD2    C5 1683   1.090   1.909  11.949 -0.1987  0.1836 -0.1049
  108MPD2     H 1684   1.165   2.247  12.119  0.8633  1.1363 -2.7056
  108MPD2    H1 1685   1.044   1.839  12.135  1.4418 -1.5629 -2.5588
  108MPD2    H2 1686   1.149   1.997  11.770 -2.1790 -0.4862  0.1474
  108MPD2    H3 1687   1.062   1.810  11.915 -1.9505 -0.0167  1.8486
  108MPD2     N 1688   1.103   2.043  12.286  0.1837  0.6250 -0.2401
  108MPD2    H5 1689   1.047   1.976  12.337  0.3009 -1.5105 -2.9186
  108MPD2    N1 1690   1.174   2.249  11.847  0.3184  0.3459 -0.0751
  108MPD2    H7 1691   1.182   2.234  11.747  2.3477  0.8344  0.0184
  109TMC2    C1 1692   1.282   3.813   0.865 -0.4989  0.1344  0.1555
  109TMC2    C2 1693   1.254   3.676   0.876 -0.6291 -0.4219  0.3761
  109TMC2    C3 1694   1.339   3.590   0.820  0.5534 -0.1422  0.2031
  109TMC2    C4 1695   1.396   3.861   0.808 -0.3280 -0.5174  0.9207
  109TMC2    C5 1696   1.483   3.765   0.765  1.3475  0.4777  0.1745
  109TMC2    C6 1697   1.455   3.636   0.764 -0.4946 -0.4062 -0.9285
  109TMC2     C 1698   1.183   3.905   0.920 -0.2415  0.4281 -0.4149
  109TMC2     O 1699   1.070   3.860   0.927  0.0150 -0.2453 -0.3047
  109TMC2     H 1700   1.165   3.633   0.920 -2.4683  2.4950 -0.5174
  109TMC2    H1 1701   1.421   3.963   0.782  0.9831 -0.7767  1.1985
  109TMC2    H2 1702   1.524   3.566   0.717  2.2166  3.0044 -1.9780
  109TMC2    C7 1703   1.608   3.815   0.724  0.2324  0.3835 -0.0990
  109TMC2    C8 1704   1.344   3.457   0.873  0.6779  0.2212  0.9788
  109TMC2    O1 1705   1.677   3.738   0.661  0.1514 -0.4411 -0.6716
  109TMC2    O2 1706   1.285   3.440   0.977 -0.4784  0.5831  0.3400
  109TMC2    O5 1707   1.364   3.369   0.770 -0.1187 -0.0345 -0.2377
  109TMC2    H5 1708   1.372   3.416   0.684 -0.2084  0.8353  0.2271
  110MPD2     C 1709   1.036   4.337   1.133 -0.3183  0.3807 -0.5889
  110MPD2    C1 1710   1.175   4.333   1.138  0.7664  0.3947 -0.0608
  110MPD2    C2 1711   1.247   4.239   1.066  0.5633  0.0114 -0.5272
  110MPD2    C3 1712   1.173   4.125   1.019  0.6711  0.0639 -0.1144
  110MPD2    C4 1713   1.033   4.125   1.018 -0.2295 -0.0692 -0.5663
  110MPD2    C5 1714   0.968   4.238   1.072  0.3483  0.3800 -0.2324
  110MPD2     H 1715   1.355   4.242   1.066  0.5486  0.5990 -0.6234
  110MPD2    H1 1716   0.978   4.045   0.970 -1.6984  0.8016 -0.3390
  110MPD2    H2 1717   0.974   4.411   1.182 -0.1175 -0.8334  1.5200
  110MPD2    H3 1718   0.862   4.260   1.065  0.3454  0.9049  1.7299
  110MPD2     N 1719   1.238   4.018   0.963  0.5218  0.7890  0.3849
  110MPD2    H5 1720   1.340   4.017   0.971  0.6307 -2.6388 -1.6067
  110MPD2    N1 1721   1.233   4.442   1.209  0.4558  0.6432 -0.3117
  110MPD2    H7 1722   1.175   4.500   1.267  0.8800 -1.1546  1.8896
  111TMC2    C1 1723   1.780   3.962  12.463 -0.4000 -0.0354 -0.6930
  111TMC2    C2 1724   1.696   3.945  12.568  0.4079 -0.2686 -0.3016
  111TMC2    C3 1725   1.759   3.906  12.684  0.2899  0.2634 -0.5412
  111TMC2    C4 1726   1.914   3.928  12.470 -0.0658  0.4610 -0.1117
  111TMC2    C5 1727   1.969   3.895  12.589 -0.2040 -0.0063 -1.4499
  111TMC2    C6 1728   1.890   3.888  12.701 -0.2813  0.3006  0.3462
  111TMC2     C 1729   1.728   4.033  12.348 -0.6735 -0.0737 -0.1104
  111TMC2     O 1730   1.790   4.033  12.243  0.1106 -0.3689 -0.0901
  111TMC2     H 1731   1.587   3.947  12.563  0.4588  0.0302 -1.5170
  111TMC2    H1 1732   1.959   3.910  12.373  1.2584  1.4674  0.3194
  111TMC2    H2 1733   1.935   3.871  12.797 -1.3803 -1.3145  0.5772
  111TMC2    C7 1734   2.074   3.796  12.592 -0.0645 -0.1005  0.0103
  111TMC2    C8 1735   1.693   3.910  12.815 -0.5161 -0.0588  0.0824
  111TMC2    O1 1736   2.092   3.727  12.694  0.6283  0.6252 -0.1788
  111TMC2    O2 1737   1.599   3.987  12.831 -0.3028  0.0202 -0.3962
  111TMC2    O5 1738   1.714   3.789  12.873  0.2489  0.2096  0.2952
  111TMC2    H5 1739   1.774   3.728  12.826  0.8082 -0.3232  1.6770
  112MPD2     C 1740   1.345   4.296  12.129 -0.8722 -0.9297  0.9516
  112MPD2    C1 1741   1.453   4.234  12.071  0.1580  0.3932  0.0323
  112MPD2    C2 1742   1.543   4.176  12.156 -0.2126 -0.4641  1.0430
  112MPD2    C3 1743   1.528   4.169  12.296  0.2181 -0.0713 -0.0854
  112MPD2    C4 1744   1.410   4.220  12.346 -0.7392 -0.3944  0.1084
  112MPD2    C5 1745   1.326   4.287  12.262  0.1448 -0.1099 -0.8406
  112MPD2     H 1746   1.629   4.128  12.112 -0.5888 -1.4052  1.3296
  112MPD2    H1 1747   1.388   4.211  12.451  1.7795  3.4493  0.9467
  112MPD2    H2 1748   1.261   4.340  12.078  0.4268 -0.1827 -0.5509
  112MPD2    H3 1749   1.236   4.318  12.314 -1.4276 -3.2993 -1.6970
  112MPD2     N 1750   1.612   4.094  12.384 -0.1194 -0.3014  0.8508
  112MPD2    H5 1751   1.587   4.092  12.483  0.3038 -0.5444  0.9520
  112MPD2    N1 1752   1.475   4.224  11.932  0.2880  0.3813 -0.2604
  112MPD2    H7 1753   1.569   4.194  11.908 -1.0283 -1.8262 -2.5680
  113TMC2    C1 1754   0.817   2.056   0.670  0.0343 -0.4887  0.4132
  113TMC2    C2 1755   0.867   2.016   0.546  0.4071 -0.2462 -0.1835
  113TMC2    C3 1756   0.786   1.952   0.462 -0.1648  0.6292 -0.6274
  113TMC2    C4 1757   0.692   2.020   0.707 -0.3922  0.1542  0.0997
  113TMC2    C5 1758   0.618   1.943   0.626 -0.2222  0.2460  0.5966
  113TMC2    C6 1759   0.661   1.912   0.499  0.4569  1.1790 -0.2414
  113TMC2     C 1760   0.897   2.114   0.776 -0.0520  0.4368  0.2677
  113TMC2     O 1761   0.828   2.168   0.863 -0.2382 -0.3306  0.4081
  113TMC2     H 1762   0.974   2.018   0.525  0.1212  2.7665 -1.3310
  113TMC2    H1 1763   0.651   2.048   0.803  1.0655  2.1736  0.1257
  113TMC2    H2 1764   0.605   1.849   0.431 -0.6635  1.7010  0.2071
  113TMC2    C7 1765   0.480   1.936   0.642  0.1140  0.4467 -0.0289
  113TMC2    C8 1766   0.855   1.872   0.361 -1.0835 -0.9017 -0.0166
  113TMC2    O1 1767   0.448   1.982   0.751  0.3073  0.3198 -0.4207
  113TMC2    O2 1768   0.830   1.758   0.335  0.2077  0.1368  0.8502
  113TMC2    O5 1769   0.957   1.943   0.316  0.1988  0.2601 -0.9727
  113TMC2    H5 1770   0.967   2.037   0.342  0.9247 -0.1028  0.0797
  114MPD2     C 1771   1.336   2.304   0.947  0.1730  0.9234  0.3962
  114MPD2    C1 1772   1.205   2.336   0.986 -0.7417 -0.0666  0.0078
  114MPD2    C2 1773   1.101   2.273   0.925  0.4344 -0.2165 -0.4966
  114MPD2    C3 1774   1.127   2.180   0.822  0.6443 -0.3047 -0.4032
  114MPD2    C4 1775   1.257   2.161   0.780 -0.4400  1.0231 -0.4732
  114MPD2    C5 1776   1.361   2.222   0.842 -0.3615 -1.0509 -0.4131
  114MPD2     H 1777   1.000   2.297   0.958  0.3388  0.4809 -1.2808
  114MPD2    H1 1778   1.277   2.080   0.710  2.3191 -0.4952  2.0845
  114MPD2    H2 1779   1.414   2.357   1.002  2.0084 -1.2527 -0.1143
  114MPD2    H3 1780   1.462   2.205   0.807  0.5638  1.1977  1.1391
  114MPD2     N 1781   1.028   2.108   0.754 -0.0547 -0.4209  0.3397
  114MPD2    H5 1782   1.058   2.046   0.680 -0.0899  2.1824 -1.8833
  114MPD2    N1 1783   1.168   2.431   1.088  0.2004 -0.3122 -0.5878
  114MPD2    H7 1784   1.071   2.427   1.119  0.9683 -1.1034  1.6864
  115TMC2    C1 1785   1.041   4.398   0.301  0.2499  0.2588 -0.9819
  115TMC2    C2 1786   1.175   4.361   0.287 -0.2560  0.0903  0.7748
  115TMC2    C3 1787   1.259   4.461   0.260 -0.5387 -0.3087  0.1077
  115TMC2    C4 1788   0.997   4.529   0.276 -0.0479 -0.4708 -0.2773
  115TMC2    C5 1789   1.091   4.625   0.247  0.1894 -0.2365  0.2508
  115TMC2    C6 1790   1.223   4.592   0.244 -0.2333  0.2474  0.8095
  115TMC2     C 1791   0.951   4.297   0.269  0.0010 -0.5778  0.9352
  115TMC2     O 1792   0.995   4.204   0.205  0.7767  0.4142  0.2798
  115TMC2     H 1793   1.218   4.267   0.318  0.3377  0.5056  1.1985
  115TMC2    H1 1794   0.897   4.565   0.293  0.4713  0.3873  0.9523
  115TMC2    H2 1795   1.303   4.663   0.223  0.5599 -1.6012 -2.4258
  115TMC2    C7 1796   1.053   0.029   0.227  0.5120 -0.4948 -0.2805
  115TMC2    C8 1797   1.396   4.435   0.292  0.0568 -0.3591  0.1993
  115TMC2    O1 1798   0.932   0.050   0.234 -0.3154 -0.1072  0.2557
  115TMC2    O2 1799   1.463   4.528   0.340  0.3715 -0.2116  0.5779
  115TMC2    O5 1800   1.441   4.332   0.217 -0.5983  0.1720  0.3633
  115TMC2    H5 1801   1.366   4.295   0.166  0.8636 -3.0227  0.5983
  116MPD2     C 1802   0.474   4.106   0.187 -0.7155  0.8995  0.5460
  116MPD2    C1 1803   0.599   4.068   0.129 -0.3421  0.1417 -0.2187
  116MPD2    C2 1804   0.713   4.134   0.174  0.0663  0.1487  0.1313
  116MPD2    C3 1805   0.705   4.247   0.256  0.2822  0.2901 -0.5180
  116MPD2    C4 1806   0.580   4.284   0.300  0.1607 -0.5897  0.9455
  116MPD2    C5 1807   0.468   4.212   0.274 -0.1546 -0.2263  0.7737
  116MPD2     H 1808   0.810   4.103   0.137  0.0452  0.5590 -0.2675
  116MPD2    H1 1809   0.557   4.370   0.362 -3.4219  0.6829 -2.2036
  116MPD2    H2 1810   0.379   4.059   0.167 -1.3873  1.9049  1.3589
  116MPD2    H3 1811   0.369   4.245   0.305  0.2758 -0.3778  2.3200
  116MPD2     N 1812   0.816   4.324   0.301 -0.2584 -0.1089 -0.2392
  116MPD2    H5 1813   0.786   4.397   0.365 -1.8242 -0.5156 -0.5128
  116MPD2    N1 1814   0.602   3.962   0.033 -0.7616  0.5117 -0.6388
  116MPD2    H7 1815   0.513   3.927   0.000  0.3358 -1.6366 -1.3897
  117TMC2    C1 1816   3.973   0.732  14.369 -0.0544  0.5234  0.1544
  117TMC2    C2 1817   4.092   0.672  14.388  0.2734 -0.1952 -0.3996
  117TMC2    C3 1818   4.181   0.739  14.472 -0.0705  0.3699  0.3189
  117TMC2    C4 1819   3.949   0.861  14.406  0.1951  0.1631  0.7633
  117TMC2    C5 1820   4.051   0.938  14.448 -0.0386 -0.0560 -0.3149
  117TMC2    C6 1821   4.171   0.869  14.493 -0.2680  0.3026  0.0742
  117TMC2     C 1822   3.892   0.685  14.253  0.4425 -0.2196 -0.1933
  117TMC2     O 1823   3.929   0.584  14.186 -0.0381  0.2624  0.5430
  117TMC2     H 1824   4.119   0.576  14.346  0.6342 -0.5521  0.6387
  117TMC2    H1 1825   3.872   0.921  14.360  2.2878  3.2838  1.3676
  117TMC2    H2 1826   4.258   0.918  14.533  0.6568 -0.8279 -0.5550
  117TMC2    C7 1827   4.054   1.087  14.446 -0.0968 -0.0380  0.1032
  117TMC2    C8 1828   4.280   0.656  14.534  0.1617  0.2719 -0.0836
  117TMC2    O1 1829   4.165   1.136  14.457  0.1383 -0.1156  0.6461
  117TMC2    O2 1830   4.304   0.543  14.492 -0.0625  0.2465  0.1924
  117TMC2    O5 1831   4.353   0.729  14.622 -0.5505 -0.1723  0.2403
  117TMC2    H5 1832   4.298   0.798  14.665  0.1439  1.8504 -2.1148
  118MPD2     C 1833   3.765   1.308  14.370  0.3175 -0.3117  0.1322
  118MPD2    C1 1834   3.901   1.280  14.396  0.0118  0.0294 -0.5412
  118MPD2    C2 1835   3.993   1.375  14.412 -0.2482 -0.2708 -0.1489
  118MPD2    C3 1836   3.957   1.506  14.386  0.1493 -0.4468 -0.2618
  118MPD2    C4 1837   3.826   1.533  14.366  0.0151  0.0262  0.1571
  118MPD2    C5 1838   3.732   1.436  14.349  0.2926 -0.3516  0.6883
  118MPD2     H 1839   4.098   1.355  14.430  0.2329  1.4764 -1.1016
  118MPD2    H1 1840   3.799   1.635  14.339 -0.6906  0.2549  1.7245
  118MPD2    H2 1841   3.688   1.237  14.344  1.4341 -1.8813  1.1751
  118MPD2    H3 1842   3.633   1.450  14.308  1.3790  0.7147 -1.5559
  118MPD2     N 1843   4.050   1.615  14.394  0.1520 -0.3120 -0.2491
  118MPD2    H5 1844   4.013   1.709  14.381  1.8773  0.2985 -0.8429
  118MPD2    N1 1845   3.933   1.142  14.417  0.1302 -0.1880 -0.6568
  118MPD2    H7 1846   3.853   1.083  14.437 -0.4497  1.3828  1.6007
  119TMC2    C1 1847   2.106   1.679  13.484 -0.0096 -0.1102 -0.3674
  119TMC2    C2 1848   2.096   1.704  13.351 -0.0844  0.3134  0.0844
  119TMC2    C3 1849   1.982   1.743  13.299  0.5110 -0.7954 -0.1497
  119TMC2    C4 1850   1.996   1.698  13.563 -0.2812  0.2734 -0.5835
  119TMC2    C5 1851   1.886   1.751  13.511  0.4638 -0.4563  0.4861
  119TMC2    C6 1852   1.880   1.781  13.382  0.1094  0.1778  0.6443
  119TMC2     C 1853   2.229   1.640  13.538  0.1084  0.0892  0.5067
  119TMC2     O 1854   2.313   1.594  13.461 -0.5585 -0.1417  0.0982
  119TMC2     H 1855   2.189   1.690  13.296  1.6530  2.0448  2.5520
  119TMC2    H1 1856   1.997   1.655  13.663 -0.2370 -0.1842 -0.7783
  119TMC2    H2 1857   1.793   1.831  13.341  0.6869  0.5572 -0.1097
  119TMC2    C7 1858   1.773   1.786  13.600 -0.0942  1.1120  0.6505
  119TMC2    C8 1859   1.989   1.786  13.163 -0.4263 -0.5632 -0.1614
  119TMC2    O1 1860   1.667   1.793  13.539 -0.1318  0.0255  0.4681
  119TMC2    O2 1861   2.086   1.754  13.101 -0.1518 -0.3178  0.1834
  119TMC2    O5 1862   1.965   1.917  13.167 -0.3440 -0.0438 -0.4264
  119TMC2    H5 1863   1.893   1.937  13.231 -2.2067 -0.6057 -2.3650
  120MPD2     C 1864   2.526   1.617  13.949 -0.2189 -0.3774  0.4453
  120MPD2    C1 1865   2.404   1.662  13.992 -0.1756  0.0317 -0.7867
  120MPD2    C2 1866   2.304   1.677  13.899 -0.2425 -0.2043  0.2399
  120MPD2    C3 1867   2.331   1.638  13.765  0.3012 -0.1067  0.4333
  120MPD2    C4 1868   2.452   1.587  13.725  0.0719  0.0866 -0.1445
  120MPD2    C5 1869   2.548   1.584  13.822 -0.8205  0.1008 -0.1379
  120MPD2     H 1870   2.206   1.720  13.913 -1.4824 -1.9102 -2.9459
  120MPD2    H1 1871   2.487   1.564  13.625  1.8053  0.4038  0.3922
  120MPD2    H2 1872   2.602   1.604  14.026 -0.0126 -1.2631  0.0922
  120MPD2    H3 1873   2.644   1.543  13.795 -0.6708  0.8935 -0.8253
  120MPD2     N 1874   2.227   1.664  13.669 -0.8211 -0.3382  0.0005
  120MPD2    H5 1875   2.147   1.708  13.712 -0.4570 -0.3969  0.7365
  120MPD2    N1 1876   2.393   1.715  14.119 -0.1606  0.3904 -0.4942
  120MPD2    H7 1877   2.480   1.754  14.155  1.0004 -2.2128 -0.4727
  121TMC2    C1 1878   3.599   3.816  14.269 -0.4565  0.7348  0.3198
  121TMC2    C2 1879   3.694   3.714  14.232 -0.2445  0.1377 -0.2471
  121TMC2    C3 1880   3.652   3.583  14.245  0.2908 -0.5006  0.8347
  121TMC2    C4 1881   3.468   3.786  14.300  0.7039  0.0901 -0.0511
  121TMC2    C5 1882   3.435   3.654  14.305  0.0712  0.7420  0.3406
  121TMC2    C6 1883   3.524   3.550  14.280  0.1444  0.9954  0.7466
  121TMC2     C 1884   3.622   3.949  14.233 -0.6574  0.4569  0.5862
  121TMC2     O 1885   3.517   4.004  14.205  0.4690 -0.4474 -0.2246
  121TMC2     H 1886   3.800   3.735  14.222 -0.4997  0.6410 -1.8577
  121TMC2    H1 1887   3.396   3.866  14.313 -2.9690 -3.6353  2.8508
  121TMC2    H2 1888   3.493   3.448  14.296  0.8986  0.5049 -0.9047
  121TMC2    C7 1889   3.291   3.611  14.309 -0.0032  0.3024 -0.8118
  121TMC2    C8 1890   3.745   3.485  14.185 -0.1660  0.0134  0.3647
  121TMC2    O1 1891   3.253   3.503  14.271 -0.3746 -0.1807 -0.3578
  121TMC2    O2 1892   3.864   3.495  14.184 -0.5548 -0.2732 -0.4971
  121TMC2    O5 1893   3.678   3.434  14.081  0.0046 -0.7118 -0.0359
  121TMC2    H5 1894   3.607   3.496  14.055  0.3318  0.1243  1.0357
  122MPD2     C 1895   3.923   4.150  14.265  0.2933  0.4965  0.4374
  122MPD2    C1 1896   3.799   4.123  14.214  0.3442 -0.1253  0.2465
  122MPD2    C2 1897   3.738   4.204  14.120  0.2425  0.2957 -0.0109
  122MPD2    C3 1898   3.814   4.307  14.063  0.0510 -0.4593  0.7711
  122MPD2    C4 1899   3.929   4.350  14.130 -0.0899  0.0808 -0.4182
  122MPD2    C5 1900   3.985   4.268  14.224  0.3881 -0.0133  0.3187
  122MPD2     H 1901   3.640   4.177  14.082 -0.0949 -0.4849  1.4329
  122MPD2    H1 1902   3.992   4.432  14.098 -0.6426  1.1121  1.1269
  122MPD2    H2 1903   3.967   4.073  14.328 -1.0104 -0.2477  0.4514
  122MPD2    H3 1904   4.083   4.301  14.256  0.5279  0.1854 -0.3114
  122MPD2     N 1905   3.778   4.373  13.940  0.0147  0.2996  0.6735
  122MPD2    H5 1906   3.853   4.432  13.905 -0.8383  1.4596  0.8212
  122MPD2    N1 1907   3.752   3.993  14.246 -0.2559  0.2670  0.4217
  122MPD2    H7 1908   3.825   3.937  14.290  0.1473  0.4861  0.0409
  123TMC2    C1 1909   3.032   2.232  10.714  0.0345  0.2359  0.3892
  123TMC2    C2 1910   3.127   2.309  10.769 -0.1745  0.0129 -0.4025
  123TMC2    C3 1911   3.208   2.370  10.677 -0.6160 -0.1106 -0.5451
  123TMC2    C4 1912   3.020   2.204  10.580 -0.5469  0.5441  0.1811
  123TMC2    C5 1913   3.101   2.272  10.497  0.3127  0.1422  0.0643
  123TMC2    C6 1914   3.196   2.357  10.544  1.1857 -0.3281  0.2856
  123TMC2     C 1915   2.923   2.182  10.794  0.1166  0.0147 -0.0188
  123TMC2     O 1916   2.954   2.162  10.913 -0.2702  0.0389 -0.4080
  123TMC2     H 1917   3.139   2.329  10.875 -1.8158 -1.0022 -0.0278
  123TMC2    H1 1918   2.937   2.147  10.540  1.5030  0.0044 -3.2935
  123TMC2    H2 1919   3.257   2.412  10.474  0.7962 -1.8021 -1.2143
  123TMC2    C7 1920   3.064   2.262  10.353 -0.6910  0.6641  0.3138
  123TMC2    C8 1921   3.309   2.456  10.724 -0.6188 -0.2694 -0.3625
  123TMC2    O1 1922   2.977   2.178  10.328 -0.1875 -0.6175 -0.3057
  123TMC2    O2 1923   3.341   2.563  10.676 -0.3884  0.2799  0.4044
  123TMC2    O5 1924   3.385   2.379  10.796  0.1971 -0.4811  0.4924
  123TMC2    H5 1925   3.361   2.284  10.807  0.1797 -0.4364  0.8518
  124MPD2     C 1926   2.462   2.000  10.903 -0.1259 -0.2457 -0.4727
  124MPD2    C1 1927   2.443   2.073  10.777  0.2035  0.1686  0.3560
  124MPD2    C2 1928   2.557   2.136  10.720 -0.0056 -0.9037  0.4854
  124MPD2    C3 1929   2.685   2.114  10.774 -0.0007 -0.4376 -0.6286
  124MPD2    C4 1930   2.699   2.024  10.884  0.1751 -0.3979  0.7812
  124MPD2    C5 1931   2.591   1.978  10.955  0.0717 -0.3629 -0.7646
  124MPD2     H 1932   2.553   2.193  10.629 -1.0733 -1.0203  0.4567
  124MPD2    H1 1933   2.787   2.000  10.943  0.6721 -0.5133 -0.0043
  124MPD2    H2 1934   2.378   1.954  10.953 -1.0542  0.4909 -1.3365
  124MPD2    H3 1935   2.600   1.920  11.046  2.1336  0.5806 -0.3614
  124MPD2     N 1936   2.802   2.175  10.723  0.2774 -0.8096 -0.5783
  124MPD2    H5 1937   2.803   2.230  10.638 -4.0139 -0.6765 -0.5119
  124MPD2    N1 1938   2.312   2.077  10.727 -0.1409  0.8652  0.3564
  124MPD2    H7 1939   2.240   2.022  10.774  1.4280  0.0843  1.8262
  125TMC2    C1 1940   2.860   4.393   9.934 -0.1948 -0.0037 -0.0102
  125TMC2    C2 1941   2.793   4.280   9.947 -0.1493 -0.1373  0.2368
  125TMC2    C3 1942   2.853   4.165   9.912 -0.0181  0.9262 -0.5236
  125TMC2    C4 1943   2.988   4.391   9.899  0.0494 -0.1095  0.0703
  125TMC2    C5 1944   3.047   4.272   9.864  0.3422 -0.2134  0.3134
  125TMC2    C6 1945   2.984   4.156   9.873  0.2780 -0.7043  0.4338
  125TMC2     C 1946   2.782   4.514   9.944 -0.3323 -0.5405  0.0381
  125TMC2     O 1947   2.659   4.507   9.953 -0.0794 -0.5175 -0.4559
  125TMC2     H 1948   2.692   4.279   9.988 -0.3329  2.3089 -0.1948
  125TMC2    H1 1949   3.040   4.484   9.880 -1.1812  0.7283  0.7517
  125TMC2    H2 1950   3.014   4.058   9.838  1.7511 -0.7037  1.7345
  125TMC2    C7 1951   3.187   4.261   9.891  0.1961 -0.4875 -0.4750
  125TMC2    C8 1952   2.804   4.043   9.973  0.2637  0.0308  0.2008
  125TMC2    O1 1953   3.250   4.359   9.930  0.1667  0.2369  0.0127
  125TMC2    O2 1954   2.880   3.964  10.025 -0.3677  0.1979 -0.4621
  125TMC2    O5 1955   2.674   4.021   9.940 -0.0301 -0.0087  0.2661
  125TMC2    H5 1956   2.625   4.084   9.883 -0.3719 -0.5926 -0.0745
  126MPD1     C 1957   2.769   0.279  10.039  0.0728 -0.1671  0.0639
  126MPD1    C1 1958   2.899   0.238  10.024 -0.7941 -0.0861  0.2508
  126MPD1    C2 1959   2.929   0.111   9.988 -0.0375 -0.4698  0.3449
  126MPD1    C3 1960   2.824   0.019   9.993 -0.0527  0.1824  1.1876
  126MPD1    C4 1961   2.695   0.053  10.024  0.0744 -0.1293 -0.2422
  126MPD1    C5 1962   2.670   0.189  10.042  0.1179 -0.9572 -0.2316
  126MPD1     H 1963   3.026   0.081   9.950 -1.0720 -1.8623 -1.1897
  126MPD1    H1 1964   2.610   4.719  10.032 -1.6528  2.0691 -0.3662
  126MPD1    H2 1965   2.750   0.381  10.070  0.9253 -0.2730  0.9324
  126MPD1    H3 1966   2.572   0.223  10.072  0.2744 -0.8236  0.1268
  126MPD1     N 1967   2.866   4.623   9.957  1.0638 -0.7029 -0.5398
  126MPD1    H5 1968   2.962   4.604   9.930  1.7162 -0.6253  1.7811
  126MPD1    N1 1969   2.991   0.337  10.017 -0.1453  0.0877 -0.4406
  126MPD1    H6 1970   2.981   0.406  10.092  1.1598  1.5734 -1.6231
  126MPD1    H7 1971   3.087   0.303  10.028  0.9920  3.4985  0.3959
  127TMC2    C1 1972   3.332   3.163  10.957  0.1147 -0.0573 -0.3544
  127TMC2    C2 1973   3.214   3.237  10.927 -0.4371  0.2646 -0.7919
  127TMC2    C3 1974   3.092   3.177  10.965 -0.1468 -0.3186  0.1007
  127TMC2    C4 1975   3.333   3.039  11.019 -0.0676  0.1050 -0.9222
  127TMC2    C5 1976   3.212   2.996  11.058 -0.2619 -0.2226  0.6402
  127TMC2    C6 1977   3.093   3.057  11.040 -0.2471 -0.0354  0.1515
  127TMC2     C 1978   3.456   3.214  10.897  0.7673 -0.0633  0.2372
  127TMC2     O 1979   3.550   3.139  10.893  0.1296 -0.1526  0.0588
  127TMC2     H 1980   3.209   3.327  10.867  1.9600  0.1622 -1.1296
  127TMC2    H1 1981   3.425   2.990  11.047 -0.7972  1.7046  4.3197
  127TMC2    H2 1982   2.999   3.019  11.079 -0.0828  1.2552  1.7892
  127TMC2    C7 1983   3.197   2.859  11.076 -0.5168  0.3377 -0.5308
  127TMC2    C8 1984   2.977   3.264  10.973 -0.5312  0.1103 -0.0434
  127TMC2    O1 1985   3.079   2.822  11.065 -0.5394 -0.3329  0.4171
  127TMC2    O2 1986   2.995   3.370  11.032  0.0221  0.1287  0.1584
  127TMC2    O5 1987   2.868   3.185  10.990  0.5941 -0.5168  0.4992
  127TMC2    H5 1988   2.872   3.111  10.926  1.1863  1.9571 -2.3532
  128MPD2     C 1989   3.561   3.555  10.850  0.1097 -0.6863 -0.3384
  128MPD2    C1 1990   3.566   3.422  10.840 -1.0652 -0.6347 -0.3839
  128MPD2    C2 1991   3.679   3.369  10.781 -1.4084 -0.2355  0.0104
  128MPD2    C3 1992   3.775   3.449  10.729 -0.6901  0.5505  1.3705
  128MPD2    C4 1993   3.767   3.590  10.749 -0.3009  0.1568 -0.2310
  128MPD2    C5 1994   3.661   3.636  10.818 -0.5714 -0.2078  0.3687
  128MPD2     H 1995   3.684   3.263  10.761 -3.9383 -0.5525  1.0768
  128MPD2    H1 1996   3.844   3.660  10.720  0.3912 -0.7823 -0.6453
  128MPD2    H2 1997   3.480   3.601  10.906  0.1333  0.6075 -1.3772
  128MPD2    H3 1998   3.637   3.742  10.825 -0.1041 -0.0790  0.0358
  128MPD2     N 1999   3.872   3.391  10.651 -0.3217  0.0374 -0.2910
  128MPD2    H5 2000   3.877   3.290  10.647  1.0711  0.0970  0.2213
  128MPD2    N1 2001   3.464   3.350  10.899  0.0283  0.3990 -0.3405
  128MPD2    H7 2002   3.384   3.397  10.938 -0.9593 -1.3456 -0.2844
  129TMC2    C1 2003   4.085   3.474   1.492 -0.5727  0.3143  0.6518
  129TMC2    C2 2004   4.121   3.345   1.490  0.1049 -0.3400 -0.4769
  129TMC2    C3 2005   4.017   3.253   1.476 -0.9795 -0.0619 -0.0714
  129TMC2    C4 2006   3.964   3.518   1.487  0.1652 -0.2057  0.1598
  129TMC2    C5 2007   3.862   3.424   1.476 -0.0644  0.2695 -0.2804
  129TMC2    C6 2008   3.888   3.291   1.473 -0.4031  0.1349  0.1911
  129TMC2     C 2009   4.195   3.559   1.460 -0.3900  0.3563 -0.3513
  129TMC2     O 2010   4.304   3.517   1.492 -0.3074  0.4085  0.2552
  129TMC2     H 2011   4.222   3.311   1.471  1.0421  1.5780  1.1137
  129TMC2    H1 2012   3.942   3.618   1.523 -0.9474  0.8018 -3.3790
  129TMC2    H2 2013   3.817   3.209   1.471 -0.4273  0.1426  0.7419
  129TMC2    C7 2014   3.725   3.473   1.478 -0.3756  0.5217  0.8823
  129TMC2    C8 2015   4.051   3.108   1.493 -0.1593 -0.3087  0.4125
  129TMC2    O1 2016   3.635   3.393   1.502 -0.2363  0.3872 -0.0483
  129TMC2    O2 2017   3.963   3.025   1.478 -0.2512  0.0939  0.1148
  129TMC2    O5 2018   4.168   3.093   1.563  0.3737 -0.0877  0.3759
  129TMC2    H5 2019   4.210   3.174   1.599  0.8393  0.2900 -1.0058
  130MPD2     C 2020   4.374   3.795   1.441  0.0970  0.9465  0.7587
  130MPD2    C1 2021   4.243   3.794   1.389  0.1372  0.0413 -0.0211
  130MPD2    C2 2022   4.184   3.914   1.333  0.7249 -0.2701  0.3297
  130MPD2    C3 2023   4.256   4.034   1.329 -0.1378  1.0800 -0.3411
  130MPD2    C4 2024   4.382   4.036   1.387  0.4047 -0.2314 -0.6208
  130MPD2    C5 2025   4.438   3.921   1.437 -0.1330  0.4160 -0.2797
  130MPD2     H 2026   4.081   3.906   1.299  0.8024 -2.1876  0.5955
  130MPD2    H1 2027   4.446   4.121   1.406  1.4496 -1.5537  1.8783
  130MPD2    H2 2028   4.422   3.708   1.484 -0.8669 -0.7052 -1.5074
  130MPD2    H3 2029   4.532   3.929   1.491 -0.9621  0.2014  1.2119
  130MPD2     N 2030   4.203   4.147   1.260 -0.1821 -0.7170 -0.1023
  130MPD2    H5 2031   4.107   4.136   1.231 -0.9108 -0.8053  2.3177
  130MPD2    N1 2032   4.161   3.677   1.399  0.3478 -0.3799 -0.2251
  130MPD2    H7 2033   4.065   3.677   1.364  0.0331 -0.3531  0.6575
  131TMC2    C1 2034   1.986   3.061  10.231 -0.1936  0.2551  0.3695
  131TMC2    C2 2035   2.088   3.136  10.293  0.2108  0.2259 -0.8054
  131TMC2    C3 2036   2.070   3.270  10.297 -0.0880 -0.1181 -0.4317
  131TMC2    C4 2037   1.887   3.123  10.166 -0.1181 -0.0369  0.2985
  131TMC2    C5 2038   1.866   3.257  10.174 -0.2880  0.0121 -0.3412
  131TMC2    C6 2039   1.971   3.340  10.235 -0.5409 -0.0591  0.2397
  131TMC2     C 2040   1.980   2.924  10.285 -0.5476 -0.4752  0.4280
  131TMC2     O 2041   2.085   2.864  10.304  0.2116 -0.0369  0.5828
  131TMC2     H 2042   2.165   3.090  10.354 -1.4596 -0.4103  0.8314
  131TMC2    H1 2043   1.814   3.058  10.118  0.2809  0.6691 -1.2835
  131TMC2    H2 2044   1.965   3.448  10.245  1.3621  0.1482 -0.9296
  131TMC2    C7 2045   1.766   3.313  10.083 -0.1710  0.1103  0.2556
  131TMC2    C8 2046   2.161   3.342  10.384  0.5799 -0.5220 -0.2036
  131TMC2    O1 2047   1.705   3.233  10.010 -0.1905  0.0831 -0.1765
  131TMC2    O2 2048   2.246   3.283  10.451  0.4075  0.3397  0.2255
  131TMC2    O5 2049   2.174   3.476  10.339 -0.2043 -0.4761 -0.1725
  131TMC2    H5 2050   2.125   3.499  10.257  0.2969 -1.5928 -0.7815
  132MPD2     C 2051   1.668   2.759  10.392 -0.3343  0.0276  0.2252
  132MPD2    C1 2052   1.806   2.767  10.368 -0.1291 -0.0575 -0.0159
  132MPD2    C2 2053   1.879   2.650  10.391 -0.4512 -0.6620 -0.0956
  132MPD2    C3 2054   1.816   2.529  10.409 -0.6565 -1.1406 -0.1948
  132MPD2    C4 2055   1.680   2.533  10.439  0.9319 -0.2305 -0.3223
  132MPD2    C5 2056   1.608   2.650  10.437  0.0780 -0.0298  0.1304
  132MPD2     H 2057   1.988   2.647  10.391 -0.4073  0.7094 -0.9961
  132MPD2    H1 2058   1.616   2.448  10.458 -1.5963  1.6273 -0.4138
  132MPD2    H2 2059   1.601   2.843  10.381 -0.2801 -0.0610 -0.8140
  132MPD2    H3 2060   1.502   2.633  10.446  0.5205 -2.1409  1.4500
  132MPD2     N 2061   1.895   2.413  10.427 -0.0065  0.2076  0.1919
  132MPD2    H5 2062   1.994   2.432  10.442  0.3102 -1.8561  0.6317
  132MPD2    N1 2063   1.857   2.890  10.313  0.4565  0.0674 -0.2204
  132MPD2    H7 2064   1.788   2.962  10.296  1.8605  1.5111  0.1748
  133TMC2    C1 2065   1.059   1.882  10.563  0.0352  0.2666  0.7521
  133TMC2    C2 2066   1.112   1.770  10.513  0.0484 -0.0494  0.0568
  133TMC2    C3 2067   1.100   1.658  10.591 -0.5071 -0.4985 -0.0788
  133TMC2    C4 2068   1.002   1.891  10.688  0.3453 -0.0104  0.0074
  133TMC2    C5 2069   0.995   1.773  10.759 -0.1299  0.4080 -0.6319
  133TMC2    C6 2070   1.044   1.654  10.713 -0.6513  0.2120 -0.0194
  133TMC2     C 2071   1.101   2.012  10.514  0.3063  0.1794 -0.2597
  133TMC2     O 2072   1.029   2.106  10.531  0.2395 -0.4351  0.5934
  133TMC2     H 2073   1.166   1.759  10.420 -0.0586 -2.1858  0.2401
  133TMC2    H1 2074   0.976   1.984  10.737  0.4693 -1.0159  1.9535
  133TMC2    H2 2075   1.045   1.571  10.782  1.9672  1.8297  1.9015
  133TMC2    C7 2076   0.905   1.779  10.871 -0.2052  0.2857  0.4566
  133TMC2    C8 2077   1.164   1.541  10.551 -0.2212 -0.6907  0.1474
  133TMC2    O1 2078   0.815   1.861  10.873  0.0630 -0.5791  0.6734
  133TMC2    O2 2079   1.272   1.532  10.493 -0.5598 -0.7149 -0.4833
  133TMC2    O5 2080   1.086   1.438  10.594 -0.0793 -0.1528  0.1625
  133TMC2    H5 2081   1.008   1.476  10.640 -0.3952  0.2378 -0.7000
  134MPD2     C 2082   1.408   2.079  10.329  0.0323  0.2118 -0.1339
  134MPD2    C1 2083   1.279   2.107  10.373  0.2178 -0.2447  0.6575
  134MPD2    C2 2084   1.224   2.232  10.348  0.3208  0.3504  0.0014
  134MPD2    C3 2085   1.296   2.329  10.286  0.2207 -0.2465  0.0019
  134MPD2    C4 2086   1.426   2.302  10.242 -0.6813 -0.0871  0.5146
  134MPD2    C5 2087   1.480   2.177  10.267 -0.7975  0.3827 -0.0886
  134MPD2     H 2088   1.122   2.246  10.383 -0.0989 -1.7748 -0.3396
  134MPD2    H1 2089   1.488   2.369  10.184  1.3544 -2.2810  0.1937
  134MPD2    H2 2090   1.458   1.987  10.357 -0.0307  0.2006 -0.0600
  134MPD2    H3 2091   1.580   2.148  10.239 -0.7771  0.4915 -0.1271
  134MPD2     N 2092   1.244   2.455  10.257 -0.0590 -0.0082  0.0745
  134MPD2    H5 2093   1.312   2.524  10.226 -0.7995 -0.0342 -1.6315
  134MPD2    N1 2094   1.220   2.007  10.452 -0.2332  0.0249 -0.2462
  134MPD2    H7 2095   1.277   1.923  10.460 -0.3041 -0.0285 -0.2956
  135TMC2    C1 2096   3.007   0.798  10.475 -0.6692 -1.0337  0.1231
  135TMC2    C2 2097   2.919   0.859  10.567 -0.3864 -0.3013  0.7123
  135TMC2    C3 2098   2.900   0.794  10.683 -0.3387 -1.1023 -0.2126
  135TMC2    C4 2099   3.034   0.664  10.488  0.8949  0.5411  0.4040
  135TMC2    C5 2100   3.008   0.596  10.605 -0.0167  0.2168 -0.4156
  135TMC2    C6 2101   2.934   0.652  10.704 -0.5042  0.3950 -0.7106
  135TMC2     C 2102   2.991   0.851  10.343 -1.2184  0.6521 -0.0659
  135TMC2     O 2103   3.002   0.974  10.345 -0.4072 -0.0929 -0.0263
  135TMC2     H 2104   2.889   0.963  10.565  0.6897  0.0247  1.4901
  135TMC2    H1 2105   3.079   0.609  10.406  1.0087  0.3430  0.6007
  135TMC2    H2 2106   2.911   0.592  10.791  1.1960  0.0783 -0.4723
  135TMC2    C7 2107   3.024   0.453  10.601 -0.3649 -0.0034 -0.1816
  135TMC2    C8 2108   2.776   0.836  10.750 -0.3477 -0.4217  0.5792
  135TMC2    O1 2109   3.115   0.423  10.524 -0.4205 -0.5445  0.3419
  135TMC2    O2 2110   2.743   0.956  10.767  0.6792 -0.0216  0.1621
  135TMC2    O5 2111   2.692   0.729  10.761  0.0573  0.4723 -0.4346
  135TMC2    H5 2112   2.710   0.645  10.713 -0.4071  1.4958 -2.4219
  136MPD2     C 2113   2.967   0.894  10.050  0.3609  0.3483 -0.8559
  136MPD2    C1 2114   2.938   0.774  10.109  0.1910 -0.4047  0.2837
  136MPD2    C2 2115   2.898   0.662  10.034  0.1414  0.3223 -1.0197
  136MPD2    C3 2116   2.888   0.669   9.901 -0.5140  0.2986 -0.6167
  136MPD2    C4 2117   2.909   0.799   9.843 -0.3623 -0.2856  0.5844
  136MPD2    C5 2118   2.952   0.907   9.913  0.4689  0.3350 -0.1431
  136MPD2     H 2119   2.884   0.568  10.088  0.9969  1.1299  0.6036
  136MPD2    H1 2120   2.909   0.818   9.736  0.5329 -2.8808  0.1139
  136MPD2    H2 2121   2.988   0.981  10.111 -1.2764  1.4841 -1.9216
  136MPD2    H3 2122   2.971   1.005   9.871 -2.1176  0.4185 -1.0876
  136MPD2     N 2123   2.846   0.557   9.823  0.3043  0.4941 -0.4413
  136MPD2    H5 2124   2.870   0.469   9.867 -0.4122  0.3345 -0.3714
  136MPD2    N1 2125   2.945   0.758  10.244 -0.2331 -0.2230  0.7928
  136MPD2    H7 2126   2.906   0.672  10.282 -0.9687 -0.7920 -1.2530
  137TMC2    C1 2127   2.679   3.927   9.453  0.1379  0.1521  0.9830
  137TMC2    C2 2128   2.785   3.929   9.362  0.2303 -0.3816 -0.0214
  137TMC2    C3 2129   2.780   4.002   9.245 -0.4586 -0.4216  0.1236
  137TMC2    C4 2130   2.595   4.031   9.455  0.0054 -0.2727 -0.0956
  137TMC2    C5 2131   2.589   4.107   9.338 -0.5314 -0.5073 -0.5814
  137TMC2    C6 2132   2.670   4.083   9.227  0.8045 -0.5826  0.4452
  137TMC2     C 2133   2.704   3.855   9.579 -0.3093 -0.2452  0.8208
  137TMC2     O 2134   2.668   3.913   9.680 -0.1898 -0.1804  0.1139
  137TMC2     H 2135   2.879   3.876   9.380  2.2766  3.7652  1.5507
  137TMC2    H1 2136   2.529   4.046   9.540  0.4523 -3.6664  0.8516
  137TMC2    H2 2137   2.667   4.167   9.158  0.2326 -1.4731 -0.6195
  137TMC2    C7 2138   2.520   4.239   9.341  0.2036 -0.0432  0.4581
  137TMC2    C8 2139   2.908   4.057   9.206 -0.2865  0.1464 -0.4493
  137TMC2    O1 2140   2.558   4.329   9.262  0.7070  0.3785 -0.8298
  137TMC2    O2 2141   3.005   4.060   9.280 -0.4805 -0.4719 -0.0383
  137TMC2    O5 2142   2.888   4.127   9.096  0.0109 -0.7467 -0.0436
  137TMC2    H5 2143   2.802   4.098   9.057 -0.0901  1.3257 -1.4028
  138MPD2     C 2144   2.886   3.548   9.648 -0.0841 -0.0161 -0.0348
  138MPD2    C1 2145   2.840   3.675   9.674 -0.3995  0.3735  0.4985
  138MPD2    C2 2146   2.839   3.720   9.805 -0.2865  1.1394  0.4459
  138MPD2    C3 2147   2.877   3.638   9.906  0.6310  0.4446 -0.1107
  138MPD2    C4 2148   2.915   3.510   9.883 -0.1935  1.1394 -0.4169
  138MPD2    C5 2149   2.917   3.465   9.759 -0.0628 -0.2755  0.0490
  138MPD2     H 2150   2.806   3.819   9.835 -0.6649  0.7471  1.3401
  138MPD2    H1 2151   2.951   3.444   9.962 -2.6325  1.1248  0.6873
  138MPD2    H2 2152   2.894   3.509   9.547  2.2655  0.9660 -0.2244
  138MPD2    H3 2153   2.928   3.359   9.735 -0.5175  0.3409 -2.8871
  138MPD2     N 2154   2.869   3.685  10.043 -0.1086 -0.5716  0.1122
  138MPD2    H5 2155   2.853   3.784  10.059  0.3752 -0.8764  2.4494
  138MPD2    N1 2156   2.790   3.747   9.563 -0.4298  0.1231 -0.2423
  138MPD2    H7 2157   2.795   3.709   9.470 -0.2143 -0.7186  0.1139
  139TMC2    C1 2158   3.843   1.862  13.663  1.0451 -0.2316 -0.2476
  139TMC2    C2 2159   3.834   1.899  13.533  0.0466  0.0791  0.0053
  139TMC2    C3 2160   3.755   2.008  13.503 -0.1547  0.7261 -0.1064
  139TMC2    C4 2161   3.813   1.945  13.767  0.6216 -0.0113  0.3129
  139TMC2    C5 2162   3.739   2.054  13.736  0.2754  0.1232 -0.8802
  139TMC2    C6 2163   3.706   2.087  13.608  0.0319  0.7581 -0.1431
  139TMC2     C 2164   3.927   1.741  13.685 -0.4649  0.3104 -0.7793
  139TMC2     O 2165   3.994   1.693  13.596 -0.0543  0.3127 -0.3163
  139TMC2     H 2166   3.874   1.835  13.455 -0.9942 -0.8752  0.2618
  139TMC2    H1 2167   3.871   1.931  13.857  0.2985  0.1662  0.5464
  139TMC2    H2 2168   3.648   2.178  13.596  0.5561  1.2478  1.0328
  139TMC2    C7 2169   3.670   2.130  13.844 -0.3838 -0.7685  0.4236
  139TMC2    C8 2170   3.714   2.038  13.360 -0.4280 -0.1828  0.1902
  139TMC2    O1 2171   3.579   2.205  13.811 -0.1782 -0.5527 -0.1901
  139TMC2    O2 2172   3.637   2.129  13.336  0.6835 -0.4027 -0.0585
  139TMC2    O5 2173   3.762   1.951  13.271  0.3554 -0.1315  0.0740
  139TMC2    H5 2174   3.838   1.895  13.298  0.9485  1.0115  0.7251
  140MPD2     C 2175   3.918   1.534  13.992 -0.5570  0.4124  0.2123
  140MPD2    C1 2176   3.974   1.588  13.874  0.3397 -0.1135 -0.3886
  140MPD2    C2 2177   4.078   1.525  13.817 -0.8901 -0.2138  0.2336
  140MPD2    C3 2178   4.125   1.402  13.857  0.1994  0.4205 -0.5933
  140MPD2    C4 2179   4.061   1.340  13.968  0.3411 -0.8122  0.0719
  140MPD2    C5 2180   3.971   1.410  14.036 -0.3719  0.6533  0.3036
  140MPD2     H 2181   4.121   1.558  13.724 -0.3238  1.2802  1.0203
  140MPD2    H1 2182   4.095   1.247  14.012 -0.1286 -0.8987  0.2570
  140MPD2    H2 2183   3.838   1.585  14.043 -0.1320 -1.4940  2.7770
  140MPD2    H3 2184   3.916   1.362  14.116 -0.8233 -1.2949 -1.1693
  140MPD2     N 2185   4.243   1.346  13.789  0.2726  0.2985  0.3019
  140MPD2    H5 2186   4.280   1.397  13.709  0.8344 -0.2010  0.2393
  140MPD2    N1 2187   3.908   1.697  13.811  0.4075  0.0924  0.2343
  140MPD2    H7 2188   3.838   1.747  13.865 -2.5943  0.6838 -4.2589
  141TMC2    C1 2189   4.531   3.047  14.265 -0.3933  0.3796 -0.4992
  141TMC2    C2 2190   4.609   2.944  14.309 -0.0612  0.0210  0.6270
  141TMC2    C3 2191   4.726   2.992  14.363 -0.4322  0.8692 -0.4319
  141TMC2    C4 2192   4.560   3.183  14.275  0.0959  0.9171  0.7889
  141TMC2    C5 2193   4.681   3.221  14.330 -0.0966  0.4141 -0.5345
  141TMC2    C6 2194   0.032   3.123  14.383  0.8560  0.2629 -0.0054
  141TMC2     C 2195   4.430   3.024  14.162  0.7684  0.2789  0.1267
  141TMC2     O 2196   4.391   3.120  14.096 -0.5050  0.9431 -0.3430
  141TMC2     H 2197   4.599   2.837  14.301  1.2241 -0.2421  2.5823
  141TMC2    H1 2198   4.513   3.270  14.232 -0.3898  1.2635  2.0087
  141TMC2    H2 2199   0.134   3.144  14.412  1.4792  1.4548 -3.0387
  141TMC2    C7 2200   0.008   3.348  14.285  0.1236 -0.0213  0.6177
  141TMC2    C8 2201   0.070   2.888  14.430 -0.2841  0.2441  0.5852
  141TMC2    O1 2202   4.727   3.374  14.168 -0.5657  0.2915  0.3509
  141TMC2    O2 2203   0.141   2.807  14.364  0.0109 -0.4123 -0.5363
  141TMC2    O5 2204   4.712   2.852  14.521  0.1075 -0.4032  0.2124
  141TMC2    H5 2205   4.651   2.926  14.539 -0.0828 -0.7902  1.1563
  142TMC2    C1 2206   2.476   1.991   9.835  0.4119 -0.3772 -0.3466
  142TMC2    C2 2207   2.448   2.056   9.717 -0.8009 -0.2382 -0.3117
  142TMC2    C3 2208   2.539   2.132   9.654  0.2553  0.5055  0.3353
  142TMC2    C4 2209   2.601   2.009   9.890  0.8193 -0.0269  0.4490
  142TMC2    C5 2210   2.676   2.105   9.833  0.0409  0.5989  0.2620
  142TMC2    C6 2211   2.653   2.166   9.718 -0.5647 -0.7599 -0.6805
  142TMC2     C 2212   2.376   1.936   9.921  0.7979  0.1069  0.7266
  142TMC2     O 2213   2.269   1.900   9.872 -0.7244  0.1048 -0.5635
  142TMC2     H 2214   2.355   2.035   9.666 -0.3548 -1.4803 -0.6237
  142TMC2    H1 2215   2.641   1.948   9.971  3.1133  2.2393  1.0148
  142TMC2    H2 2216   2.724   2.229   9.666  1.1686 -0.7693  1.6524
  142TMC2    C7 2217   2.779   2.160   9.920 -0.6272  0.1433 -0.6337
  142TMC2    C8 2218   2.493   2.229   9.560  0.7077 -0.0278  0.2168
  142TMC2    O1 2219   2.804   2.101  10.024  0.5251 -0.2148 -0.0693
  142TMC2    O2 2220   2.556   2.328   9.535 -0.5451 -0.4969 -0.2137
  142TMC2    O5 2221   2.390   2.191   9.482 -0.1323 -0.4570  0.1730
  142TMC2    H5 2222   2.399   2.094   9.470 -0.1688 -0.4148 -0.2085
  143MPD2     C 2223   2.237   1.691  10.351 -0.3995  0.4166  0.7732
  143MPD2    C1 2224   2.155   1.742  10.249  0.1592  0.9264  0.9155
  143MPD2    C2 2225   2.216   1.823  10.148 -0.2003 -1.1373  0.1737
  143MPD2    C3 2226   2.344   1.853  10.150  1.1980 -0.0639 -0.2977
  143MPD2    C4 2227   2.419   1.814  10.256  0.6987  0.1114 -0.3593
  143MPD2    C5 2228   2.371   1.730  10.346 -0.1835 -0.3697  0.1255
  143MPD2     H 2229   2.157   1.870  10.071  1.2007 -0.1984 -0.3198
  143MPD2    H1 2230   2.519   1.854  10.269  0.3534  0.9363 -0.2469
  143MPD2    H2 2231   2.207   1.620  10.428  1.0151  0.6119  1.5081
  143MPD2    H3 2232   2.433   1.696  10.429 -0.4780 -0.2195  0.4038
  143MPD2     N 2233   2.412   1.934  10.053  0.4250 -0.0559 -0.7495
  143MPD2    H5 2234   2.506   1.962  10.077  0.6760 -1.6594  0.0925
  143MPD2    N1 2235   2.018   1.703  10.256  0.4239  0.0594 -0.2566
  143MPD2    H7 2236   1.996   1.645  10.337  1.9792  0.3753  0.3822
  144TMC2    C1 2237   0.530   1.253   0.839 -0.4680 -0.7289  0.6885
  144TMC2    C2 2238   0.634   1.227   0.749  0.1964  0.1476 -0.4123
  144TMC2    C3 2239   0.759   1.217   0.801  0.0444  0.2647  0.9069
  144TMC2    C4 2240   0.549   1.278   0.975  0.3970 -0.4656  0.3560
  144TMC2    C5 2241   0.683   1.259   1.020  0.1063 -0.1653 -0.1091
  144TMC2    C6 2242   0.788   1.234   0.936  0.0544  1.1063  0.6326
  144TMC2     C 2243   0.399   1.208   0.800 -0.0566 -0.5311  0.2462
  144TMC2     O 2244   0.401   1.143   0.697 -0.1900  1.0554  0.0992
  144TMC2     H 2245   0.622   1.226   0.641 -0.3661 -1.1367 -0.3484
  144TMC2    H1 2246   0.468   1.274   1.047 -0.8990 -0.5331 -1.1234
  144TMC2    H2 2247   0.890   1.212   0.966  0.0159  1.7320  1.2383
  144TMC2    C7 2248   0.719   1.293   1.152 -0.5634  0.5835  0.3692
  144TMC2    C8 2249   0.868   1.204   0.711  0.2103 -0.5172  0.3755
  144TMC2    O1 2250   0.801   1.223   1.205 -0.0212  0.3727  0.3164
  144TMC2    O2 2251   0.969   1.271   0.733  0.2712 -0.1939  0.5486
  144TMC2    O5 2252   0.848   1.120   0.611  0.3373  0.4158  0.5556
  144TMC2    H5 2253   0.763   1.072   0.609  0.8068 -0.2515 -3.0324
  145MPD2     C 2254   4.616   1.218   0.857 -0.3823 -0.0089 -0.8746
  145MPD2    C1 2255   4.692   1.152   0.761 -0.2679 -0.2739 -0.2058
  145MPD2    C2 2256   0.097   1.174   0.767  0.4436  0.1048  0.0901
  145MPD2    C3 2257   0.163   1.251   0.862 -0.1127 -0.0272 -0.0389
  145MPD2    C4 2258   0.079   1.325   0.940 -0.1941 -0.6274 -0.2956
  145MPD2    C5 2259   4.676   1.311   0.936 -0.4111 -0.5964 -0.9260
  145MPD2     H 2260   0.166   1.122   0.701 -2.2676 -2.0274 -1.0629
  145MPD2    H1 2261   0.105   1.397   1.017 -4.0158 -0.2663  0.6987
  145MPD2    H2 2262   4.507   1.220   0.851 -0.3739  0.4500 -0.8843
  145MPD2    H3 2263   4.621   1.369   1.008  1.9567  1.9994 -1.1880
  145MPD2     N 2264   0.305   1.268   0.875 -0.4370  0.0968  0.4978
  145MPD2    H5 2265   0.341   1.348   0.926 -2.8619  1.2524  0.3826
  145MPD2    N1 2266   4.643   1.049   0.669 -0.8130 -0.0472 -0.2509
  145MPD2    H7 2267   4.711   1.002   0.610  0.3554 -0.3484  1.3341
  146TMC2    C1 2268   1.762   4.519  12.597 -0.4298 -0.7109  0.0006
  146TMC2    C2 2269   1.701   4.540  12.477 -0.5890 -0.2123  0.2193
  146TMC2    C3 2270   1.747   4.463  12.376 -0.1863  0.1115 -0.0938
  146TMC2    C4 2271   1.863   4.433  12.622  0.3150  0.1437  0.7331
  146TMC2    C5 2272   1.903   4.356  12.518  0.1458  0.0519 -0.1452
  146TMC2    C6 2273   1.845   4.366  12.394  0.1081 -0.3351  0.0202
  146TMC2     C 2274   1.697   4.579  12.718  0.0917  0.0969  0.0674
  146TMC2     O 2275   1.624   4.677  12.699 -0.1698  0.2639  0.6523
  146TMC2     H 2276   1.630   4.621  12.468 -0.0992  0.1337 -0.4929
  146TMC2    H1 2277   1.905   4.422  12.721 -2.1910 -1.3335  1.6367
  146TMC2    H2 2278   1.882   4.308  12.310 -2.8257 -0.5155 -1.1492
  146TMC2    C7 2279   2.019   4.268  12.538  0.0272 -0.2626 -0.8422
  146TMC2    C8 2280   1.714   4.524  12.252 -0.1706 -0.0720 -0.0810
  146TMC2    O1 2281   2.098   4.272  12.444 -0.3168  0.4122 -0.0588
  146TMC2    O2 2282   1.600   4.574  12.234  0.3068 -0.1203 -0.1241
  146TMC2    O5 2283   1.804   4.511  12.153  0.0642  0.2503  0.2883
  146TMC2    H5 2284   1.883   4.458  12.179 -0.0487 -0.3129 -0.5017
  147MPD2     C 2285   2.338   3.982  12.817  0.4798  0.2080  0.5869
  147MPD2    C1 2286   2.229   4.005  12.895  0.0051 -0.4186  0.0817
  147MPD2    C2 2287   2.124   4.086  12.844  0.2390 -0.3472  0.4039
  147MPD2    C3 2288   2.129   4.136  12.712  0.3502  0.2758 -0.6398
  147MPD2    C4 2289   2.243   4.119  12.641  0.1245  0.0422 -0.3685
  147MPD2    C5 2290   2.343   4.041  12.690 -1.2037 -0.0704  0.8295
  147MPD2     H 2291   2.037   4.119  12.900  0.8592  0.6332  0.7950
  147MPD2    H1 2292   2.255   4.138  12.535  0.5114 -3.7065 -0.9628
  147MPD2    H2 2293   2.421   3.920  12.847 -0.6647 -2.2498 -1.3248
  147MPD2    H3 2294   2.429   4.017  12.629  0.6891  2.4704  2.4921
  147MPD2     N 2295   2.018   4.205  12.662 -0.0327  0.6586 -0.0048
  147MPD2    H5 2296   1.931   4.214  12.714 -0.3008  0.9999 -0.5062
  147MPD2    N1 2297   2.227   3.927  13.016 -0.4900  0.0835 -0.2126
  147MPD2    H7 2298   2.313   3.875  13.034  0.1383  0.9512 -0.6929
  148TMC2    C1 2299   1.760   3.156  11.130 -0.7008  0.5587  0.7763
  148TMC2    C2 2300   1.886   3.207  11.122  0.1848 -0.2388  0.5890
  148TMC2    C3 2301   1.979   3.146  11.035  0.1160 -0.1660 -0.0193
  148TMC2    C4 2302   1.726   3.044  11.064  0.1068  0.5086 -0.4708
  148TMC2    C5 2303   1.823   2.983  10.986  1.1406 -0.3346 -0.7705
  148TMC2    C6 2304   1.955   3.033  10.966 -0.2787 -0.5269 -0.2919
  148TMC2     C 2305   1.663   3.256  11.154  0.6077 -0.3562  0.3532
  148TMC2     O 2306   1.708   3.352  11.212  0.1828 -0.5972 -0.1250
  148TMC2     H 2307   1.906   3.290  11.188 -0.4908 -0.7606  1.4453
  148TMC2    H1 2308   1.632   2.993  11.085  0.5420  0.0034  0.2230
  148TMC2    H2 2309   2.030   2.986  10.903  0.2280  0.4002 -0.3650
  148TMC2    C7 2310   1.781   2.861  10.925  0.1080  0.4157 -0.7346
  148TMC2    C8 2311   2.119   3.172  11.048 -0.1366  0.1812 -0.6480
  148TMC2    O1 2312   1.664   2.840  10.936  0.4264  0.4173 -0.0535
  148TMC2    O2 2313   2.202   3.081  11.048  0.1342  0.0411  0.1534
  148TMC2    O5 2314   2.133   3.302  11.084 -0.4025 -0.2086  0.3223
  148TMC2    H5 2315   2.060   3.364  11.063 -1.2758 -1.4308 -0.2253
  149MPD2     C 2316   1.427   3.428  11.181  0.7380  0.1375 -0.2824
  149MPD2    C1 2317   1.419   3.306  11.117 -0.0622 -0.9023  0.6776
  149MPD2    C2 2318   1.303   3.271  11.046 -0.6024 -0.2764 -0.3680
  149MPD2    C3 2319   1.198   3.360  11.037 -0.3461  0.3231 -0.7701
  149MPD2    C4 2320   1.202   3.475  11.109  0.4534  0.3724 -0.0713
  149MPD2    C5 2321   1.316   3.513  11.180 -0.5792  0.3517  0.4564
  149MPD2     H 2322   1.299   3.174  10.999  1.4299 -1.5486  2.0644
  149MPD2    H1 2323   1.126   3.552  11.100 -0.2253 -0.2609  0.2428
  149MPD2    H2 2324   1.516   3.464  11.230  0.3601 -1.5610  1.6389
  149MPD2    H3 2325   1.321   3.614  11.219 -0.5737  0.7620 -0.5889
  149MPD2     N 2326   1.074   3.334  10.978 -0.8351 -0.0369 -0.3965
  149MPD2    H5 2327   1.004   3.407  10.988  0.9795  1.6138  0.2632
  149MPD2    N1 2328   1.536   3.226  11.102  0.1264  0.1033  0.1003
  149MPD2    H7 2329   1.537   3.144  11.041  0.2755 -0.3241  0.6855
  150TMC2    C1 2330   3.559   2.229  12.632 -0.4901  0.8540 -0.5961
  150TMC2    C2 2331   3.493   2.110  12.645  0.2769 -0.5678 -0.5413
  150TMC2    C3 2332   3.561   2.007  12.697  0.0895  0.1309  0.1074
  150TMC2    C4 2333   3.679   2.256  12.681  0.1186 -0.9302 -0.0971
  150TMC2    C5 2334   3.739   2.155  12.766 -0.2331  0.3716  0.0369
  150TMC2    C6 2335   3.679   2.034  12.772 -0.1012  0.0119 -0.3470
  150TMC2     C 2336   3.504   2.329  12.551 -0.3149  0.4227  0.1102
  150TMC2     O 2337   3.561   2.435  12.536  0.5857  0.1100 -0.3174
  150TMC2     H 2338   3.408   2.087  12.582 -0.0402 -3.2477  0.8665
  150TMC2    H1 2339   3.734   2.345  12.652 -1.6131 -0.4873 -2.0088
  150TMC2    H2 2340   3.717   1.960  12.842  0.0448 -2.3123 -2.8438
  150TMC2    C7 2341   3.881   2.170  12.802 -0.7068 -0.9894 -0.3399
  150TMC2    C8 2342   3.483   1.891  12.727 -0.2131  0.0517 -0.2222
  150TMC2    O1 2343   3.935   2.277  12.778  0.1267 -0.1168  0.6471
  150TMC2    O2 2344   3.362   1.892  12.745 -0.3679  0.3477 -0.5461
  150TMC2    O5 2345   3.561   1.796  12.673  0.0921 -0.2827 -0.1564
  150TMC2    H5 2346   3.654   1.827  12.665  0.5298 -0.8665  2.5218
  151MPD2     C 2347   3.095   2.571  12.336  0.2964 -0.9131 -0.6248
  151MPD2    C1 2348   3.055   2.454  12.388  0.1703 -0.1876 -0.6736
  151MPD2    C2 2349   3.150   2.358  12.435  0.1144  0.2362 -0.5936
  151MPD2    C3 2350   3.285   2.392  12.439 -0.8953  0.2379  0.3422
  151MPD2    C4 2351   3.325   2.512  12.381  0.3058  0.0016 -0.1519
  151MPD2    C5 2352   3.224   2.611  12.343  0.3088  0.3231 -0.1379
  151MPD2     H 2353   3.129   2.253  12.451  1.2580  0.1265  0.1903
  151MPD2    H1 2354   3.429   2.543  12.389  0.8634 -2.1415  0.8409
  151MPD2    H2 2355   3.020   2.637  12.293  0.4615  0.8505  1.7832
  151MPD2    H3 2356   3.251   2.712  12.317  0.2656  0.9383  2.2495
  151MPD2     N 2357   3.372   2.309  12.516  0.0597 -0.4671 -0.3968
  151MPD2    H5 2358   3.330   2.230  12.563  0.3293 -2.1477 -2.9889
  151MPD2    N1 2359   2.917   2.420  12.386 -0.5264 -0.4423  0.1922
  151MPD2    H7 2360   2.852   2.481  12.337  0.7160  1.3309  0.7591
  152TMC2    C1 2361   3.141   1.926  13.064  0.3406 -0.6679 -0.0559
  152TMC2    C2 2362   3.211   1.808  13.077 -0.0068  0.6818  0.5574
  152TMC2    C3 2363   3.347   1.826  13.083  0.1949 -0.5244  0.3111
  152TMC2    C4 2364   3.203   2.050  13.045 -0.1698 -0.2867  0.6846
  152TMC2    C5 2365   3.337   2.065  13.059 -0.4120  0.0410 -0.5574
  152TMC2    C6 2366   3.407   1.948  13.079  0.6848  0.7031 -0.1629
  152TMC2     C 2367   2.996   1.926  13.092 -0.3141  0.3484  0.0084
  152TMC2     O 2368   2.938   2.028  13.057  0.7376  0.2570 -0.4813
  152TMC2     H 2369   3.168   1.708  13.070  0.8768  0.2193  1.6997
  152TMC2    H1 2370   3.148   2.143  13.036 -2.1494 -1.4089  1.0405
  152TMC2    H2 2371   3.513   1.966  13.087  0.2474  2.3342  1.9901
  152TMC2    C7 2372   3.407   2.180  13.008 -0.1191 -0.1773  0.4379
  152TMC2    C8 2373   3.431   1.713  13.136 -0.6496 -0.0344 -0.1867
  152TMC2    O1 2374   3.353   2.240  12.918  0.1669 -0.5749 -0.1105
  152TMC2    O2 2375   3.539   1.682  13.087 -0.1994  0.2834 -0.1962
  152TMC2    O5 2376   3.344   1.622  13.189 -0.0928  0.7304  0.8861
  152TMC2    H5 2377   3.284   1.668  13.252 -2.0157 -0.1042 -0.3500
  153MPD2     C 2378   2.810   1.739  13.344 -0.1926  0.2980  0.2368
  153MPD2    C1 2379   2.823   1.814  13.229  0.9201 -0.1123 -0.2774
  153MPD2    C2 2380   2.709   1.862  13.167  0.2627 -0.8055 -0.0479
  153MPD2    C3 2381   2.585   1.854  13.232 -0.3586  0.1362  0.4070
  153MPD2    C4 2382   2.582   1.791  13.355 -0.2021  0.4440  0.2978
  153MPD2    C5 2383   2.691   1.726  13.409  0.4361  1.1255 -0.4763
  153MPD2     H 2384   2.705   1.908  13.069  1.0768 -0.6324 -0.0028
  153MPD2    H1 2385   2.494   1.774  13.417 -0.4533 -1.3807 -0.5453
  153MPD2    H2 2386   2.897   1.695  13.391  0.0675 -2.3652 -2.7517
  153MPD2    H3 2387   2.683   1.670  13.502  0.7940  0.4871 -0.8270
  153MPD2     N 2388   2.476   1.929  13.176  0.0145 -0.3962  0.0343
  153MPD2    H5 2389   2.483   1.976  13.087 -0.9807 -2.7865 -1.2913
  153MPD2    N1 2390   2.958   1.825  13.178 -0.1197  0.5690 -0.1529
  153MPD2    H7 2391   3.025   1.760  13.216  0.8978  0.7066 -1.7334
  154TMC2    C1 2392   1.004   2.991   0.194 -0.0909  0.3055  0.3235
  154TMC2    C2 2393   1.124   3.039   0.144 -0.5241 -0.0814 -0.3137
  154TMC2    C3 2394   1.149   3.174   0.158  0.4903 -0.5667  0.2721
  154TMC2    C4 2395   0.912   3.072   0.260 -0.2255  0.9256 -0.2996
  154TMC2    C5 2396   0.948   3.203   0.282  0.0354 -0.0987  0.0332
  154TMC2    C6 2397   1.063   3.257   0.229  0.1987 -0.6092 -0.1958
  154TMC2     C 2398   0.980   2.853   0.163  0.0148 -0.1736 -0.6447
  154TMC2     O 2399   1.057   2.799   0.086 -0.0675 -0.0580 -0.2632
  154TMC2     H 2400   1.185   2.978   0.079 -0.2145 -1.5416  1.3471
  154TMC2    H1 2401   0.814   3.032   0.287  0.6927 -1.4974 -0.5120
  154TMC2    H2 2402   1.090   3.360   0.244  0.3308 -0.5534 -0.8159
  154TMC2    C7 2403   0.876   3.285   0.377 -0.6084 -0.6008  0.6535
  154TMC2    C8 2404   1.284   3.220   0.181 -0.3261 -0.0220  0.5050
  154TMC2    O1 2405   0.907   3.403   0.372  0.0566  0.2929  0.2559
  154TMC2    O2 2406   1.309   3.320   0.249  0.2358 -0.1394  0.1517
  154TMC2    O5 2407   1.369   3.115   0.177  0.3267 -0.1957  0.6332
  154TMC2    H5 2408   1.359   3.063   0.094  0.3364 -0.9714  1.1203
  155MPD2     C 2409   0.892   2.580   0.134  0.2090  0.2018 -0.4155
  155MPD2    C1 2410   0.842   2.665   0.235  0.3451 -0.5789 -0.1898
  155MPD2    C2 2411   0.747   2.611   0.325  0.0800 -0.0503  0.3181
  155MPD2    C3 2412   0.712   2.478   0.325  0.5850 -0.0535 -0.4405
  155MPD2    C4 2413   0.755   2.401   0.216  0.2017  0.0812  0.2120
  155MPD2    C5 2414   0.846   2.452   0.119 -0.0782 -0.4790 -0.8948
  155MPD2     H 2415   0.701   2.673   0.401 -2.2633 -0.4393 -0.7993
  155MPD2    H1 2416   0.720   2.299   0.204  2.2983 -1.2499  5.1811
  155MPD2    H2 2417   0.951   2.613   0.049 -0.9770  2.0753 -0.5007
  155MPD2    H3 2418   0.875   2.388   0.036 -1.5658  0.0224 -1.8045
  155MPD2     N 2419   0.632   2.432   0.430 -0.3883 -0.1004 -0.0353
  155MPD2    H5 2420   0.609   2.506   0.496 -0.1264 -1.2091  1.2744
  155MPD2    N1 2421   0.879   2.800   0.240 -0.1205  0.0090  0.1911
  155MPD2    H7 2422   0.845   2.853   0.319  0.1408  0.1153  0.2297
  156TMC2    C1 2423   3.463   4.185  11.864 -0.0909 -0.1544  0.2537
  156TMC2    C2 2424   3.396   4.071  11.821 -0.3683 -0.1377 -0.1191
  156TMC2    C3 2425   3.270   4.098  11.780  0.3921 -0.4079  0.4877
  156TMC2    C4 2426   3.412   4.312  11.868  0.5822 -0.1452 -0.9404
  156TMC2    C5 2427   3.285   4.336  11.824  0.1635  0.1166  0.3165
  156TMC2    C6 2428   3.220   4.226  11.769 -0.5907  0.8592 -0.1918
  156TMC2     C 2429   3.590   4.174  11.927  0.1367  0.4552  0.2369
  156TMC2     O 2430   3.656   4.277  11.949 -0.5326  0.1387 -0.6056
  156TMC2     H 2431   3.452   3.980  11.802  2.3718  1.5991 -0.3531
  156TMC2    H1 2432   3.469   4.398  11.900 -1.3454  0.6149  0.4108
  156TMC2    H2 2433   3.120   4.238  11.728 -1.4681 -2.4253  0.9626
  156TMC2    C7 2434   3.261   4.465  11.767  0.3472  0.3345  0.1472
  156TMC2    C8 2435   3.225   4.013  11.671 -0.1889 -0.2783 -0.4510
  156TMC2    O1 2436   3.353   4.547  11.762 -0.3177  0.2369 -0.4460
  156TMC2    O2 2437   3.188   4.054  11.560  0.1439  0.7165  0.1252
  156TMC2    O5 2438   3.247   3.888  11.713 -0.3011 -0.0145  0.0126
  156TMC2    H5 2439   3.272   3.876  11.807 -1.0420  1.4558  0.3974
  157MPD2     C 2440   3.695   3.902  12.148 -0.1748 -0.3271 -0.3029
  157MPD2    C1 2441   3.700   4.027  12.095 -0.1570  0.4052 -0.3854
  157MPD2    C2 2442   3.791   4.123  12.142  0.1092 -0.2266  0.3899
  157MPD2    C3 2443   3.869   4.087  12.246 -0.4032 -0.4321 -0.3837
  157MPD2    C4 2444   3.849   3.970  12.318 -0.2312  0.0529  0.2520
  157MPD2    C5 2445   3.769   3.875  12.262  0.2331  0.2389  0.2099
  157MPD2     H 2446   3.799   4.222  12.099 -1.0907 -0.2666  0.0793
  157MPD2    H1 2447   3.904   3.941  12.406 -0.7574 -2.2237 -0.1634
  157MPD2    H2 2448   3.632   3.823  12.108  0.6234 -0.2184 -1.7961
  157MPD2    H3 2449   3.761   3.774  12.301  1.1500 -0.6676 -1.9333
  157MPD2     N 2450   3.957   4.188  12.296  0.0471  0.6212 -0.0059
  157MPD2    H5 2451   3.957   4.277  12.247 -1.4489  0.0027 -1.1395
  157MPD2    N1 2452   3.602   4.054  11.996 -0.0161  0.2949  0.0852
  157MPD2    H7 2453   3.539   3.978  11.973  0.5521 -0.6602  1.7316
  158TMC2    C1 2454   2.950   3.376  13.522 -0.2868  0.4913  0.0249
  158TMC2    C2 2455   2.866   3.486  13.493  0.3492 -0.2755 -0.0285
  158TMC2    C3 2456   2.737   3.480  13.532  0.4408 -0.0341 -0.0686
  158TMC2    C4 2457   2.899   3.263  13.587 -0.1749 -0.5718 -0.6098
  158TMC2    C5 2458   2.772   3.271  13.635  0.0725  0.3972 -0.4339
  158TMC2    C6 2459   2.690   3.372  13.603  0.6225  0.1544  0.4875
  158TMC2     C 2460   3.093   3.409  13.528  0.2076  0.8388  0.0744
  158TMC2     O 2461   3.134   3.507  13.475  0.2942 -0.4278  0.5136
  158TMC2     H 2462   2.902   3.565  13.428  1.1339 -2.6315 -2.4683
  158TMC2    H1 2463   2.958   3.172  13.581 -1.2599 -1.1934 -2.1030
  158TMC2    H2 2464   2.592   3.372  13.649  0.2727  1.9893 -0.2535
  158TMC2    C7 2465   2.705   3.143  13.677 -0.3545  1.3404 -0.1727
  158TMC2    C8 2466   2.637   3.558  13.475 -0.3782  0.8807  0.3011
  158TMC2    O1 2467   2.580   3.143  13.680 -0.1105 -0.2041  0.2277
  158TMC2    O2 2468   2.525   3.570  13.527 -0.5602 -0.1543 -0.0056
  158TMC2    O5 2469   2.689   3.633  13.378  0.0240  0.6127 -0.3724
  158TMC2    H5 2470   2.759   3.589  13.325 -0.8870  0.7939 -1.7198
  159MPD2     C 2471   3.555   3.360  13.754 -0.3973 -0.6984 -0.2784
  159MPD2    C1 2472   3.472   3.268  13.801  0.8523  0.4327 -0.4628
  159MPD2    C2 2473   3.340   3.248  13.743 -0.0598 -0.0667  0.2928
  159MPD2    C3 2474   3.293   3.343  13.654 -0.8739  0.0192  0.0614
  159MPD2    C4 2475   3.378   3.433  13.598 -0.7613 -0.4973  0.5633
  159MPD2    C5 2476   3.503   3.449  13.658  0.1215 -0.3010 -0.1790
  159MPD2     H 2477   3.271   3.169  13.771 -0.2797 -1.0914 -3.1819
  159MPD2    H1 2478   3.353   3.505  13.522 -0.2812 -1.7116 -0.7527
  159MPD2    H2 2479   3.651   3.383  13.800 -0.8318  1.0860 -0.2681
  159MPD2    H3 2480   3.583   3.515  13.628 -1.7189  1.1079 -1.9988
  159MPD2     N 2481   3.161   3.330  13.612  0.2039 -0.3845 -0.1891
  159MPD2    H5 2482   3.109   3.263  13.668  0.4484  0.9667  1.6201
  159MPD2    N1 2483   3.520   3.184  13.907  0.0184 -0.1498  0.0042
  159MPD2    H7 2484   3.606   3.209  13.955 -1.0425 -1.2171  2.4718
  160TMC2    C1 2485   4.097   1.818   1.844 -0.1295  0.2379  0.5993
  160TMC2    C2 2486   4.137   1.704   1.917 -0.1368 -0.0855 -0.0846
  160TMC2    C3 2487   4.240   1.722   2.002 -0.5728  0.4336 -0.2740
  160TMC2    C4 2488   4.164   1.939   1.852 -0.1265  0.5674 -0.2153
  160TMC2    C5 2489   4.262   1.944   1.949 -0.5496  0.2984 -0.0181
  160TMC2    C6 2490   4.295   1.841   2.035 -0.2109  0.2431  0.2878
  160TMC2     C 2491   3.986   1.797   1.753  0.1972  0.8736  0.3844
  160TMC2     O 2492   3.972   1.682   1.712 -0.1351 -0.0281 -0.1761
  160TMC2     H 2493   4.083   1.611   1.908 -2.3593  1.2370 -0.3564
  160TMC2    H1 2494   4.138   2.025   1.792  0.7745  0.1517 -1.2251
  160TMC2    H2 2495   4.361   1.862   2.119 -0.5923  1.3664  0.2982
  160TMC2    C7 2496   4.321   2.080   1.969  0.5184  0.3018 -0.2547
  160TMC2    C8 2497   4.291   1.603   2.069 -0.6363 -0.3554 -0.4088
  160TMC2    O1 2498   4.373   2.094   2.077  0.4817 -0.2183  0.9319
  160TMC2    O2 2499   4.349   1.615   2.173  0.1022 -0.0639  0.2891
  160TMC2    O5 2500   4.279   1.493   1.990  0.1418  0.2500 -0.5276
  160TMC2    H5 2501   4.243   1.511   1.901 -0.7999  2.5243  0.3077
  161MPD2     C 2502   3.778   1.810   1.560 -0.2508 -0.0649  0.0384
  161MPD2    C1 2503   3.792   1.909   1.649 -0.1496  0.3598  0.1366
  161MPD2    C2 2504   3.702   2.015   1.641 -0.3767 -0.1828 -0.1564
  161MPD2    C3 2505   3.596   2.015   1.550  0.1705  0.3176 -0.1898
  161MPD2    C4 2506   3.591   1.914   1.455 -0.6350 -0.2922 -0.1157
  161MPD2    C5 2507   3.690   1.821   1.456 -0.0484  0.5365  0.2205
  161MPD2     H 2508   3.727   2.097   1.709  1.9468  0.0580 -1.3175
  161MPD2    H1 2509   3.528   1.921   1.367 -0.4351  0.4777 -0.2063
  161MPD2    H2 2510   3.852   1.732   1.545  0.7772  0.4835  2.3456
  161MPD2    H3 2511   3.699   1.744   1.380 -1.5890 -0.3994  1.0077
  161MPD2     N 2512   3.492   2.113   1.549  0.1144 -0.4204 -0.2078
  161MPD2    H5 2513   3.419   2.099   1.479  0.3986  1.5813 -0.8941
  161MPD2    N1 2514   3.908   1.906   1.735 -0.4315 -0.4087  0.6118
  161MPD2    H7 2515   3.937   1.989   1.786 -2.8737 -0.5818  2.2857
  162TMC2    C1 2516   1.887   3.926   1.383  0.2081 -0.0949 -0.0636
  162TMC2    C2 2517   1.776   3.999   1.402  0.4796  0.1434 -0.8753
  162TMC2    C3 2518   1.781   4.090   1.504 -1.0295 -0.6867 -0.3206
  162TMC2    C4 2519   2.005   3.942   1.454  0.4747 -0.2374  0.3740
  162TMC2    C5 2520   2.008   4.041   1.548  0.4889 -0.6296 -0.0709
  162TMC2    C6 2521   1.890   4.106   1.585  0.1833 -0.4118  0.6089
  162TMC2     C 2522   1.865   3.796   1.322  0.2352 -0.0674 -0.4071
  162TMC2     O 2523   1.771   3.792   1.242 -0.5285 -0.3230  0.2370
  162TMC2     H 2524   1.694   3.973   1.336 -0.6515 -1.0602  1.0291
  162TMC2    H1 2525   2.093   3.898   1.409  1.1767  1.9853 -0.4300
  162TMC2    H2 2526   1.893   4.200   1.639  3.0422  0.7373 -1.5679
  162TMC2    C7 2527   2.126   4.099   1.600 -0.1356  0.0955  0.5090
  162TMC2    C8 2528   1.683   4.198   1.516  0.2401 -0.0015 -0.5192
  162TMC2    O1 2529   2.119   4.209   1.662 -0.2158 -0.0005 -0.2705
  162TMC2    O2 2530   1.731   4.308   1.545 -0.1580  0.7596  0.5653
  162TMC2    O5 2531   1.563   4.168   1.471 -0.0330  0.6899 -0.1820
  162TMC2    H5 2532   1.550   4.071   1.478  0.3688  0.7999  2.1469
  163MPD2     C 2533   1.924   3.297   1.276 -0.5219 -0.1558 -0.1105
  163MPD2    C1 2534   1.858   3.380   1.191  0.2424  0.0627  0.1688
  163MPD2    C2 2535   1.860   3.512   1.229 -0.4651  0.1161  1.3495
  163MPD2    C3 2536   1.922   3.555   1.351  0.1862  0.3557  0.6119
  163MPD2    C4 2537   1.986   3.464   1.427  0.1224  0.6959 -0.1000
  163MPD2    C5 2538   1.982   3.336   1.388 -0.3673  0.0808  0.9702
  163MPD2     H 2539   1.820   3.588   1.163 -0.4300 -0.6290  0.4676
  163MPD2    H1 2540   2.051   3.492   1.509 -1.1812 -4.0753  2.5596
  163MPD2    H2 2541   1.916   3.190   1.263  0.1717 -0.2210  0.0272
  163MPD2    H3 2542   2.046   3.269   1.444 -1.4899 -2.2273 -0.5408
  163MPD2     N 2543   1.932   3.695   1.383 -0.0099 -0.1273  0.1641
  163MPD2    H5 2544   1.986   3.721   1.465  1.7738 -0.2851 -0.9489
  163MPD2    N1 2545   1.807   3.327   1.070  0.4112  0.2410  0.4286
  163MPD2    H7 2546   1.811   3.226   1.060 -0.2473  0.1308  1.2581
  164TMC2    C1 2547   1.995   3.896  11.068 -1.5339 -0.0886  0.6255
  164TMC2    C2 2548   2.083   3.979  11.139  0.1943 -0.4258 -0.8882
  164TMC2    C3 2549   2.052   4.033  11.256 -0.2989 -0.9577 -0.7039
  164TMC2    C4 2550   1.877   3.857  11.131  0.1600  0.3650  0.0964
  164TMC2    C5 2551   1.854   3.902  11.256 -0.1854 -0.0759 -1.0126
  164TMC2    C6 2552   1.935   3.995  11.316  0.2012 -0.8040  0.0380
  164TMC2     C 2553   2.020   3.852  10.932  1.1028  0.8155  0.1692
  164TMC2     O 2554   1.989   3.736  10.911  0.4516 -0.4843  0.2086
  164TMC2     H 2555   2.173   4.000  11.083  0.3017  0.3504 -0.4186
  164TMC2    H1 2556   1.813   3.791  11.073 -0.2287  0.7481  0.0830
  164TMC2    H2 2557   1.909   4.045  11.408  0.2751 -0.1351 -0.3060
  164TMC2    C7 2558   1.716   3.883  11.300  0.5488 -0.3685 -0.3697
  164TMC2    C8 2559   2.136   4.125  11.323  0.1140 -0.2617 -0.3334
  164TMC2    O1 2560   1.649   3.826  11.216 -0.1798 -0.6873  0.2943
  164TMC2    O2 2561   2.125   4.158  11.442 -0.5368 -0.6710  0.7555
  164TMC2    O5 2562   2.231   4.180  11.240  0.2453  0.4741 -0.4683
  164TMC2    H5 2563   2.235   4.162  11.144 -0.3794  0.5595 -0.5094
  165TMC2    C1 2564   4.607   1.328   2.112 -0.6132  0.2692 -0.5580
  165TMC2    C2 2565   4.693   1.356   2.217  0.8539 -0.6886 -0.0696
  165TMC2    C3 2566   0.034   1.469   2.210 -0.0514  0.3035  0.4602
  165TMC2    C4 2567   4.590   1.411   2.001 -0.5407  0.8474 -0.4145
  165TMC2    C5 2568   4.661   1.525   2.002 -0.4474 -0.7560  0.4755
  165TMC2    C6 2569   0.022   1.552   2.102  0.0517 -0.4733  0.3425
  165TMC2     C 2570   4.534   1.198   2.101 -0.0942 -0.2846 -0.4868
  165TMC2     O 2571   4.586   1.106   2.161 -0.0327  0.5396  0.1863
  165TMC2     H 2572   4.704   1.285   2.297  3.0143 -1.5921 -1.1550
  165TMC2    H1 2573   4.520   1.393   1.920  2.6833  1.6418 -3.3541
  165TMC2    H2 2574   0.080   1.644   2.091 -0.1791 -0.4643 -0.8765
  165TMC2    C7 2575   4.658   1.607   1.877 -0.2026 -0.1304  0.9456
  165TMC2    C8 2576   0.133   1.496   2.315 -0.6771 -0.1446 -0.3063
  165TMC2    O1 2577   4.600   1.558   1.782  0.2170  0.8931 -0.3222
  165TMC2    O2 2578   0.159   1.420   2.402 -0.0172  0.3593 -0.2832
  165TMC2    O5 2579   0.193   1.614   2.293 -0.2930 -0.1320  0.6010
  165TMC2    H5 2580   0.136   1.675   2.242  0.3092  0.0347  0.1163
  166MPD2     C 2581   4.191   0.860   1.924 -0.1183 -0.2092  0.4678
  166MPD2    C1 2582   4.322   0.838   1.955 -0.2254  0.1994  0.2172
  166MPD2    C2 2583   4.386   0.948   2.008 -0.0001 -0.3978  0.2893
  166MPD2    C3 2584   4.332   1.076   2.005  1.0572 -0.1577 -0.1019
  166MPD2    C4 2585   4.198   1.099   1.969 -0.2782 -0.6570 -0.4645
  166MPD2    C5 2586   4.125   0.984   1.937  0.2540 -0.2370  0.0841
  166MPD2     H 2587   4.489   0.931   2.035 -0.0533 -1.2518 -0.0235
  166MPD2    H1 2588   4.138   1.190   1.974 -1.4782 -1.5435  1.5153
  166MPD2    H2 2589   4.141   0.773   1.885  0.1880  0.0796 -0.5812
  166MPD2    H3 2590   4.018   0.988   1.918  0.0785 -1.6867  0.8249
  166MPD2     N 2591   4.411   1.190   2.034  0.3816  0.3036  0.1410
  166MPD2    H5 2592   4.368   1.275   1.999 -1.3461 -0.8963 -0.6293
  166MPD2    N1 2593   4.381   0.711   1.921  0.4835  0.3473  0.0003
  166MPD2    H7 2594   4.324   0.648   1.865 -0.9073 -0.0710  1.8953
  167TMC2    C1 2595   1.603   2.744  13.260  0.6726 -0.2475  0.7217
  167TMC2    C2 2596   1.517   2.706  13.364  0.2789  0.5546 -0.0448
  167TMC2    C3 2597   1.490   2.573  13.380  0.0492 -0.5405  0.1371
  167TMC2    C4 2598   1.667   2.654  13.183 -0.5050  0.8459 -0.2679
  167TMC2    C5 2599   1.657   2.521  13.221 -0.2727  0.0727  0.3172
  167TMC2    C6 2600   1.576   2.478  13.326 -0.1336 -0.0230  0.1194
  167TMC2     C 2601   1.622   2.881  13.228 -0.2657  0.5154  0.1437
  167TMC2     O 2602   1.654   2.960  13.317  0.1666 -0.4365  0.0658
  167TMC2     H 2603   1.468   2.783  13.421 -2.0060 -3.0988  2.8799
  167TMC2    H1 2604   1.729   2.682  13.098  2.0507  0.6654  1.5623
  167TMC2    H2 2605   1.553   2.373  13.330 -2.6138  0.4646 -1.4375
  167TMC2    C7 2606   1.717   2.419  13.146 -0.2772 -0.1022  0.2242
  167TMC2    C8 2607   1.376   2.517  13.450  0.2648  0.1429 -0.1795
  167TMC2    O1 2608   1.757   2.322  13.214  0.2718  0.4068  0.5211
  167TMC2    O2 2609   1.359   2.395  13.461  0.3820 -0.2145 -0.5338
  167TMC2    O5 2610   1.273   2.599  13.450  0.0733  0.4753  0.4308
  167TMC2    H5 2611   1.267   2.691  13.418 -2.2552 -0.5484 -2.0299
  168MPD2     C 2612   1.641   3.141  13.080  0.3000 -0.2874 -0.4134
  168MPD2    C1 2613   1.609   3.020  13.022  1.0080 -0.5232 -0.0110
  168MPD2    C2 2614   1.591   3.010  12.882 -0.5274 -0.6306  0.5380
  168MPD2    C3 2615   1.605   3.118  12.798  0.4839 -0.0142  0.5888
  168MPD2    C4 2616   1.642   3.237  12.858 -0.2403  0.8990  0.0038
  168MPD2    C5 2617   1.661   3.244  12.996 -0.2482  0.1856  0.0337
  168MPD2     H 2618   1.569   2.915  12.837 -0.6814  0.6546 -2.0714
  168MPD2    H1 2619   1.639   3.324  12.793 -0.8360  1.5705  0.9311
  168MPD2    H2 2620   1.655   3.155  13.187  0.0722  2.1179 -0.7008
  168MPD2    H3 2621   1.683   3.340  13.040 -0.1356 -0.4112  1.2846
  168MPD2     N 2622   1.589   3.113  12.655  0.0552 -0.1897 -0.0280
  168MPD2    H5 2623   1.588   3.199  12.602 -0.4849  1.3407  2.4909
  168MPD2    N1 2624   1.602   2.900  13.092  0.0993 -0.1363  0.0718
  168MPD2    H7 2625   1.561   2.819  13.048  1.9538  0.3905 -2.6584
  169MPD1     C 2626   3.468   3.540  10.348 -0.5367 -0.1946 -0.1768
  169MPD1    C1 2627   3.398   3.457  10.264 -0.3015  0.0339  0.6320
  169MPD1    C2 2628   3.466   3.377  10.172  0.6694 -0.3868 -0.4322
  169MPD1    C3 2629   3.599   3.383  10.164  0.9535  0.3425  0.9892
  169MPD1    C4 2630   3.674   3.453  10.255 -0.0720 -0.7645 -0.2664
  169MPD1    C5 2631   3.599   3.522  10.353 -0.6763  0.3474  0.3117
  169MPD1     H 2632   3.413   3.321  10.096 -1.4932  0.0896  0.7055
  169MPD1    H1 2633   3.782   3.459  10.259 -0.0784 -0.2146 -1.1060
  169MPD1    H2 2634   3.422   3.613  10.413 -0.6422  0.2908 -0.7907
  169MPD1    H3 2635   3.647   3.577  10.433 -0.5010  1.3730 -0.4953
  169MPD1     N 2636   3.660   3.299  10.067 -1.0853  0.4211 -0.3940
  169MPD1    H5 2637   3.596   3.246  10.009 -2.0848  0.5838  0.5674
  169MPD1    N1 2638   3.260   3.470  10.257 -0.1445  0.2788 -0.3520
  169MPD1    H6 2639   3.213   3.383  10.234 -0.1061 -0.0716  0.9247
  169MPD1    H7 2640   3.224   3.502  10.347  2.1674 -1.4492  1.1612
  170MPD1     C 2641   2.343   0.162  12.878  0.0904  0.1109  0.1177
  170MPD1    C1 2642   2.331   0.281  12.945 -0.2036 -0.6732  0.6030
  170MPD1    C2 2643   2.347   0.283  13.083 -0.2745  0.0550  0.1047
  170MPD1    C3 2644   2.341   0.166  13.148 -0.2513  0.7104 -0.0053
  170MPD1    C4 2645   2.344   0.043  13.076  0.6381  0.2029 -0.7947
  170MPD1    C5 2646   2.352   0.044  12.938 -0.5715 -0.0246  0.0327
  170MPD1     H 2647   2.352   0.377  13.138  2.5307  0.1158 -0.2506
  170MPD1    H1 2648   2.337   4.677  13.121  2.7561  0.2034 -0.4464
  170MPD1    H2 2649   2.353   0.158  12.770  1.2003  1.7057  0.1575
  170MPD1    H3 2650   2.349   4.676  12.898 -0.0062 -0.0532  0.0596
  170MPD1     N 2651   2.333   0.178  13.288  0.5171 -0.3433  0.1588
  170MPD1    H5 2652   2.351   0.270  13.328 -0.8945 -0.6761  1.5596
  170MPD1    N1 2653   2.321   0.406  12.881 -0.3023  0.2907 -0.2992
  170MPD1    H6 2654   2.278   0.398  12.789 -0.5596 -2.2847  0.0466
  170MPD1    H7 2655   2.271   0.473  12.939  3.2084  1.7996  0.9765
  171MPD1     C 2656   0.758   1.454  15.346 -0.1401 -0.9174  0.0617
  171MPD1    C1 2657   0.814   1.342  15.289 -0.2744  1.3520  0.3476
  171MPD1    C2 2658   0.905   1.270  15.364 -0.5625  0.8669  0.3855
  171MPD1    C3 2659   0.925   1.295  15.497 -0.5931 -0.1101  0.4110
  171MPD1    C4 2660   0.854   1.401  15.554 -0.1450  0.1064 -0.0658
  171MPD1    C5 2661   0.782   1.483  15.479  0.3379  0.0484  0.1334
  171MPD1     H 2662   0.941   1.176  15.322 -2.2774  1.6282 -2.8191
  171MPD1    H1 2663   0.869   1.426  15.659 -3.5522 -0.9183  0.6266
  171MPD1    H2 2664   0.698   1.518  15.282  1.6067  1.0954  0.4382
  171MPD1    H3 2665   0.734   1.573  15.514 -0.8160 -0.0901 -1.0986
  171MPD1     N 2666   1.009   1.213  15.583 -0.5097 -0.1508  0.4576
  171MPD1    H5 2667   1.010   1.260  15.674  1.1667  0.1736  0.2641
  171MPD1    N1 2668   0.808   1.321  15.153 -0.3715  0.7985 -0.1302
  171MPD1    H6 2669   0.804   1.223  15.125  0.2222  0.9157 -0.6347
  171MPD1    H7 2670   0.729   1.367  15.107  0.4510  1.6849 -0.6617
  172MPD1     C 2671   0.504   0.954   0.271  0.1914  0.2610  0.0050
  172MPD1    C1 2672   0.381   0.916   0.316  0.2708  0.1378 -0.4731
  172MPD1    C2 2673   0.297   1.018   0.352  0.6923 -0.4634  0.0905
  172MPD1    C3 2674   0.336   1.157   0.352 -0.1537  0.0304 -0.3063
  172MPD1    C4 2675   0.460   1.185   0.308  0.2533  0.1639 -0.2495
  172MPD1    C5 2676   0.546   1.084   0.266  0.6501 -0.5334  0.5491
  172MPD1     H 2677   0.204   0.985   0.396 -0.1473 -1.0489 -2.1193
  172MPD1    H1 2678   0.495   1.287   0.294 -0.0067  0.2565 -0.2345
  172MPD1    H2 2679   0.570   0.870   0.253  0.1430  0.5614 -1.6544
  172MPD1    H3 2680   0.643   1.105   0.224  0.8269  1.6605  2.0454
  172MPD1     N 2681   0.249   1.260   0.393  0.3020  0.4252 -0.4474
  172MPD1    H5 2682   0.289   1.352   0.378  1.0570  0.2152  0.2380
  172MPD1    N1 2683   0.355   0.786   0.332  0.0955  0.0035  0.1139
  172MPD1    H6 2684   0.391   0.734   0.252  2.3507 -0.8344  1.6818
  172MPD1    H7 2685   0.256   0.762   0.338 -0.3020  1.4698 -0.5743
  173MPD1     C 2686   0.769   0.547  13.839 -0.0091  0.2998  0.5157
  173MPD1    C1 2687   0.773   0.502  13.962 -0.2943 -0.4528  0.8122
  173MPD1    C2 2688   0.893   0.522  14.037 -0.0019  0.2266  0.0174
  173MPD1    C3 2689   1.011   0.570  13.984  0.1733 -0.4410 -0.9174
  173MPD1    C4 2690   0.999   0.605  13.847 -1.1720 -0.0167 -0.4690
  173MPD1    C5 2691   0.882   0.592  13.780 -0.0001 -0.2392 -0.0796
  173MPD1     H 2692   0.888   0.489  14.140 -0.5952  0.8613  0.1942
  173MPD1    H1 2693   1.081   0.658  13.798 -1.3235  1.5389  0.9460
  173MPD1    H2 2694   0.689   0.545  13.765 -0.3140 -2.5806  0.9115
  173MPD1    H3 2695   0.877   0.632  13.679 -1.3123  0.4565  0.2686
  173MPD1     N 2696   1.124   0.579  14.067  0.2339  0.6020 -0.2964
  173MPD1    H5 2697   1.109   0.553  14.164  0.6379 -0.1307 -0.4318
  173MPD1    N1 2698   0.658   0.455  14.027  0.2552 -0.1876  0.1131
  173MPD1    H6 2699   0.592   0.402  13.969 -2.5951  4.6793 -1.0618
  173MPD1    H7 2700   0.673   0.408  14.116  0.6882 -0.1277  0.0717
  174MPD1     C 2701   1.999   0.986  13.821  0.3886  0.1156  1.0327
  174MPD1    C1 2702   2.009   0.852  13.833 -0.0976  0.4023 -0.1954
  174MPD1    C2 2703   1.910   0.772  13.888 -0.3673 -0.0603  0.5539
  174MPD1    C3 2704   1.806   0.835  13.933 -0.5910  0.6897  0.3307
  174MPD1    C4 2705   1.798   0.966  13.930  1.0580  0.6590  0.4218
  174MPD1    C5 2706   1.889   1.043  13.871  0.5118 -0.5026 -0.1071
  174MPD1     H 2707   1.909   0.664  13.885 -0.8750 -0.0526  0.4501
  174MPD1    H1 2708   1.712   1.020  13.967 -1.0470 -2.8900  0.6138
  174MPD1    H2 2709   2.070   1.046  13.766 -1.0372  0.9800  0.1306
  174MPD1    H3 2710   1.880   1.149  13.896  1.3188 -0.5804  0.5133
  174MPD1     N 2711   1.697   0.766  13.991 -0.1271  0.2013 -0.2439
  174MPD1    H5 2712   1.608   0.814  13.995 -0.7483 -1.0643  0.9435
  174MPD1    N1 2713   2.112   0.791  13.763  0.8263  0.0071 -0.1080
  174MPD1    H6 2714   2.132   0.700  13.804 -2.4873 -0.0491  1.4247
  174MPD1    H7 2715   2.192   0.851  13.781  0.0752  0.5028  1.5804
  175MPD1     C 2716   0.265   1.802  15.219  0.2065  0.2165  0.6494
  175MPD1    C1 2717   0.186   1.906  15.260 -0.4212  0.1806  0.3070
  175MPD1    C2 2718   0.147   1.895  15.392  0.2448  0.0732  0.1860
  175MPD1    C3 2719   0.144   1.771  15.466 -0.0521 -0.5522 -0.4183
  175MPD1    C4 2720   0.225   1.670  15.420  0.3002  0.2542  0.2663
  175MPD1    C5 2721   0.284   1.688  15.294 -0.1597  0.4949 -0.3052
  175MPD1     H 2722   0.096   1.982  15.431  1.8315  0.8819  0.4875
  175MPD1    H1 2723   0.228   1.575  15.473  1.3296  0.5717  0.7550
  175MPD1    H2 2724   0.315   1.799  15.122  0.9049 -2.1906  1.0809
  175MPD1    H3 2725   0.347   1.617  15.242 -0.2000 -0.2936  0.7053
  175MPD1     N 2726   0.083   1.745  15.590  0.3010  0.2331 -0.0150
  175MPD1    H5 2727   0.082   1.650  15.626 -0.7964  0.0977 -0.3974
  175MPD1    N1 2728   0.177   2.028  15.193  0.5056 -0.2153 -0.4476
  175MPD1    H6 2729   0.155   2.002  15.097 -2.0625  1.1458 -0.2319
  175MPD1    H7 2730   0.095   2.077  15.229 -1.2001 -1.2352 -2.9316
  176MPD1     C 2731   1.937   3.151  16.423 -0.1234  0.9756  0.0331
  176MPD1    C1 2732   1.989   3.274  16.425 -0.0541  0.1523  0.7597
  176MPD1    C2 2733   1.991   3.345  16.546 -0.3162 -0.3169 -0.1118
  176MPD1    C3 2734   1.957   3.280  16.664 -0.7518  0.5577  0.1624
  176MPD1    C4 2735   1.926   3.146  16.660 -0.0612 -0.4178 -0.5656
  176MPD1    C5 2736   1.898   3.090  16.536  0.0744  0.2782  0.7356
  176MPD1     H 2737   2.025   3.448  16.541 -1.0775 -0.1183 -1.0566
  176MPD1    H1 2738   1.902   3.086  16.748  1.2356  0.6974  0.5398
  176MPD1    H2 2739   1.930   3.083  16.339 -2.1119 -0.0383  1.0158
  176MPD1    H3 2740   1.865   2.987  16.540 -2.0008  0.8917 -0.2770
  176MPD1     N 2741   1.965   3.350  16.784 -0.7019 -0.5480  0.5111
  176MPD1    H5 2742   2.000   3.445  16.780 -1.4316 -0.2630  0.8672
  176MPD1    N1 2743   2.009   3.333  16.305  0.0280  0.5790 -0.3637
  176MPD1    H6 2744   2.056   3.267  16.244 -0.0663 -0.3533  0.5582
  176MPD1    H7 2745   2.077   3.408  16.314 -1.5715  2.1769 -1.5871
  177MPD1     C 2746   4.141   2.588  10.681 -0.4060  1.4061  0.0848
  177MPD1    C1 2747   4.019   2.639  10.654 -0.9112 -0.2613  0.9954
  177MPD1    C2 2748   4.028   2.772  10.605 -0.0269  0.2361 -1.3079
  177MPD1    C3 2749   4.143   2.845  10.589 -0.1120  0.3032  0.1089
  177MPD1    C4 2750   4.267   2.783  10.609 -0.4648  0.1861  0.3912
  177MPD1    C5 2751   4.261   2.644  10.646 -0.1114  1.5224 -0.0322
  177MPD1     H 2752   3.934   2.817  10.576 -0.2835  0.7895  0.4017
  177MPD1    H1 2753   4.364   2.820  10.578  0.6292 -3.5857 -0.7189
  177MPD1    H2 2754   4.143   2.488  10.724  1.1551  0.3203 -2.5424
  177MPD1    H3 2755   4.349   2.583  10.666 -2.2727 -1.1883  1.1433
  177MPD1     N 2756   4.124   2.980  10.552  0.1454  0.2491  0.2101
  177MPD1    H5 2757   4.030   3.016  10.536  0.8340  1.4929 -1.1044
  177MPD1    N1 2758   3.909   2.551  10.643  0.0271 -0.2247 -0.0594
  177MPD1    H6 2759   3.817   2.595  10.635  0.0670 -0.1684 -0.2141
  177MPD1    H7 2760   3.906   2.477  10.712  1.7321  0.2551  0.5289
  178MPD1     C 2761   2.752   0.280  17.458  0.1655  0.5748  0.3587
  178MPD1    C1 2762   2.655   0.219  17.522  0.5322 -0.1319 -0.0380
  178MPD1    C2 2763   2.662   0.080  17.540  0.5843  0.0732  0.3641
  178MPD1    C3 2764   2.760   0.009  17.482 -0.7398 -0.4212 -0.5539
  178MPD1    C4 2765   2.862   0.070  17.418  0.0017  0.0975  0.3574
  178MPD1    C5 2766   2.860   0.205  17.409 -0.6331 -0.3000 -0.3688
  178MPD1     H 2767   2.582   0.032  17.596 -1.3749  1.3138 -1.3897
  178MPD1    H1 2768   2.941   0.013  17.370  0.0387  0.4862 -0.0390
  178MPD1    H2 2769   2.764   0.387  17.450  0.6838  0.3360 -2.2188
  178MPD1    H3 2770   2.937   0.257  17.353  0.8790 -0.5814  1.4459
  178MPD1     N 2771   2.764   4.599  17.488  0.2484  0.0690 -0.3315
  178MPD1    H5 2772   2.850   4.555  17.457 -0.9157 -1.6509 -1.1236
  178MPD1    N1 2773   2.571   0.300  17.599 -0.1569  0.1163 -0.1881
  178MPD1    H6 2774   2.564   0.393  17.558  1.1783 -0.6864 -2.2165
  178MPD1    H7 2775   2.476   0.264  17.610 -0.1505  0.0752 -0.2685
  179MPD1     C 2776   2.146   2.776  15.518 -0.0068 -0.7141  0.8375
  179MPD1    C1 2777   2.206   2.746  15.636  0.5073  0.2240 -0.2195
  179MPD1    C2 2778   2.131   2.670  15.731 -0.1143 -0.0334  0.3811
  179MPD1    C3 2779   1.997   2.628  15.707 -0.6747  0.3958 -0.5769
  179MPD1    C4 2780   1.946   2.650  15.577  0.2761  0.1867  0.6544
  179MPD1    C5 2781   2.020   2.730  15.488  0.8533 -0.2571  0.1088
  179MPD1     H 2782   2.174   2.646  15.828  1.7500  1.5142 -0.0671
  179MPD1    H1 2783   1.851   2.611  15.542  1.7587 -1.2834 -1.7861
  179MPD1    H2 2784   2.198   2.847  15.455 -0.1929 -0.9321  0.4424
  179MPD1    H3 2785   1.974   2.757  15.394  0.5396  0.7606  0.5595
  179MPD1     N 2786   1.928   2.543  15.797  0.2145  0.4882  0.0253
  179MPD1    H5 2787   1.848   2.497  15.754 -0.4144  0.3726  1.3225
  179MPD1    N1 2788   2.328   2.809  15.670  0.2178 -0.0351  0.3579
  179MPD1    H6 2789   2.391   2.832  15.593 -2.6221 -0.1341 -1.9981
  179MPD1    H7 2790   2.380   2.748  15.733  1.0661 -1.1508 -1.4435
  180MPD1     C 2791   2.417   3.660  15.523 -0.3288  0.4773  0.2118
  180MPD1    C1 2792   2.421   3.796  15.497 -0.4673 -0.2332  0.6542
  180MPD1    C2 2793   2.346   3.839  15.393  0.7730 -0.1414  0.2119
  180MPD1    C3 2794   2.267   3.756  15.322  0.0423  0.2984 -0.1541
  180MPD1    C4 2795   2.275   3.619  15.340 -0.4177 -0.0968 -0.1134
  180MPD1    C5 2796   2.351   3.566  15.441 -0.2811  0.6025 -0.0393
  180MPD1     H 2797   2.343   3.945  15.370  1.2622 -0.2406 -0.3181
  180MPD1    H1 2798   2.225   3.545  15.278 -0.8758  0.5493 -0.5112
  180MPD1    H2 2799   2.480   3.625  15.604 -1.1871 -1.8224 -0.1233
  180MPD1    H3 2800   2.366   3.460  15.453 -4.1550  0.1336  0.6915
  180MPD1     N 2801   2.185   3.814  15.223  0.2511  0.2367  0.1788
  180MPD1    H5 2802   2.200   3.914  15.217 -1.8001  0.5352  0.0261
  180MPD1    N1 2803   2.513   3.874  15.563 -0.0722 -0.1786  0.4282
  180MPD1    H6 2804   2.539   3.830  15.651  1.9117 -2.0711 -1.1094
  180MPD1    H7 2805   2.472   3.965  15.586  1.0843  1.1035 -2.6651
  181MPD1     C 2806   2.487   1.923   9.093  0.5886 -0.2518 -0.5744
  181MPD1    C1 2807   2.477   1.790   9.126 -0.3879 -0.3975  0.3395
  181MPD1    C2 2808   2.562   1.730   9.219  0.0444  0.0385  0.1235
  181MPD1    C3 2809   2.672   1.809   9.269  0.3930 -0.9629 -0.0649
  181MPD1    C4 2810   2.684   1.938   9.232  0.4467  0.4084  0.0222
  181MPD1    C5 2811   2.591   1.989   9.143 -0.6160  0.3006  0.4515
  181MPD1     H 2812   2.538   1.636   9.266  0.6577  0.1961  0.7580
  181MPD1    H1 2813   2.762   1.993   9.283 -0.5309  2.3568 -0.5956
  181MPD1    H2 2814   2.412   1.966   9.028  2.5827  1.7113 -1.5995
  181MPD1    H3 2815   2.598   2.093   9.113  1.1763  0.3271  0.9804
  181MPD1     N 2816   2.772   1.761   9.362 -0.0465 -0.1639  0.7388
  181MPD1    H5 2817   2.846   1.824   9.394  0.8850 -1.4593  1.1155
  181MPD1    N1 2818   2.348   1.731   9.111  0.4666  0.1929 -0.4835
  181MPD1    H6 2819   2.320   1.748   9.015 -0.6130 -1.9717 -0.5669
  181MPD1    H7 2820   2.348   1.629   9.123 -0.1589  0.1990 -0.3926
  182MPD1     C 2821   0.530   0.384   1.053 -0.0116 -0.6210 -0.4043
  182MPD1    C1 2822   0.434   0.493   1.039  0.3784  0.7818  0.5345
  182MPD1    C2 2823   0.298   0.466   1.036 -0.2021 -0.2310 -0.4760
  182MPD1    C3 2824   0.250   0.340   1.059  0.3605  1.3153 -0.2323
  182MPD1    C4 2825   0.340   0.237   1.075  0.4811 -1.0425 -0.8386
  182MPD1    C5 2826   0.478   0.261   1.079 -0.5583  0.2377 -0.0598
  182MPD1     H 2827   0.231   0.551   1.043 -1.8123 -1.4446 -1.1822
  182MPD1    H1 2828   0.307   0.134   1.087 -1.5493  0.1387  3.6506
  182MPD1    H2 2829   0.634   0.412   1.040  0.0303 -1.1314 -1.1875
  182MPD1    H3 2830   0.542   0.175   1.096  1.0698  1.0665 -1.9512
  182MPD1     N 2831   0.110   0.312   1.075  0.2013  0.1589 -0.1784
  182MPD1    H5 2832   0.092   0.218   1.040 -2.4389  1.2764 -1.7879
  182MPD1    N1 2833   0.479   0.626   1.018  0.6572 -0.3708  0.4322
  182MPD1    H6 2834   0.403   0.692   1.033 -1.5065 -3.0232  1.0056
  182MPD1    H7 2835   0.560   0.656   1.072 -0.6151 -0.8214  2.5734
  183MPD1     C 2836   3.144   4.465   9.203  0.3334 -0.9195 -0.7081
  183MPD1    C1 2837   3.117   4.588   9.275 -0.1274  0.1238 -0.1522
  183MPD1    C2 2838   3.228   4.671   9.308  0.2289  0.5027 -0.3546
  183MPD1    C3 2839   3.360   4.626   9.292 -0.1630  0.7722  0.0897
  183MPD1    C4 2840   3.376   4.508   9.235  0.0193  0.0750 -0.1974
  183MPD1    C5 2841   3.272   4.427   9.199  0.2873  0.3349  1.0100
  183MPD1     H 2842   3.216   0.036   9.354  2.2959  0.6835 -0.1966
  183MPD1    H1 2843   3.468   4.456   9.212 -0.2003  0.8506 -2.8100
  183MPD1    H2 2844   3.071   4.394   9.166  0.5553 -1.0909 -0.8198
  183MPD1    H3 2845   3.297   4.335   9.147 -1.8722  0.9471 -1.1354
  183MPD1     N 2846   3.462   4.712   9.329 -0.1268 -0.0890 -0.0569
  183MPD1    H5 2847   3.439   0.070   9.368  0.9940  0.0288  0.3285
  183MPD1    N1 2848   2.987   4.635   9.276 -0.0165  0.2390 -0.1978
  183MPD1    H6 2849   2.971   4.692   9.358 -2.1553 -0.3732 -0.2064
  183MPD1    H7 2850   2.913   4.567   9.260  0.8125  0.0546 -3.2717
  184MPD1     C 2851   3.369   4.079  10.751 -0.0948 -0.2478  0.1409
  184MPD1    C1 2852   3.315   4.068  10.625 -0.0715  0.0471  0.4272
  184MPD1    C2 2853   3.379   4.003  10.519  0.2992  0.1854  0.1897
  184MPD1    C3 2854   3.512   3.955  10.532  0.6333  0.3104 -0.1702
  184MPD1    C4 2855   3.570   3.970  10.658 -0.0706  0.1313  0.3148
  184MPD1    C5 2856   3.495   4.016  10.764 -0.2203 -0.8021  0.8128
  184MPD1     H 2857   3.339   4.006  10.419  1.4875 -1.2968 -0.3326
  184MPD1    H1 2858   3.667   3.927  10.678  0.0253 -0.3186 -1.1192
  184MPD1    H2 2859   3.319   4.123  10.837 -2.0311 -0.6078 -0.8060
  184MPD1    H3 2860   3.547   4.024  10.859  0.5720 -0.2481  0.3340
  184MPD1     N 2861   3.589   3.910  10.425  0.8471  0.2162 -0.2076
  184MPD1    H5 2862   3.686   3.889  10.447  0.8279  1.0948  0.7069
  184MPD1    N1 2863   3.188   4.113  10.601 -0.3349  1.0947  0.0453
  184MPD1    H6 2864   3.188   4.202  10.651  0.2828  1.3125 -0.3399
  184MPD1    H7 2865   3.179   4.120  10.500 -1.6734  2.1102  0.2424
  185MPD1     C 2866   3.334   3.286   9.682 -0.2807  0.5197  0.1783
  185MPD1    C1 2867   3.470   3.292   9.685  0.0569  0.2386 -0.3800
  185MPD1    C2 2868   3.529   3.393   9.756  0.0620  0.2129 -0.4070
  185MPD1    C3 2869   3.460   3.487   9.830 -0.2302 -0.0080 -0.6944
  185MPD1    C4 2870   3.319   3.475   9.820  0.0669 -0.2460  0.6795
  185MPD1    C5 2871   3.264   3.381   9.745 -0.4607  0.4117  0.3862
  185MPD1     H 2872   3.637   3.390   9.747  0.1288  0.5651  0.3077
  185MPD1    H1 2873   3.254   3.550   9.864 -2.2077 -0.4217 -2.3874
  185MPD1    H2 2874   3.286   3.221   9.611 -0.3691  1.1299 -0.3184
  185MPD1    H3 2875   3.157   3.386   9.732 -0.4441 -0.3795 -0.0387
  185MPD1     N 2876   3.522   3.588   9.902  0.5480 -0.3228 -0.0045
  185MPD1    H5 2877   3.465   3.635   9.971  0.3927 -2.3908  1.2940
  185MPD1    N1 2878   3.532   3.220   9.580  0.1841 -0.3719 -0.3862
  185MPD1    H6 2879   3.493   3.128   9.558 -0.4809  0.4250 -2.4731
  185MPD1    H7 2880   3.633   3.211   9.593  0.4875  0.1718 -2.3773
  186MPD1     C 2881   2.976   2.153  16.291 -0.8043 -0.2453  0.2537
  186MPD1    C1 2882   2.974   2.120  16.424  1.2481  0.5734 -0.3739
  186MPD1    C2 2883   2.923   2.212  16.514 -0.8729 -0.2019  0.2297
  186MPD1    C3 2884   2.883   2.343  16.471 -0.2471  0.2496  0.0798
  186MPD1    C4 2885   2.891   2.373  16.335  0.0384 -0.8489  0.2670
  186MPD1    C5 2886   2.939   2.280  16.242 -0.7093  0.4497  0.5156
  186MPD1     H 2887   2.928   2.195  16.621  0.4456  1.0869  0.3744
  186MPD1    H1 2888   2.871   2.472  16.295  0.3116 -0.6457  0.6327
  186MPD1    H2 2889   3.015   2.087  16.215 -0.1838  1.0157 -0.5329
  186MPD1    H3 2890   2.955   2.304  16.138  0.0495  1.1509  0.7925
  186MPD1     N 2891   2.844   2.449  16.564 -0.3777  0.0739 -0.8110
  186MPD1    H5 2892   2.838   2.542  16.523  0.8306  0.3085 -0.4675
  186MPD1    N1 2893   3.004   1.989  16.457  0.4747  0.4176 -0.0902
  186MPD1    H6 2894   3.061   1.950  16.383 -1.3035  0.5609 -1.5218
  186MPD1    H7 2895   3.041   1.965  16.549 -0.1050  1.5784  0.4520
  187MPD1     C 2896   2.228   3.992   0.022  0.4498  0.6670  0.5319
  187MPD1    C1 2897   2.271   4.123   0.039 -0.4093  0.6343  0.5885
  187MPD1    C2 2898   2.185   4.228   0.012  0.4365  0.3168 -0.4076
  187MPD1    C3 2899   2.071   4.222  17.669 -0.1626 -0.3344  0.4134
  187MPD1    C4 2900   2.042   4.096  17.630  0.3733  0.7921 -0.6220
  187MPD1    C5 2901   2.119   3.989  17.668 -0.2709 -0.0856  0.1272
  187MPD1     H 2902   2.207   4.328   0.048 -0.2419 -0.1044  1.1767
  187MPD1    H1 2903   1.963   4.081  17.557  0.3092  0.1043 -0.4138
  187MPD1    H2 2904   2.277   3.900   0.052 -2.3146 -0.9739 -0.0520
  187MPD1    H3 2905   2.087   3.888  17.643 -0.2663  0.4300 -1.8919
  187MPD1     N 2906   1.994   4.335  17.635  0.0984  0.0414 -0.4402
  187MPD1    H5 2907   1.912   4.310  17.580  1.6921 -0.1807 -2.7462
  187MPD1    N1 2908   2.385   4.155   0.106  0.1965  0.1941 -0.2062
  187MPD1    H6 2909   2.415   4.249   0.083  5.3710 -0.7788  2.5305
  187MPD1    H7 2910   2.459   4.089   0.084  0.6797  0.5221  0.4175
  188MPD1     C 2911   1.404   0.304  10.856 -0.1537 -0.5233 -0.4347
  188MPD1    C1 2912   1.380   0.196  10.934  1.6251 -0.7837 -0.5182
  188MPD1    C2 2913   1.400   0.067  10.898  0.2744 -0.3131 -0.2251
  188MPD1    C3 2914   1.456   0.046  10.774 -0.9029  0.6209  0.3024
  188MPD1    C4 2915   1.481   0.153  10.690 -0.4833  0.3502  0.1666
  188MPD1    C5 2916   1.453   0.282  10.735 -0.1901 -0.0918  0.1727
  188MPD1     H 2917   1.361   4.714  10.951  0.5218 -1.5302 -2.0030
  188MPD1    H1 2918   1.518   0.141  10.589 -1.4083  1.2519 -0.2734
  188MPD1    H2 2919   1.406   0.404  10.897 -2.8066  0.1037 -1.8780
  188MPD1    H3 2920   1.489   0.359  10.667  0.1971  3.0653  3.9118
  188MPD1     N 2921   1.474   4.650  10.719  0.0310  0.1122 -0.1374
  188MPD1    H5 2922   1.489   4.655  10.619  0.3086 -0.3710 -0.1199
  188MPD1    N1 2923   1.315   0.233  11.051 -0.1290  0.0556 -0.1976
  188MPD1    H6 2924   1.343   0.323  11.089 -2.4322  0.8271 -0.3330
  188MPD1    H7 2925   1.306   0.166  11.127 -1.7192  3.5250  2.6738
  189MPD1     C 2926   3.771   1.004   0.525  0.3125 -0.0485  0.7885
  189MPD1    C1 2927   3.701   0.888   0.486  0.6387 -0.7411  0.8219
  189MPD1    C2 2928   3.567   0.910   0.455  0.0044 -0.2048  0.1342
  189MPD1    C3 2929   3.511   1.040   0.459 -0.0887  0.3010  0.5068
  189MPD1    C4 2930   3.592   1.145   0.498  0.0637 -0.1573 -0.2634
  189MPD1    C5 2931   3.717   1.127   0.535 -0.8386 -0.6640 -0.6185
  189MPD1     H 2932   3.509   0.820   0.436 -0.3814 -0.4649  2.5740
  189MPD1    H1 2933   3.558   1.246   0.518  1.6135  0.3003  0.0092
  189MPD1    H2 2934   3.874   0.996   0.560  0.3643 -0.6763  0.4801
  189MPD1    H3 2935   3.773   1.211   0.575 -0.7661 -0.9100 -0.2040
  189MPD1     N 2936   3.374   1.052   0.434 -0.3281  0.7238 -0.0459
  189MPD1    H5 2937   3.321   0.965   0.433  0.2731  0.3571 -0.1963
  189MPD1    N1 2938   3.756   0.758   0.501 -0.0857 -0.8259 -0.1759
  189MPD1    H6 2939   3.713   0.692   0.436 -0.0041 -1.0084 -0.0446
  189MPD1    H7 2940   3.856   0.739   0.506  0.4729  1.9761 -1.2612
  190MPD1     C 2941   1.795   4.151  15.897  0.0169 -0.0717  0.8266
  190MPD1    C1 2942   1.899   4.111  15.803 -0.2865  0.4774  0.1619
  190MPD1    C2 2943   2.016   4.060  15.849 -0.3229  0.2477  0.0067
  190MPD1    C3 2944   2.024   4.033  15.982  0.3627 -0.7066  0.4790
  190MPD1    C4 2945   1.922   4.057  16.075  0.7099  0.3167 -0.0374
  190MPD1    C5 2946   1.808   4.114  16.030 -0.1366  0.0893 -0.3140
  190MPD1     H 2947   2.105   4.061  15.787 -1.4810  0.0842 -1.6797
  190MPD1    H1 2948   1.934   4.024  16.177  0.2619 -0.0501 -0.1054
  190MPD1    H2 2949   1.705   4.193  15.855  0.3297  0.4605  0.6816
  190MPD1    H3 2950   1.730   4.136  16.102  0.3688 -1.3609  0.6747
  190MPD1     N 2951   2.139   3.961  16.020 -0.5762  0.2150 -0.1931
  190MPD1    H5 2952   2.209   3.945  15.948  0.1247 -0.0605  0.5462
  190MPD1    N1 2953   1.894   4.171  15.672 -0.6066  0.0382 -0.9474
  190MPD1    H6 2954   1.933   4.111  15.600 -0.5474 -0.5825 -0.3907
  190MPD1    H7 2955   1.796   4.192  15.650 -0.9889 -0.6670  0.0885
  191MPD1     C 2956   1.457   0.209  13.339  0.8304 -0.1101  0.0824
  191MPD1    C1 2957   1.336   0.260  13.297  0.2779 -0.0140 -0.2841
  191MPD1    C2 2958   1.331   0.390  13.255  0.2143 -0.1843 -1.1307
  191MPD1    C3 2959   1.448   0.466  13.246  0.1689  0.3402 -0.7665
  191MPD1    C4 2960   1.571   0.414  13.282  0.3764  0.2307  0.4198
  191MPD1    C5 2961   1.571   0.287  13.339  0.1456  0.1066  0.3410
  191MPD1     H 2962   1.237   0.437  13.228 -0.0479  1.5512  2.7861
  191MPD1    H1 2963   1.667   0.465  13.274  0.6841 -0.6136 -1.4417
  191MPD1    H2 2964   1.475   0.110  13.380  0.7970  0.0862  0.5747
  191MPD1    H3 2965   1.657   0.232  13.377 -0.9307 -1.9144 -0.1571
  191MPD1     N 2966   1.424   0.598  13.197 -0.1392 -0.4708 -0.8044
  191MPD1    H5 2967   1.327   0.619  13.173 -0.1135 -0.1041 -0.5770
  191MPD1    N1 2968   1.220   0.181  13.329 -0.1383  0.2430  1.1548
  191MPD1    H6 2969   1.244   0.082  13.319 -2.1035  0.0722 -1.7784
  191MPD1    H7 2970   1.140   0.193  13.267 -0.8505 -0.3877  1.9484
  192MPD1     C 2971   0.855   1.048  13.680 -0.2037 -0.2722 -0.1947
  192MPD1    C1 2972   0.880   1.131  13.581  0.1106  0.0794  0.8878
  192MPD1    C2 2973   0.972   1.102  13.483 -0.1644 -0.3480 -0.5233
  192MPD1    C3 2974   1.053   0.990  13.487 -0.8019 -0.6145 -0.1886
  192MPD1    C4 2975   1.024   0.905  13.596 -0.1123 -0.0304  0.0192
  192MPD1    C5 2976   0.927   0.935  13.684 -0.5499 -0.9458 -0.3305
  192MPD1     H 2977   0.983   1.177  13.405  1.8690  1.2667  1.3022
  192MPD1    H1 2978   1.074   0.811  13.612  2.0795  0.8752 -1.5537
  192MPD1    H2 2979   0.770   1.054  13.746  0.2214 -2.5207  0.5693
  192MPD1    H3 2980   0.897   0.874  13.768 -0.2741 -1.7663 -0.8274
  192MPD1     N 2981   1.150   0.961  13.395  0.3611 -0.2672  0.0123
  192MPD1    H5 2982   1.213   0.882  13.404  2.3504  0.9037 -3.3437
  192MPD1    N1 2983   0.791   1.237  13.563 -0.0812  0.1304 -0.3734
  192MPD1    H6 2984   0.837   1.323  13.532  2.3547 -0.6545  1.0234
  192MPD1    H7 2985   0.740   1.268  13.644  2.0438 -0.7777  1.3155
  193MPD1     C 2986   0.390   1.248  17.026 -0.5679  0.1413  0.1012
  193MPD1    C1 2987   0.448   1.229  16.903 -0.3513  0.2421  1.0154
  193MPD1    C2 2988   0.572   1.296  16.879  0.2683  0.0511 -0.8497
  193MPD1    C3 2989   0.636   1.354  16.987  0.0641  0.0653 -0.0772
  193MPD1    C4 2990   0.583   1.356  17.113  0.9046 -0.1457 -0.1197
  193MPD1    C5 2991   0.460   1.304  17.129 -0.1052  0.1993  0.1902
  193MPD1     H 2992   0.600   1.315  16.776 -0.6818 -2.3416 -1.5640
  193MPD1    H1 2993   0.631   1.411  17.194 -0.6539  0.3106  0.4852
  193MPD1    H2 2994   0.290   1.207  17.041 -1.2550  2.6728  2.3662
  193MPD1    H3 2995   0.426   1.318  17.231  2.3762  1.0688  0.8775
  193MPD1     N 2996   0.756   1.420  16.961 -0.9692 -0.1502 -0.4898
  193MPD1    H5 2997   0.792   1.474  17.039  0.2313 -0.7796 -0.6128
  193MPD1    N1 2998   0.355   1.201  16.796 -0.0464  0.2055 -0.1532
  193MPD1    H6 2999   0.289   1.130  16.828  0.5788 -1.7328 -3.1205
  193MPD1    H7 3000   0.398   1.156  16.715  1.0210 -0.4695  0.7834
  194MPD1     C 3001   3.452   3.643  17.371  0.1327 -0.3696 -0.0450
  194MPD1    C1 3002   3.476   3.603  17.244  0.9261  0.6059  0.1814
  194MPD1    C2 3003   3.506   3.474  17.223  0.1871  0.3689 -0.2136
  194MPD1    C3 3004   3.527   3.380  17.323 -0.1633 -0.5469  0.3223
  194MPD1    C4 3005   3.502   3.422  17.457 -0.3657  0.1271 -0.1788
  194MPD1    C5 3006   3.467   3.553  17.477 -0.5977  0.2827 -0.0399
  194MPD1     H 3007   3.527   3.445  17.120 -0.8277 -0.1792 -0.2598
  194MPD1    H1 3008   3.503   3.363  17.548 -0.7237  0.5470  0.0963
  194MPD1    H2 3009   3.435   3.745  17.403 -1.4096 -0.4494 -0.6257
  194MPD1    H3 3010   3.449   3.571  17.582 -1.6813 -0.0908 -0.1639
  194MPD1     N 3011   3.548   3.239  17.302 -0.0995 -0.1240 -0.1705
  194MPD1    H5 3012   3.577   3.185  17.383 -0.8639  0.8809  0.7752
  194MPD1    N1 3013   3.488   3.703  17.146  0.0509 -0.6858 -0.0489
  194MPD1    H6 3014   3.482   3.665  17.051 -1.8859  0.2878 -0.3077
  194MPD1    H7 3015   3.419   3.777  17.152  1.5418  0.6200  0.6471
  195MPD1     C 3016   1.983   4.525   0.398  0.4327 -0.5282  0.0467
  195MPD1    C1 3017   2.027   4.412   0.329 -0.9902  0.1165 -0.5231
  195MPD1    C2 3018   1.931   4.314   0.309  0.3567  0.1755  0.0056
  195MPD1    C3 3019   1.804   4.326   0.357  0.1830  0.3484 -0.3126
  195MPD1    C4 3020   1.767   4.436   0.427  0.0764  0.4204  0.0284
  195MPD1    C5 3021   1.850   4.541   0.437  0.4367 -0.0791 -0.7291
  195MPD1     H 3022   1.968   4.233   0.247 -2.4841 -1.8246  0.9144
  195MPD1    H1 3023   1.668   4.443   0.472 -1.1273 -1.6192 -2.3185
  195MPD1    H2 3024   2.045   4.611   0.420 -1.9297  1.2304 -0.1548
  195MPD1    H3 3025   1.826   4.634   0.487  0.3351 -0.2522 -0.4540
  195MPD1     N 3026   1.708   4.220   0.347  0.6401  0.2910 -0.0783
  195MPD1    H5 3027   1.622   4.236   0.398  0.0454 -1.5898 -0.4992
  195MPD1    N1 3028   2.165   4.397   0.303 -0.6438 -0.2238 -0.0979
  195MPD1    H6 3029   2.185   4.343   0.219  0.0433  2.1020 -1.4464
  195MPD1    H7 3030   2.199   4.492   0.287 -2.5644  0.1008 -2.2184
  196MPD1     C 3031   0.453   0.369   0.167  0.7474  0.5432  0.3049
  196MPD1    C1 3032   0.590   0.381   0.158  0.2213  0.2064 -0.4954
  196MPD1    C2 3033   0.664   0.447   0.257 -0.5570 -0.4261 -0.2011
  196MPD1    C3 3034   0.604   0.510   0.365 -0.4007  0.4921  0.7046
  196MPD1    C4 3035   0.464   0.492   0.379 -0.0197  0.1706 -0.5623
  196MPD1    C5 3036   0.392   0.425   0.281  0.2057  0.1186  0.7495
  196MPD1     H 3037   0.770   0.443   0.232 -0.8236  1.1221 -1.6145
  196MPD1    H1 3038   0.418   0.528   0.470 -0.5467 -0.0698 -0.7295
  196MPD1    H2 3039   0.386   0.324   0.094  0.7482  1.5394 -0.3203
  196MPD1    H3 3040   0.284   0.415   0.286  0.0335  1.2889 -0.2987
  196MPD1     N 3041   0.673   0.581   0.461 -0.3667 -0.1697 -0.3463
  196MPD1    H5 3042   0.621   0.615   0.540 -1.1742 -2.5577  0.1401
  196MPD1    N1 3043   0.649   0.312   0.055 -0.2254 -0.6879  0.1873
  196MPD1    H6 3044   0.716   0.374   0.011 -1.8027 -0.7782 -2.3153
  196MPD1    H7 3045   0.581   0.302  17.710 -1.3315  0.1925  1.0629
  197MPD1     C 3046   4.604   1.130  17.553  0.1533  0.2814  0.4101
  197MPD1    C1 3047   4.624   1.249  17.622  0.4239 -0.2701 -0.2778
  197MPD1    C2 3048   4.639   1.370  17.546 -0.1844  0.5825 -0.3334
  197MPD1    C3 3049   4.647   1.370  17.408 -0.4746 -0.0476  0.3069
  197MPD1    C4 3050   4.629   1.251  17.339  0.1357  0.0206 -0.4758
  197MPD1    C5 3051   4.600   1.133  17.418  0.6599  0.1732 -0.0990
  197MPD1     H 3052   4.649   1.466  17.596  1.2813  0.9069 -1.2560
  197MPD1    H1 3053   4.632   1.245  17.231 -0.8399  1.7513 -0.6016
  197MPD1    H2 3054   4.573   1.039  17.604  2.3240 -0.6002  0.1448
  197MPD1    H3 3055   4.567   1.043  17.366  0.8987 -0.3388  0.6431
  197MPD1     N 3056   4.690   1.484  17.329  0.0633  0.6209 -0.6937
  197MPD1    H5 3057   4.706   1.465  17.231  0.8639  0.2550 -0.4943
  197MPD1    N1 3058   4.619   1.249   0.032  0.3023 -0.3278 -0.2564
  197MPD1    H6 3059   4.675   1.327   0.066 -0.1770  0.4762 -1.2988
  197MPD1    H7 3060   4.659   1.167   0.076 -0.4972 -1.0324 -0.8392
  198MPD1     C 3061   1.529   4.361  15.394  0.4519  0.4563  0.7831
  198MPD1    C1 3062   1.585   4.343  15.519 -0.6050 -0.1083  0.8367
  198MPD1    C2 3063   1.662   4.441  15.564  0.2934 -0.1240  0.2757
  198MPD1    C3 3064   1.705   4.552  15.493  0.0169 -1.0790 -0.1901
  198MPD1    C4 3065   1.656   4.565  15.367  0.4392 -0.1539  0.2993
  198MPD1    C5 3066   1.568   4.468  15.319 -0.0977  0.3311 -0.9723
  198MPD1     H 3067   1.696   4.427  15.666 -1.3842  1.4251  1.0448
  198MPD1    H1 3068   1.676   4.646  15.297  0.0982  0.0297  0.4138
  198MPD1    H2 3069   1.466   4.284  15.350 -1.2644  1.0716  2.1903
  198MPD1    H3 3070   1.532   4.479  15.217 -2.1615 -2.2891 -0.5333
  198MPD1     N 3071   1.800   4.635  15.551 -0.1186 -1.0156  0.0452
  198MPD1    H5 3072   1.823   4.614  15.648  3.4824 -1.8776 -0.9797
  198MPD1    N1 3073   1.561   4.222  15.591 -0.7691  0.2707 -0.2138
  198MPD1    H6 3074   1.545   4.231  15.691  0.1197  0.6973 -0.1183
  198MPD1    H7 3075   1.470   4.181  15.568  0.2787 -1.7795 -0.7388
  199MPD1     C 3076   3.630   2.177  10.681  0.0926 -0.2320  0.2775
  199MPD1    C1 3077   3.619   2.055  10.624  1.0718 -0.2924  0.0650
  199MPD1    C2 3078   3.565   2.043  10.498  0.8557 -0.2460  0.2431
  199MPD1    C3 3079   3.537   2.159  10.429 -0.3212  0.0426  0.2734
  199MPD1    C4 3080   3.560   2.280  10.481 -0.4272 -0.4229 -0.1633
  199MPD1    C5 3081   3.602   2.289  10.605 -0.2225  0.0794  0.4099
  199MPD1     H 3082   3.543   1.944  10.461 -0.0773 -0.2338  0.7869
  199MPD1    H1 3083   3.540   2.373  10.429 -0.0509  0.4083  1.1750
  199MPD1    H2 3084   3.673   2.187  10.780 -0.5996 -0.5937  0.6110
  199MPD1    H3 3085   3.624   2.386  10.647 -1.8306  0.8693 -0.5536
  199MPD1     N 3086   3.473   2.161  10.304  0.3316  0.0057  0.0008
  199MPD1    H5 3087   3.445   2.251  10.267  0.4075  0.2889  0.6386
  199MPD1    N1 3088   3.619   1.947  10.718 -0.2741 -0.2223 -0.6374
  199MPD1    H6 3089   3.635   1.853  10.684  0.7339 -0.1014 -0.5274
  199MPD1    H7 3090   3.677   1.952  10.802 -0.9157  0.2853 -0.2238
  200MPD1     C 3091   3.415   1.596  15.285  0.3003  0.0935 -0.2371
  200MPD1    C1 3092   3.371   1.508  15.193  0.0352  0.4419 -0.6757
  200MPD1    C2 3093   3.465   1.429  15.136  0.4744 -0.1384 -0.1073
  200MPD1    C3 3094   3.600   1.434  15.165 -0.1728 -0.2826 -0.4396
  200MPD1    C4 3095   3.641   1.509  15.267 -0.8101  0.9467 -0.3959
  200MPD1    C5 3096   3.549   1.599  15.316 -0.2428  0.5282  0.7198
  200MPD1     H 3097   3.442   1.361  15.055 -0.1338  0.9881 -0.8752
  200MPD1    H1 3098   3.746   1.518  15.296 -0.8155  1.1115 -0.4292
  200MPD1    H2 3099   3.338   1.655  15.333  1.8365 -0.5086  2.9230
  200MPD1    H3 3100   3.586   1.669  15.390  1.6517  0.5600 -0.2494
  200MPD1     N 3101   3.690   1.369  15.071  0.1074  0.7596  0.1884
  200MPD1    H5 3102   3.646   1.324  14.991  2.2716 -2.2904  0.7293
  200MPD1    N1 3103   3.238   1.508  15.146 -0.7419  0.2271 -0.1053
  200MPD1    H6 3104   3.217   1.421  15.098  1.3150 -1.2889  1.7422
  200MPD1    H7 3105   3.170   1.518  15.220  0.3655  3.9335  0.4638
  201MPD1     C 3106   0.805   4.666  13.184  0.2367 -0.4480 -0.5966
  201MPD1    C1 3107   0.890   0.000  13.269 -0.7144  0.4000 -0.3442
  201MPD1    C2 3108   0.954   4.660  13.362 -0.6455  0.1906 -0.0517
  201MPD1    C3 3109   0.933   4.521  13.382 -0.6362 -0.2416 -0.2211
  201MPD1    C4 3110   0.838   4.450  13.303 -0.3433  0.1365 -0.1310
  201MPD1    C5 3111   0.774   4.532  13.209 -0.3514 -0.4448  0.0929
  201MPD1     H 3112   1.028   4.707  13.425 -0.9996  0.9899 -0.2401
  201MPD1    H1 3113   0.809   4.345  13.308 -2.0566  0.7047  2.1472
  201MPD1    H2 3114   0.754   4.719  13.104 -1.1239 -0.0567  0.5205
  201MPD1    H3 3115   0.699   4.489  13.144 -0.3559 -1.6648  0.8992
  201MPD1     N 3116   1.005   4.456  13.486 -0.5100  0.0554 -0.8107
  201MPD1    H5 3117   1.052   4.519  13.551  0.4123  0.4566 -1.8530
  201MPD1    N1 3118   0.917   0.138  13.246 -0.3431  0.0936  0.0331
  201MPD1    H6 3119   0.851   0.187  13.186 -0.3594 -3.0055 -2.4856
  201MPD1    H7 3120   0.921   0.179  13.339  1.1409  0.8664 -0.3693
  202MPD1     C 3121   3.938   3.842   9.202  0.4921 -0.1711  0.7499
  202MPD1    C1 3122   4.066   3.787   9.217 -0.5717  0.5592  0.1022
  202MPD1    C2 3123   4.148   3.876   9.290 -0.5601  0.5020 -0.4251
  202MPD1    C3 3124   4.092   3.956   9.393 -0.9728 -0.6272 -0.3162
  202MPD1    C4 3125   3.959   3.967   9.405 -0.3359  0.1213 -0.1156
  202MPD1    C5 3126   3.882   3.910   9.306 -0.0251 -0.8136  0.1109
  202MPD1     H 3127   4.255   3.858   9.293 -0.7072 -0.2908  0.1066
  202MPD1    H1 3128   3.910   4.029   9.479 -0.4175  1.0425 -0.9503
  202MPD1    H2 3129   3.866   3.796   9.135  0.7867  1.1317 -0.4403
  202MPD1    H3 3130   3.775   3.928   9.303 -0.1445 -1.5503 -0.0794
  202MPD1     N 3131   4.175   4.032   9.481 -0.6798  0.6094  0.6153
  202MPD1    H5 3132   4.122   4.099   9.536  0.2169 -0.0379  2.2724
  202MPD1    N1 3133   4.126   3.711   9.116 -0.4341 -0.4318 -0.7434
  202MPD1    H6 3134   4.068   3.643   9.067 -0.2924  0.2128 -1.8054
  202MPD1    H7 3135   4.209   3.663   9.151 -2.0252 -0.4615  2.9589
  203MPD1     C 3136   3.445   0.712  12.615  0.9190  0.2905 -0.0445
  203MPD1    C1 3137   3.453   0.600  12.531  0.3909 -0.1878  0.0627
  203MPD1    C2 3138   3.559   0.512  12.553 -0.1333  0.3397  0.5159
  203MPD1    C3 3139   3.649   0.537  12.660  0.8607  0.2036  0.3669
  203MPD1    C4 3140   3.635   0.643  12.739 -0.0283 -0.6540  0.6612
  203MPD1    C5 3141   3.533   0.729  12.714  0.5871  0.5458  0.0118
  203MPD1     H 3142   3.569   0.421  12.495  1.2525  0.6289  0.3016
  203MPD1    H1 3143   3.705   0.678  12.815  1.0459 -4.5045  1.4307
  203MPD1    H2 3144   3.372   0.792  12.608  1.6550  0.8955 -0.8518
  203MPD1    H3 3145   3.522   0.822  12.769  1.2164 -0.1947  1.3934
  203MPD1     N 3146   3.756   0.453  12.684  0.1983 -0.0365  0.1452
  203MPD1    H5 3147   3.751   0.381  12.611  2.2064  0.9834 -0.9867
  203MPD1    N1 3148   3.377   0.605  12.406  0.0548 -0.3209  0.1068
  203MPD1    H6 3149   3.283   0.639  12.422 -0.2235  0.8468 -3.8490
  203MPD1    H7 3150   3.373   0.514  12.359 -0.2515 -0.0816 -0.3280
  204MPD1     C 3151   4.201   1.603   0.577 -0.4923  0.4154 -0.3209
  204MPD1    C1 3152   4.139   1.625   0.461  0.2127 -0.5291 -0.3102
  204MPD1    C2 3153   4.061   1.528   0.407  0.7379  0.3025  0.0866
  204MPD1    C3 3154   4.078   1.400   0.443 -0.0584 -0.0521  0.7622
  204MPD1    C4 3155   4.166   1.375   0.549 -0.5270 -0.1727 -0.1915
  204MPD1    C5 3156   4.233   1.480   0.615 -0.1511  0.4083 -0.2851
  204MPD1     H 3157   3.995   1.546   0.323  0.0516 -0.9280  0.3492
  204MPD1    H1 3158   4.199   1.276   0.578  1.0671 -0.4668 -3.0105
  204MPD1    H2 3159   4.242   1.687   0.631 -2.9081  1.2771  0.1824
  204MPD1    H3 3160   4.307   1.468   0.694 -0.2610 -0.0089 -0.2429
  204MPD1     N 3161   4.023   1.302   0.352  0.5290 -0.2860  0.3340
  204MPD1    H5 3162   3.959   1.333   0.280  0.3786  1.0865  1.0613
  204MPD1    N1 3163   4.109   1.763   0.430 -0.2003 -0.0007 -0.2381
  204MPD1    H6 3164   4.179   1.828   0.465  0.1795  0.1453 -1.2915
  204MPD1    H7 3165   4.112   1.776   0.330  3.9377  0.8805  0.0193
  205MPD1     C 3166   3.471   0.480  16.921  0.0514  0.1156 -0.3124
  205MPD1    C1 3167   3.476   0.340  16.910  0.5865  0.7885  0.0276
  205MPD1    C2 3168   3.484   0.274  17.034  0.2446 -0.1840 -0.1655
  205MPD1    C3 3169   3.496   0.334  17.157  0.4730 -0.0980  0.3762
  205MPD1    C4 3170   3.491   0.470  17.163 -0.1033  0.2691  0.7374
  205MPD1    C5 3171   3.481   0.540  17.045  0.1296  0.4662  0.0194
  205MPD1     H 3172   3.495   0.167  17.027  2.7737  0.0006  1.0668
  205MPD1    H1 3173   3.494   0.530  17.254  1.9014 -1.7057  1.9617
  205MPD1    H2 3174   3.467   0.553  16.841 -1.9281 -0.2081 -0.5210
  205MPD1    H3 3175   3.480   0.648  17.052 -2.0927  0.1873  4.0754
  205MPD1     N 3176   3.522   0.265  17.282 -0.5295  0.1327 -0.1864
  205MPD1    H5 3177   3.511   0.323  17.365  0.3885 -0.3093  0.2467
  205MPD1    N1 3178   3.493   0.285  16.782  0.4146  0.5515 -0.0273
  205MPD1    H6 3179   3.473   0.187  16.764 -0.6484  0.4673  1.6732
  205MPD1    H7 3180   3.434   0.337  16.718  0.4110  1.7726  0.9693
  206MPD1     C 3181   3.965   3.279  17.605 -0.3829 -0.7455 -0.1484
  206MPD1    C1 3182   4.030   3.213  17.504  0.4917  0.5232  1.2052
  206MPD1    C2 3183   4.012   3.258  17.376  0.1046 -0.0897  0.0729
  206MPD1    C3 3184   3.909   3.352  17.338  0.4898 -0.3187 -0.1764
  206MPD1    C4 3185   3.853   3.419  17.444 -0.0302  0.8954 -0.0919
  206MPD1    C5 3186   3.891   3.389  17.570  0.7136  0.4418 -0.3889
  206MPD1     H 3187   4.081   3.222  17.301  0.1193 -0.5770  0.3207
  206MPD1    H1 3188   3.778   3.495  17.426 -2.6589 -1.8469 -0.7153
  206MPD1    H2 3189   3.978   3.264  17.712 -0.0551 -1.0983 -0.2373
  206MPD1    H3 3190   3.837   3.440  17.649 -0.3191  1.8098 -1.9783
  206MPD1     N 3191   3.864   3.360  17.202 -0.8215 -0.6099  0.4225
  206MPD1    H5 3192   3.794   3.430  17.178 -0.1744 -0.6320 -1.5331
  206MPD1    N1 3193   4.139   3.128  17.539 -0.3330 -0.3654  0.4385
  206MPD1    H6 3194   4.117   3.078  17.625  0.9513 -2.5121 -0.4812
  206MPD1    H7 3195   4.162   3.058  17.468  0.2052 -1.9180  2.1413
  207MPD1     C 3196   0.940   1.788  10.154 -0.4215 -0.8408  0.4359
  207MPD1    C1 3197   1.037   1.882  10.158  0.1776 -0.7850  0.3947
  207MPD1    C2 3198   1.169   1.837  10.140 -0.7496 -0.4186  0.3608
  207MPD1    C3 3199   1.207   1.705  10.143 -0.2993 -0.3239  0.3540
  207MPD1    C4 3200   1.105   1.613  10.157  0.9622 -0.4592  0.3047
  207MPD1    C5 3201   0.978   1.655  10.162 -0.6437  0.0157  0.1781
  207MPD1     H 3202   1.252   1.903  10.116  0.4616 -1.4450  1.6999
  207MPD1    H1 3203   1.116   1.506  10.164  0.8258 -0.5636 -0.9964
  207MPD1    H2 3204   0.833   1.805  10.158 -0.0484  1.4795  0.9996
  207MPD1    H3 3205   0.892   1.590  10.174 -0.1186 -1.4099 -3.7611
  207MPD1     N 3206   1.336   1.657  10.155 -0.3913  0.0306 -0.1946
  207MPD1    H5 3207   1.343   1.557  10.169 -0.1287 -0.1160 -1.3801
  207MPD1    N1 3208   1.002   2.019  10.154  0.4359  0.0557 -0.4753
  207MPD1    H6 3209   1.071   2.088  10.183  0.6363  0.0537 -0.9536
  207MPD1    H7 3210   0.912   2.030  10.202  1.2249  1.5903  0.6258
  208MPD1     C 3211   0.015   3.521   0.266 -0.3234  0.8271 -0.0498
  208MPD1    C1 3212   4.679   3.563   0.158 -0.5690  0.1412  0.1672
  208MPD1    C2 3213   4.599   3.678   0.176  0.1402  0.4837 -0.2330
  208MPD1    C3 3214   4.601   3.757   0.290  0.1581  0.5549 -0.6653
  208MPD1    C4 3215   4.671   3.710   0.395  0.6618  0.0076 -0.1311
  208MPD1    C5 3216   0.008   3.595   0.377 -0.4492 -0.5406  0.0349
  208MPD1     H 3217   4.536   3.711   0.094 -1.3633 -1.9767 -0.0635
  208MPD1    H1 3218   4.686   3.755   0.493 -2.5104 -1.5664  1.0764
  208MPD1    H2 3219   0.076   3.432   0.274 -2.5301 -0.8711 -1.8074
  208MPD1    H3 3220   0.064   3.576   0.468 -1.1681 -0.3336  0.5258
  208MPD1     N 3221   4.522   3.878   0.305  0.6743  0.1120  0.2105
  208MPD1    H5 3222   4.468   3.904   0.224  3.1675 -1.8350 -2.0659
  208MPD1    N1 3223   4.656   3.477   0.041  0.5602 -0.4081  0.0993
  208MPD1    H6 3224   4.635   3.533  17.688 -0.2488  0.1061  0.6402
  208MPD1    H7 3225   0.004   3.418   0.025  0.5375 -0.3816 -0.1084
  209MPD1     C 3226   1.393   0.730  11.780 -0.6158 -0.0535 -0.6457
  209MPD1    C1 3227   1.460   0.849  11.784 -0.1599  0.8889 -1.4926
  209MPD1    C2 3228   1.535   0.880  11.669 -0.2419 -0.4446 -0.1777
  209MPD1    C3 3229   1.531   0.807  11.552 -0.1952  0.0015 -0.3914
  209MPD1    C4 3230   1.465   0.684  11.555  0.2750  0.2715  0.6896
  209MPD1    C5 3231   1.397   0.648  11.673 -0.1400 -0.0111  0.5889
  209MPD1     H 3232   1.595   0.970  11.667  2.1492 -1.9869  2.5960
  209MPD1    H1 3233   1.455   0.615  11.471 -0.0423  0.4147  0.6096
  209MPD1    H2 3234   1.331   0.691  11.860  0.6932 -0.8117 -0.0181
  209MPD1    H3 3235   1.344   0.554  11.666 -1.0449  0.7568 -2.6861
  209MPD1     N 3236   1.595   0.857  11.435 -0.2967  1.0085  0.1212
  209MPD1    H5 3237   1.656   0.934  11.459  3.1302 -1.4810 -0.5297
  209MPD1    N1 3238   1.482   0.929  11.904 -0.4116  0.0215 -0.7359
  209MPD1    H6 3239   1.489   1.029  11.886  1.8978 -0.1723 -0.9525
  209MPD1    H7 3240   1.403   0.911  11.965  0.7120 -1.7435  0.2084
  210MPD1     C 3241   2.329   1.290  11.382 -0.6414  0.3919  0.0305
  210MPD1    C1 3242   2.247   1.361  11.291  0.7923 -0.3179  0.8004
  210MPD1    C2 3243   2.130   1.295  11.261  0.8102  0.8713  0.0859
  210MPD1    C3 3244   2.098   1.169  11.291  0.0151  0.2293  0.2064
  210MPD1    C4 3245   2.175   1.100  11.377  0.6643 -0.0466  0.5475
  210MPD1    C5 3246   2.296   1.158  11.409  0.4932 -0.5949  0.1390
  210MPD1     H 3247   2.065   1.352  11.195  1.7510 -0.3201 -1.8745
  210MPD1    H1 3248   2.144   1.004  11.416  0.6224  0.1587  1.0225
  210MPD1    H2 3249   2.413   1.331  11.436 -0.7171  0.6207 -0.0284
  210MPD1    H3 3250   2.359   1.106  11.480  0.0210 -2.2605 -0.6559
  210MPD1     N 3251   1.980   1.108  11.246 -0.6827 -0.2160  0.0101
  210MPD1    H5 3252   1.956   1.018  11.285 -0.8670  0.7610  2.2197
  210MPD1    N1 3253   2.274   1.498  11.255  0.8004 -0.0235  0.1831
  210MPD1    H6 3254   2.251   1.519  11.158 -1.2601 -2.3120  0.1567
  210MPD1    H7 3255   2.372   1.514  11.277  1.4028 -3.3368 -0.0518
  211MPD1     C 3256   3.755   4.722  16.176 -0.3143  0.1027 -1.0883
  211MPD1    C1 3257   3.671   0.079  16.123  0.0632  0.3935 -0.2037
  211MPD1    C2 3258   3.648   0.199  16.188  0.5549 -0.5189 -0.1143
  211MPD1    C3 3259   3.693   0.221  16.315 -0.4529 -0.0912 -0.1251
  211MPD1    C4 3260   3.779   0.128  16.364 -0.4880  0.0233 -0.4586
  211MPD1    C5 3261   3.811   0.014  16.293 -0.5528 -0.5898  0.6733
  211MPD1     H 3262   3.595   0.275  16.132 -0.0011 -1.2270 -0.5402
  211MPD1    H1 3263   3.818   0.144  16.465 -1.5848  3.7001 -0.6252
  211MPD1    H2 3264   3.793   4.630  16.133  0.5522  0.3311 -0.8105
  211MPD1    H3 3265   3.886   4.674  16.320  0.7103  0.2494 -0.5365
  211MPD1     N 3266   3.664   0.348  16.376  0.0651 -0.3819  0.4082
  211MPD1    H5 3267   3.607   0.407  16.317  1.1302  0.7522  0.5076
  211MPD1    N1 3268   3.617   0.055  15.996  0.4932 -0.0042 -0.2837
  211MPD1    H6 3269   3.589   4.690  15.997  0.3340  0.0396 -0.4695
  211MPD1    H7 3270   3.534   0.113  15.990  0.8410  0.4896 -0.3513
  212MPD1     C 3271   3.347   3.645  16.753  0.1837 -0.5201 -0.0995
  212MPD1    C1 3272   3.305   3.707  16.862 -0.0329  0.6095  0.9333
  212MPD1    C2 3273   3.251   3.622  16.962  0.2855 -0.4929 -0.5067
  212MPD1    C3 3274   3.258   3.482  16.964  0.1484  1.0212  0.0829
  212MPD1    C4 3275   3.311   3.422  16.852 -0.1373 -0.1064  0.8186
  212MPD1    C5 3276   3.345   3.508  16.748  0.0706  0.3335  0.0061
  212MPD1     H 3277   3.212   3.674  17.048 -3.7304 -1.2154 -1.8905
  212MPD1    H1 3278   3.321   3.315  16.840 -0.8063  0.1828 -2.1847
  212MPD1    H2 3279   3.362   3.696  16.659 -1.1974  0.3821  0.1828
  212MPD1    H3 3280   3.362   3.478  16.645 -1.4163  2.5903 -0.9193
  212MPD1     N 3281   3.209   3.404  17.074  0.7922 -0.2968 -0.2280
  212MPD1    H5 3282   3.231   3.305  17.076 -0.4796 -0.6222 -2.1773
  212MPD1    N1 3283   3.297   3.846  16.863 -0.0350 -0.6339 -0.8609
  212MPD1    H6 3284   3.372   3.906  16.829 -0.2767  0.4528  0.4973
  212MPD1    H7 3285   3.268   3.877  16.956  1.7001  0.5902 -0.7195
  213MPD1     C 3286   1.522   4.385  16.014  0.0809  1.0680 -0.3151
  213MPD1    C1 3287   1.437   4.278  15.987 -0.1258  0.5071 -0.6104
  213MPD1    C2 3288   1.381   4.283  15.862 -0.3506  0.2851  0.1366
  213MPD1    C3 3289   1.367   4.400  15.787  0.0421  0.1539 -0.1616
  213MPD1    C4 3290   1.431   4.513  15.832 -0.5171 -1.1447 -0.7876
  213MPD1    C5 3291   1.509   4.503  15.943 -0.0935  0.6749 -0.0815
  213MPD1     H 3292   1.331   4.189  15.844  0.4710  0.3081 -2.2603
  213MPD1    H1 3293   1.433   4.604  15.773  0.7055 -3.1388 -3.7675
  213MPD1    H2 3294   1.585   4.371  16.102 -1.4010  1.6671  0.8380
  213MPD1    H3 3295   1.562   4.592  15.976  3.4709 -1.0232 -1.2692
  213MPD1     N 3296   1.287   4.397  15.669 -0.0287  0.2450 -0.2030
  213MPD1    H5 3297   1.246   4.308  15.643  0.1194  0.0914  0.0896
  213MPD1    N1 3298   1.471   4.155  16.039  1.1698 -0.4324  0.2970
  213MPD1    H6 3299   1.408   4.075  16.029  2.3799 -1.3548  0.0773
  213MPD1    H7 3300   1.497   4.155  16.137 -0.5220 -0.3192  0.7423
  214MPD1     C 3301   0.539   3.946  15.555  0.0660  0.4787 -0.1619
  214MPD1    C1 3302   0.578   3.963  15.420 -0.4083 -0.4972 -0.3101
  214MPD1    C2 3303   0.669   4.067  15.402 -0.1635 -0.4410  0.3175
  214MPD1    C3 3304   0.748   4.119  15.509 -0.2732 -0.4904  0.2183
  214MPD1    C4 3305   0.700   4.099  15.638 -0.6329  0.4736 -0.0870
  214MPD1    C5 3306   0.589   4.030  15.653  0.9221 -0.2338 -0.7770
  214MPD1     H 3307   0.684   4.098  15.299 -0.3453 -1.0478  0.1054
  214MPD1    H1 3308   0.744   4.155  15.720 -1.8533 -1.6865  2.0476
  214MPD1    H2 3309   0.442   3.900  15.564 -1.6258  3.9104 -0.9229
  214MPD1    H3 3310   0.544   4.038  15.751 -0.1332  3.4537 -1.5515
  214MPD1     N 3311   0.850   4.213  15.494  0.2250 -0.1856 -0.1692
  214MPD1    H5 3312   0.885   4.255  15.580  2.3579 -1.0835 -0.5987
  214MPD1    N1 3313   0.500   3.916  15.319 -0.2313  0.1646 -0.1094
  214MPD1    H6 3314   0.464   3.821  15.334  1.2019 -0.4184 -0.4078
  214MPD1    H7 3315   0.545   3.915  15.228  0.6510 -1.4413  0.3375
  215MPD1     C 3316   0.154   1.318  11.452  0.4983  0.1108  0.1994
  215MPD1    C1 3317   0.137   1.182  11.456 -0.3189  0.6528  0.0333
  215MPD1    C2 3318   0.260   1.109  11.465  0.2843 -0.3784 -0.1212
  215MPD1    C3 3319   0.388   1.169  11.461 -0.4712 -0.0931 -0.5827
  215MPD1    C4 3320   0.394   1.301  11.420 -0.7323  0.1800  0.1319
  215MPD1    C5 3321   0.275   1.371  11.426 -0.2833  0.6337 -0.6321
  215MPD1     H 3322   0.252   1.001  11.464 -1.0345 -0.2521 -3.1140
  215MPD1    H1 3323   0.490   1.347  11.398 -0.9421  1.3976  1.7082
  215MPD1    H2 3324   0.069   1.384  11.459  0.0761 -0.1985 -2.0724
  215MPD1    H3 3325   0.279   1.479  11.418  3.0366  0.5477 -0.1380
  215MPD1     N 3326   0.496   1.086  11.479 -0.2679 -0.3545  0.6004
  215MPD1    H5 3327   0.476   0.987  11.495  0.7922 -0.0805  3.6119
  215MPD1    N1 3328   0.014   1.133  11.496 -0.0325  0.2499 -0.6896
  215MPD1    H6 3329   4.674   1.177  11.440 -1.1474 -0.2260  0.3843
  215MPD1    H7 3330   0.013   1.032  11.481  0.1548  0.3602 -1.4248
  216MPD1     C 3331   2.427   3.388   0.777 -0.1603  0.0681 -0.8393
  216MPD1    C1 3332   2.428   3.282   0.682  0.7389 -0.6201 -0.1642
  216MPD1    C2 3333   2.523   3.281   0.579  0.6579  0.2866 -0.7607
  216MPD1    C3 3334   2.612   3.392   0.567 -0.4691  0.6002 -0.0330
  216MPD1    C4 3335   2.601   3.497   0.650  0.5727 -0.2472 -1.2514
  216MPD1    C5 3336   2.508   3.501   0.752 -0.9346 -0.5715 -0.2204
  216MPD1     H 3337   2.538   3.192   0.518  1.0737 -1.1429  1.4327
  216MPD1    H1 3338   2.651   3.592   0.634  0.8294 -0.0869  0.4843
  216MPD1    H2 3339   2.355   3.379   0.858  1.6395  1.5334  0.9225
  216MPD1    H3 3340   2.487   3.593   0.806  0.6687 -0.4049  0.1241
  216MPD1     N 3341   2.714   3.385   0.467 -0.2631 -0.0260  0.2351
  216MPD1    H5 3342   2.738   3.292   0.436  0.4195 -0.1472  1.1168
  216MPD1    N1 3343   2.365   3.163   0.709  0.6438 -0.2951  0.0112
  216MPD1    H6 3344   2.330   3.111   0.628  0.9146 -0.6884  0.1438
  216MPD1    H7 3345   2.279   3.170   0.763  0.5668 -1.7362  0.0844
  217MPD1     C 3346   2.105   0.077   9.179  0.0532 -0.2199 -0.4104
  217MPD1    C1 3347   2.085   0.160   9.289  0.1839 -0.4798 -0.3623
  217MPD1    C2 3348   2.195   0.200   9.361 -0.0749  0.3072 -0.2384
  217MPD1    C3 3349   2.324   0.177   9.321  0.2198 -0.3489 -0.3056
  217MPD1    C4 3350   2.346   0.101   9.212  0.5132 -0.3129  0.3051
  217MPD1    C5 3351   2.235   0.043   9.146 -0.3615  0.1411 -0.0304
  217MPD1     H 3352   2.172   0.253   9.453  1.5211  1.1505 -0.3193
  217MPD1    H1 3353   2.445   0.070   9.179 -0.4874 -2.4248 -0.6912
  217MPD1    H2 3354   2.025   0.020   9.134  0.8938  0.4817 -2.7872
  217MPD1    H3 3355   2.252   4.697   9.073 -1.0281 -1.6767  1.7822
  217MPD1     N 3356   2.438   0.210   9.398  0.3277 -0.1089 -1.2978
  217MPD1    H5 3357   2.528   0.177   9.364  1.3693  1.4763 -0.1146
  217MPD1    N1 3358   1.951   0.187   9.336  0.0966 -0.1733 -0.4375
  217MPD1    H6 3359   1.947   0.282   9.372 -1.4460 -0.6095  0.4982
  217MPD1    H7 3360   1.892   0.190   9.253  1.7271  0.4427 -1.5894
  218MPD1     C 3361   0.922   1.585  13.031  0.0528 -0.4397  0.0827
  218MPD1    C1 3362   1.024   1.640  12.954 -0.0480 -0.7891  0.2800
  218MPD1    C2 3363   1.114   1.562  12.882  0.1655  0.0903 -0.0010
  218MPD1    C3 3364   1.114   1.430  12.899  0.3106  0.0081  0.5050
  218MPD1    C4 3365   1.022   1.376  12.993 -0.4596  0.2223  0.3881
  218MPD1    C5 3366   0.929   1.455  13.055 -0.1068  0.5275  0.1979
  218MPD1     H 3367   1.188   1.609  12.818  1.1214  0.9276  1.7049
  218MPD1    H1 3368   1.035   1.279  13.040  1.2732  0.3243  0.1079
  218MPD1    H2 3369   0.842   1.648  13.067  0.4924  1.4937 -2.3457
  218MPD1    H3 3370   0.858   1.405  13.120 -0.5191 -0.9176 -1.3465
  218MPD1     N 3371   1.203   1.357  12.822 -0.3400  0.2078  0.5597
  218MPD1    H5 3372   1.265   1.407  12.759 -2.9952  2.7234 -0.0776
  218MPD1    N1 3373   1.017   1.778  12.926  0.6243 -0.4215  0.0344
  218MPD1    H6 3374   1.106   1.820  12.902  0.9625 -0.4488  1.1945
  218MPD1    H7 3375   0.972   1.829  13.002  0.6139 -0.5465  0.1138
  219MPD1     C 3376   1.868   1.310  12.091 -0.2274  0.1379 -0.9378
  219MPD1    C1 3377   1.838   1.401  12.188 -0.4500  0.6218 -0.1131
  219MPD1    C2 3378   1.758   1.357  12.292 -0.4130 -0.0416 -0.2175
  219MPD1    C3 3379   1.721   1.222  12.310  0.5541 -0.1202  0.1501
  219MPD1    C4 3380   1.760   1.129  12.215  0.2325 -0.1428 -0.5549
  219MPD1    C5 3381   1.832   1.172  12.107  0.1753 -0.3512  0.4440
  219MPD1     H 3382   1.734   1.440  12.357 -0.8877 -0.7439  0.5200
  219MPD1    H1 3383   1.737   1.024  12.225 -1.2120  0.3469  1.3086
  219MPD1    H2 3384   1.920   1.336  11.999  0.4088  1.2713 -0.2570
  219MPD1    H3 3385   1.853   1.106  12.025 -2.1551  0.4848 -0.8239
  219MPD1     N 3386   1.641   1.176  12.416  0.3747 -0.5366  0.0485
  219MPD1    H5 3387   1.613   1.078  12.416  0.1395 -0.4692  3.1515
  219MPD1    N1 3388   1.867   1.538  12.166 -0.4190 -0.1691  0.5811
  219MPD1    H6 3389   1.949   1.559  12.110 -0.6104  1.4005  0.8968
  219MPD1    H7 3390   1.874   1.594  12.250  0.8984  1.9997 -0.9897
  220MPD1     C 3391   0.075   1.565  10.811 -0.1597  0.6614  0.4480
  220MPD1    C1 3392   4.690   1.500  10.777 -0.0813  0.1122 -0.0687
  220MPD1    C2 3393   4.697   1.360  10.758 -0.2943  0.5931  0.3332
  220MPD1    C3 3394   0.084   1.293  10.778 -0.3203 -0.1337  0.4231
  220MPD1    C4 3395   0.195   1.367  10.807  0.1359  0.4213  0.0351
  220MPD1    C5 3396   0.197   1.503  10.823 -0.0807  0.5685  0.4312
  220MPD1     H 3397   4.611   1.297  10.739 -0.3469  0.8249 -0.2023
  220MPD1    H1 3398   0.296   1.328  10.812 -0.1339 -0.8308 -4.3904
  220MPD1    H2 3399   0.073   1.672  10.824  3.6585  0.8393 -0.3509
  220MPD1    H3 3400   0.282   1.568  10.840 -0.3265  0.7948  0.7940
  220MPD1     N 3401   0.077   1.161  10.749 -0.1286  0.0359  0.7038
  220MPD1    H5 3402   4.719   1.117  10.739 -0.5701  1.8172 -3.3591
  220MPD1    N1 3403   4.583   1.577  10.744 -0.4330  0.0795 -0.1488
  220MPD1    H6 3404   4.579   1.658  10.806  0.6081 -1.7608  2.3764
  220MPD1    H7 3405   4.493   1.532  10.760 -0.2098  0.2981  1.8372
  221MPD1     C 3406   3.392   0.415  15.619  0.4112  0.1253  0.7107
  221MPD1    C1 3407   3.448   0.517  15.686 -0.0981 -0.4860  0.3389
  221MPD1    C2 3408   3.557   0.495  15.775 -0.1603  0.5377 -0.5408
  221MPD1    C3 3409   3.608   0.364  15.782  0.2192  0.2241 -0.1917
  221MPD1    C4 3410   3.564   0.263  15.693 -0.5848  1.3341 -0.7733
  221MPD1    C5 3411   3.456   0.291  15.619  0.3633 -0.1173  0.2912
  221MPD1     H 3412   3.583   0.581  15.836 -0.4578  0.1317  0.1555
  221MPD1    H1 3413   3.606   0.164  15.702 -1.9151  0.8893  0.6196
  221MPD1    H2 3414   3.296   0.429  15.569  0.1115 -0.5695  1.0921
  221MPD1    H3 3415   3.421   0.211  15.556  0.6351  0.5131 -0.6565
  221MPD1     N 3416   3.712   0.324  15.865  0.0013 -0.0783 -0.2619
  221MPD1    H5 3417   3.741   0.227  15.873 -0.1685  0.0673  2.1212
  221MPD1    N1 3418   3.375   0.638  15.686  0.6293  0.0938  0.1386
  221MPD1    H6 3419   3.325   0.665  15.602 -1.0145 -0.1643  1.0395
  221MPD1    H7 3420   3.441   0.711  15.712  0.3307  0.4249 -0.0482
  222MPD1     C 3421   2.789   3.686   0.947 -0.0408  0.3588 -0.3779
  222MPD1    C1 3422   2.673   3.749   0.997  0.5497 -0.1382  0.2621
  222MPD1    C2 3423   2.602   3.835   0.917  0.1015  0.1621  0.0321
  222MPD1    C3 3424   2.646   3.872   0.791  0.4504  0.4348 -0.5862
  222MPD1    C4 3425   2.766   3.821   0.749 -0.1301  0.4237 -0.3322
  222MPD1    C5 3426   2.837   3.731   0.829  0.0788 -0.7762 -0.5385
  222MPD1     H 3427   2.512   3.879   0.960 -1.7967 -1.4994 -2.3134
  222MPD1    H1 3428   2.826   3.862   0.669  2.8051 -1.4619  0.8988
  222MPD1    H2 3429   2.841   3.613   1.009 -0.2174 -1.0452 -1.8803
  222MPD1    H3 3430   2.938   3.703   0.801 -0.0244 -2.1629  0.4721
  222MPD1     N 3431   2.583   3.963   0.697  0.1711  0.6407 -0.2665
  222MPD1    H5 3432   2.616   3.964   0.601 -0.7588  1.7052 -0.5770
  222MPD1    N1 3433   2.610   3.709   1.118  0.0128  0.3734  0.0255
  222MPD1    H6 3434   2.666   3.649   1.178 -1.5017  1.9036  2.9792
  222MPD1    H7 3435   2.598   3.792   1.176 -1.1949  1.4444 -1.7437
  223MPD1     C 3436   2.126   0.225   0.669  0.3202 -0.4722 -0.0080
  223MPD1    C1 3437   2.259   0.230   0.627  0.0683 -0.0281  0.7059
  223MPD1    C2 3438   2.320   0.109   0.603  0.2040  0.3094 -0.0834
  223MPD1    C3 3439   2.256   4.717   0.627  0.3320  0.3803  0.1333
  223MPD1    C4 3440   2.132   4.721   0.684 -0.1899  0.1670 -0.3756
  223MPD1    C5 3441   2.063   0.105   0.696  0.3626 -0.2064  0.0267
  223MPD1     H 3442   2.421   0.105   0.563  0.1124 -0.3623 -0.2614
  223MPD1    H1 3443   2.074   4.631   0.702 -0.1113  0.1446 -0.2325
  223MPD1    H2 3444   2.070   0.317   0.683 -2.0064 -1.7592 -0.8677
  223MPD1    H3 3445   1.961   0.109   0.732  0.0593  1.5621 -1.0334
  223MPD1     N 3446   2.320   4.592   0.595 -0.4827  0.3907 -0.3663
  223MPD1    H5 3447   2.411   4.603   0.551  0.1769  1.4788  1.2399
  223MPD1    N1 3448   2.307   0.365   0.600 -0.6756 -0.0930  0.1385
  223MPD1    H6 3449   2.399   0.386   0.638 -1.7974  1.5105  1.9584
  223MPD1    H7 3450   2.241   0.425   0.649 -1.1830  1.7205 -2.7657
  224MPD1     C 3451   2.496   0.513   9.095 -0.0408 -0.6970  0.0441
  224MPD1    C1 3452   2.595   0.428   9.064 -0.5170 -0.2026  0.5044
  224MPD1    C2 3453   2.713   0.428   9.137  0.2019 -0.2208 -0.2467
  224MPD1    C3 3454   2.726   0.514   9.247 -0.1258  0.1504 -0.2211
  224MPD1    C4 3455   2.627   0.604   9.275  0.4187 -0.0024 -0.3064
  224MPD1    C5 3456   2.516   0.601   9.193  0.0765 -1.1379  0.2084
  224MPD1     H 3457   2.793   0.365   9.100  2.1905  1.4248  1.2479
  224MPD1    H1 3458   2.628   0.688   9.344  0.5171  0.1538 -0.4988
  224MPD1    H2 3459   2.408   0.535   9.036  0.4995 -0.0022 -0.5109
  224MPD1    H3 3460   2.441   0.678   9.209  1.5719  0.5156 -0.7447
  224MPD1     N 3461   2.841   0.515   9.335 -0.2417 -0.0415  0.0129
  224MPD1    H5 3462   2.849   0.592   9.401 -1.9971  2.0259 -2.1759
  224MPD1    N1 3463   2.579   0.348   8.946 -0.0046 -0.2060  0.5172
  224MPD1    H6 3464   2.644   0.270   8.949  1.6603  1.2161  1.4827
  224MPD1    H7 3465   2.489   0.300   8.949 -0.1714  0.2030  2.4490
  225MPD1     C 3466   1.164   1.602  12.482 -0.5573  0.1639 -0.5257
  225MPD1    C1 3467   1.134   1.477  12.451 -0.5028 -0.1815 -0.4539
  225MPD1    C2 3468   1.010   1.418  12.488 -0.6067  0.0798 -0.1572
  225MPD1    C3 3469   0.935   1.485  12.584 -0.4143 -0.1262  0.6145
  225MPD1    C4 3470   0.969   1.614  12.617  0.1515  0.9048 -0.1244
  225MPD1    C5 3471   1.075   1.676  12.559 -0.8495  0.2987 -0.1289
  225MPD1     H 3472   0.985   1.319  12.451 -0.2040 -0.4638  1.0409
  225MPD1    H1 3473   0.907   1.657  12.695  1.7621 -2.5658  3.0950
  225MPD1    H2 3474   1.249   1.659  12.447 -0.5342  0.5324  0.1247
  225MPD1    H3 3475   1.100   1.779  12.583 -1.3394  0.8528 -1.9852
  225MPD1     N 3476   0.823   1.435  12.652  0.1797  0.5957  0.1028
  225MPD1    H5 3477   0.793   1.490  12.732 -0.7902  0.2119  0.0046
  225MPD1    N1 3478   1.223   1.416  12.361  0.6460 -0.1948 -0.1119
  225MPD1    H6 3479   1.222   1.314  12.367  1.4212 -0.2799 -1.3333
  225MPD1    H7 3480   1.316   1.458  12.355  0.3059  0.4471 -0.9325
  226MPD1     C 3481   3.933   0.899   9.968  0.1232 -0.4107 -0.6084
  226MPD1    C1 3482   3.913   0.825   9.858  0.4452  0.4908 -0.4620
  226MPD1    C2 3483   3.842   0.884   9.754  0.1857 -0.1724 -0.1334
  226MPD1    C3 3484   3.778   1.009   9.770 -0.5228  0.1800  0.9840
  226MPD1    C4 3485   3.787   1.075   9.892  0.2360 -0.4256  0.2995
  226MPD1    C5 3486   3.867   1.015   9.988  0.3330  0.0442 -0.0291
  226MPD1     H 3487   3.846   0.843   9.654  1.4418  0.3535 -0.3003
  226MPD1    H1 3488   3.738   1.170   9.911 -3.4990 -1.9868 -1.5374
  226MPD1    H2 3489   3.995   0.865  10.050  1.2687 -0.2325 -1.3995
  226MPD1    H3 3490   3.879   1.061  10.085  0.7398 -1.2948  0.5616
  226MPD1     N 3491   3.690   1.054   9.672 -0.4153  0.1043  0.0343
  226MPD1    H5 3492   3.674   0.990   9.594 -1.8594 -0.1433  0.5329
  226MPD1    N1 3493   3.996   0.714   9.840  0.1947  0.4258  0.6372
  226MPD1    H6 3494   4.016   0.674   9.931  1.2754 -0.4475  0.0097
  226MPD1    H7 3495   3.944   0.640   9.794  1.3842  0.0731 -0.1574
  227MPD1     C 3496   3.549   2.015   9.360 -0.5112  0.1706  0.6734
  227MPD1    C1 3497   3.660   1.954   9.418 -0.8135  0.5376  0.0940
  227MPD1    C2 3498   3.651   1.809   9.440  0.5334  0.4801  0.7747
  227MPD1    C3 3499   3.536   1.737   9.411 -0.1000  0.0921 -0.8393
  227MPD1    C4 3500   3.427   1.812   9.360  0.5298  0.0870 -0.4281
  227MPD1    C5 3501   3.433   1.943   9.332 -0.1987  0.0860  1.3269
  227MPD1     H 3502   3.735   1.759   9.486  0.2280 -0.7811 -0.0138
  227MPD1    H1 3503   3.337   1.759   9.330  0.2028  1.7895 -2.4840
  227MPD1    H2 3504   3.551   2.121   9.339  1.0160 -0.5363 -2.8540
  227MPD1    H3 3505   3.344   1.987   9.289  0.5358  0.6383  0.3686
  227MPD1     N 3506   3.534   1.596   9.432 -0.2773  0.2361  1.0839
  227MPD1    H5 3507   3.622   1.560   9.468 -0.0978 -0.6323 -0.2320
  227MPD1    N1 3508   3.777   2.026   9.432  0.0627 -0.2863  0.4428
  227MPD1    H6 3509   3.848   1.992   9.498  1.9413 -1.0581 -1.9768
  227MPD1    H7 3510   3.748   2.123   9.448 -2.1923 -1.2391  1.9996
  228MPD1     C 3511   2.731   3.137  13.234 -0.5026 -0.3081  0.0416
  228MPD1    C1 3512   2.625   3.109  13.324  0.2828 -0.7246  0.0173
  228MPD1    C2 3513   2.515   3.197  13.329 -0.2861 -0.7663  0.1438
  228MPD1    C3 3514   2.513   3.308  13.245  0.6390 -0.0456 -0.8330
  228MPD1    C4 3515   2.615   3.337  13.159  0.0128  0.3426 -0.7530
  228MPD1    C5 3516   2.733   3.252  13.156  0.0365 -0.4092 -0.0625
  228MPD1     H 3517   2.431   3.187  13.397 -0.2752 -4.1776 -0.3516
  228MPD1    H1 3518   2.627   3.429  13.104 -3.2644  1.0117 -0.3485
  228MPD1    H2 3519   2.819   3.074  13.228  1.8214  2.8858  0.1094
  228MPD1    H3 3520   2.822   3.287  13.106  0.2313 -1.5044 -0.4699
  228MPD1     N 3521   2.396   3.389  13.250 -0.0006  0.2696 -0.3998
  228MPD1    H5 3522   2.338   3.378  13.333  0.8652 -0.2065  0.1489
  228MPD1    N1 3523   2.619   2.984  13.385  0.5396  0.2275  0.1007
  228MPD1    H6 3524   2.580   2.986  13.479  1.5115 -2.5489  0.5796
  228MPD1    H7 3525   2.715   2.951  13.397  0.8001 -0.0495 -2.7824
  229MPD1     C 3526   1.940   2.820  14.841  0.1349  0.2480 -0.6680
  229MPD1    C1 3527   1.926   2.688  14.877 -0.1021  0.0904  0.1217
  229MPD1    C2 3528   1.993   2.637  14.987 -0.2117  0.4708 -0.0839
  229MPD1    C3 3529   2.078   2.719  15.068  0.6936 -0.3673  0.3776
  229MPD1    C4 3530   2.098   2.846  15.024 -0.9169  0.7546  0.0146
  229MPD1    C5 3531   2.030   2.895  14.919 -0.1789  0.3042 -0.0164
  229MPD1     H 3532   1.968   2.533  15.006 -0.0061  0.4953  0.3269
  229MPD1    H1 3533   2.168   2.908  15.079 -0.1436 -0.4137  0.3566
  229MPD1    H2 3534   1.896   2.869  14.754  0.7586  0.5384 -0.8178
  229MPD1    H3 3535   2.047   2.998  14.893  1.2963 -0.0746 -0.5127
  229MPD1     N 3536   2.162   2.662  15.176  0.5487  0.6333 -0.1712
  229MPD1    H5 3537   2.239   2.712  15.220  1.3915 -2.1647  1.4938
  229MPD1    N1 3538   1.820   2.614  14.819  0.6676  0.1434  0.0621
  229MPD1    H6 3539   1.840   2.515  14.836 -0.0658 -0.0885 -0.4645
  229MPD1    H7 3540   1.809   2.633  14.720  0.9586 -0.8106 -0.1569
  230MPD1     C 3541   2.888   2.801  15.833  0.1579  0.4009 -0.5355
  230MPD1    C1 3542   2.913   2.669  15.803  1.2260  0.0686 -0.2749
  230MPD1    C2 3543   2.835   2.606  15.712 -0.2939  0.9894  0.1187
  230MPD1    C3 3544   2.724   2.666  15.653 -0.5137 -0.0030 -0.0892
  230MPD1    C4 3545   2.697   2.797  15.690 -0.3536 -0.0131  0.0061
  230MPD1    C5 3546   2.778   2.862  15.778 -0.1345 -0.0615 -0.0997
  230MPD1     H 3547   2.867   2.503  15.697  0.3222  0.8904  2.0906
  230MPD1    H1 3548   2.611   2.852  15.654 -0.6919 -1.0038 -0.6867
  230MPD1    H2 3549   2.949   2.866  15.896 -2.9936 -0.1689  3.1348
  230MPD1    H3 3550   2.755   2.960  15.818 -4.0897 -1.4970  1.2383
  230MPD1     N 3551   2.648   2.586  15.565  0.0968 -0.7779 -0.2074
  230MPD1    H5 3552   2.661   2.485  15.573 -0.2282 -0.8156 -0.1552
  230MPD1    N1 3553   3.003   2.598  15.885 -0.1036 -0.0186 -0.6511
  230MPD1    H6 3554   3.049   2.522  15.837 -1.7626 -1.9752  0.8535
  230MPD1    H7 3555   3.071   2.662  15.925  1.2764 -0.7929 -1.8016
  231MPD1     C 3556   0.600   4.439  15.627 -0.2804  0.2970  0.1651
  231MPD1    C1 3557   0.546   4.405  15.505 -0.7628 -0.1994  0.3006
  231MPD1    C2 3558   0.581   4.494  15.400 -0.0229 -0.3636 -0.6358
  231MPD1    C3 3559   0.692   4.577  15.412 -0.2568  0.0919  0.1700
  231MPD1    C4 3560   0.767   4.583  15.526  0.8568 -0.5751  0.5545
  231MPD1    C5 3561   0.710   4.515  15.630 -0.2492 -0.7654  0.8051
  231MPD1     H 3562   0.525   4.495  15.307 -0.6591  0.6588 -0.2468
  231MPD1    H1 3563   0.843   4.656  15.549  0.8839  0.0349 -1.5135
  231MPD1    H2 3564   0.586   4.389  15.722  1.9908  1.0340  0.8733
  231MPD1    H3 3565   0.747   4.537  15.729 -0.0069  0.8076  0.3510
  231MPD1     N 3566   0.726   4.652  15.295 -0.1884  0.1218 -0.0270
  231MPD1    H5 3567   0.678   4.628  15.209  0.5344 -1.6945  0.0799
  231MPD1    N1 3568   0.430   4.325  15.504  0.3053 -0.2082 -0.4047
  231MPD1    H6 3569   0.405   4.273  15.419  2.2336 -0.2937 -0.9075
  231MPD1    H7 3570   0.427   4.261  15.583 -0.7097 -1.9933 -1.8937
  232MPD1     C 3571   2.397   0.269   1.109 -0.8601 -0.6240 -1.3022
  232MPD1    C1 3572   2.375   0.326   1.230  0.9451 -0.6127  0.0003
  232MPD1    C2 3573   2.285   0.433   1.235  0.2560  0.5777 -0.0458
  232MPD1    C3 3574   2.215   0.477   1.125  0.5107  0.1999  0.4132
  232MPD1    C4 3575   2.221   0.401   1.015  0.2118  0.5781  0.3012
  232MPD1    C5 3576   2.315   0.296   1.001  0.7085  0.6715  0.3337
  232MPD1     H 3577   2.289   0.494   1.325 -1.1760  1.1620 -0.3735
  232MPD1    H1 3578   2.154   0.416   0.932  1.2534 -0.9258 -0.8134
  232MPD1    H2 3579   2.475   0.194   1.096  0.5434  0.5883  0.1165
  232MPD1    H3 3580   2.328   0.238   0.910  0.9589  1.3699 -0.0753
  232MPD1     N 3581   2.144   0.603   1.142  0.3713  0.4744 -0.1136
  232MPD1    H5 3582   2.123   0.631   1.238  0.1151 -2.5427  0.7143
  232MPD1    N1 3583   2.468   0.307   1.338  0.0118 -0.2949  0.1826
  232MPD1    H6 3584   2.512   0.216   1.345 -0.9749 -0.6562  1.6988
  232MPD1    H7 3585   2.418   0.317   1.426  0.7295 -1.5870  0.7401
  233MPD1     C 3586   3.590   1.267   2.098  0.1732 -0.5973  0.1834
  233MPD1    C1 3587   3.597   1.136   2.062 -0.1071  0.2202  0.3933
  233MPD1    C2 3588   3.674   1.112   1.950 -0.1475 -0.3330  0.3120
  233MPD1    C3 3589   3.751   1.210   1.890  0.2031  0.3464 -0.4479
  233MPD1    C4 3590   3.747   1.341   1.945 -0.3284  0.2849  0.1648
  233MPD1    C5 3591   3.665   1.369   2.048 -0.2493  0.2378 -0.0259
  233MPD1     H 3592   3.693   1.007   1.931  2.0815  0.0786  0.2819
  233MPD1    H1 3593   3.800   1.420   1.894  0.0776  1.9731  3.2093
  233MPD1    H2 3594   3.534   1.305   2.183  0.1738  0.5450 -0.3164
  233MPD1    H3 3595   3.657   1.469   2.089 -0.4812  0.3945 -0.4575
  233MPD1     N 3596   3.844   1.180   1.787  0.4266 -0.9535  0.1461
  233MPD1    H5 3597   3.901   1.258   1.754 -1.4016 -0.6095 -2.1656
  233MPD1    N1 3598   3.552   1.043   2.149  0.1857  1.1290  0.3544
  233MPD1    H6 3599   3.472   1.076   2.202 -0.2693 -0.1674  0.4717
  233MPD1    H7 3600   3.530   0.955   2.102 -1.6173  1.7906 -0.0532
  234MPD1     C 3601   3.441   3.854   9.003 -0.0975 -0.0146 -0.3512
  234MPD1    C1 3602   3.335   3.851   9.087  0.0903  0.1713 -0.1141
  234MPD1    C2 3603   3.347   3.941   9.199  0.3316  0.5750  0.1105
  234MPD1    C3 3604   3.465   4.012   9.236  0.3517 -0.2727  0.2798
  234MPD1    C4 3605   3.574   3.992   9.155 -0.4575  0.1540  0.5206
  234MPD1    C5 3606   3.557   3.924   9.035  0.0105  0.4602  0.1756
  234MPD1     H 3607   3.256   3.971   9.250 -0.4830 -1.9435  0.1393
  234MPD1    H1 3608   3.669   4.044   9.165 -0.8726  0.2760  3.6472
  234MPD1    H2 3609   3.435   3.809   8.905 -2.7725  1.3690 -0.8345
  234MPD1    H3 3610   3.638   3.916   8.963  0.8674 -2.0739  1.4344
  234MPD1     N 3611   3.471   4.102   9.348 -0.1584 -0.2126  0.6043
  234MPD1    H5 3612   3.386   4.114   9.404 -1.3308 -1.6047 -0.8858
  234MPD1    N1 3613   3.214   3.791   9.041 -0.2820 -0.4409  0.4630
  234MPD1    H6 3614   3.154   3.758   9.117 -0.9516 -0.6817 -0.1690
  234MPD1    H7 3615   3.242   3.713   8.982 -0.7777 -0.0695 -0.2690
  235MPD1     C 3616   1.477   1.593  10.779  0.7778 -0.2730  0.1986
  235MPD1    C1 3617   1.451   1.728  10.798  0.4634 -0.2001 -0.3282
  235MPD1    C2 3618   1.545   1.822  10.768  0.6676 -0.6541  0.0215
  235MPD1    C3 3619   1.667   1.787  10.722 -1.0114  0.4747 -0.1403
  235MPD1    C4 3620   1.695   1.650  10.700  0.0726  0.8019  0.3624
  235MPD1    C5 3621   1.599   1.557  10.731 -0.0333 -0.0112  0.5656
  235MPD1     H 3622   1.523   1.928  10.772  0.6017 -0.5551 -2.7904
  235MPD1    H1 3623   1.788   1.608  10.664 -0.0432 -1.3018  2.5335
  235MPD1    H2 3624   1.401   1.516  10.780 -0.9186  1.3635 -1.5120
  235MPD1    H3 3625   1.611   1.455  10.697  1.2144  0.1334  0.5521
  235MPD1     N 3626   1.759   1.888  10.691 -0.2447 -0.0998 -0.5400
  235MPD1    H5 3627   1.729   1.984  10.706 -1.3277 -0.4739 -0.3227
  235MPD1    N1 3628   1.315   1.772  10.807  1.1561 -0.0212 -0.5402
  235MPD1    H6 3629   1.263   1.703  10.861 -0.9274  0.3002 -2.1085
  235MPD1    H7 3630   1.301   1.866  10.843 -2.4163 -0.6746 -0.1910
  236MPD1     C 3631   0.386   3.818  10.574 -1.3089 -0.4943 -0.2631
  236MPD1    C1 3632   0.488   3.825  10.671 -0.4670  0.1097 -0.1902
  236MPD1    C2 3633   0.574   3.722  10.660 -0.4155 -0.4563  0.7725
  236MPD1    C3 3634   0.549   3.614  10.587  0.3364  0.6115 -0.0365
  236MPD1    C4 3635   0.433   3.599  10.515  0.5304 -0.7130 -0.1686
  236MPD1    C5 3636   0.355   3.712  10.500  0.8060  0.5493  0.0986
  236MPD1     H 3637   0.663   3.732  10.721 -0.4368  0.5955  0.6398
  236MPD1    H1 3638   0.398   3.518  10.451  0.0255  0.7765 -1.8029
  236MPD1    H2 3639   0.308   3.892  10.559 -0.7821  0.1458  0.1623
  236MPD1    H3 3640   0.279   3.716  10.422  1.4398  0.5375 -0.5248
  236MPD1     N 3641   0.641   3.501  10.589  0.5589  0.1522 -0.5518
  236MPD1    H5 3642   0.605   3.410  10.561  2.5501 -1.2565  1.3792
  236MPD1    N1 3643   0.511   3.933  10.761  0.2295 -0.0549 -0.4388
  236MPD1    H6 3644   0.585   3.898  10.821 -0.0146 -0.6927 -0.5165
  236MPD1    H7 3645   0.428   3.937  10.819  1.3864  0.8966  1.1638
  237MPD1     C 3646   1.336   0.560  15.395  0.0856 -0.0746 -0.8373
  237MPD1    C1 3647   1.303   0.651  15.301  0.1396  0.3820  0.4965
  237MPD1    C2 3648   1.176   0.715  15.310 -0.5429  0.0344  0.2333
  237MPD1    C3 3649   1.104   0.712  15.427  0.5377  0.4701  0.3567
  237MPD1    C4 3650   1.148   0.633  15.524 -0.1751  0.0210 -0.2158
  237MPD1    C5 3651   1.259   0.547  15.509  0.8091 -0.2287  0.5125
  237MPD1     H 3652   1.147   0.782  15.230 -0.0457  1.5915  1.3791
  237MPD1    H1 3653   1.092   0.626  15.617 -0.3346 -0.3878 -0.3412
  237MPD1    H2 3654   1.429   0.504  15.382  0.7426  0.9435 -0.5172
  237MPD1    H3 3655   1.291   0.482  15.590  1.2554  0.4453  0.8694
  237MPD1     N 3656   0.978   0.772  15.442 -0.3853  0.6206 -0.0275
  237MPD1    H5 3657   0.930   0.748  15.528  0.8531 -0.3571  0.3894
  237MPD1    N1 3658   1.392   0.674  15.196  0.4335 -0.9411  0.2175
  237MPD1    H6 3659   1.367   0.753  15.137 -1.2127 -1.8048 -0.2286
  237MPD1    H7 3660   1.485   0.696  15.231  1.1019 -1.5129 -1.2217
  238MPD1     C 3661   2.730   4.248  15.308 -0.1384 -0.0567  0.6551
  238MPD1    C1 3662   2.643   4.141  15.322 -0.2190 -0.2404  0.4831
  238MPD1    C2 3663   2.515   4.156  15.272 -0.3800  0.5556 -0.1187
  238MPD1    C3 3664   2.469   4.281  15.221  0.1427 -0.4169  0.1655
  238MPD1    C4 3665   2.557   4.386  15.218  0.0866  0.8314  0.2290
  238MPD1    C5 3666   2.689   4.365  15.254 -0.5493  0.5371  0.2044
  238MPD1     H 3667   2.451   4.071  15.256 -0.6324  0.4039  1.6594
  238MPD1    H1 3668   2.526   4.484  15.185 -1.2485 -0.3307 -1.9822
  238MPD1    H2 3669   2.836   4.238  15.329  0.3948  0.2396 -1.9472
  238MPD1    H3 3670   2.753   4.451  15.249 -0.2448  0.3345  0.5862
  238MPD1     N 3671   2.341   4.298  15.153  0.1492 -0.3206  0.1621
  238MPD1    H5 3672   2.331   4.383  15.099 -1.7873 -1.0132 -0.5724
  238MPD1    N1 3673   2.684   4.010  15.349  0.1767 -0.6591  1.0032
  238MPD1    H6 3674   2.605   3.965  15.396 -1.1473 -0.1498 -0.7465
  238MPD1    H7 3675   2.776   4.008  15.392 -0.1988  1.8513  1.9474
  239MPD1     C 3676   2.630   0.050  14.602 -0.5764 -0.8396 -0.4473
  239MPD1    C1 3677   2.636   0.150  14.699  0.7459 -0.4286  0.2326
  239MPD1    C2 3678   2.631   0.279  14.658 -0.2348 -0.0042  0.3871
  239MPD1    C3 3679   2.651   0.321  14.529 -0.0559  0.4286 -0.3922
  239MPD1    C4 3680   2.673   0.221  14.437  0.1305  0.3064  0.5171
  239MPD1    C5 3681   2.654   0.087  14.472  0.0693 -0.3657 -0.2590
  239MPD1     H 3682   2.633   0.350  14.739  0.7467  2.0863 -1.4684
  239MPD1    H1 3683   2.696   0.252  14.335 -0.9582  2.4450  0.9136
  239MPD1    H2 3684   2.624   4.677  14.623 -0.2250 -0.6494  0.5739
  239MPD1    H3 3685   2.660   0.011  14.395  1.1124 -0.0721 -0.4639
  239MPD1     N 3686   2.660   0.452  14.490  0.4550 -0.3196 -0.1275
  239MPD1    H5 3687   2.672   0.473  14.391  0.3695  0.7563  0.0893
  239MPD1    N1 3688   2.615   0.122  14.836  0.6587  0.2678  0.4212
  239MPD1    H6 3689   2.654   0.197  14.893  1.5322  0.4509 -0.4334
  239MPD1    H7 3690   2.653   0.032  14.867  0.3923 -1.0991 -3.2628
  240MPD1     C 3691   2.304   0.529  14.248 -0.4653  0.2610 -0.3049
  240MPD1    C1 3692   2.167   0.550  14.252 -0.7161  0.0104 -0.8710
  240MPD1    C2 3693   2.087   0.476  14.339 -0.0161  0.4553  0.5949
  240MPD1    C3 3694   2.141   0.393  14.439 -0.2877 -0.6373  0.1835
  240MPD1    C4 3695   2.276   0.368  14.434 -0.8427  0.0869 -1.3002
  240MPD1    C5 3696   2.354   0.431  14.336 -0.2067  0.2146  0.9549
  240MPD1     H 3697   1.981   0.497  14.339  0.1658  1.3479 -1.2865
  240MPD1    H1 3698   2.329   0.298  14.498  0.0511  0.9534 -1.0970
  240MPD1    H2 3699   2.367   0.590  14.184 -0.4867  0.9673  0.3538
  240MPD1    H3 3700   2.461   0.416  14.339  0.1033  2.1476 -0.1581
  240MPD1     N 3701   2.047   0.316  14.510  0.5552  0.1571 -0.0109
  240MPD1    H5 3702   1.952   0.343  14.487 -0.3325 -0.2176  3.2070
  240MPD1    N1 3703   2.105   0.618  14.151 -0.5380 -0.3539  0.1803
  240MPD1    H6 3704   2.156   0.701  14.120 -0.0834 -1.0787 -1.0510
  240MPD1    H7 3705   2.016   0.662  14.170 -0.5541 -1.2758  2.2517
  241MPD1     C 3706   2.197   4.575  15.384 -0.5038  0.4448 -0.1081
  241MPD1    C1 3707   2.078   4.519  15.335  0.0368 -0.2448  0.1010
  241MPD1    C2 3708   2.026   4.572  15.217  0.6936 -0.2751 -0.0724
  241MPD1    C3 3709   2.082   4.683  15.157  0.1249  0.7334 -0.0696
  241MPD1    C4 3710   2.195   0.003  15.208 -0.0788 -0.3610 -0.5137
  241MPD1    C5 3711   2.255   4.676  15.318 -0.1111 -0.2114 -0.4776
  241MPD1     H 3712   1.942   4.525  15.167 -0.0749  0.9481  0.0794
  241MPD1    H1 3713   2.258   0.075  15.157 -0.1650 -0.2488 -0.4633
  241MPD1    H2 3714   2.254   4.539  15.469 -0.1899  1.3703  0.0788
  241MPD1    H3 3715   2.343   4.727  15.357 -0.6010  1.7079 -1.8920
  241MPD1     N 3716   2.023   0.007  15.042  0.3844  0.0898  0.0489
  241MPD1    H5 3717   2.081   0.077  14.997  3.6265 -1.1731  2.2401
  241MPD1    N1 3718   2.012   4.404  15.398  0.0667 -0.2405  0.2083
  241MPD1    H6 3719   2.033   4.389  15.496  1.0828  1.0906  0.1992
  241MPD1    H7 3720   1.910   4.398  15.395 -0.0631  0.8822  2.1602
  242MPD1     C 3721   1.852   2.784  16.256 -0.5428 -0.7355 -0.3659
  242MPD1    C1 3722   1.750   2.793  16.166 -0.3765  0.9062  1.4911
  242MPD1    C2 3723   1.770   2.850  16.042  0.2693 -0.7362  0.5922
  242MPD1    C3 3724   1.892   2.886  16.003  0.2082 -0.6415  0.1849
  242MPD1    C4 3725   2.001   2.868  16.089  0.1641 -0.0720 -0.6934
  242MPD1    C5 3726   1.977   2.819  16.218  0.3027 -0.1581  0.1087
  242MPD1     H 3727   1.683   2.872  15.981  0.4050 -2.4579 -0.2119
  242MPD1    H1 3728   2.102   2.892  16.059  1.0095 -0.5656  1.7446
  242MPD1    H2 3729   1.829   2.747  16.355  2.0645  0.8147  0.8153
  242MPD1    H3 3730   2.062   2.805  16.283 -0.4333 -2.7954  0.4822
  242MPD1     N 3731   1.928   2.943  15.880  0.6800  0.2137  0.5743
  242MPD1    H5 3732   2.025   2.970  15.869  0.4937  0.4316 -0.5504
  242MPD1    N1 3733   1.617   2.764  16.211  0.1519 -0.4210  0.0056
  242MPD1    H6 3734   1.570   2.718  16.133 -3.3107  0.0900  1.8409
  242MPD1    H7 3735   1.612   2.691  16.281 -0.3194 -1.6784 -1.3343
  243MPD1     C 3736   3.538   2.995   0.576 -0.0304 -0.2984 -0.0732
  243MPD1    C1 3737   3.560   2.925   0.692 -0.5735 -0.5330 -0.0875
  243MPD1    C2 3738   3.641   2.818   0.680 -0.2051 -0.1773 -0.0236
  243MPD1    C3 3739   3.691   2.766   0.561 -1.0653  0.4555  0.5364
  243MPD1    C4 3740   3.651   2.832   0.448 -0.0466 -0.0875  0.2956
  243MPD1    C5 3741   3.590   2.957   0.459  0.5316  0.4422  0.8755
  243MPD1     H 3742   3.656   2.766   0.773  1.5323 -0.3677 -0.4183
  243MPD1    H1 3743   3.668   2.789   0.350 -0.6428  1.5423 -0.5290
  243MPD1    H2 3744   3.487   3.091   0.574  1.7887  0.6856  0.6961
  243MPD1    H3 3745   3.568   3.013   0.369  0.6287  0.7707  1.0597
  243MPD1     N 3746   3.769   2.648   0.568  0.0496 -0.0573 -0.4935
  243MPD1    H5 3747   3.807   2.613   0.655  0.3220 -1.8187 -1.3239
  243MPD1    N1 3748   3.521   2.980   0.820  0.0039 -0.2517  0.0755
  243MPD1    H6 3749   3.538   2.913   0.894 -3.5032  0.7704  1.7751
  243MPD1    H7 3750   3.426   3.017   0.821 -0.2916 -0.9282 -1.5508
  244MPD1     C 3751   4.293   2.109   1.160  0.7315 -0.2079  0.0132
  244MPD1    C1 3752   4.376   2.174   1.080  0.7975 -0.2312  0.0946
  244MPD1    C2 3753   4.331   2.236   0.963 -0.3786 -0.1229  0.3845
  244MPD1    C3 3754   4.201   2.210   0.919  0.2725  0.4722  0.1521
  244MPD1    C4 3755   4.118   2.134   0.995  0.0076 -0.3018  0.2236
  244MPD1    C5 3756   4.160   2.090   1.114 -0.3640  0.5013 -0.2477
  244MPD1     H 3757   4.392   2.304   0.904  0.2371 -2.3113 -1.4989
  244MPD1    H1 3758   4.019   2.107   0.962 -0.6549  1.2026  1.0050
  244MPD1    H2 3759   4.323   2.077   1.259 -0.1963 -1.0329  0.0298
  244MPD1    H3 3760   4.083   2.040   1.172 -0.5801 -1.5701 -2.3198
  244MPD1     N 3761   4.161   2.261   0.799 -0.4979  0.6646 -0.3839
  244MPD1    H5 3762   4.225   2.304   0.733  0.3394 -0.0901 -0.0802
  244MPD1    N1 3763   4.497   2.220   1.137  0.1717 -0.4533  0.4504
  244MPD1    H6 3764   4.560   2.250   1.063 -0.5992 -1.4790 -0.6263
  244MPD1    H7 3765   4.549   2.151   1.191 -0.8220 -1.0970  0.5748
  245MPD1     C 3766   0.604   1.951  14.037  0.0004  0.1832  0.2698
  245MPD1    C1 3767   0.687   2.054  14.072 -0.2176  0.2601 -0.0429
  245MPD1    C2 3768   0.675   2.172  14.004  0.1526 -0.1774  0.3876
  245MPD1    C3 3769   0.602   2.178  13.890  0.1443 -0.9813 -0.1104
  245MPD1    C4 3770   0.512   2.082  13.861  0.2715  0.1226 -0.4748
  245MPD1    C5 3771   0.514   1.971  13.935 -0.4615  0.1232 -0.2979
  245MPD1     H 3772   0.752   2.246  14.024 -0.0929 -0.2157  1.4872
  245MPD1    H1 3773   0.449   2.083  13.773 -1.2574 -0.3488  0.6137
  245MPD1    H2 3774   0.603   1.856  14.089 -2.8087  1.0038  1.7518
  245MPD1    H3 3775   0.444   1.896  13.901  1.6460 -1.3078 -1.4742
  245MPD1     N 3776   0.609   2.297  13.809 -0.5645  0.1870 -0.2540
  245MPD1    H5 3777   0.660   2.373  13.853 -0.0359  0.0271 -0.5863
  245MPD1    N1 3778   0.748   2.039  14.198  0.0051  0.7311  0.2319
  245MPD1    H6 3779   0.773   1.942  14.215  0.0355  0.5293 -0.9524
  245MPD1    H7 3780   0.832   2.093  14.218 -0.1811  1.8928 -2.1360
  246MPD1     C 3781   0.686   1.511  11.255  0.2001  1.0724  0.1538
  246MPD1    C1 3782   0.778   1.432  11.190  0.2994  0.3399  0.2167
  246MPD1    C2 3783   0.853   1.494  11.089  0.0527  0.7807  0.5376
  246MPD1    C3 3784   0.836   1.627  11.051 -0.7104 -0.0653  1.0381
  246MPD1    C4 3785   0.750   1.705  11.126  0.7785  0.2645  0.2306
  246MPD1    C5 3786   0.671   1.647  11.229 -0.0760  0.3122 -0.6768
  246MPD1     H 3787   0.923   1.422  11.047 -0.7196 -0.4495  1.3820
  246MPD1    H1 3788   0.722   1.802  11.085 -0.1393  0.4786  1.3572
  246MPD1    H2 3789   0.612   1.464  11.318  0.6904 -2.2797 -1.7976
  246MPD1    H3 3790   0.587   1.697  11.275  1.3999  1.3487  0.8888
  246MPD1     N 3791   0.926   1.671  10.955  0.0009  0.6628  0.1608
  246MPD1    H5 3792   1.001   1.606  10.936 -1.8772 -0.9653 -1.6298
  246MPD1    N1 3793   0.772   1.292  11.216  0.4016 -1.5372  0.0376
  246MPD1    H6 3794   0.866   1.252  11.220  0.5529 -1.2140 -0.2138
  246MPD1    H7 3795   0.732   1.292  11.310 -0.7986 -1.0753 -0.4818
  247MPD1     C 3796   0.601   2.982  16.786 -0.2233  0.6810 -0.6434
  247MPD1    C1 3797   0.501   2.922  16.855  0.6300  0.5514  0.1367
  247MPD1    C2 3798   0.422   2.826  16.786  0.1257  0.0361  0.2895
  247MPD1    C3 3799   0.453   2.777  16.659 -0.1986 -0.3192  1.1478
  247MPD1    C4 3800   0.566   2.841  16.602  0.0174 -0.5860  0.0058
  247MPD1    C5 3801   0.643   2.930  16.671 -0.2888 -1.1876 -0.8022
  247MPD1     H 3802   0.342   2.796  16.853  0.3970 -1.0371  0.1432
  247MPD1    H1 3803   0.605   2.813  16.505  0.8037 -1.4704  0.5866
  247MPD1    H2 3804   0.670   3.053  16.831  0.7271 -0.1620 -0.7495
  247MPD1    H3 3805   0.736   2.967  16.629 -0.3659 -1.2119 -0.9964
  247MPD1     N 3806   0.379   2.677  16.589  0.0069 -0.8076 -0.1926
  247MPD1    H5 3807   0.412   2.647  16.498  1.3043  0.1934 -0.0553
  247MPD1    N1 3808   0.456   2.975  16.977  0.1016 -0.1549 -0.4334
  247MPD1    H6 3809   0.535   3.016  17.026 -0.7402  1.8817 -0.7760
  247MPD1    H7 3810   0.409   2.906  17.034 -0.6741 -1.5665 -2.7593
  248MPD1     C 3811   0.612   3.370   0.796  0.3109 -0.4828 -0.0539
  248MPD1    C1 3812   0.651   3.236   0.799  0.0918  0.2473  0.4374
  248MPD1    C2 3813   0.727   3.184   0.696 -0.3077 -0.4908 -0.0183
  248MPD1    C3 3814   0.746   3.261   0.582 -0.0386 -0.4355 -0.5870
  248MPD1    C4 3815   0.718   3.397   0.584 -0.1437  0.4019 -0.2633
  248MPD1    C5 3816   0.655   3.451   0.695  0.2359  0.0741  0.1778
  248MPD1     H 3817   0.752   3.079   0.698  0.0233 -0.3692  1.7817
  248MPD1    H1 3818   0.742   3.466   0.505  1.2261  0.7953  0.4901
  248MPD1    H2 3819   0.562   3.407   0.885  1.8685 -0.7528  0.9372
  248MPD1    H3 3820   0.639   3.558   0.683  2.9644  0.3409 -1.0632
  248MPD1     N 3821   0.815   3.208   0.473  0.8632 -0.0208 -0.6234
  248MPD1    H5 3822   0.827   3.108   0.459  0.2600  0.0987 -2.0493
  248MPD1    N1 3823   0.648   3.167   0.919 -0.3497 -0.4981 -0.1128
  248MPD1    H6 3824   0.569   3.205   0.971 -1.1547 -2.2074 -0.1152
  248MPD1    H7 3825   0.659   3.067   0.909 -0.6747 -0.6929  1.4848
  249MPD1     C 3826   3.261   1.875  10.608 -0.0033 -0.6508  0.2322
  249MPD1    C1 3827   3.220   1.828  10.734 -0.9221  0.2603  0.4446
  249MPD1    C2 3828   3.078   1.812  10.750  0.3045  0.1392 -0.1545
  249MPD1    C3 3829   2.996   1.811  10.640 -0.5271 -0.4638  0.8711
  249MPD1    C4 3830   3.040   1.860  10.522 -0.0504 -0.1415 -0.3514
  249MPD1    C5 3831   3.173   1.892  10.502 -0.3982  0.1100 -0.2179
  249MPD1     H 3832   3.043   1.777  10.847  2.2212 -0.7722  0.2164
  249MPD1    H1 3833   2.980   1.860  10.432 -0.6991 -0.3880  0.0726
  249MPD1    H2 3834   3.361   1.902  10.577 -0.4381  1.0978  0.3131
  249MPD1    H3 3835   3.208   1.918  10.402 -3.0602  1.8775 -0.6707
  249MPD1     N 3836   2.865   1.761  10.649 -0.1640 -0.3628 -0.0714
  249MPD1    H5 3837   2.836   1.735  10.743  2.6312  1.6745  1.3417
  249MPD1    N1 3838   3.306   1.834  10.841  0.0295  0.1787  0.0305
  249MPD1    H6 3839   3.400   1.819  10.805 -0.1034 -0.7637  0.0585
  249MPD1    H7 3840   3.289   1.758  10.907  0.9032 -0.1826 -0.1634
  250MPD2     C 3841   3.904   0.639  13.610 -1.3652 -0.0331  0.7436
  250MPD2    C1 3842   3.830   0.729  13.540  0.3219  0.2139  0.4890
  250MPD2    C2 3843   3.737   0.686  13.445  0.7114 -0.5806 -0.9635
  250MPD2    C3 3844   3.728   0.550  13.414 -0.8843 -0.0229 -0.3078
  250MPD2    C4 3845   3.802   0.457  13.487 -0.5763 -0.0349 -0.3687
  250MPD2    C5 3846   3.887   0.503  13.589 -0.5896 -0.4367  0.5463
  250MPD2     H 3847   3.691   0.759  13.379  0.5134 -2.0189 -2.4209
  250MPD2    H1 3848   3.785   0.350  13.475  0.2831 -0.2741  0.5708
  250MPD2    H2 3849   3.971   0.673  13.688  0.5439 -0.6937 -0.6092
  250MPD2    H3 3850   3.939   0.433  13.653  1.1482 -0.3568 -0.7613
  250MPD2     N 3851   3.646   0.494  13.317  0.1379  0.5831 -0.2097
  250MPD2    H5 3852   3.663   0.396  13.296 -1.3191 -0.1720  2.1592
  250MPD2    N1 3853   3.856   0.871  13.551  0.8278 -0.4989  0.1834
  250MPD2    H7 3854   3.940   0.903  13.598  0.4532 -0.6157  0.9340
  251TMC3    C1 3855   3.825   1.097  13.573 -0.1219 -0.0818 -0.6703
  251TMC3    C2 3856   3.729   1.196  13.604 -0.2363  0.6462 -0.5031
  251TMC3    C3 3857   3.764   1.323  13.598 -0.3675  0.1991  0.1736
  251TMC3    C4 3858   3.948   1.136  13.525  0.0355 -0.3033 -0.2416
  251TMC3    C5 3859   3.966   1.271  13.499 -0.2270 -0.2346 -0.1808
  251TMC3    C6 3860   3.880   1.366  13.552  0.3328 -0.2501 -0.2032
  251TMC3     C 3861   3.761   0.970  13.534 -0.3657 -0.4757  0.7682
  251TMC3     O 3862   3.640   0.959  13.527  0.3486 -0.4300 -0.4234
  251TMC3     H 3863   3.626   1.168  13.622 -0.2834  1.6761  0.8492
  251TMC3    H1 3864   4.022   1.065  13.488  1.8976  2.1639 -1.2280
  251TMC3    H2 3865   3.905   1.471  13.548 -0.8726  0.1885  3.0691
  251TMC3    C7 3866   4.101   1.309  13.461  0.1216  0.5541 -0.4978
  251TMC3    C8 3867   3.668   1.422  13.643  0.0859 -0.2781  0.0621
  251TMC3    O1 3868   4.197   1.238  13.495  0.6864  0.3879 -0.0129
  251TMC3    O2 3869   3.578   1.381  13.717 -0.0615 -0.1066  0.5675
  252TMC3    C1 3870   3.833   3.161   9.964 -0.1338 -0.8982  0.2416
  252TMC3    C2 3871   3.961   3.138   9.926 -0.3017  0.5708  0.7252
  252TMC3    C3 3872   4.004   3.017   9.882 -0.3373 -0.3816 -0.4323
  252TMC3    C4 3873   3.742   3.054   9.961  0.1540 -0.5684 -0.4681
  252TMC3    C5 3874   3.792   2.936   9.909 -0.1988  0.4644 -0.5088
  252TMC3    C6 3875   3.918   2.910   9.875  0.2458 -0.0464 -0.5046
  252TMC3     C 3876   3.795   3.279  10.046  0.1582  0.5574  0.3998
  252TMC3     O 3877   3.887   3.348  10.094  0.2496 -0.2105  0.2265
  252TMC3     H 3878   4.034   3.218   9.935  0.9877 -0.3431 -1.6786
  252TMC3    H1 3879   3.643   3.069  10.001  0.9767  1.2010  0.9077
  252TMC3    H2 3880   3.954   2.812   9.846 -0.2690 -0.5030  0.3894
  252TMC3    C7 3881   3.698   2.841   9.864 -0.6822 -0.3125  0.2522
  252TMC3    C8 3882   4.142   3.003   9.859 -0.3532 -0.2588  0.3959
  252TMC3    O1 3883   3.602   2.828   9.940  0.2432  0.7687  0.8288
  252TMC3    O2 3884   4.208   3.107   9.841  0.3928 -0.0043 -0.3822
  253MPD2     C 3885   0.445   1.276  15.472  0.3319 -0.0319  0.9207
  253MPD2    C1 3886   0.310   1.263  15.487 -0.2110  0.6849  0.5325
  253MPD2    C2 3887   0.255   1.229  15.603  0.0702  0.4642 -0.0874
  253MPD2    C3 3888   0.333   1.219  15.721 -0.6248  0.4090  0.3974
  253MPD2    C4 3889   0.468   1.230  15.712 -0.3606  0.1968 -0.0504
  253MPD2    C5 3890   0.524   1.250  15.588 -0.7270  0.5727  0.0773
  253MPD2     H 3891   0.152   1.194  15.602 -0.3589  1.7665 -1.8398
  253MPD2    H1 3892   0.532   1.214  15.797  2.5649  0.5253 -2.1790
  253MPD2    H2 3893   0.498   1.288  15.378 -0.2264 -1.1400  0.4668
  253MPD2    H3 3894   0.632   1.253  15.580 -0.6151 -2.5641  0.4947
  253MPD2     N 3895   0.275   1.199  15.853 -0.4873 -0.2617 -0.3400
  253MPD2    H5 3896   0.335   1.202  15.935  0.3517 -0.6772 -0.9407
  253MPD2    N1 3897   0.211   1.273  15.387 -0.0090 -0.1487  0.4471
  253MPD2    H7 3898   0.116   1.249  15.412 -0.9566  2.2884 -0.8450
  254TMC3    C1 3899   0.109   1.190  16.021 -0.7180  0.2643  0.3697
  254TMC3    C2 3900   4.713   1.203  16.054  0.3401  0.2872  0.0778
  254TMC3    C3 3901   4.671   1.148  16.172 -1.3934  0.3745 -0.0570
  254TMC3    C4 3902   0.197   1.119  16.107 -0.3125 -0.5487 -0.9741
  254TMC3    C5 3903   0.147   1.055  16.216 -0.2898  0.7561 -0.1868
  254TMC3    C6 3904   0.020   1.074  16.256  0.2331  0.1495  1.2175
  254TMC3     C 3905   0.138   1.204  15.877 -0.6074  0.4578  0.3608
  254TMC3     O 3906   0.044   1.228  15.806  0.0536  0.5162  0.3067
  254TMC3     H 3907   4.640   1.241  15.984  2.5562  1.9946 -1.3141
  254TMC3    H1 3908   0.293   1.079  16.074  0.1473  0.1369 -0.4661
  254TMC3    H2 3909   4.720   1.017  16.341  2.3066  1.5723  2.9690
  254TMC3    C7 3910   0.241   1.027  16.318 -0.4683 -0.1430 -0.6171
  254TMC3    C8 3911   4.541   1.174  16.232  0.2042  0.0093  0.3321
  254TMC3    O1 3912   0.199   0.967  16.412 -0.5377 -0.7877 -0.5988
  254TMC3    O2 3913   4.501   1.076  16.298  0.2599  0.0981  0.3697
  255MPD2     C 3914   2.442   3.951  10.927  0.0199 -0.0087  0.1514
  255MPD2    C1 3915   2.505   4.044  10.844 -0.7093 -0.1747  0.1032
  255MPD2    C2 3916   2.599   3.998  10.750  0.9516 -0.1818 -0.5620
  255MPD2    C3 3917   2.599   3.861  10.723 -0.6284  0.2966  0.5118
  255MPD2    C4 3918   2.524   3.773  10.803  0.2215 -0.5399  0.4996
  255MPD2    C5 3919   2.453   3.814  10.906 -0.2174 -0.3378  0.6656
  255MPD2     H 3920   2.649   4.071  10.688 -0.0447 -0.3081 -1.5167
  255MPD2    H1 3921   2.525   3.667  10.782 -0.3835 -0.4181 -0.1592
  255MPD2    H2 3922   2.399   3.979  11.023 -0.4687  0.5732 -0.2388
  255MPD2    H3 3923   2.400   3.742  10.967  0.8433 -1.6551  0.0496
  255MPD2     N 3924   2.693   3.824  10.621  0.5127 -0.4424  0.3748
  255MPD2    H5 3925   2.741   3.892  10.563 -1.1033  1.7617  1.5990
  255MPD2    N1 3926   2.490   4.179  10.858  0.0229 -0.5508 -0.0094
  255MPD2    H7 3927   2.534   4.244  10.794  0.2565 -1.4516 -0.7671
  256TMC3    C1 3928   2.380   4.382  10.897 -0.6774  0.0774 -1.2856
  256TMC3    C2 3929   2.504   4.447  10.891 -0.0325  0.5191  0.2840
  256TMC3    C3 3930   2.515   4.546  10.804 -0.7401 -0.1426  0.1493
  256TMC3    C4 3931   2.273   4.424  10.828 -0.3751 -0.0835  0.0758
  256TMC3    C5 3932   2.291   4.534  10.750 -0.4782 -0.1506 -0.4164
  256TMC3    C6 3933   2.416   4.604  10.734  0.6340 -0.4092  0.0869
  256TMC3     C 3934   2.388   4.238  10.929  0.1133 -0.6290  0.5264
  256TMC3     O 3935   2.292   4.192  10.993 -0.3295  0.5672  0.3514
  256TMC3     H 3936   2.588   4.394  10.934 -1.0820 -2.2607 -1.0364
  256TMC3    H1 3937   2.182   4.365  10.823 -1.1424  1.0884  0.1234
  256TMC3    H2 3938   2.442   4.677  10.659  2.5893  0.8169  1.9513
  256TMC3    C7 3939   2.218   4.524  10.623 -0.3988  0.2480 -0.7000
  256TMC3    C8 3940   2.651   4.575  10.772  0.1444 -0.3196  0.3956
  256TMC3    O1 3941   2.196   4.409  10.578  0.2666 -0.7460 -0.1927
  256TMC3    O2 3942   2.729   4.486  10.797  0.0463 -0.4298  0.5907
  257MPD2     C 3943   2.464   0.890  13.756 -0.2823  0.5928  0.0926
  257MPD2    C1 3944   2.480   0.840  13.626  0.5224  0.2220 -0.4465
  257MPD2    C2 3945   2.450   0.705  13.610  0.3111 -0.2279 -0.0061
  257MPD2    C3 3946   2.421   0.620  13.710 -0.6163  0.0780  0.2215
  257MPD2    C4 3947   2.400   0.676  13.834 -0.3435 -0.3077 -0.3296
  257MPD2    C5 3948   2.413   0.810  13.855  0.3732 -0.1220 -0.6167
  257MPD2     H 3949   2.445   0.667  13.509 -0.4280  2.1453 -0.8795
  257MPD2    H1 3950   2.366   0.612  13.914 -1.3817 -1.4405 -1.6763
  257MPD2    H2 3951   2.489   0.992  13.783 -1.7681  1.0625 -0.3327
  257MPD2    H3 3952   2.401   0.863  13.949  2.3200 -1.0051  0.1465
  257MPD2     N 3953   2.391   0.491  13.675 -0.2922 -0.1365 -0.3026
  257MPD2    H5 3954   2.416   0.468  13.579 -1.5313  1.0029 -0.8961
  257MPD2    N1 3955   2.500   0.934  13.523  0.0027 -0.8667 -0.3065
  257MPD2    H7 3956   2.480   0.896  13.431  1.7759 -0.0520 -1.0205
  258TMC3    C1 3957   2.360   0.256  13.696 -0.4410 -0.4306  0.0531
  258TMC3    C2 3958   2.342   0.232  13.563 -0.1170 -0.0413 -0.2534
  258TMC3    C3 3959   2.348   0.105  13.517  0.2337 -0.2953  0.1557
  258TMC3    C4 3960   2.394   0.156  13.788  0.1650 -0.0255 -0.2706
  258TMC3    C5 3961   2.417   0.032  13.737  0.3674  0.0226  0.2690
  258TMC3    C6 3962   2.384   0.003  13.599 -0.2876 -0.3650 -0.9377
  258TMC3     C 3963   2.346   0.387  13.755 -0.3733 -0.5237  0.2354
  258TMC3     O 3964   2.310   0.382  13.874  0.1283 -0.1796 -0.4499
  258TMC3     H 3965   2.318   0.309  13.491  1.4203 -0.1287 -0.8539
  258TMC3    H1 3966   2.407   0.190  13.890 -0.6768  1.0073 -0.5042
  258TMC3    H2 3967   2.386   4.633  13.565  2.9988 -0.7338  0.3534
  258TMC3    C7 3968   2.505   4.673  13.807  0.5784 -0.1430 -0.5762
  258TMC3    C8 3969   2.313   0.074  13.379 -0.7456 -0.1600 -0.1244
  258TMC3    O1 3970   2.548   4.579  13.742 -0.1801  0.2168  0.1876
  258TMC3    O2 3971   2.291   4.695  13.346 -0.1487 -0.5415  0.3114
  259MPD2     C 3972   2.405   2.260   1.345  0.7955  0.1802 -0.8145
  259MPD2    C1 3973   2.321   2.327   1.269 -0.2541 -0.3804 -0.0882
  259MPD2    C2 3974   2.256   2.252   1.169 -0.4311 -0.2359 -0.1547
  259MPD2    C3 3975   2.267   2.118   1.159 -0.3107  0.0641  0.3303
  259MPD2    C4 3976   2.343   2.048   1.247  0.3021 -0.4469  0.1907
  259MPD2    C5 3977   2.410   2.116   1.351  0.8306  0.2101 -0.1018
  259MPD2     H 3978   2.187   2.298   1.100 -0.6247 -1.5640 -0.8499
  259MPD2    H1 3979   2.369   1.944   1.230 -0.9138 -1.2391  3.0367
  259MPD2    H2 3980   2.465   2.307   1.423  1.7902 -0.2538 -1.3155
  259MPD2    H3 3981   2.482   2.061   1.411 -1.7597 -1.3315  1.5633
  259MPD2     N 3982   2.201   2.058   1.051 -0.0966 -0.3487 -0.0766
  259MPD2    H5 3983   2.155   2.117   0.983  0.3170 -0.7802 -0.7332
  259MPD2    N1 3984   2.304   2.470   1.292 -0.0179  0.1840  0.1600
  259MPD2    H7 3985   2.362   2.514   1.363 -1.8941  1.0323  1.1549
  260TMC3    C1 3986   2.102   1.908   0.907  0.2935  0.4714  0.0855
  260TMC3    C2 3987   2.024   1.796   0.904 -0.4406  0.5197  0.3185
  260TMC3    C3 3988   1.990   1.754   0.777 -0.3127  0.0726 -0.2812
  260TMC3    C4 3989   2.135   1.983   0.794  0.3616  0.0249  0.0813
  260TMC3    C5 3990   2.086   1.941   0.673  0.8886 -1.2147 -0.5496
  260TMC3    C6 3991   2.007   1.832   0.666 -0.7816 -0.0615  0.3498
  260TMC3     C 3992   2.171   1.925   1.032 -0.4785  0.1946 -0.7590
  260TMC3     O 3993   2.156   1.835   1.113  0.5467  0.3852 -0.3102
  260TMC3     H 3994   1.988   1.747   0.994  0.1826 -1.5942 -0.5925
  260TMC3    H1 3995   2.215   2.055   0.808 -0.2896  1.1400 -2.0683
  260TMC3    H2 3996   1.945   1.804   0.582  1.5348  0.3235 -1.4956
  260TMC3    C7 3997   2.148   1.998   0.554  0.1964 -0.2518 -0.0285
  260TMC3    C8 3998   1.949   1.619   0.769  0.9474 -0.1526 -1.0760
  260TMC3    O1 3999   2.261   2.044   0.562  0.6495 -0.3549  0.0955
  260TMC3    O2 4000   1.927   1.558   0.872  0.4576  0.1675  0.1465
  261MPD2     C 4001   2.921   0.648  12.888 -0.2661 -0.6217 -0.0067
  261MPD2    C1 4002   3.039   0.708  12.878 -0.6786  0.3182 -1.0570
  261MPD2    C2 4003   3.041   0.828  12.809  0.1678 -0.2910 -0.7643
  261MPD2    C3 4004   2.926   0.891  12.771  0.3613  0.1991 -0.3760
  261MPD2    C4 4005   2.802   0.831  12.794 -0.8164  0.1162 -0.1385
  261MPD2    C5 4006   2.802   0.709  12.858 -0.8455 -0.3006 -0.5280
  261MPD2     H 4007   3.140   0.873  12.810 -0.0262  0.1299 -0.7216
  261MPD2    H1 4008   2.708   0.878  12.767 -1.7141 -1.3262  0.4756
  261MPD2    H2 4009   2.910   0.547  12.926  1.1956 -0.3051  1.2108
  261MPD2    H3 4010   2.707   0.659  12.873 -0.4353  0.1063  3.5393
  261MPD2     N 4011   2.942   1.015  12.702 -0.5433  0.8276 -0.2230
  261MPD2    H5 4012   3.036   1.048  12.721  0.9332 -0.8796 -4.5511
  261MPD2    N1 4013   3.157   0.658  12.930 -0.7211  0.6069 -0.5228
  261MPD2    H7 4014   3.234   0.723  12.927  0.4718 -0.7671  0.3715
  262TMC3    C1 4015   2.903   1.243  12.641 -0.1751 -0.7065 -0.0666
  262TMC3    C2 4016   2.808   1.341  12.617 -0.6064  0.2277 -0.3239
  262TMC3    C3 4017   2.846   1.449  12.531 -0.1479 -0.0323 -0.3707
  262TMC3    C4 4018   3.021   1.242  12.578 -0.0470 -0.2587 -0.7472
  262TMC3    C5 4019   3.055   1.345  12.498 -0.1278  0.5213 -0.2874
  262TMC3    C6 4020   2.977   1.460  12.485 -0.4461 -1.0044 -1.2617
  262TMC3     C 4021   2.848   1.112  12.672 -0.3425 -0.3372 -0.2326
  262TMC3     O 4022   2.728   1.105  12.670  0.6751  0.4933  0.1944
  262TMC3     H 4023   2.715   1.345  12.672  1.0179 -0.7327  2.4754
  262TMC3    H1 4024   3.080   1.152  12.589 -0.1043 -0.1228  0.6706
  262TMC3    H2 4025   3.007   1.554  12.440 -0.5085 -1.4822 -2.2886
  262TMC3    C7 4026   3.085   1.284  12.366  0.0706  0.6522 -0.0905
  262TMC3    C8 4027   2.760   1.553  12.499 -0.0843  0.9173 -0.5296
  262TMC3    O1 4028   3.040   1.174  12.344  0.9775  0.1980  0.0851
  262TMC3    O2 4029   2.804   1.642  12.428 -0.3812  0.0173  0.0075
  263MPD2     C 4030   4.008   0.139  11.646  0.1732  0.3160 -0.0784
  263MPD2    C1 4031   4.137   0.170  11.601  0.3291  0.3055 -0.0160
  263MPD2    C2 4032   4.158   0.218  11.472  0.4529  0.8270  0.4497
  263MPD2    C3 4033   4.046   0.236  11.392 -0.1648 -0.1338  0.4651
  263MPD2    C4 4034   3.915   0.214  11.436 -0.4047 -0.5830 -0.2245
  263MPD2    C5 4035   3.905   0.156  11.558 -0.3012  0.2434 -0.5248
  263MPD2     H 4036   4.260   0.231  11.438  0.1588  0.4669 -0.5780
  263MPD2    H1 4037   3.829   0.249  11.381  0.8277  1.2924 -0.9495
  263MPD2    H2 4038   3.984   0.101  11.745 -1.0459  0.4575 -0.3175
  263MPD2    H3 4039   3.803   0.138  11.593 -0.7668  1.3421 -1.3179
  263MPD2     N 4040   4.063   0.283  11.258  0.1915  0.8046  0.5394
  263MPD2    H5 4041   4.157   0.315  11.235 -0.1572  0.2327 -1.6550
  263MPD2    N1 4042   4.242   0.145  11.701  0.1094 -0.4145 -0.3388
  263MPD2    H7 4043   4.209   0.103  11.787  0.3928 -0.9922 -0.5143
  264TMC3    C1 4044   4.001   0.373  11.059  0.8422 -0.5037  0.2520
  264TMC3    C2 4045   4.058   0.489  11.096  0.9748 -1.3371 -0.7313
  264TMC3    C3 4046   4.091   0.576  11.001 -0.6606 -0.4795  0.1513
  264TMC3    C4 4047   3.992   0.334  10.926 -0.0185 -0.8829  0.2062
  264TMC3    C5 4048   4.035   0.427  10.835 -0.6363 -0.0494 -0.1833
  264TMC3    C6 4049   4.087   0.549  10.866  0.4830  0.0840  0.2684
  264TMC3     C 4050   3.972   0.271  11.152 -0.1025  0.0375 -0.2626
  264TMC3     O 4051   3.883   0.192  11.141 -0.2193  0.4915 -0.3087
  264TMC3     H 4052   4.079   0.516  11.199 -1.0132 -1.0826 -0.3927
  264TMC3    H1 4053   3.956   0.234  10.903 -0.0785 -0.6669 -0.6462
  264TMC3    H2 4054   4.088   0.626  10.790  1.9410 -1.3667 -1.1813
  264TMC3    C7 4055   4.041   0.378  10.698 -0.0056 -0.1645 -0.7738
  264TMC3    C8 4056   4.101   0.719  11.035  0.5049  0.1619  0.1862
  264TMC3    O1 4057   4.104   0.445  10.617 -0.7184 -0.0599 -0.4206
  264TMC3    O2 4058   4.161   0.780  10.949 -0.2942  0.1946  0.1447
  265MPD2     C 4059   1.588   0.569  15.655 -0.1633  0.0712  0.2944
  265MPD2    C1 4060   1.563   0.682  15.580  0.5890 -0.3555 -0.1169
  265MPD2    C2 4061   1.607   0.688  15.448 -0.4832  0.1917 -0.0621
  265MPD2    C3 4062   1.668   0.580  15.385  0.5737  0.8269  0.1962
  265MPD2    C4 4063   1.688   0.466  15.465  0.7073  0.0807  0.7150
  265MPD2    C5 4064   1.660   0.468  15.603  0.3477  0.5084 -0.4738
  265MPD2     H 4065   1.584   0.783  15.402 -1.0698  0.1404  0.1302
  265MPD2    H1 4066   1.738   0.379  15.425  1.9441 -1.1108  4.8371
  265MPD2    H2 4067   1.557   0.556  15.758 -1.1011  0.2863  0.0399
  265MPD2    H3 4068   1.681   0.381  15.664  0.6138  0.5611 -0.4898
  265MPD2     N 4069   1.697   0.565  15.252  0.2154 -0.4305  0.1638
  265MPD2    H5 4070   1.724   0.478  15.206 -2.9399 -1.2432 -0.2296
  265MPD2    N1 4071   1.476   0.787  15.624  0.0751 -0.8149  0.3731
  265MPD2    H7 4072   1.451   0.858  15.557  3.3007  1.0407  1.0979
  266TMC3    C1 4073   1.311   0.895  15.755  0.3106  0.2429 -0.3010
  266TMC3    C2 4074   1.277   0.940  15.881  0.0469 -0.2657  0.2517
  266TMC3    C3 4075   1.168   1.025  15.897  0.6557  0.3991  0.4807
  266TMC3    C4 4076   1.251   0.952  15.645  0.1153 -0.2890  0.0953
  266TMC3    C5 4077   1.142   1.030  15.670  0.1095 -0.6933  0.2527
  266TMC3    C6 4078   1.093   1.064  15.788  0.6119 -0.3159  0.4431
  266TMC3     C 4079   1.423   0.799  15.752 -0.1074  0.1031 -0.4928
  266TMC3     O 4080   1.442   0.727  15.853  0.4127  0.3578 -0.2192
  266TMC3     H 4081   1.332   0.908  15.969  0.4378 -0.1310  0.0566
  266TMC3    H1 4082   1.272   0.928  15.542 -0.8099  0.7395 -0.3283
  266TMC3    H2 4083   1.017   1.140  15.807  0.0657 -1.3001  2.1412
  266TMC3    C7 4084   1.096   1.108  15.550 -0.2542  0.7098 -0.0497
  266TMC3    C8 4085   1.122   1.061  16.033 -0.3710 -0.1257 -0.3855
  266TMC3    O1 4086   1.124   1.069  15.437 -0.8456  0.3465  0.1774
  266TMC3    O2 4087   1.004   1.045  16.053  0.2703 -0.3744  0.4515
  267MPD2     C 4088   3.596   3.698   0.613  0.3560  0.2404 -0.0780
  267MPD2    C1 4089   3.598   3.589   0.524 -0.3432 -0.1494 -0.2108
  267MPD2    C2 4090   3.482   3.565   0.443 -0.4119  0.4633  0.0230
  267MPD2    C3 4091   3.373   3.651   0.447  0.2474 -0.8125 -0.4725
  267MPD2    C4 4092   3.374   3.751   0.538 -0.6237  0.0090  0.3736
  267MPD2    C5 4093   3.483   3.775   0.620  0.4752  0.8489  0.0178
  267MPD2     H 4094   3.485   3.474   0.384 -1.0971 -0.7658  1.8734
  267MPD2    H1 4095   3.299   3.829   0.543 -0.4504  0.3956 -2.9113
  267MPD2    H2 4096   3.680   3.713   0.680  1.2544  0.3816 -1.2473
  267MPD2    H3 4097   3.483   3.866   0.678 -1.9748  0.8589  0.0099
  267MPD2     N 4098   3.261   3.641   0.364 -0.1687  0.3482  0.0107
  267MPD2    H5 4099   3.185   3.706   0.379  0.3402  1.1194 -0.7064
  267MPD2    N1 4100   3.700   3.496   0.537  0.0964 -0.4982 -0.3723
  267MPD2    H7 4101   3.738   3.486   0.631  0.1134 -3.3179 -0.6719
  268TMC3    C1 4102   3.812   3.291   0.482 -0.6080 -0.2000 -0.2914
  268TMC3    C2 4103   3.842   3.198   0.382 -0.0682  0.3652 -0.0433
  268TMC3    C3 4104   3.896   3.077   0.425 -0.5869 -0.0744  0.0918
  268TMC3    C4 4105   3.841   3.264   0.613  0.3461 -0.0079  0.1351
  268TMC3    C5 4106   3.916   3.155   0.640  0.3494 -0.0105  0.3235
  268TMC3    C6 4107   3.936   3.056   0.550  0.0730  0.9090  0.4568
  268TMC3     C 4108   3.723   3.399   0.435  0.5251 -0.2130  0.3145
  268TMC3     O 4109   3.696   3.410   0.316  0.1614 -0.5156 -0.3575
  268TMC3     H 4110   3.823   3.213   0.276  0.8745 -1.1826 -0.4316
  268TMC3    H1 4111   3.796   3.321   0.694  0.1409 -0.7826  0.5630
  268TMC3    H2 4112   3.983   2.962   0.575 -2.7214 -0.8254 -0.8434
  268TMC3    C7 4113   3.973   3.137   0.770 -0.2527 -0.7647 -0.2458
  268TMC3    C8 4114   3.952   2.983   0.329 -0.1767 -0.0419 -0.2429
  268TMC3    O1 4115   4.006   3.023   0.795  0.5814  0.0210 -0.8113
  268TMC3    O2 4116   4.043   2.910   0.367  0.4678  0.5496 -0.5288
  269MPD2     C 4117   4.264   1.551  15.814  0.0220 -0.1047 -0.3755
  269MPD2    C1 4118   4.138   1.562  15.861  0.2011 -0.3307 -0.3406
  269MPD2    C2 4119   4.067   1.680  15.846 -0.1805  0.4814 -0.0902
  269MPD2    C3 4120   4.118   1.781  15.768  0.1205 -0.0517 -0.6101
  269MPD2    C4 4121   4.242   1.766  15.713 -0.5123 -0.6226 -0.3131
  269MPD2    C5 4122   4.308   1.643  15.725  0.1099  0.1218  0.5881
  269MPD2     H 4123   3.964   1.686  15.879 -1.0863  0.7540 -3.0158
  269MPD2    H1 4124   4.294   1.843  15.657 -0.1082 -2.0079 -1.8381
  269MPD2    H2 4125   4.329   1.464  15.819 -1.7287 -1.3706  0.1750
  269MPD2    H3 4126   4.407   1.623  15.685 -0.3211 -0.3265 -0.2551
  269MPD2     N 4127   4.034   1.897  15.760  0.3734  0.5049 -0.2902
  269MPD2    H5 4128   3.951   1.897  15.819 -0.2180  3.4127 -1.1345
  269MPD2    N1 4129   4.095   1.453  15.935 -0.0793 -0.2640 -0.3463
  269MPD2    H7 4130   4.156   1.373  15.924  0.3123 -0.0949  0.6235
  270TMC3    C1 4131   3.973   1.316  16.078  0.4015 -0.1583  0.0594
  270TMC3    C2 4132   3.847   1.275  16.099  0.0067  0.2340 -0.0505
  270TMC3    C3 4133   3.825   1.145  16.143  0.3800 -0.5653  0.3699
  270TMC3    C4 4134   4.083   1.234  16.095 -0.7042 -0.2109  0.9348
  270TMC3    C5 4135   4.059   1.106  16.143 -0.2339 -0.5523  0.6840
  270TMC3    C6 4136   3.930   1.062  16.179 -0.4233  0.0874  0.0032
  270TMC3     C 4137   3.986   1.448  16.014 -0.2424 -0.2668  0.5982
  270TMC3     O 4138   3.899   1.531  16.030 -0.2637 -0.5422  0.4207
  270TMC3     H 4139   3.776   1.354  16.075  3.0129  2.4775 -1.5817
  270TMC3    H1 4140   4.184   1.266  16.073 -0.7414  0.0650  1.1554
  270TMC3    H2 4141   3.911   0.958  16.204 -0.7265  0.2951  0.6488
  270TMC3    C7 4142   4.134   1.011  16.066 -0.3018  0.0974  0.1753
  270TMC3    C8 4143   3.728   1.063  16.059 -0.1387 -0.4597  0.4505
  270TMC3    O1 4144   4.249   1.045  16.027 -0.5057  0.0006  0.1709
  270TMC3    O2 4145   3.764   0.952  16.025  0.1770 -0.0384  0.3557
  271MPD2     C 4146   3.162   0.868  14.133 -0.0133 -0.4744  0.2465
  271MPD2    C1 4147   3.117   0.909  14.262  0.1258  0.6793 -0.6376
  271MPD2    C2 4148   3.004   0.986  14.272 -0.3799  0.0979  0.1113
  271MPD2    C3 4149   2.939   1.027  14.157  0.1091 -0.5764 -0.7100
  271MPD2    C4 4150   2.991   0.992  14.032  0.4816 -0.1833 -0.9989
  271MPD2    C5 4151   3.100   0.914  14.024 -1.5298  0.7418  0.4528
  271MPD2     H 4152   2.977   1.018  14.372 -1.1070 -0.9221  0.2381
  271MPD2    H1 4153   2.959   1.023  13.933 -2.0726  1.7097  0.4415
  271MPD2    H2 4154   3.250   0.805  14.127 -0.5506 -1.1086 -0.9707
  271MPD2    H3 4155   3.138   0.884  13.927  1.2532 -0.6626  1.9745
  271MPD2     N 4156   2.826   1.109  14.159 -0.0474  0.1395  0.1332
  271MPD2    H5 4157   2.778   1.120  14.071 -1.2527 -1.1486  0.6226
  271MPD2    N1 4158   3.191   0.869  14.380 -0.3941  0.5106 -0.2045
  271MPD2    H7 4159   3.160   0.912  14.467 -2.1400 -1.4873  0.1642
  272TMC3    C1 4160   3.361   0.777  14.521  0.2034 -0.0690 -0.1426
  272TMC3    C2 4161   3.478   0.716  14.539  0.8050  0.2724  0.9099
  272TMC3    C3 4162   3.532   0.720  14.660 -0.7555  0.2578 -0.2718
  272TMC3    C4 4163   3.304   0.848  14.622  0.2532  0.2130 -0.5749
  272TMC3    C5 4164   3.369   0.860  14.751 -0.0105 -0.2244 -0.2122
  272TMC3    C6 4165   3.489   0.792  14.769  0.8064 -0.0691  0.4911
  272TMC3     C 4166   3.304   0.785  14.387  0.3116 -0.1797 -0.3339
  272TMC3     O 4167   3.362   0.723  14.302 -0.3470 -0.0630  0.1293
  272TMC3     H 4168   3.533   0.670  14.458  0.7938 -2.5659  2.5274
  272TMC3    H1 4169   3.204   0.884  14.607 -0.0555 -0.8015 -0.9592
  272TMC3    H2 4170   3.545   0.792  14.862 -1.3389  0.4006  1.7693
  272TMC3    C7 4171   3.293   0.922  14.861  0.6633 -0.1291 -0.0653
  272TMC3    C8 4172   3.668   0.685  14.665  0.3782  0.3102  0.8724
  272TMC3    O1 4173   3.179   0.949  14.832  0.0353  0.4421  0.0143
  272TMC3    O2 4174   3.731   0.702  14.566  0.4006 -0.2582  0.4771
  273MPD2     C 4175   4.162   3.851  12.287 -0.4303  0.0562  0.4464
  273MPD2    C1 4176   4.230   3.968  12.288  0.8790 -0.5383  1.4945
  273MPD2    C2 4177   4.221   4.044  12.175 -0.1126  0.0035  1.4456
  273MPD2    C3 4178   4.159   3.993  12.058 -0.5872 -0.0570 -0.2134
  273MPD2    C4 4179   4.092   3.875  12.058 -0.2860 -0.7173  0.0126
  273MPD2    C5 4180   4.084   3.807  12.182  0.0930 -0.3786  0.1783
  273MPD2     H 4181   4.274   4.138  12.164 -0.7095  0.4450  2.2738
  273MPD2    H1 4182   4.044   3.849  11.965  1.5517  0.2827 -1.2086
  273MPD2    H2 4183   4.160   3.787  12.375 -0.9547  1.8685  1.7431
  273MPD2    H3 4184   4.033   3.712  12.196 -2.1844  0.4845 -2.2178
  273MPD2     N 4185   4.155   4.068  11.932  0.9828 -0.2833 -0.0153
  273MPD2    H5 4186   4.099   4.048  11.849  0.5273 -0.3549  0.3095
  273MPD2    N1 4187   4.309   4.002  12.402 -0.0746 -0.1255  0.0577
  273MPD2    H7 4188   4.313   3.933  12.476  1.7512  0.9387  0.9341
  274TMC3    C1 4189   4.242   4.211  11.752 -0.7487 -0.2248  0.0007
  274TMC3    C2 4190   4.125   4.197  11.679  0.1964  0.2539  0.0506
  274TMC3    C3 4191   4.135   4.206  11.544  0.6777 -0.2733  0.1606
  274TMC3    C4 4192   4.364   4.238  11.697  0.0191 -0.2716 -0.0663
  274TMC3    C5 4193   4.365   4.258  11.562  0.7004 -0.5322  0.6490
  274TMC3    C6 4194   4.251   4.230  11.481  0.2114  0.3142  0.7332
  274TMC3     C 4195   4.243   4.172  11.895  0.0951  0.4943  0.2940
  274TMC3     O 4196   4.341   4.209  11.953 -0.0665 -0.3985  0.2267
  274TMC3     H 4197   4.039   4.192  11.745  0.1156 -0.6528 -0.1254
  274TMC3    H1 4198   4.453   4.239  11.759 -0.1255 -0.3911  0.1417
  274TMC3    H2 4199   4.254   4.244  11.373  0.1810  2.1565  0.9596
  274TMC3    C7 4200   4.478   4.325  11.500 -0.1879 -0.3644  0.5098
  274TMC3    C8 4201   4.019   4.223  11.467 -0.5253 -0.2208 -0.9881
  274TMC3    O1 4202   4.496   4.292  11.384  0.4161  0.0187 -0.5443
  274TMC3    O2 4203   4.031   4.261  11.353  0.0134  0.2633  0.0361
  275MPD2     C 4204   4.723   1.837  14.543 -0.1170 -0.4535 -0.0254
  275MPD2    C1 4205   4.631   1.907  14.626  0.0949  0.2140  0.2533
  275MPD2    C2 4206   4.526   1.834  14.686 -0.0123  0.2067  0.7233
  275MPD2    C3 4207   4.519   1.694  14.683  0.1544  0.7726  0.1310
  275MPD2    C4 4208   4.627   1.632  14.634  0.0293  0.8227  0.0039
  275MPD2    C5 4209   4.722   1.700  14.562  0.0740  0.6018 -0.6278
  275MPD2     H 4210   4.463   1.892  14.752  0.3285  0.8896  0.4434
  275MPD2    H1 4211   4.657   1.531  14.657 -1.6665 -0.1178 -1.9226
  275MPD2    H2 4212   0.072   1.887  14.491 -0.3590  0.0416  0.0732
  275MPD2    H3 4213   0.067   1.643  14.511  2.3517  1.5977  1.7573
  275MPD2     N 4214   4.437   1.628  14.780 -0.5296 -0.0301 -0.2496
  275MPD2    H5 4215   4.462   1.530  14.789 -3.2034 -0.6708  0.1794
  275MPD2    N1 4216   4.628   2.048  14.644  0.8072 -0.4491 -0.7865
  275MPD2    H7 4217   4.557   2.088  14.704  0.1989  0.6896 -2.2429
  276TMC3    C1 4218   4.708   2.246  14.701  0.3757 -0.5078  0.2771
  276TMC3    C2 4219   4.602   2.245  14.785  0.1705  0.3610  0.2913
  276TMC3    C3 4220   4.615   2.287  14.919  0.1756 -0.1328  0.3076
  276TMC3    C4 4221   0.098   2.299  14.738 -0.0424 -0.1336 -0.8022
  276TMC3    C5 4222   0.102   2.340  14.867 -0.9944  0.3903  0.0251
  276TMC3    C6 4223   0.001   2.329  14.960 -0.3767 -0.6705  0.2577
  276TMC3     C 4224   4.724   2.132  14.607  0.2608  0.1586  0.0655
  276TMC3     O 4225   0.097   2.115  14.549  0.1442 -0.2837  0.1361
  276TMC3     H 4226   4.502   2.216  14.754 -0.3606 -1.2893  3.4754
  276TMC3    H1 4227   0.181   2.321  14.672  2.0590 -0.4321  1.7206
  276TMC3    H2 4228   0.009   2.348  15.067 -0.7515  0.5364  0.0676
  276TMC3    C7 4229   0.221   2.396  14.922  0.6271 -0.1131 -0.5580
  276TMC3    C8 4230   4.545   2.213  15.022 -0.7698  0.4413 -0.1792
  276TMC3    O1 4231   0.197   2.451  15.033 -0.1559 -0.1732  0.2078
  276TMC3    O2 4232   4.495   2.279  15.110  0.7079  0.4470 -0.0627
  277MPD2     C 4233   1.751   1.179  13.427  0.5228 -0.3001 -0.5652
  277MPD2    C1 4234   1.620   1.145  13.458 -0.1678  0.2649 -0.1826
  277MPD2    C2 4235   1.604   1.021  13.519 -0.1736 -0.1013  0.1900
  277MPD2    C3 4236   1.704   0.930  13.545 -0.1018  0.2525 -0.3217
  277MPD2    C4 4237   1.831   0.967  13.508 -0.3377  0.0285 -0.0457
  277MPD2    C5 4238   1.855   1.092  13.455 -0.0068 -0.7267 -0.4903
  277MPD2     H 4239   1.499   1.003  13.537 -0.4254  0.9943 -0.1563
  277MPD2    H1 4240   1.915   0.899  13.516 -0.4117  0.1381  1.5980
  277MPD2    H2 4241   1.782   1.277  13.395  0.4496 -0.5679 -1.4702
  277MPD2    H3 4242   1.957   1.124  13.440 -0.0271 -0.3851  0.1068
  277MPD2     N 4243   1.670   0.801  13.591 -0.2005 -0.1068 -0.3564
  277MPD2    H5 4244   1.575   0.786  13.623 -0.0286 -2.0114 -0.7608
  277MPD2    N1 4245   1.519   1.239  13.426  0.4773  0.2368 -0.2071
  277MPD2    H7 4246   1.546   1.327  13.385 -0.2459  1.3063  1.6063
  278TMC3    C1 4247   1.638   0.576  13.601 -0.1537  0.2620  0.2626
  278TMC3    C2 4248   1.640   0.492  13.707  0.0112  0.2774  1.0293
  278TMC3    C3 4249   1.523   0.431  13.749  0.0814  0.2417  0.0832
  278TMC3    C4 4250   1.515   0.605  13.545  0.1173 -0.0120 -0.4747
  278TMC3    C5 4251   1.404   0.545  13.584  0.3956  0.2908 -1.6172
  278TMC3    C6 4252   1.405   0.458  13.689 -0.1092 -0.2727  0.1433
  278TMC3     C 4253   1.735   0.686  13.587 -1.1035 -0.0361 -0.3138
  278TMC3     O 4254   1.836   0.667  13.520  0.3062 -0.6705  0.3688
  278TMC3     H 4255   1.738   0.471  13.749  0.0286  1.0391  1.3606
  278TMC3    H1 4256   1.506   0.681  13.468 -1.9519  0.9643  0.7270
  278TMC3    H2 4257   1.314   0.420  13.734 -2.2160  2.1711 -2.0484
  278TMC3    C7 4258   1.280   0.591  13.526 -0.2315  0.7721  0.7807
  278TMC3    C8 4259   1.542   0.331  13.855 -0.2770  0.4406 -0.5238
  278TMC3    O1 4260   1.277   0.707  13.497 -0.3497  0.0427  0.4165
  278TMC3    O2 4261   1.633   0.346  13.933  0.1580 -0.0505  0.5555
  279MPD2     C 4262   0.550   1.570   0.766  0.4026  0.6465  0.2226
  279MPD2    C1 4263   0.433   1.586   0.690  0.5445  0.0160 -0.4154
  279MPD2    C2 4264   0.440   1.585   0.553  0.1060 -1.2784 -0.0758
  279MPD2    C3 4265   0.566   1.581   0.489 -0.3274  0.2931 -0.3543
  279MPD2    C4 4266   0.684   1.586   0.562 -0.4456  0.8897 -0.5896
  279MPD2    C5 4267   0.669   1.576   0.702  0.0834 -0.4721 -0.0973
  279MPD2     H 4268   0.356   1.607   0.488  0.8327 -0.2745 -0.6758
  279MPD2    H1 4269   0.784   1.572   0.522 -0.1723  1.2715 -0.0481
  279MPD2    H2 4270   0.549   1.557   0.874  2.3468  1.6903  0.3630
  279MPD2    H3 4271   0.759   1.575   0.762 -0.8727 -1.8979  1.3001
  279MPD2     N 4272   0.574   1.592   0.347 -0.2960  0.0083 -0.3151
  279MPD2    H5 4273   0.663   1.613   0.303 -0.2871  2.5011  0.9058
  279MPD2    N1 4274   0.316   1.590   0.770  0.0592  0.1523 -1.0255
  279MPD2    H7 4275   0.336   1.591   0.869  2.3598 -1.0263 -1.4813
  280TMC3    C1 4276   0.130   1.565   0.617  0.4027  0.2691 -0.0609
  280TMC3    C2 4277   0.167   1.444   0.554 -0.1062  0.2753 -0.6844
  280TMC3    C3 4278   0.079   1.380   0.470  0.7123  0.8020  0.3161
  280TMC3    C4 4279   0.003   1.610   0.589  0.0367 -0.2217  0.0775
  280TMC3    C5 4280   4.649   1.537   0.506 -0.2979  1.1023 -0.4264
  280TMC3    C6 4281   4.684   1.419   0.440  0.2308 -0.3957  0.2609
  280TMC3     C 4282   0.181   1.591   0.748  0.3530 -0.1054 -0.1869
  280TMC3     O 4283   0.094   1.609   0.827 -0.8172 -0.0437 -0.7037
  280TMC3     H 4284   0.265   1.401   0.571  0.4183  1.6898 -0.1017
  280TMC3    H1 4285   4.706   1.696   0.648 -0.8091  0.5997 -1.5615
  280TMC3    H2 4286   4.613   1.357   0.385  0.3287  0.6533 -1.0427
  280TMC3    C7 4287   4.542   1.613   0.444 -0.2598 -0.4547  0.4233
  280TMC3    C8 4288   0.119   1.252   0.432  0.1875  0.0574 -0.4957
  280TMC3    O1 4289   4.503   1.700   0.519  0.1248  0.1467 -0.4857
  280TMC3    O2 4290   0.035   1.163   0.428 -0.3528  0.5509  0.1905
  281TMC3    C1 4291   4.400   1.189  13.722  0.1205 -0.1564 -0.3373
  281TMC3    C2 4292   4.473   1.285  13.658  0.3814  0.1486 -0.3439
  281TMC3    C3 4293   4.532   1.265  13.536 -0.7498  0.0711 -0.2516
  281TMC3    C4 4294   4.400   1.059  13.680  0.2783 -0.9115 -0.1439
  281TMC3    C5 4295   4.469   1.037  13.561 -0.6729 -0.1595 -0.1603
  281TMC3    C6 4296   4.531   1.136  13.484 -0.0403 -0.3140  0.2594
  281TMC3     C 4297   4.295   1.220  13.809 -0.4320  0.5227  0.3065
  281TMC3     O 4298   4.249   1.131  13.876  0.5024 -0.0904 -0.2070
  281TMC3     H 4299   4.463   1.384  13.701 -1.9058 -0.4077  0.4141
  281TMC3    H1 4300   4.335   0.983  13.722  0.5807  0.7304  3.2514
  281TMC3    H2 4301   4.576   1.115  13.388 -0.9796 -0.7749 -0.0829
  281TMC3    C7 4302   4.487   0.909  13.497  0.7466 -0.5506  0.1551
  281TMC3    C8 4303   4.628   1.369  13.489 -0.5174 -0.4959  0.3633
  281TMC3    O1 4304   4.537   0.896  13.390 -0.6243  0.3167 -0.0817
  281TMC3    O2 4305   0.011   1.336  13.488  0.4155 -0.0917  0.0070
  282MPD2     C 4306   1.109   2.251  14.846 -0.1048 -0.0191 -0.0214
  282MPD2    C1 4307   1.095   2.370  14.907 -0.0851  0.2539  0.1450
  282MPD2    C2 4308   1.054   2.477  14.842 -0.7105 -0.4291 -0.3881
  282MPD2    C3 4309   1.023   2.467  14.708 -0.0289  0.5811  0.2041
  282MPD2    C4 4310   1.036   2.340  14.646  0.5533 -0.1423  0.2522
  282MPD2    C5 4311   1.076   2.233  14.715 -0.0504  0.1077  0.3224
  282MPD2     H 4312   1.042   2.571  14.893  0.4694 -0.4686 -0.0531
  282MPD2    H1 4313   1.015   2.324  14.541  1.2592  1.9609 -0.2172
  282MPD2    H2 4314   1.143   2.166  14.906  0.0786 -1.7975 -2.6442
  282MPD2    H3 4315   1.070   2.133  14.673 -1.6543  0.8767 -1.2821
  282MPD2     N 4316   0.972   2.573  14.628  0.3143  0.7807 -0.4773
  282MPD2    H5 4317   0.949   2.547  14.533  0.6714 -1.2928  0.0061
  282MPD2    N1 4318   1.110   2.385  15.048  0.3712 -0.3976  0.6159
  282MPD2    H7 4319   1.077   2.470  15.093  0.0115 -0.3504  0.2569
  283TMC3    C1 4320   1.068   2.326  15.266  0.1541  0.4493 -0.1187
  283TMC3    C2 4321   1.131   2.436  15.308  0.6120  0.0489 -0.1296
  283TMC3    C3 4322   1.114   2.475  15.442  0.7293  0.0331  0.2292
  283TMC3    C4 4323   0.990   2.248  15.348 -0.1243 -0.4897  0.0736
  283TMC3    C5 4324   0.977   2.282  15.479  0.4998 -0.2727  0.2750
  283TMC3    C6 4325   1.026   2.400  15.525  0.5704 -0.3792  0.7641
  283TMC3     C 4326   1.098   2.282  15.139  1.4612 -0.6098  0.2501
  283TMC3     O 4327   1.101   2.162  15.130 -0.3862 -0.7050 -0.0437
  283TMC3     H 4328   1.203   2.491  15.249 -2.2075  5.0744  1.1551
  283TMC3    H1 4329   0.953   2.152  15.313  1.0905 -0.6790 -0.6922
  283TMC3    H2 4330   1.007   2.438  15.625 -1.2325 -0.7553  0.5653
  283TMC3    C7 4331   0.871   2.227  15.561  0.7625  0.4720  0.0711
  283TMC3    C8 4332   1.201   2.566  15.517  0.0590  0.1571  0.2542
  283TMC3    O1 4333   0.860   2.282  15.670  0.1220  0.3320 -0.1400
  283TMC3    O2 4334   1.197   2.554  15.638  0.1441 -0.4419 -0.3266
  284MPD2     C 4335   3.805   1.658  12.241  0.5339  0.2223 -0.2588
  284MPD2    C1 4336   3.935   1.675  12.209 -0.6713  0.2826 -0.0364
  284MPD2    C2 4337   4.031   1.619  12.290  0.1754 -1.1207 -0.3905
  284MPD2    C3 4338   4.001   1.544  12.404 -0.5886 -1.3085 -0.4461
  284MPD2    C4 4339   3.869   1.519  12.433  0.1442  0.0377  0.2021
  284MPD2    C5 4340   3.779   1.585  12.353  0.2423  0.7163 -0.1071
  284MPD2     H 4341   4.133   1.629  12.254 -0.1337  0.2190 -0.9009
  284MPD2    H1 4342   3.836   1.458  12.516 -0.5194 -1.6660 -1.3203
  284MPD2    H2 4343   3.723   1.706  12.188 -0.9404 -2.1465 -0.1418
  284MPD2    H3 4344   3.674   1.577  12.381  0.2314 -0.2374 -0.4277
  284MPD2     N 4345   4.099   1.489  12.490  0.4313 -0.5942 -0.0743
  284MPD2    H5 4346   4.069   1.430  12.567 -0.6140 -0.1891 -0.1676
  284MPD2    N1 4347   3.979   1.767  12.109  0.1078 -0.1240  0.5281
  284MPD2    H7 4348   4.077   1.794  12.114 -0.5477  2.3789  0.1122
  285TMC3    C1 4349   3.970   1.937  11.948 -0.0830 -0.0124  0.0786
  285TMC3    C2 4350   4.098   1.900  11.917  0.0543 -0.2412 -0.2779
  285TMC3    C3 4351   4.185   1.986  11.853  0.3588 -0.3653 -0.3306
  285TMC3    C4 4352   3.920   2.063  11.924  0.4108 -0.3518  0.4677
  285TMC3    C5 4353   4.011   2.145  11.860  0.5817 -0.1452  0.2893
  285TMC3    C6 4354   4.145   2.117  11.838 -0.0500  0.4315  0.1412
  285TMC3     C 4355   3.898   1.862  12.041 -0.4076  0.0982  0.2053
  285TMC3     O 4356   3.775   1.873  12.028 -0.5688 -0.4782 -0.1440
  285TMC3     H 4357   4.125   1.795  11.924  0.9833 -0.1207 -2.0687
  285TMC3    H1 4358   3.818   2.098  11.932  0.5992  0.4695 -0.7814
  285TMC3    H2 4359   4.209   2.184  11.782 -0.1496  1.2442  0.9982
  285TMC3    C7 4360   3.971   2.286  11.831 -0.1508  0.1913 -0.3569
  285TMC3    C8 4361   4.266   1.918  11.750 -0.9411  0.1025  0.5066
  285TMC3    O1 4362   4.058   2.370  11.828  0.1038 -0.1738 -0.3895
  285TMC3    O2 4363   4.258   1.801  11.729 -0.3770  0.0055 -0.4913
  286MPD2     C 4364   4.150   1.487   0.970 -0.4645 -0.8113 -0.4843
  286MPD2    C1 4365   4.262   1.496   1.042 -0.1010 -0.0374 -0.4999
  286MPD2    C2 4366   4.317   1.379   1.092 -0.4368 -0.6528 -0.0869
  286MPD2    C3 4367   4.275   1.252   1.052 -0.1348 -0.2541 -0.3511
  286MPD2    C4 4368   4.154   1.242   0.982 -0.8003 -0.1321  0.1202
  286MPD2    C5 4369   4.090   1.359   0.945 -0.6761  0.4286  0.2776
  286MPD2     H 4370   4.404   1.398   1.153  1.2742 -1.5466 -2.2613
  286MPD2    H1 4371   4.107   1.149   0.954 -0.5027 -0.0206 -0.7515
  286MPD2    H2 4372   4.088   1.573   0.947  2.0928  0.8010 -1.2877
  286MPD2    H3 4373   4.003   1.350   0.880 -0.3618  1.6851 -0.3325
  286MPD2     N 4374   4.347   1.134   1.081  0.6468  0.5331  0.0832
  286MPD2    H5 4375   4.312   1.048   1.038  0.7638  0.3199  0.4138
  286MPD2    N1 4376   4.335   1.608   1.090  0.5181  0.2144  0.0647
  286MPD2    H7 4377   4.415   1.589   1.149  0.4507  2.4926  0.8753
  287TMC3    C1 4378   4.510   0.998   1.139  0.1463  0.1664 -0.2180
  287TMC3    C2 4379   4.540   0.957   1.009  0.2843  0.3136 -0.6372
  287TMC3    C3 4380   4.640   0.866   0.989 -0.1994  0.3353 -0.4012
  287TMC3    C4 4381   4.595   0.963   1.238 -0.2209 -0.2796 -0.4568
  287TMC3    C5 4382   4.688   0.864   1.219  0.2113  0.0473 -0.2152
  287TMC3    C6 4383   4.710   0.816   1.096 -0.0876  0.4274  0.5879
  287TMC3     C 4384   4.459   1.128   1.158  0.1551 -0.7920  0.1542
  287TMC3     O 4385   4.525   1.210   1.219 -0.3816  0.1176  0.4245
  287TMC3     H 4386   4.485   0.992   0.923  0.6691  0.7726 -0.6974
  287TMC3    H1 4387   4.590   1.019   1.330 -1.5259  1.7518 -1.7472
  287TMC3    H2 4388   0.060   0.752   1.067  0.6151  1.2375  0.8039
  287TMC3    C7 4389   0.062   0.858   1.311  0.7129 -0.1787  0.8288
  287TMC3    C8 4390   4.636   0.780   0.870  0.2810 -0.3116 -0.4097
  287TMC3    O1 4391   0.068   0.953   1.388  0.1099 -0.3629 -0.1226
  287TMC3    O2 4392   0.011   0.731   0.829 -0.0886 -0.5060  0.0068
  288TMC3    C1 4393   1.586   0.619  14.127  0.2167  0.2200  0.4554
  288TMC3    C2 4394   1.586   0.598  14.262  0.5919  0.1495 -0.2252
  288TMC3    C3 4395   1.464   0.576  14.319 -0.0250 -0.4722 -0.1984
  288TMC3    C4 4396   1.476   0.609  14.042  0.0387 -0.9648  0.0664
  288TMC3    C5 4397   1.360   0.583  14.099  0.2406 -0.2159 -0.1276
  288TMC3    C6 4398   1.350   0.557  14.236  0.9293 -0.4361 -0.2841
  288TMC3     C 4399   1.714   0.657  14.064 -0.3003 -0.5947  1.3090
  288TMC3     O 4400   1.812   0.591  14.091  0.2223  0.1150  0.1063
  288TMC3     H 4401   1.676   0.621  14.317 -0.6626 -0.0420  1.9233
  288TMC3    H1 4402   1.497   0.625  13.937 -2.9462 -0.9674 -0.5410
  288TMC3    H2 4403   1.258   0.536  14.290  0.3615  2.2405 -0.1749
  288TMC3    C7 4404   1.248   0.608  14.011 -0.3999  0.4076 -0.0713
  288TMC3    C8 4405   1.454   0.596  14.459  0.4032 -0.3976  0.0427
  288TMC3    O1 4406   1.275   0.634  13.893 -0.4809 -0.6558 -0.2568
  288TMC3    O2 4407   1.549   0.657  14.511 -0.3138 -0.6378 -0.2134
  289MPD2     C 4408   1.589   4.346  14.633  0.3740  0.4021  0.0897
  289MPD2    C1 4409   1.569   4.463  14.563 -0.1251 -0.3112  0.0366
  289MPD2    C2 4410   1.455   4.485  14.491  0.3290 -0.3225 -0.0320
  289MPD2    C3 4411   1.363   4.384  14.484  0.6303 -0.1142 -0.0602
  289MPD2    C4 4412   1.381   4.269  14.567 -0.6238 -0.4184  0.1293
  289MPD2    C5 4413   1.499   4.245  14.631 -0.1614 -0.1920  0.2879
  289MPD2     H 4414   1.436   4.576  14.436  0.7232  0.2802  0.8247
  289MPD2    H1 4415   1.299   4.198  14.571 -0.6169 -0.3885  0.7448
  289MPD2    H2 4416   1.683   4.334  14.684  0.2603  1.9568  0.6663
  289MPD2    H3 4417   1.516   4.151  14.682  2.5847  0.0909 -0.1087
  289MPD2     N 4418   1.243   4.387  14.406  0.6305  0.2941  0.9558
  289MPD2    H5 4419   1.197   4.297  14.401 -2.7611  1.8777  3.4713
  289MPD2    N1 4420   1.672   4.560  14.592 -0.0561  0.3924 -0.2387
  289MPD2    H7 4421   1.749   4.521  14.646  0.9952  1.1780 -1.1564
  290TMC3    C1 4422   1.057   4.486  14.304  0.6629  0.1419  0.3991
  290TMC3    C2 4423   0.985   4.604  14.292 -1.2210  0.3700 -0.0022
  290TMC3    C3 4424   0.870   4.602  14.217 -0.5876  0.3265  0.4450
  290TMC3    C4 4425   1.011   4.370  14.245  0.0497  0.4035 -0.3044
  290TMC3    C5 4426   0.896   4.370  14.173  0.4263 -0.1134  0.1407
  290TMC3    C6 4427   0.824   4.485  14.164  1.0624  0.3078 -0.7579
  290TMC3     C 4428   1.183   4.502  14.363  0.3529  0.7625  0.2187
  290TMC3     O 4429   1.219   4.617  14.378  0.4043  0.5631 -0.2158
  290TMC3     H 4430   1.003   4.696  14.346 -0.9461 -0.1277  0.7539
  290TMC3    H1 4431   1.074   4.282  14.245 -1.5925 -0.7559 -0.7447
  290TMC3    H2 4432   0.738   4.484  14.098 -0.1265 -1.6469  0.7869
  290TMC3    C7 4433   0.824   4.245  14.163 -0.5091 -0.6670  0.0034
  290TMC3    C8 4434   0.772   4.702  14.224  0.0528 -0.7004  0.4111
  290TMC3    O1 4435   0.734   4.243  14.078 -0.0857 -0.2923 -0.3783
  290TMC3    O2 4436   0.656   4.660  14.210  0.7301  0.0405  0.2271
  291MPD2     C 4437   0.964   4.289   0.682 -0.2998  0.1502  0.3357
  291MPD2    C1 4438   0.937   4.163   0.635 -0.0432 -0.0244  0.0454
  291MPD2    C2 4439   1.041   4.084   0.584  0.0046  0.0625 -0.2784
  291MPD2    C3 4440   1.173   4.135   0.578 -0.3841  0.8110  0.2451
  291MPD2    C4 4441   1.189   4.255   0.639  0.5789  0.2248  0.9278
  291MPD2    C5 4442   1.094   4.339   0.692  0.4312  0.2417  1.2411
  291MPD2     H 4443   1.019   3.992   0.530 -1.3563 -0.2245  0.7784
  291MPD2    H1 4444   1.290   4.284   0.663  0.4578  1.9340 -0.5628
  291MPD2    H2 4445   0.892   4.357   0.726  1.9649  2.0384  1.0978
  291MPD2    H3 4446   1.129   4.433   0.734 -0.2034  1.2389 -0.4599
  291MPD2     N 4447   1.292   4.079   0.516 -0.4909 -0.6886 -0.0735
  291MPD2    H5 4448   1.379   4.131   0.522 -1.5128  1.0982 -0.7669
  291MPD2    N1 4449   0.810   4.095   0.625  0.3520 -0.2367 -0.2227
  291MPD2    H7 4450   0.817   3.996   0.607  0.8291 -0.2741  0.1620
  292TMC3    C1 4451   0.584   4.045   0.644  0.2484 -0.1790 -0.1255
  292TMC3    C2 4452   0.473   4.065   0.725 -0.0084 -0.3469 -0.7946
  292TMC3    C3 4453   0.370   3.970   0.719 -0.3245  0.3664 -0.5945
  292TMC3    C4 4454   0.588   3.957   0.544  0.1999 -0.4693  0.0470
  292TMC3    C5 4455   0.474   3.882   0.530  0.5877  0.1377  0.3977
  292TMC3    C6 4456   0.365   3.883   0.614 -0.1205  0.1500 -1.2497
  292TMC3     C 4457   0.688   4.149   0.651  0.0006 -0.2988  0.0008
  292TMC3     O 4458   0.659   4.257   0.698  0.3339 -0.1984 -0.3271
  292TMC3     H 4459   0.493   4.119   0.816  0.6539 -1.9473  0.0108
  292TMC3    H1 4460   0.672   3.929   0.481  1.0755  0.7816  0.6608
  292TMC3    H2 4461   0.277   3.829   0.583 -2.4375  2.5335  1.2671
  292TMC3    C7 4462   0.483   3.785   0.422 -0.8568 -0.8455 -0.4157
  292TMC3    C8 4463   0.259   3.981   0.817  0.1403  0.3181 -0.1254
  292TMC3    O1 4464   0.593   3.731   0.410  0.4144  0.1231 -0.0788
  292TMC3    O2 4465   0.240   4.090   0.871 -0.0680  0.0092  0.0034
  293MPD2     C 4466   2.343   1.259  12.844 -0.6618  0.5744 -0.1550
  293MPD2    C1 4467   2.287   1.142  12.890  0.3157  0.2175  0.0259
  293MPD2    C2 4468   2.359   1.060  12.975 -0.6296  0.0146 -0.3905
  293MPD2    C3 4469   2.494   1.085  12.989  0.2812 -0.0323 -0.0475
  293MPD2    C4 4470   2.553   1.194  12.934  0.2312  0.2819  0.7505
  293MPD2    C5 4471   2.473   1.275  12.864 -0.7776  0.3477  0.5156
  293MPD2     H 4472   2.321   0.965  13.010  0.8208 -0.2779  0.3854
  293MPD2    H1 4473   2.656   1.223  12.946  0.6366 -0.8657 -0.0463
  293MPD2    H2 4474   2.291   1.330  12.781  0.6209  1.0917 -0.6246
  293MPD2    H3 4475   2.511   1.368  12.823  0.7156 -1.7587 -2.8421
  293MPD2     N 4476   2.575   0.997  13.076 -1.1764 -0.3902 -0.2759
  293MPD2    H5 4477   2.534   0.915  13.119 -1.3341 -1.3353 -2.2030
  293MPD2    N1 4478   2.153   1.122  12.852  0.3829  0.1247 -0.0713
  293MPD2    H7 4479   2.112   1.200  12.802 -0.6421 -0.2734  0.1564
  294TMC3    C1 4480   1.953   1.008  12.791 -0.2896  0.2057  0.7517
  294TMC3    C2 4481   1.951   0.909  12.701 -0.1082  0.0226 -0.1307
  294TMC3    C3 4482   1.953   0.941  12.569  0.6567 -0.3466 -0.4923
  294TMC3    C4 4483   1.931   1.139  12.755  0.3440  0.3985  0.1371
  294TMC3    C5 4484   1.925   1.173  12.623  0.5991  0.3052 -0.2144
  294TMC3    C6 4485   1.946   1.073  12.532 -0.6287 -0.0575  0.0356
  294TMC3     C 4486   2.078   1.004  12.866 -0.4581  1.1533  0.3881
  294TMC3     O 4487   2.107   0.898  12.919  0.0523  0.8187 -0.8177
  294TMC3     H 4488   1.979   0.808  12.727  1.3078 -0.5393 -3.7982
  294TMC3    H1 4489   1.943   1.227  12.818  0.8889 -0.1756  0.8307
  294TMC3    H2 4490   1.933   1.105  12.429 -0.7544  1.1860  0.4378
  294TMC3    C7 4491   1.959   1.311  12.579 -0.1257 -0.0635 -0.0971
  294TMC3    C8 4492   1.921   0.832  12.474 -0.8267 -0.7266  0.2112
  294TMC3    O1 4493   1.911   1.399  12.643 -0.4858 -0.0557 -0.1187
  294TMC3    O2 4494   1.963   0.835  12.360 -0.0497 -0.0462 -0.1937
  295MPD2     C 4495   3.790   4.019   0.545 -0.8702  0.2520 -0.3834
  295MPD2    C1 4496   3.776   4.157   0.549  0.3730 -0.3572  0.1047
  295MPD2    C2 4497   3.857   4.228   0.638 -0.0562  0.2745 -0.4920
  295MPD2    C3 4498   3.963   4.166   0.706 -0.0964 -0.7040  0.3548
  295MPD2    C4 4499   3.984   4.031   0.686  0.4941  0.5326  0.4929
  295MPD2    C5 4500   3.900   3.955   0.603  0.3361  0.0271  0.2028
  295MPD2     H 4501   3.834   4.333   0.657  3.5737  0.9083  0.4150
  295MPD2    H1 4502   4.070   3.983   0.730  1.7627  0.4763 -2.0861
  295MPD2    H2 4503   3.728   3.962   0.477  0.6836  0.1631 -1.7384
  295MPD2    H3 4504   3.922   3.850   0.587  0.0240  0.0116 -0.1319
  295MPD2     N 4505   4.060   4.229   0.793  0.0719  0.1699  0.5002
  295MPD2    H5 4506   4.119   4.168   0.847  0.9866  1.0509  0.5004
  295MPD2    N1 4507   3.673   4.225   0.490  0.1108  0.2966  0.3421
  295MPD2    H7 4508   3.687   4.325   0.489  0.6869  0.1887 -3.1628
  296TMC3    C1 4509   4.116   4.407   0.945  0.1014 -0.0909 -0.0096
  296TMC3    C2 4510   4.131   4.538   0.963  0.0790  0.0147 -0.3733
  296TMC3    C3 4511   4.178   4.582   1.084  0.2797 -0.8977 -0.5275
  296TMC3    C4 4512   4.147   4.314   1.042  0.4164  0.1346 -0.1178
  296TMC3    C5 4513   4.189   4.358   1.160  0.0936  0.4594 -0.6086
  296TMC3    C6 4514   4.217   4.494   1.175  0.1371 -0.3333  0.5575
  296TMC3     C 4515   4.048   4.362   0.828 -0.1316  0.1014  1.0207
  296TMC3     O 4516   3.987   4.452   0.769 -0.1254 -0.1268  0.3748
  296TMC3     H 4517   4.094   4.607   0.888  0.2530 -1.1660 -1.5660
  296TMC3    H1 4518   4.130   4.209   1.023 -1.6628  0.3154  0.6874
  296TMC3    H2 4519   4.269   4.519   1.267  0.4809  0.0162  0.2683
  296TMC3    C7 4520   4.258   4.273   1.259 -0.4069  0.2046  0.0649
  296TMC3    C8 4521   4.151   4.719   1.125  0.5715  0.7219 -0.4240
  296TMC3    O1 4522   4.361   4.323   1.305 -0.0406 -0.2813  0.4099
  296TMC3    O2 4523   4.064   0.040   1.056 -0.8425  0.6928 -0.4726
  297MPD2     C 4524   0.099   1.451  16.299  0.2630  0.6598  0.5833
  297MPD2    C1 4525   0.177   1.500  16.196 -0.1007  0.6918  0.3506
  297MPD2    C2 4526   0.312   1.509  16.219  0.5343 -0.2363 -0.4071
  297MPD2    C3 4527   0.367   1.475  16.338  0.1494  0.2102 -0.3078
  297MPD2    C4 4528   0.285   1.419  16.433 -0.0618  0.3826 -0.0275
  297MPD2    C5 4529   0.150   1.414  16.409 -0.2835  1.2213  0.4392
  297MPD2     H 4530   0.382   1.547  16.145  1.5732 -0.4912  0.4551
  297MPD2    H1 4531   0.328   1.399  16.530  1.0124  1.1626 -0.3375
  297MPD2    H2 4532   4.724   1.450  16.287  0.2883  0.9149  0.3027
  297MPD2    H3 4533   0.083   1.393  16.492  0.1657 -0.9158  0.2609
  297MPD2     N 4534   0.502   1.507  16.355  0.6273 -0.5714 -0.4532
  297MPD2    H5 4535   0.546   1.558  16.279 -0.1906  1.4533  0.4189
  297MPD2    N1 4536   0.125   1.565  16.075  0.3340  0.2331  0.7082
  297MPD2    H7 4537   0.193   1.625  16.029  1.4657  1.5897  4.1650
  298TMC3    C1 4538   4.684   1.684  15.976 -0.0945  0.6531  0.2282
  298TMC3    C2 4539   0.015   1.711  15.861 -0.1350  0.3603 -0.6555
  298TMC3    C3 4540   4.677   1.797  15.772  0.3321  0.3958 -0.2868
  298TMC3    C4 4541   4.566   1.739  16.017 -0.1080 -0.0848  0.3588
  298TMC3    C5 4542   4.506   1.841  15.939 -0.0087 -0.1417 -0.1959
  298TMC3    C6 4543   4.561   1.862  15.813  0.6259 -0.3690  0.0101
  298TMC3     C 4544   4.724   1.568  16.047  0.3055  0.4478 -0.3975
  298TMC3     O 4545   4.634   1.503  16.094  0.3475  0.4302  0.1768
  298TMC3     H 4546   0.112   1.671  15.832 -0.0819  1.7450 -2.3897
  298TMC3    H1 4547   4.511   1.714  16.107  0.8471  2.2718  1.5932
  298TMC3    H2 4548   4.510   1.928  15.744  1.2946 -0.3500 -0.4686
  298TMC3    C7 4549   4.389   1.905  15.996 -0.6253  0.2085  0.0241
  298TMC3    C8 4550   0.002   1.841  15.653 -0.2777 -0.4206  0.4810
  298TMC3    O1 4551   4.329   1.845  16.086 -0.2646 -0.3416 -0.6980
  298TMC3    O2 4552   4.705   1.954  15.630  0.7705 -0.2987 -0.2009
  299MPD2     C 4553   1.218   1.080  11.416 -0.0343  0.1716  0.7317
  299MPD2    C1 4554   1.181   1.185  11.336  0.0346 -0.0699 -0.4687
  299MPD2    C2 4555   1.142   1.160  11.207 -0.4678  0.4736 -0.6745
  299MPD2    C3 4556   1.155   1.037  11.156 -0.1224  0.5499  0.0203
  299MPD2    C4 4557   1.193   0.932  11.236  0.5932  0.0046  0.1057
  299MPD2    C5 4558   1.228   0.954  11.366 -0.2658 -0.6468 -0.8672
  299MPD2     H 4559   1.100   1.240  11.148 -0.4233  2.0776  1.4553
  299MPD2    H1 4560   1.188   0.829  11.202  1.6961 -0.0885  0.2171
  299MPD2    H2 4561   1.238   1.093  11.522  0.9474  0.2909  0.5326
  299MPD2    H3 4562   1.252   0.867  11.425  0.9909  0.6846  0.5841
  299MPD2     N 4563   1.111   1.017  11.020  0.8413 -0.3622 -0.5585
  299MPD2    H5 4564   1.086   0.921  10.996  1.1059 -0.0759 -1.9873
  299MPD2    N1 4565   1.145   1.304  11.400 -0.2050  0.1000 -0.3056
  299MPD2    H7 4566   1.148   1.309  11.501 -0.5763 -1.5979 -0.2068
  300TMC3    C1 4567   0.933   1.100  10.882 -0.8319 -0.3432  0.8879
  300TMC3    C2 4568   0.899   1.188  10.793 -0.1440  0.4281 -0.2469
  300TMC3    C3 4569   0.767   1.217  10.764 -0.3727  0.9980  0.8664
  300TMC3    C4 4570   0.841   1.030  10.949  0.2327 -0.1680 -0.3359
  300TMC3    C5 4571   0.707   1.068  10.936 -0.2136  0.6090  0.3317
  300TMC3    C6 4572   0.672   1.170  10.849 -0.4296  0.1271 -0.1371
  300TMC3     C 4573   1.065   1.123  10.942  0.2155  0.6648  0.8088
  300TMC3     O 4574   1.127   1.230  10.922  0.6527  0.3105  0.4019
  300TMC3     H 4575   0.973   1.231  10.727  1.9652 -1.6692  0.7702
  300TMC3    H1 4576   0.862   0.962  11.031  0.9751  0.7779  0.2628
  300TMC3    H2 4577   0.568   1.195  10.830 -1.1285 -1.7310  1.2321
  300TMC3    C7 4578   0.606   1.013  11.026  0.4125  1.1566 -0.1450
  300TMC3    C8 4579   0.744   1.354  10.716  0.6396 -0.0953 -0.0176
  300TMC3    O1 4580   0.636   0.913  11.092 -0.4816 -0.3734  0.1575
  300TMC3    O2 4581   0.841   1.424  10.710 -0.6562  0.9039  0.7443
  301MPD2     C 4582   3.300   3.085   1.622  0.2274  0.0545 -0.0303
  301MPD2    C1 4583   3.224   3.019   1.524 -0.9898  0.1686 -0.4601
  301MPD2    C2 4584   3.205   2.885   1.538  0.4376  0.4257  0.2087
  301MPD2    C3 4585   3.261   2.816   1.643 -0.3637  0.1947 -0.7717
  301MPD2    C4 4586   3.335   2.886   1.742 -0.0210 -0.2144  0.0575
  301MPD2    C5 4587   3.351   3.017   1.733  0.8036 -0.2765  0.1145
  301MPD2     H 4588   3.142   2.843   1.461 -1.7191 -0.0469  2.2444
  301MPD2    H1 4589   3.387   2.831   1.820 -1.4599 -0.4282  0.8606
  301MPD2    H2 4590   3.314   3.192   1.633 -0.3506  0.1523 -0.2386
  301MPD2    H3 4591   3.403   3.072   1.811  2.2387 -0.6052 -0.6031
  301MPD2     N 4592   3.260   2.673   1.651 -0.0084  0.1867 -0.0634
  301MPD2    H5 4593   3.311   2.625   1.725 -1.8108 -1.7566 -0.1010
  301MPD2    N1 4594   3.164   3.097   1.418  0.3669 -0.5265 -0.9900
  301MPD2    H7 4595   3.113   3.042   1.349  2.7941 -0.0799 -3.1657
  302TMC3    C1 4596   3.189   2.451   1.597 -0.0688  0.7673 -0.8316
  302TMC3    C2 4597   3.310   2.404   1.642  0.4612 -0.0233 -0.1700
  302TMC3    C3 4598   3.334   2.273   1.609 -0.3883 -0.1537 -0.3490
  302TMC3    C4 4599   3.095   2.373   1.533 -0.7304  0.6811 -0.2388
  302TMC3    C5 4600   3.121   2.243   1.515  0.4552  0.1516  0.2982
  302TMC3    C6 4601   3.244   2.191   1.548 -0.4594 -0.4160  0.6900
  302TMC3     C 4602   3.174   2.594   1.575  0.7702  0.7888 -0.6388
  302TMC3     O 4603   3.088   2.636   1.501  0.1463 -0.4118 -0.5741
  302TMC3     H 4604   3.377   2.460   1.706 -0.5980 -0.6068  1.4614
  302TMC3    H1 4605   3.007   2.428   1.502  0.9831  2.5010 -1.8852
  302TMC3    H2 4606   3.267   2.086   1.535 -1.8765 -0.6972  0.3933
  302TMC3    C7 4607   3.028   2.159   1.439  0.5506 -0.0053  0.3372
  302TMC3    C8 4608   3.468   2.217   1.631  0.4736 -0.2131  0.0062
  302TMC3    O1 4609   3.058   2.039   1.433  0.5176  0.0358  0.0032
  302TMC3    O2 4610   3.532   2.266   1.723 -0.2738 -0.2234  0.0146
  303MPD2     C 4611   2.922   1.384  10.807  0.7894 -1.1391  0.6101
  303MPD2    C1 4612   2.802   1.320  10.787 -0.1456 -0.1767  0.1676
  303MPD2    C2 4613   2.776   1.286  10.651  0.3690  0.0843  0.0733
  303MPD2    C3 4614   2.859   1.328  10.546 -0.0932  0.4238  0.4843
  303MPD2    C4 4615   2.969   1.408  10.574 -0.5003  0.7073 -0.1710
  303MPD2    C5 4616   3.003   1.429  10.709 -0.6809 -0.0631 -0.8583
  303MPD2     H 4617   2.684   1.233  10.629 -0.6191  1.5465  0.6945
  303MPD2    H1 4618   3.042   1.439  10.500  1.1558  1.3025  1.7116
  303MPD2    H2 4619   2.958   1.419  10.903  2.1005  0.1723 -0.3522
  303MPD2    H3 4620   3.093   1.480  10.742 -1.3282  0.1066  0.6409
  303MPD2     N 4621   2.848   1.285  10.413 -0.5967  0.2740  0.5024
  303MPD2    H5 4622   2.908   1.326  10.342 -2.0253  1.8929  0.2266
  303MPD2    N1 4623   2.720   1.291  10.893  0.1071  0.3987 -0.5786
  303MPD2    H7 4624   2.756   1.313  10.985  0.3267  0.5276 -0.6972
  304TMC3    C1 4625   2.547   1.182  11.017  0.4210 -0.0211 -0.1694
  304TMC3    C2 4626   2.411   1.154  11.012  1.0019 -0.4513  0.2406
  304TMC3    C3 4627   2.363   1.052  11.086  0.1682 -1.2300 -0.3929
  304TMC3    C4 4628   2.629   1.109  11.093 -0.2716  0.0881 -0.6812
  304TMC3    C5 4629   2.574   1.004  11.163 -0.0949 -0.1606  0.0672
  304TMC3    C6 4630   2.440   0.982  11.169 -1.1807  0.4992 -0.1479
  304TMC3     C 4631   2.587   1.246  10.893  0.1012 -0.0028 -0.4986
  304TMC3     O 4632   2.511   1.234  10.797  0.0613  0.1399  0.2602
  304TMC3     H 4633   2.353   1.237  10.972  0.0044 -0.4164  1.7479
  304TMC3    H1 4634   2.737   1.114  11.092 -0.1881 -1.6052 -0.1577
  304TMC3    H2 4635   2.393   0.905  11.229 -1.0196  2.1796  2.1474
  304TMC3    C7 4636   2.650   0.879  11.151 -0.7112  0.4785 -0.4884
  304TMC3    C8 4637   2.274   0.968  11.014 -0.8429  0.2660  0.3716
  304TMC3    O1 4638   2.773   0.887  11.171  0.2760  0.2298  0.0665
  304TMC3    O2 4639   2.307   0.853  11.022  0.1443 -0.5052 -0.0516
  305MPD2     C 4640   1.082   2.777  14.229 -0.1914 -0.4482  0.4659
  305MPD2    C1 4641   1.159   2.672  14.266  0.5783  0.0882  0.1049
  305MPD2    C2 4642   1.151   2.560  14.187 -0.1930  0.4122  0.3703
  305MPD2    C3 4643   1.077   2.566  14.069 -0.1235  0.1450 -0.0293
  305MPD2    C4 4644   1.015   2.679  14.028 -0.1184  0.6080 -0.4480
  305MPD2    C5 4645   1.003   2.784  14.115 -0.0225 -0.0766 -0.0285
  305MPD2     H 4646   1.213   2.474  14.211  0.4348  0.9278  0.5950
  305MPD2    H1 4647   0.963   2.673  13.932 -0.5269  0.2592 -0.2070
  305MPD2    H2 4648   1.067   2.864  14.292  1.3246 -0.7129  1.1983
  305MPD2    H3 4649   0.943   2.871  14.092 -0.1947 -0.9444 -2.8892
  305MPD2     N 4650   1.080   2.468  13.965 -0.1396  0.2596 -0.0920
  305MPD2    H5 4651   1.048   2.497  13.873  0.2327 -1.5247 -0.7770
  305MPD2    N1 4652   1.223   2.671  14.392 -0.7442 -0.0214 -0.6093
  305MPD2    H7 4653   1.224   2.763  14.436  1.4319 -0.3091 -0.0950
  306TMC3    C1 4654   1.335   2.600  14.585 -0.1553  0.0228  0.1229
  306TMC3    C2 4655   1.356   2.504  14.684 -0.2394 -0.8847 -0.1091
  306TMC3    C3 4656   1.418   2.536  14.800  0.4595  0.3016  0.6199
  306TMC3    C4 4657   1.377   2.727  14.611  0.3024  0.8079 -0.5439
  306TMC3    C5 4658   1.453   2.757  14.722  0.1125 -0.3816  0.3570
  306TMC3    C6 4659   1.476   2.661  14.822 -0.1387  0.2431 -0.7629
  306TMC3     C 4660   1.261   2.563  14.467  0.4436  0.4480 -0.1641
  306TMC3     O 4661   1.255   2.443  14.443  0.2480  0.1972  0.3209
  306TMC3     H 4662   1.316   2.403  14.678  0.0319 -1.1160  1.9005
  306TMC3    H1 4663   1.384   2.797  14.529  0.9655 -1.0101 -2.0335
  306TMC3    H2 4664   1.544   2.680  14.905 -0.1148  0.3817 -0.8141
  306TMC3    C7 4665   1.518   2.890  14.723 -0.4046  0.8591  0.0553
  306TMC3    C8 4666   1.471   2.422  14.872 -0.8800  0.2084  0.0795
  306TMC3    O1 4667   1.490   2.970  14.637  0.0506  0.1701  0.1638
  306TMC3    O2 4668   1.530   2.330  14.816  0.3992  0.2829 -0.0310
  307MPD2     C 4669   4.232   1.918   1.489  0.7831  0.7334  0.4836
  307MPD2    C1 4670   4.106   1.930   1.439  0.1358  0.1738  0.0226
  307MPD2    C2 4671   4.054   1.821   1.366 -0.6071  0.1860 -0.3728
  307MPD2    C3 4672   4.109   1.692   1.382 -0.1922  0.1012 -0.1536
  307MPD2    C4 4673   4.227   1.683   1.447  0.0008 -0.6028  0.2338
  307MPD2    C5 4674   4.287   1.795   1.493 -0.3660 -0.0531 -0.4250
  307MPD2     H 4675   3.964   1.831   1.306 -0.5067  0.5353 -0.4634
  307MPD2    H1 4676   4.283   1.594   1.474 -0.3405 -0.1336  2.5186
  307MPD2    H2 4677   4.287   1.998   1.537 -0.5461  1.0083  1.5772
  307MPD2    H3 4678   4.385   1.786   1.539 -0.8124  0.3890  0.5911
  307MPD2     N 4679   4.040   1.585   1.325  1.0290  0.5120  0.4463
  307MPD2    H5 4680   3.948   1.598   1.282  1.8183 -0.5309 -1.5625
  307MPD2    N1 4681   4.031   2.053   1.449 -0.3990 -0.3537  0.0166
  307MPD2    H7 4682   3.943   2.067   1.400 -0.4799 -0.6246  0.0809
  308TMC3    C1 4683   3.782   1.263   1.230 -0.4654  0.1082 -0.2569
  308TMC3    C2 4684   3.682   1.304   1.310 -0.2627  0.3480  0.3226
  308TMC3    C3 4685   3.722   1.379   1.420 -0.3074  0.4921  0.2666
  308TMC3    C4 4686   3.913   1.294   1.248 -0.3253  0.0586  0.1577
  308TMC3    C5 4687   3.943   1.376   1.357 -0.4138 -0.0760 -0.0466
  308TMC3    C6 4688   3.850   1.421   1.448  0.1421  0.9135  0.8853
  308TMC3     C 4689   3.743   1.198   1.109 -0.6409  0.0549 -0.5866
  308TMC3     O 4690   3.826   1.130   1.050 -0.1972 -0.5028 -0.6639
  308TMC3     H 4691   3.576   1.283   1.299 -0.0290 -1.3446  1.1419
  308TMC3    H1 4692   3.987   1.276   1.170 -0.9514  2.0768 -0.8886
  308TMC3    H2 4693   3.868   1.490   1.530 -0.1972  1.7528  0.2522
  308TMC3    C7 4694   4.066   1.451   1.363  0.4355  0.6133 -0.3656
  308TMC3    C8 4695   3.626   1.461   1.493 -0.0151  0.1073  0.4948
  308TMC3    O1 4696   4.170   1.404   1.402  0.0614  0.3767  0.1129
  308TMC3    O2 4697   3.664   1.486   1.607 -0.6110  0.0648 -0.0627
  309MPD2     C 4698   3.207   1.582  17.704  0.3000 -0.3356  0.7804
  309MPD2    C1 4699   3.138   1.585  17.587 -0.8810  0.4689  0.7369
  309MPD2    C2 4700   2.998   1.613  17.591 -0.1608 -0.5874 -0.4928
  309MPD2    C3 4701   2.928   1.620  17.714 -0.1226  0.5518  0.4239
  309MPD2    C4 4702   3.006   1.607   0.100  0.8246 -0.3009 -0.1301
  309MPD2    C5 4703   3.143   1.592   0.094  0.1300  0.7876  0.4583
  309MPD2     H 4704   2.956   1.649  17.497 -1.0187 -0.7354 -0.1688
  309MPD2    H1 4705   2.958   1.615   0.197  0.6486  0.1199 -0.2542
  309MPD2    H2 4706   3.314   1.564  17.707  0.5583  1.2929  1.2933
  309MPD2    H3 4707   3.207   1.587   0.182  0.0705 -2.2600  0.3388
  309MPD2     N 4708   2.791   1.644  17.724  0.3217 -0.1314  0.4658
  309MPD2    H5 4709   2.759   1.647   0.090  0.4191  0.1726  0.4883
  309MPD2    N1 4710   3.199   1.567  17.461 -0.0413 -0.5688  0.0711
  309MPD2    H7 4711   3.144   1.580  17.377  2.1254  0.5715 -1.1920
  310TMC3    C1 4712   3.355   1.541  17.298  0.3824  0.8001 -0.2244
  310TMC3    C2 4713   3.282   1.623  17.220 -0.1005 -0.7316 -0.6612
  310TMC3    C3 4714   3.300   1.606  17.083  0.3096  0.3911  0.0813
  310TMC3    C4 4715   3.447   1.455  17.250 -0.1879  0.4689 -0.0215
  310TMC3    C5 4716   3.458   1.436  17.115  0.7167  0.4223  0.2343
  310TMC3    C6 4717   3.393   1.518  17.032  0.6900  0.1656 -0.3338
  310TMC3     C 4718   3.328   1.531  17.435  0.4240 -0.0284 -0.6897
  310TMC3     O 4719   3.408   1.481  17.512 -0.3048 -0.2757  0.0797
  310TMC3     H 4720   3.212   1.701  17.250  0.4502 -2.2829  4.5785
  310TMC3    H1 4721   3.499   1.396  17.325 -0.7052  1.1442  0.8633
  310TMC3    H2 4722   3.379   1.491  16.928  1.2396 -0.1186 -0.3313
  310TMC3    C7 4723   3.532   1.320  17.057  0.1422 -0.6520  0.0609
  310TMC3    C8 4724   3.226   1.685  16.986 -0.3387  0.8392 -0.1219
  310TMC3    O1 4725   3.515   1.301  16.938 -0.7169  0.2657  0.0541
  310TMC3    O2 4726   3.241   1.650  16.865 -0.1626  0.6531 -0.1713
  311MPD2     C 4727   0.173   2.342  12.824 -0.8073 -0.0205  0.2147
  311MPD2    C1 4728   0.174   2.463  12.889 -0.6108 -0.2825 -0.0235
  311MPD2    C2 4729   0.069   2.488  12.979  0.1439 -0.0753  0.8161
  311MPD2    C3 4730   4.707   2.397  13.013  0.1098  0.0190  0.0447
  311MPD2    C4 4731   4.715   2.276  12.951 -0.7295  0.3048 -0.3633
  311MPD2    C5 4732   0.083   2.250  12.863  0.4578  0.8212 -0.3451
  311MPD2     H 4733   0.075   2.587  13.024 -1.4973 -0.0005  0.8480
  311MPD2    H1 4734   4.639   2.202  12.971 -0.1949 -0.0618  0.3083
  311MPD2    H2 4735   0.248   2.316  12.750 -0.4587  0.4910  0.3891
  311MPD2    H3 4736   0.078   2.157  12.807 -0.3568 -0.1642  1.3601
  311MPD2     N 4737   4.594   2.433  13.096 -0.3305 -0.3426  0.0057
  311MPD2    H5 4738   4.598   2.531  13.122  0.5101 -0.4880  0.4403
  311MPD2    N1 4739   0.257   2.578  12.848  0.0637  0.0403  0.3149
  311MPD2    H7 4740   0.227   2.670  12.879  2.0204 -0.0651  2.5971
  312TMC3    C1 4741   4.369   2.428  13.159  0.2271  0.2400  0.0200
  312TMC3    C2 4742   4.253   2.357  13.196 -0.0519 -0.7587  0.3804
  312TMC3    C3 4743   4.154   2.428  13.254 -0.0919  0.2722  0.1760
  312TMC3    C4 4744   4.380   2.563  13.182  0.3632  0.3170 -0.2832
  312TMC3    C5 4745   4.268   2.632  13.226 -0.0481 -0.3586  0.5374
  312TMC3    C6 4746   4.156   2.563  13.262  0.3646  0.3713  0.0055
  312TMC3     C 4747   4.489   2.354  13.128  0.2166 -0.1164 -0.3972
  312TMC3     O 4748   4.485   2.230  13.135 -0.0674  0.4057  0.1267
  312TMC3     H 4749   4.253   2.250  13.183  2.8531 -0.5876 -1.1601
  312TMC3    H1 4750   4.455   2.615  13.123 -1.2995  0.0734 -2.5700
  312TMC3    H2 4751   4.070   2.620  13.297  0.3764  1.4193 -1.6143
  312TMC3    C7 4752   4.273   2.777  13.223  0.0004  0.4120  0.6472
  312TMC3    C8 4753   4.017   2.381  13.235 -0.2149 -0.7186 -0.4142
  312TMC3    O1 4754   4.170   2.841  13.212  0.1743  0.2465 -0.4017
  312TMC3    O2 4755   3.987   2.270  13.280 -0.5969 -0.2178 -0.3416
  313MPD2     C 4756   4.467   1.864  10.727 -0.0231  0.9416  0.6171
  313MPD2    C1 4757   4.357   1.846  10.809  0.6440 -0.2332 -0.0313
  313MPD2    C2 4758   4.235   1.821  10.747  0.2161 -0.0504  0.2021
  313MPD2    C3 4759   4.225   1.828  10.613  0.1305  0.3912 -0.5133
  313MPD2    C4 4760   4.335   1.849  10.530 -0.0287  0.0560 -0.2458
  313MPD2    C5 4761   4.454   1.867  10.595  0.1731  0.6248  0.5956
  313MPD2     H 4762   4.145   1.803  10.805 -0.3422  1.6121 -0.1556
  313MPD2    H1 4763   4.342   1.865  10.423 -0.8580 -0.6058 -0.3958
  313MPD2    H2 4764   4.566   1.892  10.762  0.3653 -0.8828  0.9644
  313MPD2    H3 4765   4.537   1.872  10.526 -0.4168 -1.1033 -0.2468
  313MPD2     N 4766   4.087   1.835  10.561 -0.3234  0.4245 -0.2283
  313MPD2    H5 4767   4.013   1.828  10.630  0.7006 -0.5989  0.7563
  313MPD2    N1 4768   4.358   1.855  10.950  0.4104 -0.3933 -0.2876
  313MPD2    H7 4769   4.277   1.816  10.997 -0.1140  2.7146  1.3358
  314TMC3    C1 4770   4.406   1.986  11.135 -0.0357 -0.2846  0.5665
  314TMC3    C2 4771   4.487   2.092  11.164 -0.1373 -0.3577  0.3133
  314TMC3    C3 4772   4.442   2.222  11.158 -0.2952  0.7500  0.3335
  314TMC3    C4 4773   4.274   2.008  11.134  0.1090 -0.0223 -0.0232
  314TMC3    C5 4774   4.235   2.134  11.122  0.0543 -0.5731  0.0505
  314TMC3    C6 4775   4.316   2.242  11.137 -0.3602 -0.1048 -0.0181
  314TMC3     C 4776   4.456   1.922  11.016  0.2954  0.5237  0.3648
  314TMC3     O 4777   4.560   1.965  10.978  0.0977 -0.4260 -0.2316
  314TMC3     H 4778   4.591   2.072  11.188  0.2988  1.2862 -0.1831
  314TMC3    H1 4779   4.205   1.925  11.128 -0.3403  0.4165 -0.8358
  314TMC3    H2 4780   4.273   2.341  11.124  2.3357  1.4289  2.7672
  314TMC3    C7 4781   4.138   2.148  11.010 -0.6547  0.1047  0.0990
  314TMC3    C8 4782   4.528   2.336  11.178 -0.1055  0.3831 -0.6525
  314TMC3    O1 4783   4.037   2.087  11.005  0.2819  0.2081 -0.1292
  314TMC3    O2 4784   4.479   2.449  11.164  0.4452  0.1326  0.1769
  315MPD2     C 4785   4.190   0.735  17.658 -0.2930  0.2141 -0.2955
  315MPD2    C1 4786   4.247   0.833   0.001 -0.0902  0.7610 -0.0218
  315MPD2    C2 4787   4.275   0.960  17.676 -0.1670  0.0849 -0.3372
  315MPD2    C3 4788   4.225   0.996  17.553 -0.3109 -0.0403  0.6421
  315MPD2    C4 4789   4.160   0.900  17.483  0.3674 -1.0295 -0.8892
  315MPD2    C5 4790   4.143   0.775  17.537  0.3954  0.1691 -0.5754
  315MPD2     H 4791   4.332   1.035  17.729  2.1004 -1.4426 -0.6282
  315MPD2    H1 4792   4.126   0.920  17.382 -0.3590 -1.3959 -0.7125
  315MPD2    H2 4793   4.172   0.633  17.691  1.9232 -0.7049 -1.8748
  315MPD2    H3 4794   4.088   0.704  17.476  0.0141  0.6249 -0.7673
  315MPD2     N 4795   4.249   1.131  17.507  0.1192  0.0889 -0.0028
  315MPD2    H5 4796   4.300   1.194  17.568 -1.3590  1.1426  0.1403
  315MPD2    N1 4797   4.291   0.793   0.137 -0.7783 -0.3616 -0.0142
  315MPD2    H7 4798   4.294   0.695   0.162  0.9304 -0.3413 -0.0989
  316TMC3    C1 4799   4.246   1.310  17.357 -0.0043  0.0634 -0.1058
  316TMC3    C2 4800   4.229   1.401  17.461  0.7783  0.3387  0.0971
  316TMC3    C3 4801   4.246   1.531  17.430  0.1002  0.2095  0.0724
  316TMC3    C4 4802   4.263   1.350  17.233 -0.1673  0.5468 -0.3725
  316TMC3    C5 4803   4.277   1.483  17.204 -0.2884  0.2286  0.0577
  316TMC3    C6 4804   4.270   1.578  17.299 -0.0276 -0.2468  0.2230
  316TMC3     C 4805   4.207   1.178  17.387 -0.6068 -0.6096 -0.5373
  316TMC3     O 4806   4.135   1.124  17.308 -0.7811 -0.0392 -0.0890
  316TMC3     H 4807   4.193   1.371  17.559  1.0764 -1.2841 -0.2857
  316TMC3    H1 4808   4.280   1.269  17.163  1.4321 -0.5128  1.2335
  316TMC3    H2 4809   4.307   1.680  17.288  3.3005 -1.4414  0.3695
  316TMC3    C7 4810   4.321   1.511  17.069  0.6590 -0.7460  0.8999
  316TMC3    C8 4811   4.227   1.633  17.530  0.2957  0.2949 -0.0355
  316TMC3    O1 4812   4.370   1.417  17.011 -0.5060  0.3905  1.0231
  316TMC3    O2 4813   4.218   1.752  17.494  0.1698 -0.2432 -0.1505
  317MPD2     C 4814   1.641   4.681  13.003 -0.1237 -0.0441 -0.8100
  317MPD2    C1 4815   1.705   4.565  12.971 -0.3356  1.2330 -0.4119
  317MPD2    C2 4816   1.744   4.489  13.074 -0.1692 -0.4047  0.2611
  317MPD2    C3 4817   1.717   4.515  13.202  0.1555  0.1257  0.0925
  317MPD2    C4 4818   1.642   4.626  13.236 -0.0528 -0.0399  0.0623
  317MPD2    C5 4819   1.599   4.700  13.133 -0.0696 -0.5412  0.5769
  317MPD2     H 4820   1.790   4.392  13.061 -0.4367 -0.5714  0.5629
  317MPD2    H1 4821   1.621   4.656  13.338 -2.7974  0.5552 -0.6551
  317MPD2    H2 4822   1.589   0.004  12.926  0.9301  2.7759  0.4872
  317MPD2    H3 4823   1.534   0.051  13.156 -0.8267 -1.5680  2.1681
  317MPD2     N 4824   1.754   4.420  13.299 -0.6600 -0.3794  0.0141
  317MPD2    H5 4825   1.823   4.351  13.271  1.7234  2.7760 -1.9586
  317MPD2    N1 4826   1.732   4.524  12.837  0.2100  0.1630 -0.1798
  317MPD2    H7 4827   1.793   4.444  12.824 -1.7003 -1.1771 -0.9735
  318TMC3    C1 4828   1.749   4.290  13.480 -0.4962 -0.5851 -0.7763
  318TMC3    C2 4829   1.691   4.185  13.412  0.9356  0.0373 -0.4234
  318TMC3    C3 4830   1.722   4.054  13.453 -0.1177  0.0309 -0.6591
  318TMC3    C4 4831   1.807   4.278  13.600 -0.1198 -0.1024  0.3725
  318TMC3    C5 4832   1.839   4.143  13.630 -0.1719 -0.1309  0.1610
  318TMC3    C6 4833   1.801   4.031  13.562 -0.0768  0.3645 -0.6146
  318TMC3     C 4834   1.712   4.413  13.426 -0.0846 -0.3437  0.4888
  318TMC3     O 4835   1.641   4.491  13.490 -0.1069 -0.3706  0.0174
  318TMC3     H 4836   1.628   4.211  13.327  0.5822 -1.2203 -0.5450
  318TMC3    H1 4837   1.840   4.366  13.653  1.8650 -1.4141  1.2957
  318TMC3    H2 4838   1.833   3.935  13.602 -0.4354 -0.2199 -1.7250
  318TMC3    C7 4839   1.898   4.107  13.760  0.0871  0.0386 -0.5283
  318TMC3    C8 4840   1.685   3.952  13.359  0.6353  0.0386 -0.4097
  318TMC3    O1 4841   1.902   4.197  13.840  0.0762  0.4365  0.4826
  318TMC3    O2 4842   1.647   3.986  13.246  0.2254 -0.1251 -0.4796
  319MPD2     C 4843   2.266   1.169  16.950  0.2194 -0.0002 -0.3069
  319MPD2    C1 4844   2.367   1.081  16.909  0.0723 -0.7656  0.1265
  319MPD2    C2 4845   2.364   1.028  16.787  0.2571  0.0043  0.3501
  319MPD2    C3 4846   2.255   1.054  16.703 -0.4357  0.3592 -0.4513
  319MPD2    C4 4847   2.151   1.136  16.740 -0.1488 -0.2450  0.1791
  319MPD2    C5 4848   2.161   1.194  16.863  0.6067  0.8641  0.3028
  319MPD2     H 4849   2.443   0.960  16.756 -0.9343  0.0214 -2.7610
  319MPD2    H1 4850   2.074   1.153  16.666  2.1472  0.6433 -2.0055
  319MPD2    H2 4851   2.267   1.220  17.046  0.5699 -1.3916  0.4263
  319MPD2    H3 4852   2.085   1.263  16.898  0.5328  1.6388 -1.4281
  319MPD2     N 4853   2.249   1.000  16.573  0.5173  0.2621 -0.1778
  319MPD2    H5 4854   2.165   1.031  16.526  0.8297  0.3713 -0.6699
  319MPD2    N1 4855   2.469   1.035  17.000 -0.5676 -0.9122 -0.2143
  319MPD2    H7 4856   2.536   0.973  16.955  2.6798  0.9143  2.0770
  320TMC3    C1 4857   2.280   0.857  16.397 -0.1112  0.4740 -0.1595
  320TMC3    C2 4858   2.197   0.927  16.308  0.4316  0.4137  0.1597
  320TMC3    C3 4859   2.136   0.862  16.200  0.3878 -0.1474  0.5120
  320TMC3    C4 4860   2.304   0.729  16.379  0.0186 -0.0822 -0.1830
  320TMC3    C5 4861   2.233   0.663  16.283 -0.0460  0.4785 -0.1648
  320TMC3    C6 4862   2.148   0.726  16.193  1.1731 -0.6969  0.1113
  320TMC3     C 4863   2.332   0.904  16.520  0.5665  0.4573 -0.8720
  320TMC3     O 4864   2.429   0.844  16.565 -0.4751 -0.5901 -0.7408
  320TMC3     H 4865   2.166   1.029  16.324 -1.0089 -0.2820  1.8801
  320TMC3    H1 4866   2.373   0.679  16.446  0.2812 -1.4928 -1.5035
  320TMC3    H2 4867   2.089   0.672  16.120 -1.2727 -2.1028  3.1256
  320TMC3    C7 4868   2.210   0.524  16.295  0.8207  0.6747 -0.1553
  320TMC3    C8 4869   2.050   0.944  16.114 -0.7779 -0.6164  0.6037
  320TMC3    O1 4870   2.155   0.466  16.208  0.2569  0.4671 -0.1193
  320TMC3    O2 4871   1.995   1.036  16.169 -0.0961  0.6237  0.4156
  321TMC3    C1 4872   2.575   0.989  17.211 -1.0025 -0.6646  0.8847
  321TMC3    C2 4873   2.593   0.864  17.157 -1.2013 -0.5913 -0.0487
  321TMC3    C3 4874   2.616   0.760  17.241 -0.2814  0.0983 -0.1865
  321TMC3    C4 4875   2.594   1.004  17.349  0.1483  0.5470 -0.3728
  321TMC3    C5 4876   2.617   0.897  17.433 -0.1299 -0.4468  0.1828
  321TMC3    C6 4877   2.619   0.774  17.377 -0.5123 -0.7997  0.2250
  321TMC3     C 4878   2.486   1.071  17.136  0.8708  0.7400  0.6281
  321TMC3     O 4879   2.429   1.161  17.198  0.4648  0.1822 -0.5033
  321TMC3     H 4880   2.603   0.853  17.049  0.8777 -4.0291  0.4825
  321TMC3    H1 4881   2.595   1.103  17.393  0.0873  1.3655 -2.2106
  321TMC3    H2 4882   2.614   0.680  17.430  3.0436  0.4025  2.7517
  321TMC3    C7 4883   2.714   0.906  17.545  0.0499 -0.7330  0.4500
  321TMC3    C8 4884   2.716   0.665  17.203  0.0598 -0.1504 -0.2683
  321TMC3    O1 4885   2.768   0.799  17.570 -0.1352 -0.0680  0.0003
  321TMC3    O2 4886   2.730   0.638  17.083  0.3138 -0.2533 -0.5803
  322MPD2     C 4887   1.047   1.979  13.985 -0.2294  0.5592 -0.2009
  322MPD2    C1 4888   1.117   1.903  14.073  0.2794 -0.7178  0.3406
  322MPD2    C2 4889   1.200   1.792  14.042  0.7293  0.2933 -1.1990
  322MPD2    C3 4890   1.203   1.767  13.908  0.5700 -0.0087 -0.3633
  322MPD2    C4 4891   1.123   1.835  13.813  0.0436  0.0659  0.5192
  322MPD2    C5 4892   1.050   1.939  13.850 -0.1108 -0.4637 -0.1774
  322MPD2     H 4893   1.264   1.742  14.115 -2.5580  1.8170  2.7526
  322MPD2    H1 4894   1.108   1.802  13.711 -2.9839  2.4203  0.2284
  322MPD2    H2 4895   0.985   2.063  14.015 -0.9879  0.4239 -1.3648
  322MPD2    H3 4896   0.990   1.987  13.773 -0.5502 -2.6345 -1.1697
  322MPD2     N 4897   1.279   1.655  13.876  0.1655 -0.0552 -0.5632
  322MPD2    H5 4898   1.329   1.601  13.946  1.4235  0.6123 -0.9264
  322MPD2    N1 4899   1.116   1.945  14.211 -0.3489  0.2644 -0.5231
  322MPD2    H7 4900   1.085   2.040  14.226 -0.9353  0.1043 -0.7042
  323TMC3    C1 4901   1.210   1.962  14.427 -0.1435 -0.3111 -0.2117
  323TMC3    C2 4902   1.264   2.089  14.403 -0.5762  0.0824 -0.2347
  323TMC3    C3 4903   1.336   2.157  14.495 -0.4685 -0.1824  0.1348
  323TMC3    C4 4904   1.242   1.894  14.544 -0.5421  0.4648 -0.0056
  323TMC3    C5 4905   1.314   1.968  14.629 -0.0883  0.0241 -1.1814
  323TMC3    C6 4906   1.348   2.102  14.613  0.7122  0.4957 -0.0741
  323TMC3     C 4907   1.168   1.873  14.320 -0.6616  0.3524  0.2838
  323TMC3     O 4908   1.193   1.757  14.339  0.6723 -0.4502  0.2771
  323TMC3     H 4909   1.255   2.132  14.304 -2.3355  0.2965  0.0104
  323TMC3    H1 4910   1.206   1.795  14.569  1.8489 -0.6600 -0.9619
  323TMC3    H2 4911   1.389   2.153  14.699 -1.3882 -0.1286  1.2758
  323TMC3    C7 4912   1.404   1.890  14.709 -0.4309 -0.2362  0.7183
  323TMC3    C8 4913   1.477   2.178  14.447 -0.7357 -0.3481  0.1986
  323TMC3    O1 4914   1.373   1.777  14.743  0.2954  0.2793 -0.0452
  323TMC3    O2 4915   1.563   2.140  14.525  0.5674 -0.1358  0.1097
  324MPD2     C 4916   3.111   2.848  14.696  0.4977 -0.7296 -0.4750
  324MPD2    C1 4917   3.111   2.974  14.653  0.3357 -1.1351  0.4707
  324MPD2    C2 4918   3.007   3.022  14.590 -0.4124 -0.1853  0.3544
  324MPD2    C3 4919   2.892   2.945  14.578  0.2230  0.4435  0.0746
  324MPD2    C4 4920   2.894   2.810  14.609 -0.0607 -0.4324 -0.2938
  324MPD2    C5 4921   3.008   2.764  14.666 -0.0216  0.6121  0.0820
  324MPD2     H 4922   3.005   3.128  14.569 -0.1116 -0.1083  0.7161
  324MPD2    H1 4923   2.805   2.749  14.600 -0.2778 -0.5241  2.4591
  324MPD2    H2 4924   3.187   2.798  14.755  0.8146 -3.1896 -2.9496
  324MPD2    H3 4925   3.009   2.668  14.716  0.7617 -0.8634 -2.7953
  324MPD2     N 4926   2.765   2.998  14.546 -0.5935 -1.0166 -0.3918
  324MPD2    H5 4927   2.681   2.942  14.552 -0.8292 -0.4863  1.0887
  324MPD2    N1 4928   3.219   3.064  14.683  0.5104 -0.2194 -0.5223
  324MPD2    H7 4929   3.225   3.160  14.650  0.7270 -0.2313 -0.5160
  325TMC3    C1 4930   2.601   3.147  14.466  0.2167 -0.5556 -0.5810
  325TMC3    C2 4931   2.502   3.074  14.522  0.2333 -0.4990 -0.0791
  325TMC3    C3 4932   2.371   3.112  14.499 -1.3660  0.4299 -0.6523
  325TMC3    C4 4933   2.580   3.266  14.406  0.5090 -0.6886 -0.2520
  325TMC3    C5 4934   2.452   3.318  14.410  0.4699 -0.2557 -0.3729
  325TMC3    C6 4935   2.344   3.236  14.442 -0.5134  0.3983  0.1523
  325TMC3     C 4936   2.742   3.123  14.488  0.4171 -0.6351 -0.2784
  325TMC3     O 4937   2.826   3.194  14.437  0.3743 -0.3517 -0.5904
  325TMC3     H 4938   2.522   2.983  14.578  0.9114 -0.0631  0.3833
  325TMC3    H1 4939   2.658   3.325  14.360 -0.7832  0.6515 -0.7138
  325TMC3    H2 4940   2.244   3.266  14.411 -1.3662 -1.4538  1.0986
  325TMC3    C7 4941   2.441   3.460  14.388  0.3001 -0.3748 -0.0825
  325TMC3    C8 4942   2.268   3.011  14.510  0.0334 -0.1808 -0.7898
  325TMC3    O1 4943   2.515   3.505  14.306 -0.0745 -0.1651 -0.2840
  325TMC3    O2 4944   2.296   2.893  14.518 -0.7286 -0.3109 -0.0383
  326MPD2     C 4945   3.814   4.394  10.615  0.5606 -0.0086 -0.0232
  326MPD2    C1 4946   3.812   4.455  10.742  0.0811  0.2602 -0.2590
  326MPD2    C2 4947   3.922   4.528  10.785  0.0256 -0.1399 -0.2515
  326MPD2    C3 4948   4.029   4.553  10.700  0.2633  1.1567 -0.6775
  326MPD2    C4 4949   4.029   4.491  10.573  0.3360 -0.5942 -0.7646
  326MPD2    C5 4950   3.927   4.409  10.537 -0.8297  0.0899  0.1972
  326MPD2     H 4951   3.918   4.564  10.887  0.2947  0.1513 -0.3450
  326MPD2    H1 4952   4.113   4.494  10.505  2.0139  0.0480  1.3564
  326MPD2    H2 4953   3.734   4.333  10.575  2.0981 -0.1060 -2.9611
  326MPD2    H3 4954   3.937   4.347  10.449  2.0283  2.3996 -1.1192
  326MPD2     N 4955   4.138   4.631  10.743  0.3147 -0.3684 -0.0901
  326MPD2    H5 4956   4.208   4.650  10.672  0.1505  1.1349  0.1447
  326MPD2    N1 4957   3.703   4.455  10.828  0.0659  0.0027 -0.6714
  326MPD2    H7 4958   3.712   4.492  10.922 -2.6664  0.2865 -0.5019
  327TMC3    C1 4959   3.478   4.441  10.888 -0.0744 -0.0877  0.2157
  327TMC3    C2 4960   3.372   4.527  10.862  0.3999 -0.1666 -0.0473
  327TMC3    C3 4961   3.313   4.597  10.960 -0.5443 -0.2426 -0.4171
  327TMC3    C4 4962   3.514   4.420  11.015  0.5040 -0.7065  0.1517
  327TMC3    C5 4963   3.431   4.463  11.117 -0.0946 -0.1615 -0.3750
  327TMC3    C6 4964   3.330   4.562  11.093  0.7143  0.4696 -0.6971
  327TMC3     C 4965   3.578   4.423  10.782 -0.2493  0.0930 -0.0776
  327TMC3     O 4966   3.539   4.419  10.669 -0.1997  0.3987 -0.4606
  327TMC3     H 4967   3.371   4.563  10.759  0.8851  1.3896  0.4899
  327TMC3    H1 4968   3.581   4.335  11.028  1.7513  0.2489 -0.0155
  327TMC3    H2 4969   3.273   4.604  11.175 -0.6487  0.3303 -1.5748
  327TMC3    C7 4970   3.435   4.394  11.245 -0.0222 -0.4838  0.8520
  327TMC3    C8 4971   3.281   0.008  10.930 -0.1215  0.0185 -0.6835
  327TMC3    O1 4972   3.333   4.368  11.303  0.0252  0.4467 -0.3295
  327TMC3    O2 4973   3.323   0.045  10.820  0.4311 -0.4944 -0.1006
  328MPD2     C 4974   2.113   4.003  17.295  0.6410 -0.1013  0.2412
  328MPD2    C1 4975   2.042   3.954  17.188 -0.2952  0.8445  0.2916
  328MPD2    C2 4976   1.985   4.039  17.100  0.0330  0.2017 -0.2721
  328MPD2    C3 4977   1.991   4.176  17.118  0.0965 -0.1894 -0.0803
  328MPD2    C4 4978   2.084   4.223  17.209  0.0887  0.0639  0.0567
  328MPD2    C5 4979   2.129   4.136  17.302  0.5395  0.1878  0.5007
  328MPD2     H 4980   1.933   4.000  17.014  0.3669 -1.0393  0.0788
  328MPD2    H1 4981   2.096   4.330  17.223  1.1891 -0.2265  1.3500
  328MPD2    H2 4982   2.147   3.938  17.375  2.4995  1.0659  0.4007
  328MPD2    H3 4983   2.180   4.173  17.389 -0.1894 -1.1703  1.4993
  328MPD2     N 4984   1.908   4.272  17.056  0.6688 -0.2641  0.2609
  328MPD2    H5 4985   1.925   4.369  17.081  0.3493  0.8470 -3.8824
  328MPD2    N1 4986   2.023   3.813  17.174  0.3847  0.0763 -0.4561
  328MPD2    H7 4987   2.038   3.757  17.257 -0.7274  0.5530  0.0730
  329TMC3    C1 4988   1.949   3.610  17.098 -0.7215  0.6005  0.5928
  329TMC3    C2 4989   1.896   3.569  17.214  0.1302  1.1037  0.1973
  329TMC3    C3 4990   1.869   3.438  17.217 -0.9721  0.3318  0.1657
  329TMC3    C4 4991   1.974   3.525  16.992 -0.7142  1.1848 -0.7001
  329TMC3    C5 4992   1.959   3.391  17.014 -0.8361  0.7864  0.1928
  329TMC3    C6 4993   1.913   3.339  17.129  0.0673  0.1716 -0.1005
  329TMC3     C 4994   1.968   3.747  17.065  0.2107  0.0698 -0.2336
  329TMC3     O 4995   1.962   3.777  16.947  0.3887 -0.0232 -0.3310
  329TMC3     H 4996   1.860   3.650  17.276  0.4731  0.8689  0.7049
  329TMC3    H1 4997   2.012   3.573  16.903 -0.1915  0.4440 -0.8732
  329TMC3    H2 4998   1.902   3.233  17.146  0.2007 -0.0034 -1.1344
  329TMC3    C7 4999   1.933   3.298  16.907  0.4311 -0.5694 -0.1521
  329TMC3    C8 5000   1.803   3.390  17.336 -0.1955 -0.0823  0.6990
  329TMC3    O1 5001   1.882   3.185  16.930 -0.2308  0.0525  0.5709
  329TMC3    O2 5002   1.781   3.269  17.337 -0.1453  0.5200  0.5811
  330TMC3    C1 5003   4.183   3.357  10.307 -0.9316  0.6676 -0.1030
  330TMC3    C2 5004   4.064   3.411  10.353 -0.0279  0.0111  0.4297
  330TMC3    C3 5005   4.008   3.363  10.470  0.3779  0.2780  0.1357
  330TMC3    C4 5006   4.239   3.249  10.368 -0.2846  0.5831  0.0361
  330TMC3    C5 5007   4.175   3.192  10.467 -0.3107 -0.3784  0.1523
  330TMC3    C6 5008   4.067   3.251  10.525  0.1393 -0.1100 -0.1389
  330TMC3     C 5009   4.240   3.403  10.186 -0.3757  0.2761  0.1790
  330TMC3     O 5010   4.357   3.387  10.168 -0.1323 -0.6899 -0.2130
  330TMC3     H 5011   4.037   3.509  10.315  1.9479  0.4332  0.1293
  330TMC3    H1 5012   4.337   3.211  10.341 -2.1817 -2.0635 -3.2082
  330TMC3    H2 5013   4.029   3.209  10.617  0.1518  1.1177  0.4391
  330TMC3    C7 5014   4.223   3.064  10.519  0.9374  0.0648 -0.0608
  330TMC3    C8 5015   3.927   3.456  10.543 -0.4751  0.2375 -0.3684
  330TMC3    O1 5016   4.344   3.043  10.510 -0.4756  0.3143 -0.4872
  330TMC3    O2 5017   3.911   3.570  10.504  0.2613  0.0777 -0.6920
  331MPD2     C 5018   1.969   2.868  13.144  0.2747 -1.0765  0.8319
  331MPD2    C1 5019   1.972   2.807  13.022  0.5453  0.1792 -0.2061
  331MPD2    C2 5020   2.027   2.678  13.021  0.1711 -0.2366  0.3630
  331MPD2    C3 5021   2.048   2.605  13.139 -0.5127  0.6459  0.0926
  331MPD2    C4 5022   2.028   2.664  13.264  0.1438 -0.1383 -0.4671
  331MPD2    C5 5023   1.988   2.801  13.260 -0.8283  0.4752 -0.4459
  331MPD2     H 5024   2.035   2.631  12.923 -0.3736 -0.0219  0.2108
  331MPD2    H1 5025   2.051   2.606  13.352  1.9321 -1.0330 -1.5326
  331MPD2    H2 5026   1.947   2.974  13.156 -0.0904 -0.9340 -1.1288
  331MPD2    H3 5027   1.959   2.857  13.349 -1.4911 -1.0238  0.2758
  331MPD2     N 5028   2.088   2.468  13.117  0.6955 -0.0042  0.2378
  331MPD2    H5 5029   2.088   2.439  13.020  0.2021  0.6907  0.0285
  331MPD2    N1 5030   1.928   2.877  12.908  0.9769  0.4643 -0.7897
  331MPD2    H7 5031   1.888   2.970  12.920 -4.1778 -1.4801 -2.9393
  332TMC3    C1 5032   2.156   2.253  13.147 -0.1123 -0.0646  0.8793
  332TMC3    C2 5033   2.123   2.224  13.020  0.2474 -0.3854 -0.1831
  332TMC3    C3 5034   2.167   2.104  12.977  1.0901 -0.2015  0.4398
  332TMC3    C4 5035   2.234   2.167  13.219  0.7780  0.0998 -0.3669
  332TMC3    C5 5036   2.285   2.047  13.170  0.2610 -0.4885 -0.4282
  332TMC3    C6 5037   2.247   2.014  13.046 -1.3380  0.0101 -0.1729
  332TMC3     C 5038   2.115   2.374  13.211  0.0260 -1.1247  0.6891
  332TMC3     O 5039   2.118   2.382  13.335  0.0914  0.4650  0.3135
  332TMC3     H 5040   2.050   2.279  12.960 -0.7784  0.4362  1.8329
  332TMC3    H1 5041   2.263   2.205  13.316 -0.5229  1.4971 -0.5076
  332TMC3    H2 5042   2.272   1.919  13.001  1.2979  0.1828  0.9609
  332TMC3    C7 5043   2.378   1.980  13.254 -0.0230 -0.5486 -0.0760
  332TMC3    C8 5044   2.129   2.063  12.847  0.3337  0.3294 -0.0546
  332TMC3    O1 5045   2.348   1.977  13.370  0.5595 -0.2470  0.0017
  332TMC3    O2 5046   2.137   2.142  12.756 -0.2526  0.1271 -0.0371
  333MPD2     C 5047   2.139   3.185  11.453 -0.2207 -0.5203 -0.5617
  333MPD2    C1 5048   2.231   3.090  11.420  0.6062  0.2281  0.0935
  333MPD2    C2 5049   2.191   2.960  11.382 -0.8450 -0.8797 -0.4620
  333MPD2    C3 5050   2.059   2.935  11.368 -0.1899  0.1518 -0.4139
  333MPD2    C4 5051   1.963   3.029  11.397 -0.1193 -0.0560  0.1546
  333MPD2    C5 5052   2.009   3.151  11.442  1.1569  0.0752  0.5130
  333MPD2     H 5053   2.266   2.891  11.344 -2.0143 -0.2265 -3.9757
  333MPD2    H1 5054   1.857   3.007  11.392 -0.2410  0.4409  0.4733
  333MPD2    H2 5055   2.170   3.282  11.490 -0.3659 -0.2619 -1.1238
  333MPD2    H3 5056   1.941   3.231  11.468  0.0142 -0.6879 -0.0802
  333MPD2     N 5057   2.035   2.813  11.303 -0.1565  0.1108  0.7309
  333MPD2    H5 5058   2.119   2.760  11.281  0.9520  2.1762  0.0345
  333MPD2    N1 5059   2.371   3.134  11.428 -1.1766  0.9661 -0.9827
  333MPD2    H7 5060   2.380   3.230  11.459  0.2119  0.6315 -0.3585
  334TMC3    C1 5061   2.603   3.134  11.381 -0.1670 -0.2922 -0.5258
  334TMC3    C2 5062   2.720   3.063  11.391 -0.0163  0.0106 -0.5999
  334TMC3    C3 5063   2.840   3.135  11.385  0.3616 -0.2275  0.2309
  334TMC3    C4 5064   2.590   3.269  11.353 -0.1840 -0.0621  0.6409
  334TMC3    C5 5065   2.715   3.327  11.333 -0.4771 -0.8697 -0.0206
  334TMC3    C6 5066   2.839   3.271  11.356  0.5966 -0.4479 -0.5477
  334TMC3     C 5067   2.478   3.057  11.388 -0.1597  0.5291 -0.1376
  334TMC3     O 5068   2.477   2.940  11.359  1.0045  0.1619  0.4404
  334TMC3     H 5069   2.715   2.958  11.420 -0.6792  0.4366  0.8321
  334TMC3    H1 5070   2.496   3.308  11.316  0.8040  0.1636 -1.6635
  334TMC3    H2 5071   2.925   3.332  11.335 -0.6615  0.5101 -2.9291
  334TMC3    C7 5072   2.718   3.474  11.298  0.2436  0.3866 -0.0237
  334TMC3    C8 5073   2.956   3.049  11.402  0.0366  0.2461  0.1375
  334TMC3    O1 5074   2.820   3.520  11.250  0.0660 -0.3154 -0.2187
  334TMC3    O2 5075   2.943   2.932  11.432  0.3211 -0.1281  0.2068
  335TMC3    C1 5076   2.713   4.373  17.564 -0.1510  0.4225 -0.1909
  335TMC3    C2 5077   2.629   4.266  17.570  0.4455  0.0464 -0.3233
  335TMC3    C3 5078   2.672   4.145  17.611 -0.3907  0.5071  0.3379
  335TMC3    C4 5079   2.845   4.360  17.604 -0.3160  0.2145 -0.7462
  335TMC3    C5 5080   2.893   4.231  17.625 -0.1648  0.1226  0.0891
  335TMC3    C6 5081   2.811   4.123  17.629  0.2382  0.3042  0.3496
  335TMC3     C 5082   2.661   4.513  17.530 -0.5303 -0.4031 -0.2071
  335TMC3     O 5083   2.544   4.530  17.559  0.1737  0.0374 -0.2426
  335TMC3     H 5084   2.526   4.282  17.541 -0.0432 -1.4822  0.5919
  335TMC3    H1 5085   2.915   4.443  17.602  0.4117 -0.3907 -0.6499
  335TMC3    H2 5086   2.851   4.024  17.649 -2.5698 -1.3219 -2.1103
  335TMC3    C7 5087   3.034   4.213  17.618 -0.1380  0.5748  0.6785
  335TMC3    C8 5088   2.597   4.029  17.567  0.1856 -0.4759 -0.6393
  335TMC3    O1 5089   3.094   4.266  17.523  0.2402 -0.7319 -0.4103
  335TMC3    O2 5090   2.567   3.949  17.651  0.2120  0.4103 -0.3396
  336MPD2     C 5091   2.245   2.173  16.355 -0.1352  0.1872 -0.5011
  336MPD2    C1 5092   2.121   2.119  16.342 -0.1428 -0.2600  0.2795
  336MPD2    C2 5093   2.103   1.991  16.371  0.2868 -0.0518  0.0438
  336MPD2    C3 5094   2.212   1.914  16.420 -0.0844  0.6988 -0.1130
  336MPD2    C4 5095   2.337   1.960  16.410 -0.4174 -0.4545 -0.5272
  336MPD2    C5 5096   2.351   2.096  16.387 -0.2162  0.2154 -0.4861
  336MPD2     H 5097   2.009   1.941  16.349 -0.5141  1.3369  0.2962
  336MPD2    H1 5098   2.418   1.891  16.433 -0.5567 -0.4704 -0.0791
  336MPD2    H2 5099   2.263   2.279  16.335 -1.0882  0.7998  1.8825
  336MPD2    H3 5100   2.450   2.139  16.376  0.6714 -1.7050 -0.0850
  336MPD2     N 5101   2.198   1.781  16.459 -0.1126  0.2420 -0.2258
  336MPD2    H5 5102   2.269   1.712  16.436 -1.2384 -0.5271 -1.3562
  336MPD2    N1 5103   2.030   2.217  16.296 -0.3336  0.0945 -0.5867
  336MPD2    H7 5104   2.059   2.311  16.269 -0.2809  0.2770  0.1040
  337TMC3    C1 5105   1.841   2.298  16.193  0.1876  0.6896  0.4690
  337TMC3    C2 5106   1.711   2.291  16.168 -0.9818  0.1514  0.7476
  337TMC3    C3 5107   1.661   2.344  16.055 -0.5721  0.2983 -0.2997
  337TMC3    C4 5108   1.921   2.354  16.105  0.1654 -0.0131 -0.0905
  337TMC3    C5 5109   1.872   2.419  15.997 -0.7612  0.2805 -0.2017
  337TMC3    C6 5110   1.736   2.413  15.963  0.5053  0.2697 -0.0302
  337TMC3     C 5111   1.897   2.197  16.276  0.5654 -0.4400 -0.4839
  337TMC3     O 5112   1.825   2.104  16.309 -0.5935  0.1042 -0.2261
  337TMC3     H 5113   1.653   2.229  16.237 -0.2469 -1.1429  0.1990
  337TMC3    H1 5114   2.028   2.367  16.116  0.1662 -1.3393  1.5287
  337TMC3    H2 5115   1.698   2.464  15.875 -0.8377  0.3672  0.6011
  337TMC3    C7 5116   1.961   2.517  15.925 -0.3219  0.1749 -0.2626
  337TMC3    C8 5117   1.532   2.294  16.012 -0.4529 -0.1597 -0.5556
  337TMC3    O1 5118   2.057   2.561  15.995 -0.3260  0.7087 -0.2550
  337TMC3    O2 5119   1.456   2.242  16.092 -0.3063  0.0663  0.1492
  338MPD2     C 5120   2.926   1.629   1.290  0.6757 -0.0401 -0.0923
  338MPD2    C1 5121   2.810   1.589   1.229  0.0889  0.0120  0.2546
  338MPD2    C2 5122   2.686   1.622   1.277  0.3760 -0.3296  0.2475
  338MPD2    C3 5123   2.675   1.699   1.390 -0.2364  0.2175 -0.2967
  338MPD2    C4 5124   2.784   1.740   1.460 -0.6629 -0.2546 -0.3379
  338MPD2    C5 5125   2.905   1.704   1.406  0.3889  0.3674  0.2754
  338MPD2     H 5126   2.600   1.595   1.217 -0.9191  4.1003  0.1385
  338MPD2    H1 5127   2.780   1.811   1.542  3.3121 -0.0222 -0.3658
  338MPD2    H2 5128   3.029   1.603   1.268  1.2526  1.9454  0.2616
  338MPD2    H3 5129   2.994   1.752   1.445 -0.1084  0.8557  0.8205
  338MPD2     N 5130   2.547   1.730   1.427  0.0980  0.2426 -0.3039
  338MPD2    H5 5131   2.474   1.679   1.380  0.8875 -2.0982  1.0221
  338MPD2    N1 5132   2.820   1.502   1.116 -0.2108 -0.3322 -0.2859
  338MPD2    H7 5133   2.729   1.476   1.080 -0.5686 -0.1693  0.5005
  339TMC3    C1 5134   2.387   1.758   1.599  0.0442  0.7234  0.2827
  339TMC3    C2 5135   2.310   1.869   1.627  0.3707 -0.0891  0.2341
  339TMC3    C3 5136   2.179   1.850   1.653  0.0703 -0.7027 -0.0811
  339TMC3    C4 5137   2.342   1.632   1.579  0.4467  0.1164 -0.2479
  339TMC3    C5 5138   2.211   1.618   1.606 -0.1464 -0.1396 -0.0289
  339TMC3    C6 5139   2.120   1.727   1.640  0.4375 -1.0944 -0.8094
  339TMC3     C 5140   2.519   1.788   1.550  0.7083 -0.2926 -0.6326
  339TMC3     O 5141   2.582   1.875   1.609 -0.0762 -0.4193  0.0314
  339TMC3     H 5142   2.367   1.961   1.636 -0.9446  0.8225 -0.7133
  339TMC3    H1 5143   2.404   1.548   1.549 -1.5830 -1.5442  0.2348
  339TMC3    H2 5144   2.019   1.704   1.671  0.9535 -3.2632 -0.7380
  339TMC3    C7 5145   2.156   1.485   1.581  0.9324 -0.7327 -0.5658
  339TMC3    C8 5146   2.120   1.943   1.741  0.5820  0.6163 -0.5338
  339TMC3    O1 5147   2.220   1.415   1.502  0.4477 -0.3459  0.2395
  339TMC3    O2 5148   2.197   2.015   1.805 -0.4166 -0.1698 -0.4054
  340MPD2     C 5149   2.021   0.018  10.213  0.7318  0.5493  0.0269
  340MPD2    C1 5150   2.034   4.614  10.240 -0.2802  0.3203 -0.2459
  340MPD2    C2 5151   2.087   4.575  10.363 -0.2761 -0.4813 -0.6746
  340MPD2    C3 5152   2.115   4.676  10.456 -0.7346 -0.1158 -0.1477
  340MPD2    C4 5153   2.098   0.077  10.425 -0.4099  0.0809 -0.3635
  340MPD2    C5 5154   2.050   0.121  10.304 -0.3038 -0.1309 -0.0266
  340MPD2     H 5155   2.111   4.471  10.381  0.5104 -0.3848 -1.1874
  340MPD2    H1 5156   2.119   0.149  10.503  1.6016  0.2987 -1.0869
  340MPD2    H2 5157   1.965   0.049  10.126 -1.2443 -1.2074  0.6609
  340MPD2    H3 5158   2.034   0.226  10.287 -0.7510 -0.0313  1.0027
  340MPD2     N 5159   2.179   4.646  10.578  0.0736  0.5908  0.5456
  340MPD2    H5 5160   2.225   4.718  10.633  1.4086  1.4137 -1.6740
  340MPD2    N1 5161   1.993   4.517  10.142 -0.7259 -0.2285  0.4215
  340MPD2    H7 5162   1.962   4.552  10.052  1.6061  0.4940 -0.1066
  341TMC3    C1 5163   1.921   4.309  10.062  0.3477  0.3041  0.0375
  341TMC3    C2 5164   1.879   4.181  10.078  0.0936  0.1850 -0.5799
  341TMC3    C3 5165   1.845   4.106   9.971  0.3069 -0.4426 -0.4505
  341TMC3    C4 5166   1.949   4.350   9.933 -0.0394  0.4109  0.1968
  341TMC3    C5 5167   1.927   4.274   9.822  0.5976 -0.0012  0.5459
  341TMC3    C6 5168   1.867   4.146   9.839 -1.4456  0.1237 -0.0192
  341TMC3     C 5169   1.964   4.385  10.172 -0.1195  0.4394  0.1928
  341TMC3     O 5170   1.980   4.321  10.274 -0.2673 -0.0325  0.0731
  341TMC3     H 5171   1.864   4.147  10.179 -1.8840 -0.7196 -1.1830
  341TMC3    H1 5172   1.991   4.450   9.922 -1.3642  0.9509  0.0716
  341TMC3    H2 5173   1.876   4.076   9.757  0.7810  0.6287 -0.2188
  341TMC3    C7 5174   1.995   4.298   9.698  0.0840 -0.1396  0.0825
  341TMC3    C8 5175   1.836   3.961   9.992  1.0476  0.4164  0.0934
  341TMC3    O1 5176   2.000   4.213   9.613  0.0662  0.2933  0.2242
  341TMC3    O2 5177   1.888   3.908  10.085 -0.3136 -0.2919  0.3039
  342MPD2     C 5178   0.345   2.554   0.219  0.4477 -0.3279 -0.5669
  342MPD2    C1 5179   0.427   2.537   0.113 -0.3651 -0.2338 -0.2334
  342MPD2    C2 5180   0.503   2.646   0.066  0.2563 -0.2176  0.9107
  342MPD2    C3 5181   0.490   2.769   0.124 -0.3610  0.0456  0.2666
  342MPD2    C4 5182   0.404   2.783   0.229 -0.6294 -0.0513  0.1027
  342MPD2    C5 5183   0.332   2.678   0.275 -0.0124  0.3817 -0.3184
  342MPD2     H 5184   0.569   2.625  17.712 -1.5171  0.9068 -0.7536
  342MPD2    H1 5185   0.410   2.883   0.269 -0.1777 -0.4505  1.0346
  342MPD2    H2 5186   0.285   2.471   0.253  0.7426 -0.9188 -1.4928
  342MPD2    H3 5187   0.262   2.696   0.356  1.6499  1.1697  0.9338
  342MPD2     N 5188   0.546   2.884   0.070 -0.2634 -0.1428 -0.1947
  342MPD2    H5 5189   0.522   2.977   0.105  0.3147 -0.1839  0.2987
  342MPD2    N1 5190   0.449   2.409   0.051  0.0931 -0.0623 -0.1086
  342MPD2    H7 5191   0.527   2.395  17.718 -1.9363 -2.7657 -2.0601
  343TMC3    C1 5192   0.410   2.183  17.722 -0.0599 -0.3895 -0.1919
  343TMC3    C2 5193   0.535   2.187  17.677 -0.0994 -0.2354 -0.7519
  343TMC3    C3 5194   0.556   2.117  17.558 -0.1730 -0.1344 -0.3026
  343TMC3    C4 5195   0.321   2.088  17.675  0.2194 -0.6168 -0.7116
  343TMC3    C5 5196   0.346   2.017  17.561  0.0846  1.0542 -0.4024
  343TMC3    C6 5197   0.462   2.035  17.498 -0.6114 -0.4876  0.1710
  343TMC3     C 5198   0.369   2.297   0.071  0.1245 -0.0970 -0.0002
  343TMC3     O 5199   0.259   2.296   0.126 -0.0417  0.1593  0.2223
  343TMC3     H 5200   0.613   2.254  17.712 -1.3677  0.4368  0.7863
  343TMC3    H1 5201   0.219   2.098  17.710  0.0644  0.1407 -1.3751
  343TMC3    H2 5202   0.492   1.994  17.402  1.2958  0.6271  0.2868
  343TMC3    C7 5203   0.292   1.878  17.551 -0.6842  0.2319  0.6218
  343TMC3    C8 5204   0.687   2.147  17.498 -0.3446  0.0249  0.6286
  343TMC3    O1 5205   0.334   1.807  17.460 -0.2499 -0.1282 -0.1816
  343TMC3    O2 5206   0.754   2.244  17.532 -0.1009  0.0546 -0.1240
  344MPD2     C 5207   0.903   2.124  11.348  0.3146  0.0895 -0.3364
  344MPD2    C1 5208   0.968   2.022  11.280 -0.1923  0.3955  0.0389
  344MPD2    C2 5209   1.034   2.060  11.165 -0.2012 -0.1267 -0.4598
  344MPD2    C3 5210   1.040   2.190  11.116 -0.2703  0.1558 -1.0795
  344MPD2    C4 5211   0.980   2.294  11.191  0.6114 -0.4619  0.8516
  344MPD2    C5 5212   0.909   2.252  11.301  0.4433  0.6135  0.1960
  344MPD2     H 5213   1.083   1.978  11.113  1.0333  0.1332  0.2870
  344MPD2    H1 5214   0.965   2.395  11.155  0.4144 -0.3092  1.3573
  344MPD2    H2 5215   0.841   2.105  11.435  0.4482  0.3168 -0.1906
  344MPD2    H3 5216   0.863   2.332  11.358 -1.2032 -0.9951  1.0914
  344MPD2     N 5217   1.109   2.226  11.000 -0.4108  0.8003  0.1202
  344MPD2    H5 5218   1.120   2.327  10.990 -2.0958  1.0455  0.6226
  344MPD2    N1 5219   0.976   1.887  11.326  0.0066 -0.5065  0.6467
  344MPD2    H7 5220   1.026   1.824  11.265  1.7198  0.8176  0.6917
  345TMC3    C1 5221   1.250   2.226  10.806  0.8533  0.3695 -0.2555
  345TMC3    C2 5222   1.379   2.184  10.765 -0.1406 -0.1056  0.1641
  345TMC3    C3 5223   1.448   2.265  10.688 -0.3705  0.4341 -0.4885
  345TMC3    C4 5224   1.186   2.333  10.761  0.2198 -0.2690 -0.3737
  345TMC3    C5 5225   1.261   2.416  10.678 -0.6589 -0.2075 -0.1054
  345TMC3    C6 5226   1.389   2.384  10.641 -0.3805  0.2600 -0.0066
  345TMC3     C 5227   1.185   2.150  10.913  0.3173 -0.5843  0.0298
  345TMC3     O 5228   1.190   2.028  10.897  0.1671 -0.2475  0.6951
  345TMC3     H 5229   1.418   2.094  10.811  2.8327  0.1945 -1.7790
  345TMC3    H1 5230   1.089   2.364  10.799  0.5024 -0.2543  0.3415
  345TMC3    H2 5231   1.445   2.453  10.580 -0.2721  0.7388  0.6278
  345TMC3    C7 5232   1.214   2.546  10.648  0.3928 -0.4081 -0.5031
  345TMC3    C8 5233   1.589   2.268  10.732  0.3571 -0.1252 -0.1865
  345TMC3    O1 5234   1.305   2.622  10.617  0.1690 -0.3760 -0.5582
  345TMC3    O2 5235   1.645   2.161  10.732  0.3960  0.1630 -0.2865
  346MPD2     C 5236   1.304   3.739  14.585  0.4889  0.4815  0.0482
  346MPD2    C1 5237   1.403   3.808  14.514 -1.1600  0.1778 -0.3675
  346MPD2    C2 5238   1.505   3.867  14.583 -0.7981  0.0771 -0.2587
  346MPD2    C3 5239   1.525   3.841  14.717  0.0854 -0.1243 -0.6657
  346MPD2    C4 5240   1.422   3.779  14.789 -0.2766 -0.2611  0.6924
  346MPD2    C5 5241   1.310   3.733  14.724 -0.5848  0.5482 -0.0455
  346MPD2     H 5242   1.586   3.909  14.525 -1.5942 -0.7443 -1.9821
  346MPD2    H1 5243   1.419   3.763  14.896 -0.6158 -0.9881  0.5758
  346MPD2    H2 5244   1.216   3.702  14.535  0.7234  0.9850 -0.7372
  346MPD2    H3 5245   1.234   3.689  14.788  0.4534 -0.8794  0.2083
  346MPD2     N 5246   1.646   3.863  14.776  0.2245  0.2494  0.1420
  346MPD2    H5 5247   1.722   3.889  14.714 -1.1048  1.6455 -0.8632
  346MPD2    N1 5248   1.400   3.821  14.372 -0.1889 -0.4634 -0.2793
  346MPD2    H7 5249   1.482   3.854  14.323  0.2239 -0.8500  0.1436
  347TMC3    C1 5250   1.824   3.879  14.924 -0.0033  0.4135  0.3542
  347TMC3    C2 5251   1.890   3.975  14.852 -0.6830 -0.3614 -0.3156
  347TMC3    C3 5252   2.025   3.989  14.880 -0.1524 -0.2338 -0.1151
  347TMC3    C4 5253   1.876   3.812  15.029 -0.5534  1.0475 -0.8589
  347TMC3    C5 5254   2.007   3.849  15.065  0.1370  0.1707 -0.3174
  347TMC3    C6 5255   2.081   3.928  14.983  0.9875 -0.3340  0.5660
  347TMC3     C 5256   1.687   3.840  14.899  0.5151 -0.4243  0.7125
  347TMC3     O 5257   1.633   3.779  14.990 -0.4102 -0.1907  0.1506
  347TMC3     H 5258   1.851   4.025  14.764  0.7476 -1.0407 -1.3322
  347TMC3    H1 5259   1.824   3.745  15.096  1.3846  0.1645 -0.2349
  347TMC3    H2 5260   2.185   3.948  15.003  1.4342 -0.3649 -1.6889
  347TMC3    C7 5261   2.074   3.755  15.158 -0.0097 -0.1830  0.2258
  347TMC3    C8 5262   2.090   3.991  14.750  0.7033  0.1325 -0.8860
  347TMC3    O1 5263   2.012   3.653  15.190  0.0427  0.2893  0.3659
  347TMC3    O2 5264   2.085   4.092  14.686  0.3813 -0.1223 -0.1316
  348MPD2     C 5265   0.102   3.414  12.478 -0.7312 -0.0847  0.5675
  348MPD2    C1 5266   0.072   3.379  12.346 -0.9984 -0.0769  0.7000
  348MPD2    C2 5267   0.005   3.476  12.267  0.0239  0.0211 -0.8002
  348MPD2    C3 5268   4.703   3.598  12.321  0.0372 -0.4327  0.6378
  348MPD2    C4 5269   0.008   3.627  12.450  0.0455  0.3003  0.0567
  348MPD2    C5 5270   0.064   3.535  12.531  0.0310 -0.0124 -0.2858
  348MPD2     H 5271   4.714   3.453  12.164 -1.7983 -0.1644 -0.3481
  348MPD2    H1 5272   4.712   3.721  12.497 -1.2200 -0.7407  1.3594
  348MPD2    H2 5273   0.156   3.352  12.549 -1.7334  0.5131  1.8470
  348MPD2    H3 5274   0.098   3.561  12.631 -0.6321 -2.3957  0.5752
  348MPD2     N 5275   4.640   3.686  12.225  0.1286  0.1503  0.5681
  348MPD2    H5 5276   4.633   3.655  12.129  0.3383  0.0495  0.5847
  348MPD2    N1 5277   0.109   3.263  12.274  0.8862 -0.3462 -0.2117
  348MPD2    H7 5278   0.074   3.252  12.180  0.7074 -1.5084 -0.0052
  349TMC3    C1 5279   0.188   3.046  12.249  0.5831 -0.1743 -0.0996
  349TMC3    C2 5280   0.273   2.945  12.280  0.2766 -0.0154 -0.1555
  349TMC3    C3 5281   0.294   2.848  12.189  0.4240 -0.2626  0.4993
  349TMC3    C4 5282   0.129   3.059  12.123  0.2504  0.0623  0.0040
  349TMC3    C5 5283   0.158   2.964  12.034 -0.0015 -0.4574  0.8094
  349TMC3    C6 5284   0.240   2.854  12.063 -0.6268 -0.4942 -0.2648
  349TMC3     C 5285   0.176   3.159  12.333  0.0720  0.6260  0.6789
  349TMC3     O 5286   0.225   3.156  12.446  0.2369 -0.0408  0.3897
  349TMC3     H 5287   0.332   2.952  12.370  0.3645 -3.3472  0.0554
  349TMC3    H1 5288   0.053   3.129  12.090  0.7798 -0.1039 -1.5330
  349TMC3    H2 5289   0.261   2.777  11.990  0.4884 -1.0215  0.6105
  349TMC3    C7 5290   0.091   2.963  11.912 -0.3438  0.2710 -0.3395
  349TMC3    C8 5291   0.364   2.726  12.231  0.6306  0.0096  0.5478
  349TMC3    O1 5292   0.060   2.852  11.872 -0.8010 -0.0300 -0.0040
  349TMC3    O2 5293   0.426   2.736  12.332  0.3003  0.3126 -0.2253
  350MPD2     C 5294   3.437   1.932   9.697  0.6621  0.2486  0.2969
  350MPD2    C1 5295   3.394   1.818   9.762  0.0646 -0.3434  0.1917
  350MPD2    C2 5296   3.455   1.797   9.880 -0.1646  0.6061 -0.0560
  350MPD2    C3 5297   3.566   1.866   9.929  0.6706 -0.1648 -0.5095
  350MPD2    C4 5298   3.599   1.981   9.869 -0.3745 -0.1418  0.4352
  350MPD2    C5 5299   3.535   2.008   9.751 -0.5661  0.1112  0.5001
  350MPD2     H 5300   3.415   1.712   9.935  0.5376  0.7807  0.7349
  350MPD2    H1 5301   3.679   2.048   9.899 -0.9451  0.6504  0.2189
  350MPD2    H2 5302   3.399   1.960   9.599  0.4562 -0.1094  0.2723
  350MPD2    H3 5303   3.551   2.099   9.694 -1.1562 -0.3584 -0.4157
  350MPD2     N 5304   3.616   1.830  10.049 -0.4068 -0.3927 -0.3222
  350MPD2    H5 5305   3.567   1.760  10.103  2.2762 -0.3079  2.2036
  350MPD2    N1 5306   3.291   1.733   9.725 -0.7360  0.4384 -0.5540
  350MPD2    H7 5307   3.281   1.651   9.783 -0.9550  0.9579  0.1449
  351TMC3    C1 5308   3.097   1.657   9.600  0.7421  0.3446 -0.5361
  351TMC3    C2 5309   3.119   1.529   9.629  0.4899  1.0919  0.0583
  351TMC3    C3 5310   3.027   1.439   9.590  0.1843 -0.1046  0.7430
  351TMC3    C4 5311   2.987   1.700   9.530  0.6832  0.2897  0.1571
  351TMC3    C5 5312   2.904   1.597   9.487  0.4859 -0.0438  0.1002
  351TMC3    C6 5313   2.919   1.470   9.512  0.0217 -0.2068 -0.1688
  351TMC3     C 5314   3.195   1.761   9.624 -0.2406  0.4317  0.3144
  351TMC3     O 5315   3.196   1.854   9.543  0.4765  0.2223  0.6471
  351TMC3     H 5316   3.222   1.498   9.644 -0.1446 -0.5711  0.9472
  351TMC3    H1 5317   2.964   1.806   9.533 -1.1574 -0.0462 -2.4105
  351TMC3    H2 5318   2.850   1.391   9.485 -1.1294  0.3792  1.0600
  351TMC3    C7 5319   2.789   1.630   9.394 -0.3855  0.5407 -0.1516
  351TMC3    C8 5320   3.056   1.297   9.627 -0.4235  0.0412 -0.1465
  351TMC3    O1 5321   2.717   1.536   9.369 -0.7404 -0.0936 -0.2199
  351TMC3    O2 5322   2.989   1.214   9.564  0.1876 -0.0681 -0.1903
  352MPD2     C 5323   2.973   4.085   1.163  0.1620  0.2208  0.5052
  352MPD2    C1 5324   2.860   4.015   1.213  0.5470  0.1401 -0.4245
  352MPD2    C2 5325   2.866   3.885   1.243 -0.0506 -0.1929  0.2136
  352MPD2    C3 5326   2.975   3.810   1.205 -0.3456  0.7474 -0.6113
  352MPD2    C4 5327   3.082   3.876   1.143 -0.6655 -0.4003 -0.9933
  352MPD2    C5 5328   3.081   4.011   1.124  0.2067  0.6920 -0.8231
  352MPD2     H 5329   2.783   3.855   1.305  2.5188 -0.9458  3.2909
  352MPD2    H1 5330   3.170   3.820   1.114 -1.4671 -1.7626 -0.8150
  352MPD2    H2 5331   2.976   4.193   1.154  0.6205  0.1894  0.2576
  352MPD2    H3 5332   3.173   4.064   1.100 -0.0018  0.8922 -1.1817
  352MPD2     N 5333   2.992   3.675   1.230  0.3444  0.1443 -0.6585
  352MPD2    H5 5334   3.068   3.625   1.184 -0.4027 -1.2443 -0.3898
  352MPD2    N1 5335   2.750   4.100   1.250 -0.8784 -0.5206 -0.2050
  352MPD2    H7 5336   2.755   4.197   1.218 -3.0574 -0.6872 -1.0792
  353TMC3    C1 5337   2.919   3.453   1.257 -0.1657 -0.1979  0.3418
  353TMC3    C2 5338   3.044   3.403   1.282  0.0744  1.0690  0.2572
  353TMC3    C3 5339   3.058   3.268   1.309  0.2256  0.6244  0.2561
  353TMC3    C4 5340   2.810   3.377   1.236 -0.5311  0.0488 -0.0774
  353TMC3    C5 5341   2.832   3.240   1.266 -0.0824 -0.1115  1.0593
  353TMC3    C6 5342   2.949   3.182   1.301  0.6726  0.8539  0.3407
  353TMC3     C 5343   2.898   3.595   1.288  0.8224 -0.1446  0.0342
  353TMC3     O 5344   2.788   3.625   1.342  0.1698  0.1862  0.3222
  353TMC3     H 5345   3.130   3.468   1.295  1.3922 -0.7430  0.6889
  353TMC3    H1 5346   2.711   3.421   1.230 -1.2938 -1.2171  2.7459
  353TMC3    H2 5347   2.941   3.080   1.336 -0.2848  0.7636 -0.1350
  353TMC3    C7 5348   2.729   3.141   1.234  0.2331  0.5117  0.1797
  353TMC3    C8 5349   3.173   3.228   1.393  0.1722 -0.8291  0.0966
  353TMC3    O1 5350   2.765   3.031   1.211 -0.0245 -0.2240 -0.5701
  353TMC3    O2 5351   3.251   3.313   1.435  0.7281  0.8354 -0.1760
  354TMC3    C1 5352   3.642   4.457  13.765  0.2763 -0.2475  0.6538
  354TMC3    C2 5353   3.722   4.566  13.744 -0.7714 -0.2180 -0.0626
  354TMC3    C3 5354   3.696   4.656  13.643 -0.0778  0.1819 -0.1508
  354TMC3    C4 5355   3.550   4.422  13.667  0.2569 -0.2295 -0.3903
  354TMC3    C5 5356   3.526   4.518  13.569  0.1703 -0.7422 -0.7359
  354TMC3    C6 5357   3.587   4.636  13.562  0.5964  0.0234  0.3593
  354TMC3     C 5358   3.659   4.364  13.873  0.0965  1.3745  0.6310
  354TMC3     O 5359   3.566   4.291  13.891  0.1046  0.3704  0.3898
  354TMC3     H 5360   3.799   4.592  13.815 -2.1406 -0.2178  1.4071
  354TMC3    H1 5361   3.465   4.362  13.699 -1.2387  2.4002  0.5445
  354TMC3    H2 5362   3.584   4.697  13.472 -3.6835 -1.5362 -0.5244
  354TMC3    C7 5363   3.515   4.460  13.438 -1.0449 -0.0969  0.9585
  354TMC3    C8 5364   3.802   4.700  13.555  0.3911 -0.0850 -0.2734
  354TMC3    O1 5365   3.485   4.538  13.348  0.3354 -0.3814 -0.4705
  354TMC3    O2 5366   3.780   0.072  13.487 -0.2367 -0.3676 -0.3943
  355MPD2     C 5367   4.070   0.530  12.044 -0.1006  0.4536  0.9466
  355MPD2    C1 5368   4.184   0.570  11.976  0.4259 -0.3302  0.4562
  355MPD2    C2 5369   4.309   0.518  12.014  0.3514  0.3059 -0.1270
  355MPD2    C3 5370   4.329   0.440  12.122 -0.1620 -0.7098  0.1381
  355MPD2    C4 5371   4.218   0.397  12.188  1.2074  0.7577 -0.0102
  355MPD2    C5 5372   4.096   0.441  12.151 -0.0949  0.5259 -0.2260
  355MPD2     H 5373   4.400   0.559  11.970  0.8215 -0.5331  0.0839
  355MPD2    H1 5374   4.224   0.327  12.271  1.2080 -1.2454 -1.6938
  355MPD2    H2 5375   3.970   0.566  12.023 -0.9809 -1.3892  1.9414
  355MPD2    H3 5376   4.017   0.418  12.221  0.8403  1.3705  1.0941
  355MPD2     N 5377   4.449   0.398  12.181  0.5932 -0.1638 -0.5994
  355MPD2    H5 5378   4.455   0.339  12.263 -1.1352 -1.1728 -1.2070
  355MPD2    N1 5379   4.171   0.668  11.872 -0.0126  0.3510  0.8889
  355MPD2    H7 5380   4.075   0.703  11.867 -0.3952 -0.4424  2.8057
  356TMC3    C1 5381   4.681   0.372  12.204  0.2135 -0.1527  0.4881
  356TMC3    C2 5382   0.064   0.365  12.133  0.0875 -0.1428 -0.0537
  356TMC3    C3 5383   0.177   0.423  12.189 -0.8639  0.4149 -0.6866
  356TMC3    C4 5384   4.676   0.413  12.336  0.1853  0.6138  0.1475
  356TMC3    C5 5385   0.063   0.455  12.391 -0.6819  0.2292  0.3120
  356TMC3    C6 5386   0.175   0.470  12.316 -0.6605 -1.4082 -0.4595
  356TMC3     C 5387   4.571   0.408  12.123 -0.5580 -0.0561 -0.4266
  356TMC3     O 5388   4.596   0.465  12.020 -0.0431  0.5205  0.0640
  356TMC3     H 5389   0.053   0.337  12.029  0.7533  0.4359 -0.2771
  356TMC3    H1 5390   4.585   0.408  12.395 -1.1470  0.7813 -1.9042
  356TMC3    H2 5391   0.266   0.518  12.352 -0.2745 -1.4609 -1.3737
  356TMC3    C7 5392   0.073   0.478  12.537 -0.6276 -0.0652  0.2762
  356TMC3    C8 5393   0.263   0.491  12.092 -0.3056 -0.0461  0.2948
  356TMC3    O1 5394   4.726   0.425  12.612 -0.1336  0.2337 -0.5090
  356TMC3    O2 5395   0.259   0.448  11.977 -0.0594  0.3519 -0.3131
  357MPD2     C 5396   3.920   0.483   1.053  0.0292  0.3196  0.0358
  357MPD2    C1 5397   4.047   0.531   1.090 -0.2281 -0.1274 -0.3933
  357MPD2    C2 5398   4.040   0.654   1.162 -0.4414  0.0109  0.1604
  357MPD2    C3 5399   3.917   0.726   1.188 -0.2821  0.2108 -0.0757
  357MPD2    C4 5400   3.797   0.675   1.149  0.5123  0.4916  0.5917
  357MPD2    C5 5401   3.805   0.552   1.085 -0.4093 -0.0082  0.1099
  357MPD2     H 5402   4.131   0.696   1.202  0.1108 -1.5176  0.5036
  357MPD2    H1 5403   3.703   0.726   1.166  1.5932  2.3976  0.9703
  357MPD2    H2 5404   3.909   0.392   0.996  0.8637  0.2451 -0.0031
  357MPD2    H3 5405   3.712   0.512   1.047 -0.7915 -0.9069  1.9624
  357MPD2     N 5406   3.918   0.844   1.266  0.5491 -0.9620 -0.0053
  357MPD2    H5 5407   3.825   0.864   1.302  0.9979  1.7889 -0.4060
  357MPD2    N1 5408   4.169   0.458   1.044 -0.2999  0.4737 -0.0962
  357MPD2    H7 5409   4.155   0.368   1.000  2.4617 -0.6368  1.2398
  358TMC3    C1 5410   4.398   0.413   1.035  1.0432  0.0990 -0.9751
  358TMC3    C2 5411   4.366   0.286   1.001 -0.4181  0.5785  0.7987
  358TMC3    C3 5412   4.467   0.192   0.991 -0.1960  0.1816 -0.4302
  358TMC3    C4 5413   4.525   0.453   1.066 -0.4089  0.0432  0.5244
  358TMC3    C5 5414   4.621   0.357   1.056 -0.4506 -0.6702  0.2049
  358TMC3    C6 5415   4.595   0.225   1.023 -0.0548 -0.4700  0.1072
  358TMC3     C 5416   4.293   0.514   1.063  0.3213 -0.1689 -0.3749
  358TMC3     O 5417   4.314   0.625   1.098  0.3184  0.4512 -0.3645
  358TMC3     H 5418   4.266   0.257   0.972  0.5468  0.2447 -2.2433
  358TMC3    H1 5419   4.550   0.558   1.076 -1.2978  0.2466  0.5792
  358TMC3    H2 5420   4.675   0.159   0.993 -0.0334 -0.0966 -0.6494
  358TMC3    C7 5421   0.012   0.408   1.102 -0.6136 -0.6487  0.2955
  358TMC3    C8 5422   4.434   0.064   0.935 -0.2143 -0.0627  0.1873
  358TMC3    O1 5423   0.016   0.519   1.151 -0.4416  0.0888 -0.1455
  358TMC3    O2 5424   4.374   0.058   0.829 -0.0990  0.1899  0.1715
  359MPD2     C 5425   4.405   3.677  13.010 -0.1804  0.1027 -0.5261
  359MPD2    C1 5426   4.311   3.727  12.920  0.2349  0.4453 -0.2739
  359MPD2    C2 5427   4.179   3.682  12.923 -0.5952  0.1996 -0.8900
  359MPD2    C3 5428   4.148   3.571  12.993 -0.1018  0.7101 -0.0751
  359MPD2    C4 5429   4.246   3.510  13.079 -0.8310 -0.1741  0.3896
  359MPD2    C5 5430   4.369   3.569  13.083 -0.6706 -0.0399  0.9651
  359MPD2     H 5431   4.106   3.736  12.864  1.0160  1.9045 -1.3413
  359MPD2    H1 5432   4.219   3.427  13.143 -0.3864 -0.7778 -0.2117
  359MPD2    H2 5433   4.506   3.712  13.027 -1.2974  1.2758  3.6363
  359MPD2    H3 5434   4.427   3.528  13.165 -1.3888  0.3513  1.6750
  359MPD2     N 5435   4.015   3.515  13.000 -0.5001 -0.6349  0.0809
  359MPD2    H5 5436   4.000   3.447  13.073  1.8361 -1.8203 -0.5469
  359MPD2    N1 5437   4.339   3.847  12.841 -0.1145 -0.6628 -0.0519
  359MPD2    H7 5438   4.277   3.864  12.762  0.7197 -2.3429 -1.0779
  360TMC3    C1 5439   4.490   4.010  12.748  0.4593  0.3126  1.2965
  360TMC3    C2 5440   4.614   4.061  12.751  0.7962  0.5113  0.7721
  360TMC3    C3 5441   4.659   4.117  12.637 -0.5127 -0.1639  0.1150
  360TMC3    C4 5442   4.404   4.027  12.646  0.2872  0.6864  1.0926
  360TMC3    C5 5443   4.450   4.111  12.549  0.6169  0.5412 -0.0450
  360TMC3    C6 5444   4.579   4.149  12.536 -0.3280 -0.3798 -0.3690
  360TMC3     C 5445   4.449   3.927  12.861  0.1473 -0.5947  0.5024
  360TMC3     O 5446   4.529   3.928  12.953 -0.1234 -0.0818  0.0642
  360TMC3     H 5447   4.686   4.009  12.814 -1.9757 -3.0433  0.9599
  360TMC3    H1 5448   4.298   4.004  12.646  0.6492 -0.9708 -1.0898
  360TMC3    H2 5449   4.618   4.196  12.447  1.8153 -0.7502  0.3649
  360TMC3    C7 5450   4.384   4.119  12.421  0.2140  0.1313 -0.5255
  360TMC3    C8 5451   0.070   4.102  12.618 -0.0703 -0.4857  0.1164
  360TMC3    O1 5452   4.400   4.216  12.346  0.0346 -0.6910 -0.3206
  360TMC3    O2 5453   0.151   4.103  12.712 -0.4152 -0.2447 -0.2468
  361MPD2     C 5454   1.650   2.844  16.750 -0.0523 -0.4654  0.4119
  361MPD2    C1 5455   1.686   2.931  16.851  0.2053  0.1061 -0.2659
  361MPD2    C2 5456   1.771   2.890  16.946 -0.3626  0.4121 -0.3539
  361MPD2    C3 5457   1.823   2.764  16.954  0.0328  0.7512  0.4479
  361MPD2    C4 5458   1.783   2.680  16.850 -0.5495  0.3700  0.4592
  361MPD2    C5 5459   1.702   2.721  16.754  0.5242 -0.1862 -0.1587
  361MPD2     H 5460   1.790   2.966  17.022  0.2504  0.3006 -0.3930
  361MPD2    H1 5461   1.804   2.573  16.853 -2.7569 -0.0867 -0.5849
  361MPD2    H2 5462   1.587   2.861  16.663 -0.4465  1.1303  1.0085
  361MPD2    H3 5463   1.666   2.658  16.674 -4.0009  1.9253  0.1772
  361MPD2     N 5464   1.917   2.718  17.046 -1.0143  0.2389 -0.1100
  361MPD2    H5 5465   1.949   2.625  17.019 -0.0646  0.6062 -0.2652
  361MPD2    N1 5466   1.657   3.075  16.843 -0.4914  1.0006  0.6625
  361MPD2    H7 5467   1.709   3.142  16.900  0.5908  1.2042 -0.5691
  362TMC3    C1 5468   1.532   3.265  16.784  0.3408  0.2474 -0.1094
  362TMC3    C2 5469   1.540   3.326  16.905 -0.7458 -0.0739 -0.3446
  362TMC3    C3 5470   1.468   3.444  16.928 -0.1832 -0.2408 -0.3148
  362TMC3    C4 5471   1.472   3.332  16.684  0.5079  0.3691  1.5446
  362TMC3    C5 5472   1.407   3.453  16.709 -0.0898 -0.7996  0.4381
  362TMC3    C6 5473   1.391   3.504  16.832  0.3724  0.1800  0.1861
  362TMC3     C 5474   1.559   3.123  16.762 -0.3040  0.9634  0.0262
  362TMC3     O 5475   1.478   3.060  16.695  0.2039 -0.3459  0.5230
  362TMC3     H 5476   1.597   3.276  16.982  2.3689  0.8229 -2.0574
  362TMC3    H1 5477   1.472   3.283  16.588 -1.7082 -1.2600  2.3712
  362TMC3    H2 5478   1.346   3.602  16.846  1.4123  0.9880 -2.1340
  362TMC3    C7 5479   1.366   3.539  16.603  0.2103 -0.4798 -0.1498
  362TMC3    C8 5480   1.469   3.494  17.065 -0.1025  0.5892 -0.8136
  362TMC3    O1 5481   1.307   3.643  16.625  0.7180  0.3210 -0.5203
  362TMC3    O2 5482   1.582   3.515  17.106  0.4075  0.2108  0.1414
  363TMC3    C1 5483   3.665   0.083   9.313 -0.5105  1.5719 -0.0758
  363TMC3    C2 5484   3.788   0.084   9.361  0.5828  0.1842 -0.0466
  363TMC3    C3 5485   3.854   0.203   9.360 -0.1890  0.0172 -0.0464
  363TMC3    C4 5486   3.600   0.196   9.268 -0.4288 -0.1066 -0.3923
  363TMC3    C5 5487   3.676   0.309   9.263 -0.8740 -0.3686  0.1570
  363TMC3    C6 5488   3.805   0.311   9.300  0.0675 -0.5999  0.0556
  363TMC3     C 5489   3.596   4.689   9.304  0.5039  0.0478 -0.4738
  363TMC3     O 5490   3.662   4.586   9.285 -0.5841 -0.2854 -0.0431
  363TMC3     H 5491   3.815   4.720   9.401 -3.3723 -0.9398 -0.0904
  363TMC3    H1 5492   3.500   0.194   9.225 -0.2347  0.4413 -0.8637
  363TMC3    H2 5493   3.859   0.404   9.308 -1.2715  0.1739  0.1290
  363TMC3    C7 5494   3.603   0.440   9.277  0.0937  0.5063  0.6540
  363TMC3    C8 5495   3.989   0.208   9.416 -0.1404  0.2353  0.4668
  363TMC3    O1 5496   3.672   0.530   9.323  0.5114  0.5874 -0.4293
  363TMC3    O2 5497   4.049   0.313   9.424  0.3072  0.1334  0.1475
  364MPD2     C 5498   3.152   0.490  11.061  0.3379  0.1904 -0.3797
  364MPD2    C1 5499   3.217   0.442  10.950 -1.0259 -0.0864 -0.0336
  364MPD2    C2 5500   3.238   0.303  10.930  0.6282  0.3225 -0.0083
  364MPD2    C3 5501   3.181   0.220  11.024 -0.1765  0.1051 -0.6340
  364MPD2    C4 5502   3.110   0.272  11.131 -0.4459  0.1503 -0.2952
  364MPD2    C5 5503   3.097   0.407  11.147 -0.0092 -0.4512  0.3938
  364MPD2     H 5504   3.284   0.262  10.841 -0.1053 -0.7823  0.1219
  364MPD2    H1 5505   3.059   0.203  11.196  1.8990  0.9046  2.3607
  364MPD2    H2 5506   3.132   0.596  11.076  1.0759  0.1319  0.9771
  364MPD2    H3 5507   3.033   0.453  11.222 -1.4003 -0.6497 -0.6528
  364MPD2     N 5508   3.211   0.079  11.030  0.2804  0.2597 -0.2280
  364MPD2    H5 5509   3.174   0.023  11.105  0.3807  1.1697  0.5062
  364MPD2    N1 5510   3.265   0.537  10.853 -0.0799  0.2604 -0.1631
  364MPD2    H7 5511   3.248   0.634  10.876  2.2637  0.8380 -0.8812
  365TMC3    C1 5512   3.393   0.622  10.674  0.3408 -0.2367 -0.2396
  365TMC3    C2 5513   3.400   0.615  10.540  0.2907  0.0695  0.0844
  365TMC3    C3 5514   3.426   0.738  10.475  0.0586 -0.4330 -0.2380
  365TMC3    C4 5515   3.417   0.738  10.742 -0.0080  0.4709 -0.3419
  365TMC3    C5 5516   3.438   0.855  10.683  0.0235  0.3173  1.4109
  365TMC3    C6 5517   3.434   0.858  10.545 -0.7829  0.4393 -0.6830
  365TMC3     C 5518   3.354   0.506  10.748 -0.4300 -0.2876  0.4443
  365TMC3     O 5519   3.380   0.398  10.698 -0.0308 -0.1653 -0.2913
  365TMC3     H 5520   3.374   0.527  10.482  0.3368  0.0331  0.1184
  365TMC3    H1 5521   3.404   0.727  10.849  1.9816 -1.8708 -0.3527
  365TMC3    H2 5522   3.422   0.955  10.499 -0.1548  0.3189 -1.0946
  365TMC3    C7 5523   3.484   0.960  10.772  0.3364  0.7794 -0.3757
  365TMC3    C8 5524   3.397   0.744  10.336  0.2559  0.4272 -0.2322
  365TMC3    O1 5525   3.595   1.005  10.747 -0.3048  0.3500 -0.4555
  365TMC3    O2 5526   3.363   0.848  10.288 -0.3439  0.0506  0.4866
  366MPD2     C 5527   2.427   0.759  15.408 -0.3000  0.1107  0.5242
  366MPD2    C1 5528   2.415   0.823  15.530  0.0924  0.4178  0.1285
  366MPD2    C2 5529   2.510   0.802  15.627 -0.1169  0.1040  0.2030
  366MPD2    C3 5530   2.618   0.730  15.594 -0.0288 -0.4472  0.0400
  366MPD2    C4 5531   2.633   0.668  15.473  0.2074 -0.4257  0.2259
  366MPD2    C5 5532   2.534   0.680  15.376  0.5301 -0.3138 -0.1317
  366MPD2     H 5533   2.495   0.840  15.727 -2.4081 -1.5703  0.5196
  366MPD2    H1 5534   2.720   0.605  15.455  0.8598 -0.3129  2.9953
  366MPD2    H2 5535   2.343   0.763  15.340  0.6761 -1.4358 -0.7645
  366MPD2    H3 5536   2.540   0.621  15.286 -1.7562 -0.6136 -0.0776
  366MPD2     N 5537   2.732   0.721  15.687  0.6395  0.0325 -0.3955
  366MPD2    H5 5538   2.798   0.648  15.662 -0.4895 -0.7453 -1.1010
  366MPD2    N1 5539   2.305   0.898  15.562 -0.3452 -0.3560 -0.0611
  366MPD2    H7 5540   2.290   0.927  15.658  0.9817 -1.3205  0.4380
  367TMC3    C1 5541   2.142   1.057  15.532 -0.1780  0.2489 -0.3045
  367TMC3    C2 5542   2.196   1.121  15.639  0.2840 -0.4675 -0.1025
  367TMC3    C3 5543   2.135   1.239  15.687  0.1239 -0.3065 -0.7254
  367TMC3    C4 5544   2.028   1.097  15.471 -0.4940  0.0742  0.0255
  367TMC3    C5 5545   1.968   1.206  15.522  0.2260 -0.1245  0.0010
  367TMC3    C6 5546   2.022   1.277  15.632  0.7166 -0.0891  0.3866
  367TMC3     C 5547   2.206   0.939  15.478 -0.6112  0.9928  0.3296
  367TMC3     O 5548   2.166   0.901  15.366 -0.2566 -0.2012  0.4984
  367TMC3     H 5549   2.284   1.093  15.694  0.5511 -2.0294 -1.3440
  367TMC3    H1 5550   2.008   1.052  15.375  0.9520 -1.9214  0.6609
  367TMC3    H2 5551   1.960   1.356  15.673  1.7905  1.4964 -1.0356
  367TMC3    C7 5552   1.851   1.260  15.462  0.0805  0.0678  0.1380
  367TMC3    C8 5553   2.200   1.308  15.795  0.8600 -0.0449 -0.1006
  367TMC3    O1 5554   1.851   1.380  15.446 -0.0558  0.6288 -0.1335
  367TMC3    O2 5555   2.285   1.252  15.857 -0.2380 -0.2603  0.2697
  368MPD2     C 5556   2.972   2.421  13.643  0.1404  0.6379 -0.0812
  368MPD2    C1 5557   2.948   2.540  13.567  0.1368 -0.0095  0.5013
  368MPD2    C2 5558   3.042   2.639  13.585 -0.3565 -0.0481  0.0718
  368MPD2    C3 5559   3.152   2.628  13.672  0.4878 -0.3436  0.0756
  368MPD2    C4 5560   3.173   2.506  13.742 -1.2852  0.0584  0.0121
  368MPD2    C5 5561   3.081   2.408  13.724  0.0807 -1.1120  0.0072
  368MPD2     H 5562   3.033   2.729  13.524  2.4820  0.6545  0.6872
  368MPD2    H1 5563   3.261   2.483  13.801 -0.1424 -0.0723 -1.7193
  368MPD2    H2 5564   2.910   2.332  13.642  2.2932 -0.8328 -1.2151
  368MPD2    H3 5565   3.095   2.309  13.766 -1.6906 -1.2353  0.3135
  368MPD2     N 5566   3.256   2.718  13.650 -0.1929  0.0716 -0.3017
  368MPD2    H5 5567   3.253   2.792  13.581 -0.6619  2.8774  2.6951
  368MPD2    N1 5568   2.843   2.546  13.468  0.1952 -0.4025 -0.5289
  368MPD2    H7 5569   2.786   2.464  13.447 -2.5417  1.5193 -0.5879
  369TMC3    C1 5570   2.682   2.635  13.336  0.4763 -0.0390  0.3705
  369TMC3    C2 5571   2.662   2.721  13.233  0.4020 -0.2275 -0.4215
  369TMC3    C3 5572   2.534   2.744  13.193  0.3766 -0.1265 -0.6387
  369TMC3    C4 5573   2.581   2.586  13.408 -0.3743  0.8923 -0.2139
  369TMC3    C5 5574   2.455   2.606  13.361  0.0611 -0.0472 -0.1519
  369TMC3    C6 5575   2.426   2.686  13.252 -1.0113  0.4960  0.3723
  369TMC3     C 5576   2.807   2.655  13.394 -0.7921  0.1734  0.2812
  369TMC3     O 5577   2.867   2.762  13.372  0.3681  0.1383  0.3258
  369TMC3     H 5578   2.746   2.760  13.177 -0.1350 -0.7520 -1.5887
  369TMC3    H1 5579   2.601   2.538  13.503  0.5605  2.8675  0.5872
  369TMC3    H2 5580   2.326   2.706  13.216 -1.8153 -0.8181  1.9363
  369TMC3    C7 5581   2.358   2.588  13.458  0.0202 -0.1543  0.4991
  369TMC3    C8 5582   2.517   2.771  13.052 -0.3275  0.0945  0.3937
  369TMC3    O1 5583   2.374   2.489  13.533 -1.0494 -0.4361  0.1636
  369TMC3    O2 5584   2.423   2.725  12.990 -0.1518  0.3728 -0.1221
  370TMC3    C1 5585   2.784   3.661  16.604  0.4849 -0.1046  0.0866
  370TMC3    C2 5586   2.760   3.598  16.720  0.3285 -0.8040  0.9189
  370TMC3    C3 5587   2.674   3.487  16.715 -0.4810 -0.2834 -0.0729
  370TMC3    C4 5588   2.747   3.618  16.483 -0.5797 -0.5431  0.3458
  370TMC3    C5 5589   2.685   3.495  16.478 -0.1930 -0.1497 -0.0971
  370TMC3    C6 5590   2.645   3.429  16.592  0.1047  0.2288  0.5008
  370TMC3     C 5591   2.912   3.736  16.604 -0.0755  0.0877  0.2589
  370TMC3     O 5592   2.979   3.732  16.708 -0.1526 -0.1049 -0.4799
  370TMC3     H 5593   2.799   3.634  16.815 -0.7453  1.4613  0.4979
  370TMC3    H1 5594   2.768   3.670  16.390 -1.2353 -0.1076  0.4429
  370TMC3    H2 5595   2.584   3.340  16.582 -0.9177  0.9452  0.3059
  370TMC3    C7 5596   2.696   3.422  16.361  0.6182  0.2488  0.4808
  370TMC3    C8 5597   2.646   3.412  16.837  0.3136 -0.8391  0.2619
  370TMC3    O1 5598   2.706   3.479  16.256  0.4186 -0.0004 -0.2085
  370TMC3    O2 5599   2.629   3.293  16.823 -0.2965 -0.2461 -0.5560
  371TMC3    C1 5600   3.923   2.076  15.679  0.8169 -0.1359  0.8265
  371TMC3    C2 5601   3.819   2.037  15.766  0.4703 -0.3190  0.2671
  371TMC3    C3 5602   3.750   2.141  15.837 -0.2760 -0.0495  0.7859
  371TMC3    C4 5603   3.940   2.212  15.655  0.2062  0.1441  0.2124
  371TMC3    C5 5604   3.887   2.303  15.741 -0.6894 -0.1746  0.4661
  371TMC3    C6 5605   3.794   2.277  15.837  1.4650  0.3521  0.2794
  371TMC3     C 5606   4.044   1.998  15.669 -0.9901 -0.2798 -0.2659
  371TMC3     O 5607   4.129   2.012  15.581  0.3781 -0.3074  0.0395
  371TMC3     H 5608   3.787   1.934  15.765 -0.0260 -0.2119  3.9620
  371TMC3    H1 5609   4.023   2.238  15.590 -0.5400  0.9105 -0.4358
  371TMC3    H2 5610   3.751   2.354  15.900  0.9474 -1.4725  2.1533
  371TMC3    C7 5611   3.911   2.448  15.729 -0.2684  0.3884  0.6430
  371TMC3    C8 5612   3.683   2.087  15.955 -0.0928  0.2616  0.1691
  371TMC3    O1 5613   3.907   2.523  15.827 -0.3666 -0.2491  0.3977
  371TMC3    O2 5614   3.662   1.966  15.956 -0.1030 -0.3881 -0.1256
  372MPD2     C 5615   2.610   2.856  13.721 -0.1756 -0.2986 -0.3676
  372MPD2    C1 5616   2.739   2.905  13.755  0.0576 -0.4208 -0.1803
  372MPD2    C2 5617   2.828   2.815  13.818  0.0045 -0.0062  0.3616
  372MPD2    C3 5618   2.785   2.699  13.879  0.4012  0.0051 -0.2261
  372MPD2    C4 5619   2.655   2.662  13.850 -0.3803 -0.6938  0.1336
  372MPD2    C5 5620   2.566   2.734  13.767  0.0664  0.4290 -0.1062
  372MPD2     H 5621   2.929   2.849  13.840 -0.5888  2.9532 -1.4962
  372MPD2    H1 5622   2.606   2.578  13.898  0.1443 -0.3339  1.2906
  372MPD2    H2 5623   2.540   2.914  13.663 -0.4920 -0.9661 -0.6478
  372MPD2    H3 5624   2.468   2.697  13.742  0.6341 -0.8791 -0.3677
  372MPD2     N 5625   2.877   2.630  13.969 -0.3757  0.1122 -0.3326
  372MPD2    H5 5626   2.974   2.661  13.971 -0.0116 -0.9098 -1.9853
  372MPD2    N1 5627   2.786   3.035  13.708 -0.1386 -0.0438  0.4015
  372MPD2    H7 5628   2.885   3.055  13.712  0.1575 -1.5253  0.2690
  373TMC3    C1 5629   2.941   2.491  14.143 -0.1548 -0.0726  0.6351
  373TMC3    C2 5630   2.909   2.485  14.273 -0.3412  0.4832  0.1273
  373TMC3    C3 5631   3.008   2.444  14.357 -0.0872 -0.2327  0.7077
  373TMC3    C4 5632   3.058   2.443  14.101  0.3176  0.5275 -0.0031
  373TMC3    C5 5633   3.146   2.381  14.186  0.2036 -0.3173  0.0657
  373TMC3    C6 5634   3.111   2.372  14.320  0.5993 -0.0675 -0.0283
  373TMC3     C 5635   2.842   2.524  14.049 -0.2193  0.1266  0.7988
  373TMC3     O 5636   2.733   2.477  14.063  0.0685  0.8574  0.3046
  373TMC3     H 5637   2.817   2.523  14.318 -1.5474 -0.1267 -1.8155
  373TMC3    H1 5638   3.077   2.444  13.994  1.0043 -1.6456  0.0966
  373TMC3    H2 5639   3.176   2.324  14.392  0.9326  1.9631  1.0398
  373TMC3    C7 5640   3.269   2.330  14.136  0.0122  0.4819  0.1257
  373TMC3    C8 5641   2.965   2.435  14.499  0.1277 -0.7314 -0.3344
  373TMC3    O1 5642   3.298   2.366  14.023 -0.4455 -0.0839  0.0584
  373TMC3    O2 5643   2.846   2.427  14.528  0.5424 -0.2236  0.1212
  374TMC3    C1 5644   3.651   3.851  10.194 -0.3168  1.2632 -0.5748
  374TMC3    C2 5645   3.788   3.884  10.207  0.0565  0.0684  0.2918
  374TMC3    C3 5646   3.866   3.817  10.121 -0.5807  0.6304  0.0278
  374TMC3    C4 5647   3.609   3.773  10.091 -0.0712 -0.6407  0.3662
  374TMC3    C5 5648   3.696   3.716  10.001  0.5461 -0.0863  0.0553
  374TMC3    C6 5649   3.829   3.736  10.018 -0.2014  0.1021  0.0656
  374TMC3     C 5650   3.545   3.877  10.297  0.1675 -0.0059 -0.4849
  374TMC3     O 5651   3.431   3.845  10.267  0.9356 -0.1976 -0.3595
  374TMC3     H 5652   3.827   3.957  10.277 -1.5827  0.4933  0.7731
  374TMC3    H1 5653   3.505   3.771  10.063  0.0998 -0.0652 -0.3195
  374TMC3    H2 5654   3.902   3.688   9.955 -1.0749  0.3049 -1.1010
  374TMC3    C7 5655   3.654   3.619   9.900  0.1725 -0.3940  0.5988
  374TMC3    C8 5656   4.006   3.822  10.144 -0.2450  0.3365 -0.0497
  374TMC3    O1 5657   3.741   3.573   9.830  0.1633 -0.5333  0.1333
  374TMC3    O2 5658   4.078   3.828  10.045  0.0532  0.6376  0.5221
  375MPD2     C 5659   4.147   3.513  17.169  0.6155  0.2431  0.5657
  375MPD2    C1 5660   4.087   3.589  17.066  0.0801  0.1914 -0.6768
  375MPD2    C2 5661   4.133   3.569  16.939  0.2468 -0.2643 -0.1555
  375MPD2    C3 5662   4.218   3.468  16.911  0.4472  0.2270 -0.2216
  375MPD2    C4 5663   4.261   3.381  17.010 -0.8407  0.1018 -0.2501
  375MPD2    C5 5664   4.237   3.408  17.140 -0.1805  0.0911  0.2102
  375MPD2     H 5665   4.100   3.637  16.862 -2.9065 -1.8647 -0.2149
  375MPD2    H1 5666   4.328   3.297  16.994 -0.1012  1.4244 -4.1896
  375MPD2    H2 5667   4.115   3.528  17.272  0.1848  1.5005  0.2580
  375MPD2    H3 5668   4.269   3.346  17.223 -1.5094 -0.5725  0.2315
  375MPD2     N 5669   4.285   3.447  16.786  0.3033  0.4359  0.0688
  375MPD2    H5 5670   4.342   3.364  16.775  1.2578  1.1020 -0.0152
  375MPD2    N1 5671   3.993   3.692  17.090 -0.3177 -0.0109  0.1039
  375MPD2    H7 5672   3.938   3.739  17.018  1.5640 -0.1243 -1.4060
  376TMC3    C1 5673   4.351   3.477  16.560  0.2184  0.0849  0.4368
  376TMC3    C2 5674   4.479   3.453  16.597 -0.1904  0.2841  0.1794
  376TMC3    C3 5675   4.559   3.408  16.496  0.1945  0.2698  0.0498
  376TMC3    C4 5676   4.295   3.459  16.433 -0.5513 -0.7202 -0.4563
  376TMC3    C5 5677   4.376   3.419  16.329  0.0238  0.1954 -0.0237
  376TMC3    C6 5678   4.505   3.398  16.367 -0.4939 -0.7758  0.5385
  376TMC3     C 5679   4.260   3.513  16.666  0.2497  0.6817 -0.7870
  376TMC3     O 5680   4.178   3.596  16.630 -0.1107 -0.0891 -0.0948
  376TMC3     H 5681   4.517   3.478  16.695  0.2843 -0.7468  0.2622
  376TMC3    H1 5682   4.191   3.483  16.417 -0.1766  1.1620 -0.1030
  376TMC3    H2 5683   4.580   3.385  16.289 -1.9481  0.9402 -1.1302
  376TMC3    C7 5684   4.349   3.484  16.204  0.5104 -1.0487  0.0288
  376TMC3    C8 5685   4.696   3.437  16.512  0.0287  0.9317  0.0672
  376TMC3    O1 5686   4.266   3.571  16.204  0.0827 -0.3565 -0.1421
  376TMC3    O2 5687   0.027   3.463  16.410  0.0992  0.6027 -0.5904
  377MPD2     C 5688   2.045   3.441  13.034  0.0214 -0.2464 -0.7989
  377MPD2    C1 5689   2.088   3.314  13.082 -0.2971 -0.3293  0.4466
  377MPD2    C2 5690   2.030   3.263  13.199  0.3898 -0.2315  0.3414
  377MPD2    C3 5691   1.934   3.332  13.274 -0.4784 -1.1414 -0.0457
  377MPD2    C4 5692   1.896   3.454  13.228 -0.4030  0.2254 -0.0323
  377MPD2    C5 5693   1.947   3.502  13.107 -0.1545  0.5693  0.2489
  377MPD2     H 5694   2.063   3.166  13.233 -0.8956 -0.5604  0.6487
  377MPD2    H1 5695   1.839   3.517  13.294 -1.0921  2.9364 -3.2511
  377MPD2    H2 5696   2.072   3.484  12.938  0.2724  1.7927  0.2005
  377MPD2    H3 5697   1.915   3.601  13.075 -2.5928 -0.1860  0.3345
  377MPD2     N 5698   1.863   3.278  13.383 -0.1664 -0.3018  0.3298
  377MPD2    H5 5699   1.771   3.318  13.400 -0.7691 -2.0654  1.1300
  377MPD2    N1 5700   2.196   3.255  13.014 -0.0104  0.5849  0.1244
  377MPD2    H7 5701   2.228   3.302  12.930  0.3482  0.6261  0.2849
  378TMC3    C1 5702   2.367   3.232  12.740 -0.7363  0.2694 -0.1026
  378TMC3    C2 5703   2.390   3.218  12.875 -0.0205 -0.6189 -0.3147
  378TMC3    C3 5704   2.346   3.100  12.933 -0.3135  0.1203  0.6973
  378TMC3    C4 5705   2.329   3.130  12.654  0.3572 -0.3260  0.8116
  378TMC3    C5 5706   2.295   3.014  12.719 -0.4276 -0.9079  0.0559
  378TMC3    C6 5707   2.299   2.993  12.852  0.4131 -0.2496 -0.1719
  378TMC3     C 5708   2.355   3.370  12.700 -0.0572 -0.1307  0.2526
  378TMC3     O 5709   2.323   3.450  12.786  0.3032  0.0262 -0.3867
  378TMC3     H 5710   2.432   3.291  12.943  1.4180 -3.0308  1.4022
  378TMC3    H1 5711   2.288   3.155  12.557  1.0222 -1.0691  0.3369
  378TMC3    H2 5712   2.270   2.902  12.902  0.1843 -0.2672 -0.3359
  378TMC3    C7 5713   2.283   2.904  12.628  0.3755  0.8535 -0.4171
  378TMC3    C8 5714   2.250   3.128  13.036  0.2093 -0.3377 -0.5846
  378TMC3    O1 5715   2.227   2.797  12.658  0.5427  1.1769  0.7043
  378TMC3    O2 5716   2.220   3.043  13.116 -0.0111  0.0000  0.4863
  379MPD2     C 5717   2.801   1.921  16.821 -0.1891 -0.1905  0.4751
  379MPD2    C1 5718   2.872   1.825  16.760 -0.3063 -0.5844 -1.3596
  379MPD2    C2 5719   2.983   1.776  16.831 -0.0078  0.1582 -0.6670
  379MPD2    C3 5720   3.016   1.820  16.958  0.2215 -0.5278 -1.1790
  379MPD2    C4 5721   2.936   1.910  17.017  0.2045 -0.0481 -0.1421
  379MPD2    C5 5722   2.831   1.962  16.947 -0.0923  0.7249 -0.3798
  379MPD2     H 5723   3.045   1.701  16.784 -0.6209 -0.3305 -0.6970
  379MPD2    H1 5724   2.966   1.944  17.115  1.9135 -0.4314 -0.5208
  379MPD2    H2 5725   2.716   1.961  16.767 -2.8880 -3.0975  2.6118
  379MPD2    H3 5726   2.780   2.048  16.990  0.1720  0.7704 -0.1547
  379MPD2     N 5727   3.129   1.769  17.030 -0.0141  0.1991  0.1353
  379MPD2    H5 5728   3.133   1.805  17.125 -0.4408 -3.2108  1.4854
  379MPD2    N1 5729   2.825   1.777  16.637  0.4056 -0.2813  0.4359
  379MPD2    H7 5730   2.751   1.828  16.589  0.3075 -0.8534 -0.0202
  380TMC3    C1 5731   2.825   1.624  16.436  0.1001  0.5033  0.2056
  380TMC3    C2 5732   2.911   1.553  16.356 -0.5043 -0.1942  0.4434
  380TMC3    C3 5733   2.860   1.516  16.238 -0.9051 -0.2012 -0.0523
  380TMC3    C4 5734   2.696   1.647  16.417  1.1235  0.5151 -0.1906
  380TMC3    C5 5735   2.650   1.606  16.294 -0.6258  0.7315  0.4139
  380TMC3    C6 5736   2.728   1.548  16.200 -0.6812  1.1891  0.8813
  380TMC3     C 5737   2.880   1.667  16.568 -0.7870 -0.0552  0.3635
  380TMC3     O 5738   2.968   1.599  16.605  0.2936  0.4332 -0.7229
  380TMC3     H 5739   3.013   1.545  16.393 -1.1289 -2.0306  1.8173
  380TMC3    H1 5740   2.633   1.700  16.488 -2.0966 -3.7290  0.1116
  380TMC3    H2 5741   2.696   1.535  16.097  1.6203 -0.6843  0.3861
  380TMC3    C7 5742   2.509   1.630  16.269  0.2957 -0.4567  0.4990
  380TMC3    C8 5743   2.956   1.485  16.133  0.1289 -0.9315  0.2791
  380TMC3    O1 5744   2.443   1.692  16.350 -0.0063  0.0023 -0.3135
  380TMC3    O2 5745   2.911   1.474  16.020  0.1365 -0.1696 -0.4731
  381TMC3    C1 5746   2.796   2.552  16.765  0.0268 -0.4997 -0.7060
  381TMC3    C2 5747   2.847   2.669  16.719 -1.0152 -0.7325  0.1568
  381TMC3    C3 5748   2.832   2.779  16.790  0.6001  0.3836  0.3979
  381TMC3    C4 5749   2.722   2.541  16.876 -0.2663  0.2152  0.3346
  381TMC3    C5 5750   2.706   2.658  16.945 -0.1379 -0.1513  0.6795
  381TMC3    C6 5751   2.762   2.778  16.911  0.5248 -0.5896  0.6586
  381TMC3     C 5752   2.820   2.429  16.699 -0.0416  0.0895  1.0925
  381TMC3     O 5753   2.796   2.328  16.759  0.3656  0.3332  0.0030
  381TMC3     H 5754   2.918   2.662  16.637  1.8510 -1.0215  2.6760
  381TMC3    H1 5755   2.676   2.450  16.911  2.0746 -1.2748 -0.4636
  381TMC3    H2 5756   2.751   2.874  16.961 -1.8293 -1.1921  1.2872
  381TMC3    C7 5757   2.642   2.651  17.078  0.5027  0.7083 -0.3787
  381TMC3    C8 5758   2.898   2.897  16.749  0.8872  0.2055 -0.1778
  381TMC3    O1 5759   2.638   2.540  17.126 -0.3226 -0.1727 -0.6710
  381TMC3    O2 5760   2.932   2.902  16.631  0.7214 -0.2235 -0.6914
  382MPD2     C 5761   2.100   0.392  16.982  0.1483 -0.2048  0.1543
  382MPD2    C1 5762   2.132   0.422  17.109  0.3018  0.3228  0.0251
  382MPD2    C2 5763   2.089   0.335  17.204 -0.0694  0.2415 -0.0092
  382MPD2    C3 5764   2.029   0.215  17.171  0.1029  0.7669  0.5000
  382MPD2    C4 5765   2.006   0.175  17.038  1.3164  0.6444  0.2585
  382MPD2    C5 5766   2.041   0.270  16.948  0.7879 -0.0450  0.3772
  382MPD2     H 5767   2.090   0.362  17.309  1.3466  2.1094 -0.5047
  382MPD2    H1 5768   1.957   0.082  17.012  0.7169  0.7581  1.0029
  382MPD2    H2 5769   2.098   0.460  16.897  0.2940  1.0197  1.1198
  382MPD2    H3 5770   2.002   0.244  16.850  1.1430  0.9474 -0.0234
  382MPD2     N 5771   1.980   0.124  17.266 -0.2294 -0.0215  0.1380
  382MPD2    H5 5772   1.928   0.044  17.231  1.6430 -0.7994 -0.8417
  382MPD2    N1 5773   2.180   0.544  17.150  0.1361 -0.3350  0.0741
  382MPD2    H7 5774   2.192   0.552  17.251  1.0325  1.1291 -0.1445
  383TMC3    C1 5775   1.924   0.020  17.454 -0.8951 -0.4511 -0.2343
  383TMC3    C2 5776   1.812   4.709  17.386  0.3721 -0.2330  0.2537
  383TMC3    C3 5777   1.763   4.586  17.418  0.7235 -0.6250 -0.1356
  383TMC3    C4 5778   1.995   4.670  17.537  0.6759 -0.6510  0.6494
  383TMC3    C5 5779   1.942   4.550  17.569  0.0257  0.4419  0.1733
  383TMC3    C6 5780   1.827   4.501  17.514 -0.6427  0.4847  0.7647
  383TMC3     C 5781   1.996   0.135  17.398  0.1913  0.0305  0.2331
  383TMC3     O 5782   2.071   0.193  17.471 -0.0119 -0.5366  0.2590
  383TMC3     H 5783   1.752   0.042  17.323 -1.3419 -1.7947  0.2375
  383TMC3    H1 5784   2.088   4.713  17.574  1.6421 -1.9316 -0.2603
  383TMC3    H2 5785   1.793   4.400  17.532 -3.2399  0.7098 -2.8355
  383TMC3    C7 5786   2.028   4.466  17.644  0.0246 -0.0192 -1.0470
  383TMC3    C8 5787   1.634   4.550  17.355 -0.1246 -0.8072 -0.7912
  383TMC3    O1 5788   2.132   4.520  17.686  0.5482  0.1968 -0.1493
  383TMC3    O2 5789   1.564   4.643  17.319 -0.1499 -0.0274  0.2545
  384MPD2     C 5790   3.473   1.406  12.318  0.3027  0.4234 -0.3995
  384MPD2    C1 5791   3.520   1.368  12.440 -0.1556 -0.1180  0.7369
  384MPD2    C2 5792   3.626   1.282  12.449  0.3650 -0.1464  0.3019
  384MPD2    C3 5793   3.678   1.219  12.335  0.1669 -0.0945 -0.7624
  384MPD2    C4 5794   3.617   1.240  12.210  0.1684  0.1292 -0.3925
  384MPD2    C5 5795   3.521   1.338  12.205 -0.0487  0.1692  0.0392
  384MPD2     H 5796   3.669   1.258  12.546 -1.4225  0.4522  1.2531
  384MPD2    H1 5797   3.651   1.192  12.119  0.4401  0.6125 -0.5528
  384MPD2    H2 5798   3.401   1.483  12.295 -0.6202 -0.9327 -1.9910
  384MPD2    H3 5799   3.480   1.364  12.108  0.7060  0.1832 -0.2747
  384MPD2     N 5800   3.791   1.140  12.354  0.3006 -0.7871  0.1846
  384MPD2    H5 5801   3.811   1.133  12.454 -1.4627 -1.6331  0.4773
  384MPD2    N1 5802   3.484   1.437  12.559  0.0466 -0.3339 -0.2098
  384MPD2    H7 5803   3.529   1.408  12.645 -0.4060  1.2483  0.5600
  385TMC3    C1 5804   3.943   0.977  12.324  0.4072 -0.6257  0.1947
  385TMC3    C2 5805   3.914   0.856  12.278  0.2170  0.2544 -0.5603
  385TMC3    C3 5806   3.899   0.758  12.379  0.4855  0.1381  0.3354
  385TMC3    C4 5807   3.972   1.005  12.456  0.0544 -1.2416 -0.2418
  385TMC3    C5 5808   3.955   0.906  12.549 -0.9353 -0.0030  0.0197
  385TMC3    C6 5809   3.922   0.779  12.513  0.1896 -0.1755  0.4376
  385TMC3     C 5810   3.875   1.079  12.259  0.3144  0.2389 -0.6004
  385TMC3     O 5811   3.860   1.072  12.138  0.4324  0.7463 -0.0601
  385TMC3     H 5812   3.905   0.842  12.171  2.1406 -2.3263 -0.3881
  385TMC3    H1 5813   4.013   1.102  12.483 -1.0303 -0.6357 -0.8122
  385TMC3    H2 5814   3.885   0.707  12.585 -0.4496 -3.0671 -2.7870
  385TMC3    C7 5815   3.880   0.972  12.659  0.0619 -0.6079 -0.1056
  385TMC3    C8 5816   3.860   0.631  12.337 -0.2400 -0.5490 -1.0648
  385TMC3    O1 5817   3.845   1.084  12.633  0.1940  0.1051 -0.7819
  385TMC3    O2 5818   3.902   0.537  12.406 -0.3254 -0.7590  0.1273
  386TMC3    C1 5819   3.419   3.341  11.698 -0.1499 -0.1071  0.1871
  386TMC3    C2 5820   3.430   3.448  11.606  0.0999  0.2208 -0.8131
  386TMC3    C3 5821   3.347   3.558  11.636  0.5670  0.5691  0.3140
  386TMC3    C4 5822   3.325   3.349  11.803 -0.3016  0.1057 -0.7399
  386TMC3    C5 5823   3.230   3.441  11.803  0.1989  0.6262 -0.0499
  386TMC3    C6 5824   3.236   3.543  11.714  0.0014  0.2573 -0.2600
  386TMC3     C 5825   3.521   3.237  11.692  0.5594  0.5021  0.5455
  386TMC3     O 5826   3.626   3.256  11.634 -0.5582 -1.0056 -0.1309
  386TMC3     H 5827   3.504   3.444  11.526  0.5919  1.5847 -0.4270
  386TMC3    H1 5828   3.322   3.265  11.871 -3.1920  1.3434  0.6381
  386TMC3    H2 5829   3.164   3.624  11.718 -0.7436 -0.4215  0.0778
  386TMC3    C7 5830   3.181   3.465  11.933 -0.4214  0.0273  0.5596
  386TMC3    C8 5831   3.306   3.631  11.516  0.0435  0.4212  0.1043
  386TMC3    O1 5832   3.233   3.405  12.027 -0.7985 -0.6451 -0.0346
  386TMC3    O2 5833   3.186   3.629  11.498  0.5245  0.1349  0.3606
  387MPD2     C 5834   1.125   4.102  10.229  0.7034  0.0067 -0.2482
  387MPD2    C1 5835   1.166   4.065  10.356 -0.0194  0.2520 -0.4873
  387MPD2    C2 5836   1.146   3.935  10.391  0.0156  0.2524  0.2099
  387MPD2    C3 5837   1.089   3.841  10.316 -0.1275 -0.1083 -0.5005
  387MPD2    C4 5838   1.042   3.882  10.193  0.6276 -0.0895 -0.0884
  387MPD2    C5 5839   1.051   4.016  10.154 -0.4435  0.5321 -0.4633
  387MPD2     H 5840   1.181   3.899  10.486  1.3490 -1.4796 -0.9419
  387MPD2    H1 5841   0.987   3.816  10.127  1.7039 -0.3128 -0.7568
  387MPD2    H2 5842   1.136   4.202  10.191  1.4709  1.0035  2.5834
  387MPD2    H3 5843   1.012   4.050  10.059 -0.4066  0.8935 -0.3476
  387MPD2     N 5844   1.080   3.711  10.362 -0.2835 -0.2939  0.5115
  387MPD2    H5 5845   1.123   3.707  10.454  0.7541  3.8514  0.2306
  387MPD2    N1 5846   1.250   4.138  10.444 -0.1597  0.1006 -0.1739
  387MPD2    H7 5847   1.280   4.088  10.527  0.8986  0.6241 -0.2376
  388TMC3    C1 5848   1.407   4.287  10.527  0.3101  0.0458  0.1904
  388TMC3    C2 5849   1.408   4.403  10.587 -0.1567 -0.1742 -0.1642
  388TMC3    C3 5850   1.479   4.412  10.700  0.4348  0.0034  0.1939
  388TMC3    C4 5851   1.482   4.177  10.564 -0.3917  0.6639 -0.3348
  388TMC3    C5 5852   1.557   4.195  10.682 -0.1183 -0.0954 -0.1824
  388TMC3    C6 5853   1.555   4.311  10.753 -0.0355 -0.1890 -0.3404
  388TMC3     C 5854   1.292   4.264  10.440 -0.2697  0.3374 -0.5689
  388TMC3     O 5855   1.256   4.358  10.368 -0.1972 -0.1013 -0.1696
  388TMC3     H 5856   1.345   4.484  10.554  1.1772  1.2053  0.6743
  388TMC3    H1 5857   1.474   4.083  10.512  0.2874 -0.1222  0.9888
  388TMC3    H2 5858   1.598   4.318  10.852 -1.3632 -1.4187  0.3250
  388TMC3    C7 5859   1.588   4.078  10.760 -0.6168  0.3479 -0.3867
  388TMC3    C8 5860   1.455   4.531  10.783  0.6116 -0.0474 -0.7885
  388TMC3    O1 5861   1.590   4.102  10.879  0.7331  0.9388 -0.4468
  388TMC3    O2 5862   1.455   4.518  10.905  1.1705 -0.1581  0.3123
  389MPD2     C 5863   0.559   2.272  11.475  0.4576  0.2024 -0.0465
  389MPD2    C1 5864   0.513   2.172  11.391  0.1988 -0.0918 -0.5163
  389MPD2    C2 5865   0.417   2.094  11.438  0.0408  0.5337  0.1299
  389MPD2    C3 5866   0.372   2.111  11.572 -0.0755  0.2777  0.5561
  389MPD2    C4 5867   0.414   2.215  11.653  0.4412  0.7299 -0.4225
  389MPD2    C5 5868   0.508   2.299  11.599 -0.0819 -0.5225  0.0034
  389MPD2     H 5869   0.382   2.016  11.371 -0.5728  0.6866  0.2719
  389MPD2    H1 5870   0.378   2.232  11.754  0.7135  0.1044 -0.2191
  389MPD2    H2 5871   0.648   2.327  11.449  1.9774 -1.9400  0.5546
  389MPD2    H3 5872   0.547   2.385  11.651 -0.6781  0.2902 -0.8958
  389MPD2     N 5873   0.284   2.016  11.630  0.1688 -0.4901 -0.7274
  389MPD2    H5 5874   0.247   2.042  11.721  1.7100  3.4271 -1.2323
  389MPD2    N1 5875   0.578   2.154  11.265  0.1019  0.3052  0.1359
  389MPD2    H7 5876   0.645   2.228  11.247 -1.6138  1.3907 -1.8133
  390TMC3    C1 5877   0.194   1.813  11.686  0.5194 -0.2069 -0.4362
  390TMC3    C2 5878   0.088   1.725  11.658 -0.5118  0.0044  0.3221
  390TMC3    C3 5879   0.011   1.677  11.768 -0.3440  0.0526 -1.1245
  390TMC3    C4 5880   0.223   1.839  11.818 -0.1117  0.9063 -0.6823
  390TMC3    C5 5881   0.154   1.774  11.921 -0.1150  0.5674 -0.2163
  390TMC3    C6 5882   0.041   1.699  11.900  0.2924 -0.2020  0.1249
  390TMC3     C 5883   0.249   1.894  11.581 -0.4608 -0.7463  0.6468
  390TMC3     O 5884   0.238   1.858  11.466  0.2443 -0.1312  0.6168
  390TMC3     H 5885   0.033   1.727  11.565  2.5721  1.4376 -1.4775
  390TMC3    H1 5886   0.297   1.911  11.854  1.5084 -0.4221 -1.3510
  390TMC3    H2 5887   4.716   1.659  11.983  1.0822 -0.9976  0.2907
  390TMC3    C7 5888   0.170   1.833  12.048  0.4613 -0.0749 -0.0462
  390TMC3    C8 5889   4.617   1.613  11.739  0.3864 -0.0028  0.3542
  390TMC3    O1 5890   0.199   1.953  12.061  0.1817 -0.1150 -0.2437
  390TMC3    O2 5891   4.616   1.549  11.635 -0.0891 -0.4472  0.5362
  391MPD2     C 5892   4.313   3.453  11.700  0.3886  0.1347  0.3165
  391MPD2    C1 5893   4.347   3.587  11.698  0.0882  0.4683  0.3353
  391MPD2    C2 5894   4.352   3.649  11.573  0.0494  0.4008 -0.3293
  391MPD2    C3 5895   4.317   3.592  11.456 -0.7078  0.0053  0.0304
  391MPD2    C4 5896   4.279   3.456  11.467  0.4572 -0.1792  0.1111
  391MPD2    C5 5897   4.280   3.388  11.589 -0.4214  0.0417 -0.5561
  391MPD2     H 5898   4.384   3.750  11.550 -1.6074  1.6127  2.7109
  391MPD2    H1 5899   4.254   3.391  11.383  0.5430 -0.7101  0.5000
  391MPD2    H2 5900   4.308   3.397  11.792 -1.4428  0.1445  0.2402
  391MPD2    H3 5901   4.261   3.281  11.593 -1.8420  0.2727 -1.4006
  391MPD2     N 5902   4.318   3.666  11.337 -0.5301  0.1913 -0.8048
  391MPD2    H5 5903   4.360   3.759  11.336  0.5207 -0.2815 -0.2376
  391MPD2    N1 5904   4.375   3.650  11.819 -0.6857 -1.0039  0.0953
  391MPD2    H7 5905   4.408   3.598  11.899  1.7477 -0.2431 -0.4183
  392TMC3    C1 5906   4.315   3.703  11.110  0.0540  0.1638  0.3154
  392TMC3    C2 5907   4.256   3.669  10.990 -0.0322  0.3469  1.1070
  392TMC3    C3 5908   4.299   3.736  10.879 -0.9686 -0.6283 -0.1948
  392TMC3    C4 5909   4.430   3.789  11.122 -0.0341 -0.8179  0.4745
  392TMC3    C5 5910   4.470   3.846  11.004 -0.2178  0.0447  0.4545
  392TMC3    C6 5911   4.413   3.818  10.885 -0.8594  0.3313  0.0986
  392TMC3     C 5912   4.272   3.623  11.220  0.0034 -0.0434 -0.5405
  392TMC3     O 5913   4.191   3.538  11.201  0.2668 -0.0688 -0.2635
  392TMC3     H 5914   4.184   3.589  10.980  2.1687 -1.6802  1.6541
  392TMC3    H1 5915   4.477   3.820  11.214 -1.4385 -2.5769  1.7888
  392TMC3    H2 5916   4.434   3.878  10.798 -0.3144 -0.6087 -0.4169
  392TMC3    C7 5917   4.599   3.914  11.013 -0.1776  0.6218 -0.3885
  392TMC3    C8 5918   4.240   3.704  10.750 -0.3845 -0.1938  0.1953
  392TMC3    O1 5919   4.657   3.927  11.120  0.0236  0.6931 -0.3280
  392TMC3    O2 5920   4.129   3.656  10.744  0.0252  0.7870 -0.0908
  393TMC3    C1 5921   3.446   1.487  11.249 -0.3942  0.4454 -0.3913
  393TMC3    C2 5922   3.389   1.419  11.354 -0.5712  0.3024  0.1745
  393TMC3    C3 5923   3.326   1.298  11.317  0.2951 -0.8476  0.1206
  393TMC3    C4 5924   3.448   1.444  11.118 -0.7150 -0.2010 -0.0134
  393TMC3    C5 5925   3.380   1.332  11.090  0.1127 -0.2472  0.4744
  393TMC3    C6 5926   3.328   1.255  11.190 -0.3372 -0.1894 -0.0394
  393TMC3     C 5927   3.513   1.615  11.284  0.2793 -0.3487  0.2208
  393TMC3     O 5928   3.505   1.704  11.200  0.6370 -0.1788 -0.8152
  393TMC3     H 5929   3.371   1.451  11.456 -0.6474  0.0135  0.2534
  393TMC3    H1 5930   3.492   1.509  11.043  1.0772 -2.5602 -0.9998
  393TMC3    H2 5931   3.300   1.152  11.169  0.0193 -0.0234 -1.3346
  393TMC3    C7 5932   3.330   1.307  10.953 -0.0149  0.8262 -0.2618
  393TMC3    C8 5933   3.299   1.206  11.425  0.1810 -0.3166  0.3435
  393TMC3    O1 5934   3.239   1.227  10.941  0.5229 -0.1534 -0.2140
  393TMC3    O2 5935   3.379   1.212  11.511 -0.1854  0.3077 -0.0991
  394TMC3    C1 5936   0.613   2.083  11.037 -0.4485  0.6317  0.3153
  394TMC3    C2 5937   0.550   2.005  10.936 -0.5946 -0.4429 -0.8190
  394TMC3    C3 5938   0.561   2.054  10.808  0.1066  0.2456 -0.6491
  394TMC3    C4 5939   0.659   2.206  11.002 -0.0688 -0.5897  0.1152
  394TMC3    C5 5940   0.653   2.253  10.876 -0.7480  0.3445  0.2308
  394TMC3    C6 5941   0.599   2.183  10.771  0.6693  0.1041  0.1524
  394TMC3     C 5942   0.562   2.055  11.173 -0.1793 -0.1125 -0.0352
  394TMC3     O 5943   0.491   1.954  11.177  0.2842 -0.2784 -0.1155
  394TMC3     H 5944   0.508   1.910  10.966 -0.9791 -0.0350 -0.0815
  394TMC3    H1 5945   0.695   2.282  11.071 -0.1641 -0.1921 -0.2727
  394TMC3    H2 5946   0.605   2.213  10.667  0.7997  0.1224  0.1651
  394TMC3    C7 5947   0.658   2.403  10.863 -0.5500  0.6664 -0.0504
  394TMC3    C8 5948   0.530   1.962  10.706  0.1585  0.4218  0.4615
  394TMC3    O1 5949   0.728   2.467  10.939  0.0440 -0.8039  0.2962
  394TMC3    O2 5950   0.484   2.006  10.598  1.3110  0.4051 -0.0131
  395TMC3    C1 5951   0.608   3.696  15.041  0.2511  0.4861  0.5128
  395TMC3    C2 5952   0.510   3.655  14.955  0.6724 -0.2260 -0.8228
  395TMC3    C3 5953   0.485   3.728  14.841  0.0386 -0.5630 -0.0181
  395TMC3    C4 5954   0.675   3.811  15.025 -0.3181 -0.4917  0.9992
  395TMC3    C5 5955   0.656   3.876  14.911  0.9905 -0.1496  0.4250
  395TMC3    C6 5956   0.566   3.836  14.812 -0.2535 -0.2785  0.5011
  395TMC3     C 5957   0.622   3.621  15.161 -0.3453 -0.0301 -0.0229
  395TMC3     O 5958   0.526   3.560  15.206 -0.4894  0.4284 -0.1050
  395TMC3     H 5959   0.451   3.566  14.976 -1.2450  1.6552  1.7520
  395TMC3    H1 5960   0.737   3.858  15.100  0.7182 -1.5179  0.7810
  395TMC3    H2 5961   0.535   3.900  14.731  0.1301  2.1141  2.2670
  395TMC3    C7 5962   0.732   4.001  14.890  0.3074 -0.1120  0.8214
  395TMC3    C8 5963   0.391   3.660  14.747  0.5164 -0.2271 -0.4731
  395TMC3    O1 5964   0.753   4.066  14.988  0.5434 -0.1677 -0.1341
  395TMC3    O2 5965   0.326   3.566  14.795 -0.6852 -0.3540 -0.2049
  396MPD2     C 5966   0.216   0.222  17.429  0.5072 -0.6293  0.0963
  396MPD2    C1 5967   0.351   0.225  17.429 -0.5448 -0.0046  0.2581
  396MPD2    C2 5968   0.415   0.334  17.365 -0.3824  0.3571 -0.1247
  396MPD2    C3 5969   0.342   0.438  17.313 -0.9358 -0.0538 -0.2003
  396MPD2    C4 5970   0.205   0.427  17.323 -0.0824 -0.7937  0.1237
  396MPD2    C5 5971   0.137   0.321  17.381  0.0906  0.2822  0.7202
  396MPD2     H 5972   0.524   0.335  17.362 -0.4248  0.0392 -1.7402
  396MPD2    H1 5973   0.140   0.505  17.284  1.5179  0.6977  0.4620
  396MPD2    H2 5974   0.170   0.130  17.464  0.5895 -1.4556 -1.9630
  396MPD2    H3 5975   0.029   0.314  17.383  0.1303 -0.2779  1.2435
  396MPD2     N 5976   0.407   0.545  17.244  0.0329  0.9030 -0.3395
  396MPD2    H5 5977   0.508   0.542  17.256  0.3687  0.2193 -3.4918
  396MPD2    N1 5978   0.417   0.103  17.476 -0.2460  0.5777  0.4595
  396MPD2    H7 5979   0.353   0.028  17.502 -0.5458  0.3661 -0.8349
  397TMC3    C1 5980   0.577   4.666  17.508 -0.0564  0.1370  0.3161
  397TMC3    C2 5981   0.621   4.602  17.394  0.2252 -0.2485  0.0383
  397TMC3    C3 5982   0.545   4.505  17.333  0.4741  0.0003 -0.1748
  397TMC3    C4 5983   0.477   4.596  17.582  0.3848  0.6069  0.5894
  397TMC3    C5 5984   0.428   4.484  17.528 -0.3383  0.0845 -0.5077
  397TMC3    C6 5985   0.463   4.437  17.405 -1.0537 -0.4563 -0.6248
  397TMC3     C 5986   0.553   0.079  17.483  0.0937  0.7497 -0.4991
  397TMC3     O 5987   0.644   0.147  17.442  0.2571 -0.4820 -0.4883
  397TMC3     H 5988   0.675   4.672  17.331  0.2602 -0.0380  0.3032
  397TMC3    H1 5989   0.445   4.637  17.677 -1.7398 -0.8240  0.4765
  397TMC3    H2 5990   0.419   4.348  17.359 -1.6196 -0.9811  0.9230
  397TMC3    C7 5991   0.320   4.411  17.585  0.2533  1.2396 -0.1843
  397TMC3    C8 5992   0.482   4.542  17.208 -0.5629 -0.1719 -0.7333
  397TMC3    O1 5993   0.282   4.308  17.525 -0.0449 -0.4521  0.3182
  397TMC3    O2 5994   0.538   4.626  17.133 -0.2633  0.0649  0.4194
  398MPD2     C 5995   2.738   1.613   0.429 -0.2928 -0.8207 -0.4041
  398MPD2    C1 5996   2.848   1.559   0.488 -0.0444 -0.1877 -0.7599
  398MPD2    C2 5997   2.896   1.619   0.602  0.3750 -0.1891  0.5422
  398MPD2    C3 5998   2.844   1.743   0.643  0.6216  0.2108  0.2959
  398MPD2    C4 5999   2.729   1.793   0.581 -0.2492 -0.3554 -0.7955
  398MPD2    C5 6000   2.676   1.723   0.476 -0.8822 -0.1764  0.0995
  398MPD2     H 6001   2.982   1.587   0.660  0.6064  1.2133  0.9789
  398MPD2    H1 6002   2.675   1.886   0.601  2.7409  1.2534 -0.2076
  398MPD2    H2 6003   2.685   1.571   0.345 -1.4642 -0.3057  0.0652
  398MPD2    H3 6004   2.586   1.765   0.433 -1.2962  0.2049  1.3579
  398MPD2     N 6005   2.915   1.804   0.754  0.0307 -0.3207 -0.1816
  398MPD2    H5 6006   3.007   1.764   0.771  0.1723  0.1210  0.0880
  398MPD2    N1 6007   2.915   1.446   0.445  0.0497 -0.3803 -0.3025
  398MPD2    H7 6008   2.995   1.415   0.500  0.1807  0.2464 -0.1399
  399TMC3    C1 6009   2.965   1.263   0.320 -0.4655 -0.2485  0.8596
  399TMC3    C2 6010   3.099   1.267   0.352  0.5310 -0.0938  0.0190
  399TMC3    C3 6011   3.165   1.156   0.385 -0.3917 -0.1894 -0.2727
  399TMC3    C4 6012   2.895   1.148   0.315 -0.3181 -0.0744  0.0055
  399TMC3    C5 6013   2.968   1.033   0.338  0.1260  0.1223  0.5866
  399TMC3    C6 6014   3.099   1.033   0.379 -0.1946 -0.6305 -0.3268
  399TMC3     C 6015   2.885   1.385   0.327  0.1321  0.2953 -0.5690
  399TMC3     O 6016   2.781   1.380   0.260 -0.2403 -0.7289 -0.2201
  399TMC3     H 6017   3.150   1.361   0.334  2.7945 -1.3906 -0.3666
  399TMC3    H1 6018   2.792   1.149   0.283 -0.5743  0.5055  0.8434
  399TMC3    H2 6019   3.131   0.932   0.403 -1.3576 -0.8788  0.1627
  399TMC3    C7 6020   2.898   0.905   0.337 -0.1434  0.4306  0.4155
  399TMC3    C8 6021   3.312   1.172   0.407  0.6709 -0.2282  0.2008
  399TMC3    O1 6022   2.975   0.810   0.320  0.4647 -0.0007 -0.6982
  399TMC3    O2 6023   3.359   1.285   0.406 -0.6541  0.0693  0.2046
  400TMC3    C1 6024   1.708   4.348  16.954  0.0457  0.1485 -0.4795
  400TMC3    C2 6025   1.593   4.317  16.888 -0.1539  0.7592  1.1427
  400TMC3    C3 6026   1.514   4.426  16.849  0.6698  0.1858 -0.5200
  400TMC3    C4 6027   1.742   4.474  16.999  0.2286 -0.6470 -0.1115
  400TMC3    C5 6028   1.653   4.574  16.974  0.1944 -0.3171  0.1581
  400TMC3    C6 6029   1.543   4.554  16.894 -0.2856 -0.7134 -0.7458
  400TMC3     C 6030   1.799   4.239  16.982  0.6941 -0.2552  0.3246
  400TMC3     O 6031   1.758   4.135  16.941 -0.6003 -0.3444 -0.1153
  400TMC3     H 6032   1.574   4.217  16.852 -1.2437  1.0903  0.7903
  400TMC3    H1 6033   1.827   4.485  17.066  1.5917 -0.9057 -1.7934
  400TMC3    H2 6034   1.477   4.631  16.856  0.5027  0.2366 -0.2003
  400TMC3    C7 6035   1.692   4.703  17.018  0.1770 -0.3187  0.0997
  400TMC3    C8 6036   1.410   4.392  16.749  0.5538  0.5106  0.0921
  400TMC3    O1 6037   1.772   4.706  17.106  0.3366 -0.1257 -0.3254
  400TMC3    O2 6038   1.411   4.277  16.700  0.0530  0.1686 -0.3592
  401MPD2     C 6039   4.537   2.803   0.566  0.1579  0.8044 -0.3581
  401MPD2    C1 6040   4.611   2.817   0.684  1.0155  0.9802 -0.1387
  401MPD2    C2 6041   4.711   2.723   0.711 -0.0458  0.3013  0.2236
  401MPD2    C3 6042   0.003   2.620   0.622  0.7027 -0.3425 -0.1000
  401MPD2    C4 6043   4.661   2.614   0.512 -0.0783  0.0432 -0.9242
  401MPD2    C5 6044   4.564   2.699   0.482 -0.3152 -0.4987  0.0585
  401MPD2     H 6045   0.044   2.738   0.795  0.9911 -2.3126 -0.1255
  401MPD2    H1 6046   4.672   2.534   0.439  3.2547  3.6546 -4.3973
  401MPD2    H2 6047   4.458   2.874   0.545  1.0683  1.4764 -1.5081
  401MPD2    H3 6048   4.504   2.704   0.391  0.5931  1.0942 -0.4439
  401MPD2     N 6049   0.100   2.530   0.658 -0.7983  0.0863  0.8329
  401MPD2    H5 6050   0.165   2.557   0.731 -0.3186 -0.5139  0.6264
  401MPD2    N1 6051   4.589   2.921   0.781  0.1608 -0.3295 -0.5088
  401MPD2    H7 6052   4.656   2.917   0.856  0.4367 -0.5099 -0.7646
  402TMC3    C1 6053   0.276   2.386   0.619 -1.1642  0.0478 -0.4574
  402TMC3    C2 6054   0.331   2.404   0.748 -0.2097 -0.7954 -0.2923
  402TMC3    C3 6055   0.467   2.373   0.764  0.2026  0.3899  0.4662
  402TMC3    C4 6056   0.349   2.327   0.516 -0.0178 -0.2322 -0.4228
  402TMC3    C5 6057   0.476   2.301   0.546  0.7250  0.4524 -0.2186
  402TMC3    C6 6058   0.540   2.320   0.665 -0.3225 -0.4852  0.7171
  402TMC3     C 6059   0.139   2.419   0.583  0.0545 -0.8531 -0.4334
  402TMC3     O 6060   0.092   2.364   0.485  0.0347 -0.4667 -0.1049
  402TMC3     H 6061   0.266   2.430   0.831  1.3858 -0.2497  0.7817
  402TMC3    H1 6062   0.316   2.315   0.413 -0.7318 -1.1152 -0.0936
  402TMC3    H2 6063   0.648   2.318   0.664 -0.3191  0.5127 -2.3014
  402TMC3    C7 6064   0.570   2.310   0.435 -0.2594 -1.1599  0.6280
  402TMC3    C8 6065   0.538   2.429   0.871 -0.0689  0.0538 -0.4296
  402TMC3    O1 6066   0.574   2.212   0.363 -0.4962  0.3599  0.8032
  402TMC3    O2 6067   0.661   2.431   0.867 -0.2109 -1.0711  0.1898
  403MPD2     C 6068   2.891   1.418  13.570 -0.0244 -0.3227  0.1070
  403MPD2    C1 6069   2.953   1.295  13.582  0.6887 -0.7093 -0.1243
  403MPD2    C2 6070   3.004   1.264  13.702 -0.5140  0.2284  0.4609
  403MPD2    C3 6071   2.980   1.342  13.814  0.1310  0.0710  1.1532
  403MPD2    C4 6072   2.906   1.456  13.802 -0.4296  0.3301 -0.2873
  403MPD2    C5 6073   2.864   1.495  13.677  0.0049  0.5674 -0.1079
  403MPD2     H 6074   3.063   1.174  13.715  0.6794  0.9069 -0.3264
  403MPD2    H1 6075   2.892   1.528  13.882  4.9617 -0.8455  1.6548
  403MPD2    H2 6076   2.852   1.458  13.476 -0.1285  0.7385  0.5996
  403MPD2    H3 6077   2.799   1.580  13.659 -0.7679 -0.2576 -1.2180
  403MPD2     N 6078   3.050   1.301  13.933  0.4501 -0.1444  0.4885
  403MPD2    H5 6079   3.104   1.216  13.920  0.0553 -0.4396  0.7974
  403MPD2    N1 6080   2.947   1.212  13.467  0.5054  0.4062 -0.2737
  403MPD2    H7 6081   2.882   1.247  13.397 -0.2079 -0.6423 -0.1441
  404TMC3    C1 6082   2.914   0.993  13.385 -0.7079 -0.4148  0.7427
  404TMC3    C2 6083   2.907   0.864  13.434  0.1348  0.1159 -0.6679
  404TMC3    C3 6084   2.826   0.783  13.363 -0.1572 -0.7018 -0.1125
  404TMC3    C4 6085   2.843   1.046  13.284  0.0114 -0.2517  0.0734
  404TMC3    C5 6086   2.751   0.955  13.226  0.1403 -0.1783 -0.1013
  404TMC3    C6 6087   2.738   0.823  13.268 -0.0644  0.1059 -0.3627
  404TMC3     C 6088   3.002   1.085  13.459  0.2994  0.0963  0.1409
  404TMC3     O 6089   3.087   1.035  13.535  0.2961 -0.1109 -0.4374
  404TMC3     H 6090   2.993   0.832  13.491 -1.1222 -1.6714  0.2197
  404TMC3    H1 6091   2.849   1.152  13.262 -1.0360 -0.0606  0.6611
  404TMC3    H2 6092   2.671   0.757  13.214  1.3906 -0.3782 -1.5697
  404TMC3    C7 6093   2.709   1.003  13.094 -0.8951 -0.3752  0.5823
  404TMC3    C8 6094   2.771   0.682  13.456 -1.1207  0.7257  0.2107
  404TMC3    O1 6095   2.792   1.083  13.052  0.2965  0.1720  0.0145
  404TMC3    O2 6096   2.692   0.605  13.410 -0.0917  0.2303 -0.6152
  405MPD2     C 6097   3.704   1.907  15.076  1.0136 -0.2977  0.5268
  405MPD2    C1 6098   3.646   1.806  15.002 -0.1482 -0.4175  0.0977
  405MPD2    C2 6099   3.511   1.785  15.015  0.7271 -0.1085  0.4807
  405MPD2    C3 6100   3.430   1.883  15.074  0.0747  0.3771 -0.2540
  405MPD2    C4 6101   3.482   1.991  15.138  0.2350 -0.5183 -0.5974
  405MPD2    C5 6102   3.619   2.002  15.130 -0.1047  1.1134  0.4945
  405MPD2     H 6103   3.470   1.688  14.987 -0.6809  1.4342 -2.7475
  405MPD2    H1 6104   3.419   2.071  15.176  0.6060 -0.4211 -0.1888
  405MPD2    H2 6105   3.811   1.925  15.073  1.3216 -2.1055  0.4235
  405MPD2    H3 6106   3.667   2.088  15.174  1.3426 -0.3682  1.8007
  405MPD2     N 6107   3.294   1.869  15.053  0.0964 -0.2615 -0.2532
  405MPD2    H5 6108   3.258   1.782  15.015 -2.7164  0.0375  1.7693
  405MPD2    N1 6109   3.729   1.725  14.929  1.0192 -0.2466  0.2640
  405MPD2    H7 6110   3.829   1.722  14.949  0.6477 -1.7516  1.8139
  406TMC3    C1 6111   2.857   1.958  14.986  0.4342 -0.0399  0.7008
  406TMC3    C2 6112   2.839   1.834  14.941 -0.3472  0.1496 -0.5562
  406TMC3    C3 6113   2.936   1.741  14.975  0.6047 -0.0617 -0.2953
  406TMC3    C4 6114   2.971   2.002  15.038  0.3034  0.4332  0.6257
  406TMC3    C5 6115   3.071   1.909  15.057  0.2608  0.6824 -0.1253
  406TMC3    C6 6116   3.046   1.781  15.042 -0.3730 -0.4118  0.6443
  406TMC3     C 6117   2.754   2.056  14.970 -0.0161  0.5495  0.4584
  406TMC3     O 6118   2.792   2.175  14.968  0.4062  0.1175  0.7757
  406TMC3     H 6119   2.758   1.803  14.876 -0.3760  0.1126 -0.5026
  406TMC3    H1 6120   2.983   2.106  15.066 -0.1141 -0.0402  2.5613
  406TMC3    H2 6121   3.113   1.713  15.094  1.7482  0.7808 -0.5261
  406TMC3    C7 6122   3.205   1.955  15.090 -0.5220  0.0746 -0.0253
  406TMC3    C8 6123   2.934   1.615  14.912  0.5748 -0.2440 -0.7583
  406TMC3    O1 6124   3.214   2.069  15.132  0.3751 -0.5476  0.2342
  406TMC3    O2 6125   2.834   1.544  14.905  0.0823  0.2053 -0.7213
  407MPD2     C 6126   0.608   3.032   9.981  0.1354  0.2457 -0.5793
  407MPD2    C1 6127   0.701   3.070  10.079 -0.4606 -0.4767  0.4459
  407MPD2    C2 6128   0.691   3.193  10.140  0.6828 -0.0419  0.5624
  407MPD2    C3 6129   0.583   3.277  10.101  0.2073 -0.0386  0.8289
  407MPD2    C4 6130   0.487   3.233  10.012 -0.3166  0.5117 -0.2989
  407MPD2    C5 6131   0.505   3.112   9.958  0.3151 -0.1428 -0.1649
  407MPD2     H 6132   0.744   3.224  10.229  0.5568  1.9444 -0.0606
  407MPD2    H1 6133   0.408   3.301   9.985  0.3120  0.7915 -1.4397
  407MPD2    H2 6134   0.619   2.949   9.913  3.3686  1.6404 -1.7457
  407MPD2    H3 6135   0.434   3.076   9.884  1.0121 -2.2405  0.2104
  407MPD2     N 6136   0.570   3.404  10.147  0.0551 -0.2440 -0.1008
  407MPD2    H5 6137   0.492   3.454  10.105 -2.6751 -3.5623  1.0528
  407MPD2    N1 6138   0.807   2.983  10.118 -0.3227 -0.9016 -0.6201
  407MPD2    H7 6139   0.872   3.018  10.188  1.0801 -0.2599 -2.2390
  408TMC3    C1 6140   0.953   2.804  10.146  0.1070 -0.3632 -0.1971
  408TMC3    C2 6141   1.052   2.895  10.191 -0.5461 -1.1548  0.2866
  408TMC3    C3 6142   1.165   2.848  10.259 -0.2972  0.4459 -0.7954
  408TMC3    C4 6143   0.980   2.670  10.163  0.5349  0.0704  0.3010
  408TMC3    C5 6144   1.090   2.631  10.229 -0.3492  0.3308  0.1775
  408TMC3    C6 6145   1.176   2.715  10.293  0.4185 -0.3966 -0.1637
  408TMC3     C 6146   0.837   2.856  10.076 -0.0763 -0.6653  0.2550
  408TMC3     O 6147   0.779   2.787   9.992 -0.2581  0.1939  0.1434
  408TMC3     H 6148   1.042   2.997  10.156 -3.3811 -1.2187  0.8999
  408TMC3    H1 6149   0.917   2.597  10.113  0.2064  1.8612 -1.9322
  408TMC3    H2 6150   1.264   2.676  10.343  0.3612  0.5949  0.7008
  408TMC3    C7 6151   1.107   2.486  10.250 -0.3435  0.0661 -0.6795
  408TMC3    C8 6152   1.278   2.933  10.294 -0.1254  0.2240  0.2353
  408TMC3    O1 6153   1.020   2.399  10.245 -0.2759 -0.4196 -0.2942
  408TMC3    O2 6154   1.356   2.880  10.372 -0.1030  0.1266 -0.2314
  409MPD2     C 6155   0.439   3.906  17.066 -0.0995  0.7320 -0.5613
  409MPD2    C1 6156   0.533   3.939  17.165 -0.9766 -0.1029 -0.3101
  409MPD2    C2 6157   0.614   4.048  17.139  0.3549  0.2717 -0.4251
  409MPD2    C3 6158   0.599   4.122  17.023  0.0871 -0.1695  0.1104
  409MPD2    C4 6159   0.511   4.081  16.925 -0.5205  0.6448  0.3293
  409MPD2    C5 6160   0.427   3.979  16.952 -0.3215  0.1523  0.4015
  409MPD2     H 6161   0.683   4.071  17.219 -1.1116 -0.2775  0.9848
  409MPD2    H1 6162   0.513   4.123  16.825 -0.6626 -1.8147 -0.7047
  409MPD2    H2 6163   0.385   3.813  17.077 -0.6026  1.0820 -0.0715
  409MPD2    H3 6164   0.355   3.940  16.883 -0.1404 -0.6316  0.6539
  409MPD2     N 6165   0.672   4.245  17.008 -0.6463  0.8546 -0.2452
  409MPD2    H5 6166   0.653   4.294  16.922 -1.0318  1.0990 -0.0231
  409MPD2    N1 6167   0.545   3.871  17.288 -0.3887  0.1510  0.2457
  409MPD2    H7 6168   0.604   3.922  17.354  0.5212  0.1795 -0.5875
  410TMC3    C1 6169   0.830   4.415  17.050 -0.3698 -0.0261  0.6174
  410TMC3    C2 6170   0.951   4.434  17.111  0.0824  0.5282 -0.0569
  410TMC3    C3 6171   1.025   4.539  17.078  0.0539 -0.5070  0.3904
  410TMC3    C4 6172   0.773   4.507  16.968 -0.0873  0.4221  0.2840
  410TMC3    C5 6173   0.852   4.622  16.949  0.2577 -0.2961 -0.6126
  410TMC3    C6 6174   0.975   4.637  17.001  0.0712  0.4502 -0.0364
  410TMC3     C 6175   0.760   4.294  17.104  0.2050 -0.6462  0.1018
  410TMC3     O 6176   0.789   4.253  17.214 -0.2195  0.1822  0.3682
  410TMC3     H 6177   0.998   4.360  17.175 -1.7416  0.8061  1.5831
  410TMC3    H1 6178   0.671   4.499  16.934  0.7412 -1.3719 -1.8076
  410TMC3    H2 6179   1.046   4.717  16.982  0.1162  0.5577  0.6010
  410TMC3    C7 6180   0.817   4.718  16.843  0.3950 -0.5550  0.5088
  410TMC3    C8 6181   1.171   4.520  17.084  0.1465 -0.6658  0.7348
  410TMC3    O1 6182   0.717   4.679  16.780  0.8027  0.1746 -0.3270
  410TMC3    O2 6183   1.234   4.627  17.090 -0.8083  0.1412  0.0180
  411MPD2     C 6184   0.825   0.359  14.750 -0.7681  0.5930 -0.3385
  411MPD2    C1 6185   0.749   0.343  14.865  0.0812 -0.2930 -0.4793
  411MPD2    C2 6186   0.669   0.234  14.879 -0.1501  0.4247 -0.4159
  411MPD2    C3 6187   0.660   0.143  14.774 -0.0342 -0.2712  0.1825
  411MPD2    C4 6188   0.742   0.159  14.666  0.6317  1.1597  0.7217
  411MPD2    C5 6189   0.824   0.268  14.655  0.2349 -0.5556 -0.1651
  411MPD2     H 6190   0.610   0.217  14.969 -0.7750  2.7553 -0.3919
  411MPD2    H1 6191   0.756   0.080  14.593 -0.8309  0.3513  1.3265
  411MPD2    H2 6192   0.893   0.441  14.730  2.3780 -2.0683 -0.7602
  411MPD2    H3 6193   0.893   0.289  14.574  1.1055  2.1621  1.2793
  411MPD2     N 6194   0.581   0.024  14.777  0.0312  0.3549  0.2315
  411MPD2    H5 6195   0.590   4.702  14.691 -0.5489  0.7070 -0.0551
  411MPD2    N1 6196   0.761   0.439  14.967 -0.2650 -0.1899 -0.2803
  411MPD2    H7 6197   0.811   0.526  14.957  0.5411 -0.5965  0.2795
  412TMC3    C1 6198   0.433   4.590  14.850 -0.0074  0.1390  0.1300
  412TMC3    C2 6199   0.356   4.554  14.955  0.0252  0.5166  0.4616
  412TMC3    C3 6200   0.327   4.425  14.986 -0.3345  0.3606 -0.6116
  412TMC3    C4 6201   0.508   4.496  14.778 -0.8365 -0.0804  0.1306
  412TMC3    C5 6202   0.474   4.366  14.805  0.7705 -0.1131 -0.1751
  412TMC3    C6 6203   0.396   4.329  14.915 -0.1280  0.4789 -0.6487
  412TMC3     C 6204   0.492   4.721  14.880  0.1436 -0.1442 -0.6587
  412TMC3     O 6205   0.473   0.043  14.983  0.4157  0.2907 -0.2388
  412TMC3     H 6206   0.292   4.625  15.007  0.0114  2.1794 -1.8071
  412TMC3    H1 6207   0.588   4.524  14.709 -1.5363  2.0096  0.1806
  412TMC3    H2 6208   0.382   4.223  14.934  0.8673  0.5691  0.6172
  412TMC3    C7 6209   0.436   4.289  14.681 -0.8576 -0.7349 -0.3446
  412TMC3    C8 6210   0.184   4.397  15.005 -0.8823 -0.3797 -0.4677
  412TMC3    O1 6211   0.351   4.208  14.713  0.4283  0.2605  0.0739
  412TMC3    O2 6212   0.114   4.475  15.070 -0.2920 -0.3559 -0.0481
  413MPD2     C 6213   2.438   3.306  15.668 -0.5553  0.5164  0.4583
  413MPD2    C1 6214   2.386   3.203  15.587  0.0460  0.3000 -0.8773
  413MPD2    C2 6215   2.472   3.112  15.536 -0.8445  1.2634  0.9300
  413MPD2    C3 6216   2.611   3.125  15.556 -0.1472  0.6894 -0.7167
  413MPD2    C4 6217   2.661   3.217  15.642  0.3144 -0.2472 -0.4645
  413MPD2    C5 6218   2.575   3.314  15.695  0.3415  0.9041 -0.0744
  413MPD2     H 6219   2.435   3.039  15.466 -1.5772  2.1703  0.3738
  413MPD2    H1 6220   2.767   3.226  15.661  0.2161 -0.8896  0.3840
  413MPD2    H2 6221   2.371   3.376  15.715 -1.3250  0.5454 -0.6693
  413MPD2    H3 6222   2.615   3.387  15.765 -0.4374 -0.3109  1.6333
  413MPD2     N 6223   2.697   3.039  15.474 -0.5176  0.6041  0.0057
  413MPD2    H5 6224   2.659   2.983  15.399 -1.3713  0.1631  0.7577
  413MPD2    N1 6225   2.250   3.203  15.573 -0.2849  0.7844  0.0429
  413MPD2    H7 6226   2.191   3.254  15.638 -0.9472  0.1649 -0.0697
  414TMC3    C1 6227   2.890   2.930  15.411  1.0708 -0.6526 -0.7428
  414TMC3    C2 6228   2.977   2.837  15.463  0.1625  0.1701  0.3580
  414TMC3    C3 6229   2.975   2.722  15.398  0.0925 -0.3408  0.3038
  414TMC3    C4 6230   2.819   2.917  15.295 -0.2814 -0.2449 -0.1177
  414TMC3    C5 6231   2.838   2.797  15.233 -0.2928  0.4330  0.1096
  414TMC3    C6 6232   2.902   2.694  15.289  0.5214  0.0514 -0.3598
  414TMC3     C 6233   2.838   3.030  15.496  0.8867  0.3532 -0.8024
  414TMC3     O 6234   2.910   3.081  15.583  0.2307  0.0262  0.4962
  414TMC3     H 6235   3.014   2.849  15.565  0.4287 -0.6148  0.3580
  414TMC3    H1 6236   2.769   3.001  15.249 -2.0098 -0.9285  0.5329
  414TMC3    H2 6237   2.867   2.593  15.271 -0.0735  0.6411 -2.5437
  414TMC3    C7 6238   2.767   2.765  15.115  0.0058  0.0684 -0.3704
  414TMC3    C8 6239   3.051   2.606  15.444  0.0585  0.2744  0.0104
  414TMC3    O1 6240   2.671   2.837  15.092  0.2679  0.4923  0.2108
  414TMC3    O2 6241   3.033   2.500  15.380  0.5014  0.2259 -0.2296
  415TMC3    C1 6242   2.760   1.189  10.214  0.1333 -0.6030 -0.7295
  415TMC3    C2 6243   2.789   1.296  10.136 -0.2355 -0.3093 -0.2423
  415TMC3    C3 6244   2.745   1.286  10.004 -0.1201 -0.4488 -0.3803
  415TMC3    C4 6245   2.693   1.077  10.172  0.1105  0.3840 -0.3183
  415TMC3    C5 6246   2.657   1.069  10.040  0.1918 -0.4873 -0.3987
  415TMC3    C6 6247   2.686   1.171   9.955 -0.0523 -0.4196 -0.2121
  415TMC3     C 6248   2.756   1.195  10.362  0.3881 -0.3118  0.2219
  415TMC3     O 6249   2.689   1.112  10.425 -0.2378 -0.4216  0.4216
  415TMC3     H 6250   2.828   1.390  10.171  1.7099 -1.1884 -0.0335
  415TMC3    H1 6251   2.681   0.993  10.239  0.3437 -1.5865 -2.7324
  415TMC3    H2 6252   2.658   1.165   9.850 -0.5493 -2.2823  0.0213
  415TMC3    C7 6253   2.604   0.943   9.994  0.6550 -0.4097  0.5802
  415TMC3    C8 6254   2.750   1.399   9.907 -0.2139 -0.4953 -0.4260
  415TMC3    O1 6255   2.608   0.912   9.872  0.4514 -0.1937  0.1385
  415TMC3    O2 6256   2.681   1.383   9.804 -0.5755  0.2574 -0.0499
  416MPD2     C 6257   0.126   4.668  11.537  1.0856  0.1747  0.1859
  416MPD2    C1 6258   0.070   4.651  11.659  0.1511  0.7897  0.4559
  416MPD2    C2 6259   4.695   4.565  11.672 -0.3963 -0.1186  0.5608
  416MPD2    C3 6260   4.654   4.492  11.568 -0.2536 -0.7881 -0.0014
  416MPD2    C4 6261   4.724   4.495  11.452 -0.3873  0.0981 -0.1651
  416MPD2    C5 6262   0.093   4.586  11.433  0.5614  0.3011 -0.1622
  416MPD2     H 6263   4.654   4.556  11.772 -0.5327 -0.2956  0.4881
  416MPD2    H1 6264   4.682   4.445  11.366  0.5442 -0.4996 -0.2742
  416MPD2    H2 6265   0.208   0.006  11.531  0.4484  1.0678  2.1249
  416MPD2    H3 6266   0.130   4.608  11.333  0.1894  0.2229 -0.3158
  416MPD2     N 6267   4.547   4.407  11.590  0.5625  0.5703  0.1487
  416MPD2    H5 6268   4.496   4.428  11.675  1.5679  0.6396  0.7328
  416MPD2    N1 6269   0.122   4.724  11.762  0.3257 -0.0553  0.0927
  416MPD2    H7 6270   0.213   0.033  11.744 -0.0427 -0.8534 -3.7063
  417TMC3    C1 6271   4.642   0.045  11.875 -0.4888  0.1404  0.2140
  417TMC3    C2 6272   4.585   0.029  12.000 -0.2482  0.1538 -0.2671
  417TMC3    C3 6273   4.459   0.072  12.016 -0.4590  0.2328  0.2631
  417TMC3    C4 6274   4.584   0.117  11.772 -0.0377 -0.0657  1.1124
  417TMC3    C5 6275   4.457   0.150  11.794 -0.3185 -0.3576 -0.8455
  417TMC3    C6 6276   4.394   0.142  11.917  0.0771 -0.0623 -0.6978
  417TMC3     C 6277   0.055   0.030  11.874  0.1070 -0.4204  0.3767
  417TMC3     O 6278   0.113   0.071  11.970 -0.4916 -0.2645  0.2074
  417TMC3     H 6279   4.637   4.704  12.076 -1.9181 -0.1721  0.6145
  417TMC3    H1 6280   4.644   0.140  11.684 -0.4441  1.0450  1.1291
  417TMC3    H2 6281   4.288   0.160  11.932 -0.3208 -2.1978 -0.9080
  417TMC3    C7 6282   4.380   0.162  11.676 -0.1877  0.0442  1.0976
  417TMC3    C8 6283   4.390   0.044  12.139  0.1761  0.2832 -0.3317
  417TMC3    O1 6284   4.436   0.193  11.574  0.1342  0.5321  0.4898
  417TMC3    O2 6285   4.284   0.100  12.149 -0.6571  0.2296  0.1656
  418TMC3    C1 6286   3.072   2.138   1.031  0.0829  0.4524 -0.0366
  418TMC3    C2 6287   2.983   2.106   0.929  0.2241 -0.1715  0.0447
  418TMC3    C3 6288   2.968   1.967   0.915  0.3323  0.7043 -0.1925
  418TMC3    C4 6289   3.130   2.049   1.116  0.4861  0.2512 -0.0041
  418TMC3    C5 6290   3.114   1.916   1.090  0.5253 -0.2376 -0.1672
  418TMC3    C6 6291   3.037   1.873   0.984 -0.2258 -0.4442  0.1610
  418TMC3     C 6292   3.111   2.280   1.058 -0.1474  0.3268 -0.1698
  418TMC3     O 6293   3.031   2.366   1.022  0.9159  0.0055  0.1027
  418TMC3     H 6294   2.922   2.175   0.872 -0.5304 -1.0561 -0.2281
  418TMC3    H1 6295   3.193   2.081   1.198 -0.4610  0.9630  0.4407
  418TMC3    H2 6296   3.014   1.768   0.972 -0.4398 -0.3672 -0.1146
  418TMC3    C7 6297   3.193   1.814   1.160  0.1033 -0.3407  0.4616
  418TMC3    C8 6298   2.877   1.923   0.809  0.1374  0.0259 -0.5395
  418TMC3    O1 6299   3.229   1.712   1.100 -0.2875  0.1912  0.0093
  418TMC3    O2 6300   2.786   2.002   0.782  0.1918  0.0356 -0.1486
  419MPD2     C 6301   2.178   4.597  12.399 -0.3761  0.8562  0.0401
  419MPD2    C1 6302   2.092   4.703  12.382 -0.0894 -0.1484  0.0664
  419MPD2    C2 6303   2.032   0.033  12.495 -0.0441 -0.3957 -0.5153
  419MPD2    C3 6304   2.060   4.716  12.625 -0.6279 -1.0542 -0.6245
  419MPD2    C4 6305   2.150   4.613  12.640  0.4024  0.0768 -0.0649
  419MPD2    C5 6306   2.207   4.562  12.524 -0.1305  0.0310 -0.0485
  419MPD2     H 6307   1.959   0.113  12.491 -0.3591 -0.6036  0.9797
  419MPD2    H1 6308   2.182   4.575  12.736  1.4141  1.4962  0.1663
  419MPD2    H2 6309   2.219   4.539  12.317  0.5579  0.2724  0.9236
  419MPD2    H3 6310   2.284   4.487  12.533 -0.3964 -0.2305  0.0398
  419MPD2     N 6311   1.995   0.045  12.729 -0.0669  0.1366 -0.0548
  419MPD2    H5 6312   1.936   0.125  12.706 -0.4871  0.2665  1.4281
  419MPD2    N1 6313   2.055   0.013  12.259 -0.0227 -0.1597 -0.1826
  419MPD2    H7 6314   1.982   0.082  12.245  1.4880  1.7104  1.4149
  420TMC3    C1 6315   1.984   0.116  12.951 -0.4717  0.4242 -0.6465
  420TMC3    C2 6316   1.943   0.240  12.911  0.4921 -1.1515  0.1302
  420TMC3    C3 6317   1.918   0.336  13.002  0.1787 -0.5154 -0.5042
  420TMC3    C4 6318   1.995   0.084  13.081 -0.3124 -0.4894 -0.3994
  420TMC3    C5 6319   1.958   0.179  13.172  0.3540  0.0209 -0.9095
  420TMC3    C6 6320   1.912   0.305  13.131  0.7147 -0.3779 -1.0825
  420TMC3     C 6321   2.021   0.014  12.861 -0.2464 -0.1971 -0.3134
  420TMC3     O 6322   2.057   4.637  12.908 -0.1424  0.8610 -0.5099
  420TMC3     H 6323   1.931   0.278  12.810  0.9125 -0.5513  0.3077
  420TMC3    H1 6324   2.022   4.720  13.122  0.8648 -1.0755 -2.5273
  420TMC3    H2 6325   1.892   0.381  13.205  0.3819 -0.1666 -1.3885
  420TMC3    C7 6326   1.951   0.148  13.311 -0.3727 -1.1027 -0.1651
  420TMC3    C8 6327   1.823   0.438  12.964 -0.2331  0.0113  0.7650
  420TMC3    O1 6328   1.898   0.043  13.339  0.1319  0.0146  0.0812
  420TMC3    O2 6329   1.861   0.550  12.963  0.3112 -0.4045  0.1458
  421TMC3    C1 6330   3.126   1.307  14.165 -0.4310 -0.0078 -0.3922
  421TMC3    C2 6331   3.137   1.389  14.280  0.0335  0.1296 -0.2694
  421TMC3    C3 6332   3.257   1.392  14.350  0.8587  0.0945 -1.5146
  421TMC3    C4 6333   3.223   1.216  14.132  0.6857  0.4248 -0.1301
  421TMC3    C5 6334   3.337   1.222  14.204  0.1781  0.4376  0.9035
  421TMC3    C6 6335   3.361   1.304  14.315  0.8238  0.1837  0.4460
  421TMC3     C 6336   3.042   1.358  14.059  0.0177  0.2938  0.8957
  421TMC3     O 6337   2.977   1.458  14.087  0.2703  0.4644 -0.2171
  421TMC3     H 6338   3.056   1.459  14.290 -0.7485 -0.6386 -1.2176
  421TMC3    H1 6339   3.215   1.132  14.064  0.5853  0.4198 -0.1126
  421TMC3    H2 6340   3.456   1.307  14.366  0.1198 -0.7530  1.8198
  421TMC3    C7 6341   3.436   1.122  14.193  0.1333  0.2143 -0.1818
  421TMC3    C8 6342   3.285   1.502  14.430  0.0584  0.6979  0.2492
  421TMC3    O1 6343   3.486   1.090  14.299 -0.4854 -0.0119 -0.0194
  421TMC3    O2 6344   3.400   1.546  14.432  0.1048 -0.6727  0.6710
  422TMC3    C1 6345   0.528   2.895  12.677 -0.2798 -0.1256 -0.1513
  422TMC3    C2 6346   0.524   2.963  12.794 -0.5263  0.3336  0.9786
  422TMC3    C3 6347   0.495   2.896  12.912 -0.4373  0.7868 -0.3098
  422TMC3    C4 6348   0.484   2.764  12.666 -0.1068  0.1996  0.3768
  422TMC3    C5 6349   0.445   2.702  12.781  0.2376  0.0587 -0.1506
  422TMC3    C6 6350   0.444   2.770  12.904 -0.1373  0.2619 -0.2813
  422TMC3     C 6351   0.631   2.940  12.586  0.4151  0.3778 -0.3830
  422TMC3     O 6352   0.689   3.050  12.604  0.3862  0.1224 -0.2629
  422TMC3     H 6353   0.550   3.068  12.791 -1.0134  0.3006 -4.3411
  422TMC3    H1 6354   0.495   2.692  12.587  1.5698  1.5612 -0.6295
  422TMC3    H2 6355   0.400   2.715  12.986 -1.5767  0.0855 -1.1822
  422TMC3    C7 6356   0.369   2.576  12.764 -0.0272 -0.4603  0.2179
  422TMC3    C8 6357   0.588   2.923  13.010  0.5380  0.2765  0.0835
  422TMC3    O1 6358   0.386   2.496  12.674 -0.5349 -0.3089  0.1339
  422TMC3    O2 6359   0.646   3.031  12.996 -0.5344 -0.1851 -0.2984
  423MPD2     C 6360   2.026   3.844   1.007  0.4415 -0.4429 -0.5096
  423MPD2    C1 6361   2.143   3.873   0.952 -0.6222 -0.1370  0.4069
  423MPD2    C2 6362   2.187   3.814   0.836  0.2425  0.5068 -0.1512
  423MPD2    C3 6363   2.112   3.707   0.786  0.2535  0.9749 -0.1892
  423MPD2    C4 6364   1.990   3.677   0.844 -0.2286 -0.0958  0.1982
  423MPD2    C5 6365   1.944   3.744   0.950 -0.6260  0.3817  0.1445
  423MPD2     H 6366   2.275   3.845   0.781  0.1543 -0.0512 -0.6092
  423MPD2    H1 6367   1.926   3.604   0.797  1.8602 -1.5488 -0.3638
  423MPD2    H2 6368   1.980   3.892   1.092  0.9008  1.4499 -1.3435
  423MPD2    H3 6369   1.848   3.716   0.993 -0.4531 -0.8614 -0.2501
  423MPD2     N 6370   2.158   3.632   0.672 -0.0797 -0.6721 -0.1577
  423MPD2    H5 6371   2.240   3.668   0.624  0.3417  0.8595  1.7204
  423MPD2    N1 6372   2.221   3.979   1.001  1.0159 -0.2048 -0.3252
  423MPD2    H7 6373   2.304   4.004   0.948  1.4005 -1.5092 -0.3363
  424TMC3    C1 6374   2.304   4.139   1.155 -0.1571 -0.0655  0.7812
  424TMC3    C2 6375   2.427   4.091   1.149  0.2611 -1.1226 -0.0437
  424TMC3    C3 6376   2.515   4.144   1.242 -0.0935 -0.1793 -0.1336
  424TMC3    C4 6377   2.267   4.238   1.244  0.0380  0.0686 -0.8661
  424TMC3    C5 6378   2.350   4.297   1.331 -0.6010  0.2951 -0.2100
  424TMC3    C6 6379   2.482   4.242   1.329  0.1485  0.3431 -0.1364
  424TMC3     C 6380   2.189   4.065   1.107 -0.2564 -0.0815 -0.8913
  424TMC3     O 6381   2.082   4.080   1.170  0.0893  0.5245  0.3123
  424TMC3     H 6382   2.450   4.002   1.091 -0.5075 -1.7469  0.6187
  424TMC3    H1 6383   2.166   4.278   1.237 -0.1195 -0.4590 -1.5734
  424TMC3    H2 6384   2.555   4.269   1.404  0.8479  2.4374 -1.5869
  424TMC3    C7 6385   2.317   4.409   1.425 -0.5689 -0.0079 -0.2526
  424TMC3    C8 6386   2.622   4.050   1.287 -0.1439  0.0997  0.0960
  424TMC3    O1 6387   2.398   4.453   1.501  0.3707  0.2902  0.0531
  424TMC3    O2 6388   2.585   3.934   1.295  0.2973  0.0941 -0.4482
  425MPD2     C 6389   1.420   3.152  17.396 -0.1810  0.1357  0.2994
  425MPD2    C1 6390   1.335   3.058  17.343 -0.1043 -0.7796 -0.1593
  425MPD2    C2 6391   1.197   3.069  17.371  0.7536 -0.5777 -0.2215
  425MPD2    C3 6392   1.148   3.157  17.466  0.0929  0.0725 -0.1440
  425MPD2    C4 6393   1.241   3.246  17.521  0.4938 -0.0461 -0.3026
  425MPD2    C5 6394   1.368   3.251  17.481  0.6323 -0.5528 -0.1370
  425MPD2     H 6395   1.133   2.996  17.324 -1.5990  2.3977 -1.6815
  425MPD2    H1 6396   1.211   3.312  17.602  0.3118  0.7016 -0.9803
  425MPD2    H2 6397   1.524   3.170  17.371 -0.7111  0.7047 -1.4625
  425MPD2    H3 6398   1.430   3.320  17.537  1.9724 -2.9136  1.2933
  425MPD2     N 6399   1.019   3.142  17.506  0.3437  0.2671  0.3837
  425MPD2    H5 6400   0.966   3.077  17.449  0.0863 -1.2597  2.3920
  425MPD2    N1 6401   1.392   2.966  17.252  0.6325  0.9055  0.3085
  425MPD2    H7 6402   1.494   2.960  17.258  0.8172  1.7857 -1.9598
  426TMC3    C1 6403   1.430   2.767  17.127  0.2070 -0.3336 -0.0915
  426TMC3    C2 6404   1.395   2.697  17.015 -0.2515 -0.9116  0.1026
  426TMC3    C3 6405   1.468   2.584  16.992 -0.8203 -0.1657  0.2984
  426TMC3    C4 6406   1.523   2.726  17.214 -0.2324 -0.6027  0.5689
  426TMC3    C5 6407   1.608   2.625  17.174 -0.0209  0.3059 -0.6277
  426TMC3    C6 6408   1.583   2.550  17.063 -0.1127 -0.3333  1.1255
  426TMC3     C 6409   1.331   2.863  17.175  0.9367  0.0185  0.4081
  426TMC3     O 6410   1.216   2.858  17.134 -0.0925 -0.2039  0.1945
  426TMC3     H 6411   1.330   2.746  16.942  1.4797 -2.4707 -2.4831
  426TMC3    H1 6412   1.530   2.770  17.313  2.6238 -1.1362  0.5912
  426TMC3    H2 6413   1.623   2.449  17.064  0.9140  0.0592 -0.6652
  426TMC3    C7 6414   1.681   2.556  17.280 -0.1088  0.2691 -0.4478
  426TMC3    C8 6415   1.436   2.476  16.884 -0.6893 -0.1143 -0.4489
  426TMC3    O1 6416   1.788   2.510  17.247  0.2590 -0.1332 -0.2074
  426TMC3    O2 6417   1.535   2.407  16.858 -0.3354 -1.0271  0.0512
  427MPD2     C 6418   4.579   4.485  15.316 -0.1582  0.3503 -1.3478
  427MPD2    C1 6419   4.591   4.588  15.407 -0.5959 -0.2346  0.9319
  427MPD2    C2 6420   4.493   4.685  15.410  0.4179 -0.3167  0.0052
  427MPD2    C3 6421   4.382   4.676  15.325  0.0588 -0.0983 -0.0462
  427MPD2    C4 6422   4.382   4.578  15.227  0.4518 -0.6219 -0.0873
  427MPD2    C5 6423   4.483   4.485  15.215 -0.0769 -0.6811  0.7717
  427MPD2     H 6424   4.499   0.030  15.486 -0.1417 -0.0826 -0.1950
  427MPD2    H1 6425   4.304   4.577  15.153  0.5355  1.9185 -0.2339
  427MPD2    H2 6426   4.658   4.410  15.314 -0.8246 -0.4556  2.5576
  427MPD2    H3 6427   4.488   4.408  15.139 -0.3038  0.3038 -0.2386
  427MPD2     N 6428   4.265   0.021  15.335  0.5646  0.1815  0.3466
  427MPD2    H5 6429   4.185   0.008  15.274  0.2758  1.7048  0.4115
  427MPD2    N1 6430   4.697   4.575  15.498 -0.3412  0.2418 -0.2385
  427MPD2    H7 6431   0.010   4.486  15.514  0.4132  0.5869 -0.4574
  428TMC3    C1 6432   0.114   4.645  15.661 -0.2376 -0.2300 -0.0763
  428TMC3    C2 6433   0.100   4.520  15.715 -0.7590  0.4114  0.2852
  428TMC3    C3 6434   0.203   4.474  15.796 -0.0077 -0.0447 -0.3038
  428TMC3    C4 6435   0.228   4.721  15.682 -0.2211  1.1534 -0.1763
  428TMC3    C5 6436   0.320   4.668  15.765 -0.1293 -0.0276 -0.5313
  428TMC3    C6 6437   0.323   4.545  15.818  0.8937  0.3179 -0.5828
  428TMC3     C 6438   0.015   4.685  15.568  0.3187  0.2295  0.0937
  428TMC3     O 6439   4.716   0.072  15.557  0.4780 -1.4018  0.1847
  428TMC3     H 6440   0.001   4.475  15.712  0.4622 -2.3643  1.6794
  428TMC3    H1 6441   0.233   0.087  15.638  0.2220  0.9965 -0.4832
  428TMC3    H2 6442   0.399   4.510  15.887  0.8857  2.4279  0.4948
  428TMC3    C7 6443   0.426   0.003  15.806  0.1091 -0.2234 -0.6152
  428TMC3    C8 6444   0.209   4.334  15.828  0.2761 -0.2678 -0.3373
  428TMC3    O1 6445   0.457   0.004  15.921  0.2806 -0.0579 -0.4710
  428TMC3    O2 6446   0.317   4.283  15.832  0.3397 -0.0665  0.1213
  429MPD2     C 6447   1.009   0.307   0.100  0.0597 -0.0226  0.3491
  429MPD2    C1 6448   1.132   0.239   0.118 -0.5127  0.6189  0.4050
  429MPD2    C2 6449   1.249   0.301   0.077 -0.3422  0.5233 -0.1150
  429MPD2    C3 6450   1.254   0.432   0.027  0.0424  0.1412  0.2937
  429MPD2    C4 6451   1.131   0.500   0.011 -0.1559  0.3989 -0.3811
  429MPD2    C5 6452   1.016   0.439   0.052  0.1430  0.3920 -0.0656
  429MPD2     H 6453   1.346   0.259   0.104 -0.1351  1.3595  0.4607
  429MPD2    H1 6454   1.114   0.596  17.694  2.0372  0.7141 -0.5409
  429MPD2    H2 6455   0.910   0.270   0.126 -0.3234  0.6407 -0.1914
  429MPD2    H3 6456   0.917   0.481   0.043 -0.9356 -2.0925  0.0544
  429MPD2     N 6457   1.376   0.484  17.711  0.1639 -0.3907  0.1794
  429MPD2    H5 6458   1.455   0.420  17.720 -1.3851 -2.1610  1.1683
  429MPD2    N1 6459   1.152   0.112   0.176 -0.0909  0.4126  0.2721
  429MPD2    H7 6460   1.238   0.061   0.159  1.4737  3.0275  0.3181
  430TMC3    C1 6461   1.527   0.611  17.584  0.3576  0.9079  0.1427
  430TMC3    C2 6462   1.564   0.729  17.532 -0.0660  0.6779 -0.6910
  430TMC3    C3 6463   1.655   0.728  17.430  0.0169 -0.0183 -0.4028
  430TMC3    C4 6464   1.584   0.495  17.546 -0.3734 -0.4557  0.6565
  430TMC3    C5 6465   1.684   0.495  17.458  0.3468 -0.1251  0.4620
  430TMC3    C6 6466   1.728   0.615  17.414  0.1295 -0.4140  0.3844
  430TMC3     C 6467   1.389   0.601  17.642 -0.2920 -1.2104  0.3936
  430TMC3     O 6468   1.309   0.687  17.615 -0.3932 -0.3032  1.0133
  430TMC3     H 6469   1.498   0.813  17.552  0.3501  0.9582 -0.5180
  430TMC3    H1 6470   1.545   0.398  17.572 -1.4827  0.0159  0.7796
  430TMC3    H2 6471   1.820   0.621  17.357  1.1247  0.8719  2.1107
  430TMC3    C7 6472   1.681   0.396  17.350 -0.5119 -0.7117 -0.7174
  430TMC3    C8 6473   1.644   0.806  17.311  0.3830 -0.2489 -0.5014
  430TMC3    O1 6474   1.665   0.277  17.386 -0.6549 -0.2174 -0.1225
  430TMC3    O2 6475   1.679   0.761  17.206  0.3998  0.5432  0.3504
  431MPD2     C 6476   1.661   0.582  12.530  0.1790 -0.1234  0.5093
  431MPD2    C1 6477   1.766   0.647  12.466 -0.4249 -0.2430  0.6348
  431MPD2    C2 6478   1.817   0.582  12.352 -0.6037 -0.2460  0.0208
  431MPD2    C3 6479   1.766   0.458  12.308 -0.4649 -0.0932  0.5796
  431MPD2    C4 6480   1.661   0.407  12.380 -0.3545 -0.7134 -0.6421
  431MPD2    C5 6481   1.615   0.463  12.491  0.6946 -0.9277 -0.5230
  431MPD2     H 6482   1.899   0.625  12.296 -0.9371  1.1051  0.5902
  431MPD2    H1 6483   1.615   0.314  12.349 -0.1515 -1.6047  1.7249
  431MPD2    H2 6484   1.624   0.622  12.624  0.8595  0.1296  0.6670
  431MPD2    H3 6485   1.531   0.430  12.551 -0.2155  1.3522 -0.5257
  431MPD2     N 6486   1.833   0.401  12.199 -0.0371 -0.1141 -0.2049
  431MPD2    H5 6487   1.906   0.455  12.153  0.7836  0.0718  1.3157
  431MPD2    N1 6488   1.823   0.760  12.525 -0.1188  0.2356  0.0298
  431MPD2    H7 6489   1.808   0.770  12.625 -1.2700 -0.1509 -0.1145
  432TMC3    C1 6490   1.883   0.217  12.040  0.2823 -0.2986  0.0409
  432TMC3    C2 6491   1.977   0.300  11.983  0.7228  0.3602 -0.6118
  432TMC3    C3 6492   2.106   0.252  11.956 -0.3414 -0.3540 -0.3151
  432TMC3    C4 6493   1.911   0.087  12.070  0.1683 -0.0458 -0.5245
  432TMC3    C5 6494   2.034   0.044  12.033 -0.4491  0.5146 -0.2620
  432TMC3    C6 6495   2.133   0.124  11.978  0.3554  0.0049  0.7308
  432TMC3     C 6496   1.806   0.266  12.148  0.0879  0.7919 -0.3405
  432TMC3     O 6497   1.736   0.184  12.205 -0.1242  0.8300  0.4946
  432TMC3     H 6498   1.946   0.396  11.944  0.9250  1.5835  2.2299
  432TMC3    H1 6499   1.840   0.018  12.114  1.4636 -0.9411  0.1612
  432TMC3    H2 6500   2.226   0.075  11.952  0.7263  0.5610  0.9852
  432TMC3    C7 6501   2.104   4.705  12.137  0.1447 -0.2533 -0.2991
  432TMC3    C8 6502   2.216   0.354  11.933 -0.2911 -0.1038  0.6154
  432TMC3    O1 6503   2.203   4.642  12.101  0.1691 -0.6760 -0.2806
  432TMC3    O2 6504   2.186   0.466  11.894 -0.3912  0.1683 -0.2100
  433MPD2     C 6505   4.691   3.603  11.145 -0.0139  0.2911  0.3157
  433MPD2    C1 6506   0.080   3.681  11.152 -0.1764  0.7217 -0.5667
  433MPD2    C2 6507   0.146   3.693  11.275  0.0630 -0.1691 -0.0628
  433MPD2    C3 6508   0.085   3.656  11.389  0.6505  0.4721 -0.4441
  433MPD2    C4 6509   4.696   3.596  11.389  1.1951  0.5498  0.2017
  433MPD2    C5 6510   4.637   3.567  11.268 -0.0690  0.4376 -0.6074
  433MPD2     H 6511   0.237   3.750  11.292  1.1935 -2.0815  0.3132
  433MPD2    H1 6512   4.651   3.556  11.480 -1.5357 -1.4044 -2.0083
  433MPD2    H2 6513   4.645   3.581  11.049  0.1418  0.9908  0.0821
  433MPD2    H3 6514   4.540   3.519  11.275 -0.1215  0.7486  0.8342
  433MPD2     N 6515   0.155   3.685  11.502 -0.1193  0.4191  0.3520
  433MPD2    H5 6516   0.244   3.730  11.485 -0.4606  1.3246  0.9538
  433MPD2    N1 6517   0.133   3.725  11.028 -0.6000 -0.3940  0.7338
  433MPD2    H7 6518   0.082   3.687  10.949 -1.2182 -0.4865  1.1738
  434TMC3    C1 6519   0.327   3.682  10.905 -0.0589 -0.1669 -0.7532
  434TMC3    C2 6520   0.450   3.631  10.945 -0.2126 -0.8143  0.4758
  434TMC3    C3 6521   0.477   3.498  10.917 -0.5663 -0.3518  0.4320
  434TMC3    C4 6522   0.235   3.602  10.836 -0.3402  0.0171  0.3927
  434TMC3    C5 6523   0.279   3.479  10.797  0.0852  0.1995 -0.5371
  434TMC3    C6 6524   0.397   3.425  10.841 -0.8485 -0.2754  0.1424
  434TMC3     C 6525   0.262   3.770  11.000  0.8176 -0.0330  0.1777
  434TMC3     O 6526   0.339   3.827  11.080  0.3834  0.0979  0.7392
  434TMC3     H 6527   0.524   3.681  11.007 -2.1257  1.8643  0.5988
  434TMC3    H1 6528   0.152   3.648  10.783 -1.5118 -1.2898  1.1158
  434TMC3    H2 6529   0.431   3.328  10.806  1.0061  0.0477  1.0391
  434TMC3    C7 6530   0.175   3.394  10.755  0.2120 -0.6239  0.6614
  434TMC3    C8 6531   0.576   3.430  11.000 -0.4022 -0.5162  0.3336
  434TMC3    O1 6532   0.082   3.440  10.683 -0.7086 -0.2102  0.1878
  434TMC3    O2 6533   0.662   3.509  11.034 -0.0855  0.0462  0.3475
  435MPD2     C 6534   2.758   3.592  15.798  0.2777 -0.1034 -0.0745
  435MPD2    C1 6535   2.781   3.643  15.920 -0.3031 -0.7018 -0.6572
  435MPD2    C2 6536   2.884   3.596  15.997  1.1699 -0.0991  0.4157
  435MPD2    C3 6537   2.970   3.501  15.942 -0.9401 -0.3872 -0.4195
  435MPD2    C4 6538   2.941   3.452  15.814 -0.3503  1.4213  0.2043
  435MPD2    C5 6539   2.834   3.492  15.743 -0.5269 -0.4704  0.4578
  435MPD2     H 6540   2.890   3.616  16.104 -3.1045 -1.1630  0.8640
  435MPD2    H1 6541   3.006   3.393  15.751 -0.3279  2.4142 -0.7047
  435MPD2    H2 6542   2.670   3.615  15.739  0.7663 -0.0668 -0.7951
  435MPD2    H3 6543   2.816   3.448  15.646  0.0803 -0.5294  0.3680
  435MPD2     N 6544   3.065   3.448  16.031  0.2697 -0.5976  0.5153
  435MPD2    H5 6545   3.078   3.479  16.126  0.2928 -2.1951  1.0420
  435MPD2    N1 6546   2.704   3.741  15.990  0.0768 -0.2215  0.2761
  435MPD2    H7 6547   2.731   3.759  16.086  0.9917  0.1168 -0.0485
  436TMC3    C1 6548   2.502   3.882  16.285  0.4119 -1.0113  0.7343
  436TMC3    C2 6549   2.575   3.870  16.169 -0.2636  0.8439 -0.1429
  436TMC3    C3 6550   2.515   3.849  16.053 -0.2233  0.0496 -0.0320
  436TMC3    C4 6551   2.359   3.878  16.286  0.3300  0.2902 -0.1563
  436TMC3    C5 6552   2.306   3.864  16.160 -0.0426  0.1521  0.6950
  436TMC3    C6 6553   2.381   3.846  16.047  0.0625  0.3139 -0.4833
  436TMC3     C 6554   2.582   3.918  16.404  0.5146  0.0642  0.1992
  436TMC3     O 6555   2.704   3.921  16.394  0.4542  0.2300 -0.2321
  436TMC3     H 6556   2.682   3.885  16.170 -0.4058  1.7645  0.8133
  436TMC3    H1 6557   2.300   3.882  16.377  1.5097  1.3543  0.5744
  436TMC3    H2 6558   2.340   3.845  15.947  2.3575  0.6770 -1.4249
  436TMC3    C7 6559   2.170   3.914  16.146  1.2416 -0.5704  0.1884
  436TMC3    C8 6560   2.585   3.787  15.943  0.0423  0.0441 -0.4116
  436TMC3    O1 6561   2.117   3.940  16.257 -0.2339  0.1330 -0.2028
  436TMC3    O2 6562   2.528   3.746  15.841  0.6796  0.3046  0.2971
  437TMC3    C1 6563   1.461   0.828  13.156  0.8571  0.0231 -0.0950
  437TMC3    C2 6564   1.335   0.856  13.219  0.0641 -0.7174  0.8571
  437TMC3    C3 6565   1.300   0.987  13.221 -1.0085 -0.1298  0.0336
  437TMC3    C4 6566   1.533   0.924  13.094 -0.3986 -0.3144 -0.2550
  437TMC3    C5 6567   1.485   1.056  13.101  0.1255  0.0500  0.5993
  437TMC3    C6 6568   1.369   1.086  13.161  0.1130  0.2608 -0.0444
  437TMC3     C 6569   1.520   0.692  13.177 -0.4074  0.2726 -0.1352
  437TMC3     O 6570   1.642   0.672  13.178 -0.5637 -0.0944 -0.6117
  437TMC3     H 6571   1.281   0.778  13.273 -0.6876 -0.2796  0.7352
  437TMC3    H1 6572   1.617   0.896  13.032  1.0625  1.0063  1.1048
  437TMC3    H2 6573   1.324   1.184  13.163 -1.1952 -0.3250 -0.7544
  437TMC3    C7 6574   1.563   1.169  13.051  0.4130 -1.3263 -0.5145
  437TMC3    C8 6575   1.171   1.030  13.277 -0.4371 -0.0399  0.5160
  437TMC3    O1 6576   1.496   1.260  13.006  0.0150 -0.3978  0.1475
  437TMC3    O2 6577   1.118   1.136  13.244  0.5708  0.4369  0.1934
  438MPD2     C 6578   3.860   1.511  17.267  0.5649 -0.3150  0.2223
  438MPD2    C1 6579   3.899   1.371  17.266 -0.1683 -0.3857 -0.2958
  438MPD2    C2 6580   3.899   1.304  17.385  0.5259  0.6885  0.5548
  438MPD2    C3 6581   3.884   1.366  17.506 -0.7089  0.1539  0.0907
  438MPD2    C4 6582   3.850   1.498  17.502 -0.2551 -0.1269 -0.0652
  438MPD2    C5 6583   3.841   1.569  17.387  0.4651  0.4117  0.0084
  438MPD2     H 6584   3.931   1.201  17.389  1.0296  0.7524 -2.1115
  438MPD2    H1 6585   3.810   1.548  17.589 -0.8267 -1.6974  0.5885
  438MPD2    H2 6586   3.871   1.560  17.171  1.5522 -1.4314 -0.2430
  438MPD2    H3 6587   3.824   1.676  17.390  0.2440  0.4077 -1.1375
  438MPD2     N 6588   3.884   1.298  17.626  0.0992 -0.1275  0.1683
  438MPD2    H5 6589   3.887   1.350  17.713 -0.3571  2.0480 -1.1230
  438MPD2    N1 6590   3.947   1.298  17.158  0.1468  0.4035 -0.2718
  438MPD2    H7 6591   3.982   1.206  17.182  2.3192  1.1452 -0.6094
  439TMC3    C1 6592   4.030   1.219  16.957  0.5961  0.2524  0.2181
  439TMC3    C2 6593   4.072   1.248  16.831  0.2889  0.5471  0.2065
  439TMC3    C3 6594   4.169   1.168  16.776  0.2149  0.1678 -0.3505
  439TMC3    C4 6595   4.064   1.103  17.015  0.1568 -0.2641 -0.3975
  439TMC3    C5 6596   4.158   1.025  16.954  0.0154 -0.6618  0.2249
  439TMC3    C6 6597   4.228   1.062  16.845 -0.6082 -0.2172  0.0711
  439TMC3     C 6598   3.964   1.334  17.023  0.8008 -0.1466  0.4443
  439TMC3     O 6599   3.911   1.429  16.968  0.4319 -0.0898  0.7877
  439TMC3     H 6600   4.036   1.339  16.785 -1.9826 -1.1917 -1.4357
  439TMC3    H1 6601   4.035   1.059  17.109  0.1351 -0.3535 -0.4463
  439TMC3    H2 6602   4.313   1.010  16.803 -1.6805 -2.4754  0.7269
  439TMC3    C7 6603   4.212   0.922  17.043  0.0144  0.0417 -0.9216
  439TMC3    C8 6604   4.238   1.192  16.643  0.3400 -0.1829 -0.2159
  439TMC3    O1 6605   4.141   0.844  17.104 -0.3349  0.1874 -0.1400
  439TMC3    O2 6606   4.338   1.136  16.610  0.0070 -0.2186 -0.3215
  440MPD2     C 6607   2.515   1.885  15.396  0.4247  0.2000  0.1667
  440MPD2    C1 6608   2.589   2.002  15.393 -0.2306  0.1881  0.3130
  440MPD2    C2 6609   2.728   1.988  15.394  0.4151  0.6914 -0.4971
  440MPD2    C3 6610   2.795   1.867  15.404 -0.0458 -0.4261  0.5184
  440MPD2    C4 6611   2.715   1.755  15.397  0.1578 -0.6884 -0.5996
  440MPD2    C5 6612   2.578   1.764  15.397 -0.5397  0.0618  0.1372
  440MPD2     H 6613   2.783   2.082  15.389  2.5990 -0.5861 -0.5786
  440MPD2    H1 6614   2.754   1.656  15.380  0.4728 -0.7647  0.5492
  440MPD2    H2 6615   2.407   1.878  15.389  0.4738  0.0538 -0.3749
  440MPD2    H3 6616   2.519   1.673  15.392 -1.4287  0.5716  1.5330
  440MPD2     N 6617   2.931   1.847  15.395 -0.0895  0.6525  0.2080
  440MPD2    H5 6618   2.966   1.754  15.379 -2.2232 -0.0792 -0.2034
  440MPD2    N1 6619   2.546   2.136  15.383 -0.0477 -0.0699  0.1181
  440MPD2    H7 6620   2.616   2.208  15.369 -0.1542 -0.0279 -0.1958
  441TMC3    C1 6621   3.161   1.898  15.436  0.7947 -0.2786 -0.8281
  441TMC3    C2 6622   3.254   1.987  15.433 -0.2252 -0.3981 -0.3375
  441TMC3    C3 6623   3.348   1.970  15.536  0.4210 -0.4884 -0.6859
  441TMC3    C4 6624   3.164   1.787  15.514 -0.5688  0.3627 -0.3180
  441TMC3    C5 6625   3.265   1.770  15.601 -0.3672  0.0293 -0.3114
  441TMC3    C6 6626   3.361   1.859  15.612 -0.1472  0.2865 -0.5056
  441TMC3     C 6627   3.028   1.941  15.401  0.9873 -0.6995 -0.1723
  441TMC3     O 6628   3.019   2.063  15.386 -0.6517 -0.2899 -0.8444
  441TMC3     H 6629   3.251   2.082  15.380 -0.2669 -1.3536 -2.0614
  441TMC3    H1 6630   3.083   1.715  15.513 -0.7652  0.5862 -0.2723
  441TMC3    H2 6631   3.439   1.854  15.687  0.2488 -2.5192 -1.1110
  441TMC3    C7 6632   3.220   1.689  15.714  0.3515 -0.1872 -0.9749
  441TMC3    C8 6633   3.397   2.090  15.597  0.0043 -1.1283  0.1908
  441TMC3    O1 6634   3.102   1.671  15.730  0.2286  0.4562 -0.4555
  441TMC3    O2 6635   3.509   2.099  15.646  0.1279 -0.5007  0.8788
  442MPD2     C 6636   1.215   2.047  16.954 -0.1568  0.1661  0.0751
  442MPD2    C1 6637   1.077   2.052  16.928  0.7318  0.5154 -0.2804
  442MPD2    C2 6638   1.012   1.958  16.846  0.6045 -0.2577 -0.1324
  442MPD2    C3 6639   1.089   1.855  16.786  0.1823  0.4607 -1.0162
  442MPD2    C4 6640   1.224   1.861  16.805  0.0372  0.1272 -0.3145
  442MPD2    C5 6641   1.287   1.955  16.891 -0.1154  0.0199 -0.0401
  442MPD2     H 6642   0.906   1.969  16.824  0.7467  1.1463 -0.0745
  442MPD2    H1 6643   1.281   1.789  16.747  1.2576  1.5308 -0.8748
  442MPD2    H2 6644   1.259   2.113  17.027 -1.7950  0.8422  0.4562
  442MPD2    H3 6645   1.396   1.951  16.899 -0.2170  0.8150  1.8288
  442MPD2     N 6646   1.036   1.757  16.698  0.3972  0.0525 -0.3288
  442MPD2    H5 6647   1.106   1.718  16.636  2.1811 -1.0313  2.3856
  442MPD2    N1 6648   0.996   2.145  16.994  0.0585  0.2877  0.1339
  442MPD2    H7 6649   0.896   2.134  16.980 -0.0668  0.2450  1.0730
  443TMC3    C1 6650   0.918   2.352  17.080 -0.1453 -0.0066 -0.1231
  443TMC3    C2 6651   0.922   2.472  17.014  0.0834  0.3076  0.1951
  443TMC3    C3 6652   0.796   2.534  17.005  0.4687  0.0023 -0.1478
  443TMC3    C4 6653   0.809   2.301  17.147 -0.3822  0.4377 -0.1004
  443TMC3    C5 6654   0.697   2.387  17.160  0.8810  0.2898 -0.1288
  443TMC3    C6 6655   0.692   2.506  17.097  0.7431 -0.8848 -0.3791
  443TMC3     C 6656   1.033   2.263  17.064 -0.6738  0.4778 -0.0332
  443TMC3     O 6657   1.142   2.309  17.095  0.1116  0.1040 -0.2443
  443TMC3     H 6658   0.992   2.495  16.934  0.1246  2.0796  0.7563
  443TMC3    H1 6659   0.813   2.203  17.193  1.7445  1.1499  1.2601
  443TMC3    H2 6660   0.597   2.554  17.077  1.9464  1.2396 -1.0263
  443TMC3    C7 6661   0.573   2.320  17.197  0.4482  0.2468  0.1266
  443TMC3    C8 6662   0.737   2.525  16.876  0.1988  0.5459  0.6311
  443TMC3    O1 6663   0.576   2.195  17.196  0.0044 -0.2300  0.8453
  443TMC3    O2 6664   0.623   2.480  16.862 -0.6752 -0.0362  0.4391
  444MPD2     C 6665   0.977   2.099  17.406  0.2292 -0.2440 -0.0466
  444MPD2    C1 6666   0.867   2.023  17.372 -0.3952  0.8101 -0.3759
  444MPD2    C2 6667   0.880   1.919  17.280 -0.4670  0.4514  0.8143
  444MPD2    C3 6668   1.005   1.878  17.243 -0.6657  0.1170 -0.2464
  444MPD2    C4 6669   1.119   1.954  17.275  0.1996  0.7823  0.7386
  444MPD2    C5 6670   1.100   2.065  17.353 -0.1372 -0.0535  0.5142
  444MPD2     H 6671   0.797   1.851  17.263  0.1334  0.1374 -0.9113
  444MPD2    H1 6672   1.214   1.936  17.227  0.0135  0.6094  0.4365
  444MPD2    H2 6673   0.968   2.175  17.482  0.3987 -0.5986  0.3314
  444MPD2    H3 6674   1.183   2.133  17.367 -0.9654  0.9578  0.4851
  444MPD2     N 6675   1.008   1.760  17.166  0.2027  0.1959  0.4237
  444MPD2    H5 6676   0.919   1.732  17.126  2.3537 -4.5019 -0.9936
  444MPD2    N1 6677   0.734   2.044  17.419 -0.5102  0.0822 -0.5334
  444MPD2    H7 6678   0.673   1.967  17.394  2.4833 -2.1131 -1.0700
  445TMC3    C1 6679   1.100   1.599  17.017  0.2662  0.0511  0.2400
  445TMC3    C2 6680   0.975   1.560  16.977  0.1944 -0.2005  0.0132
  445TMC3    C3 6681   0.967   1.452  16.890  0.2245 -0.1205 -0.0688
  445TMC3    C4 6682   1.210   1.532  16.980  0.0529  0.0709  0.8622
  445TMC3    C5 6683   1.199   1.435  16.889 -0.3290  0.5672  1.1430
  445TMC3    C6 6684   1.078   1.386  16.850  0.0792 -0.3934  1.1187
  445TMC3     C 6685   1.122   1.699  17.117 -0.3878  0.0694  0.2190
  445TMC3     O 6686   1.233   1.697  17.167  0.4380  0.2349  0.3918
  445TMC3     H 6687   0.892   1.626  17.001  0.3024 -0.2825  0.6298
  445TMC3    H1 6688   1.306   1.561  17.021  0.4597  0.0973 -0.1063
  445TMC3    H2 6689   1.086   1.308  16.775  1.1661  1.3173 -0.5358
  445TMC3    C7 6690   1.316   1.427  16.806 -0.0424  0.3065 -0.2639
  445TMC3    C8 6691   0.836   1.396  16.860  0.0515  0.3157 -0.6594
  445TMC3    O1 6692   1.395   1.523  16.796 -0.0451 -0.2233  0.3657
  445TMC3    O2 6693   0.833   1.319  16.762  0.0754  0.2706 -0.2029
  446MPD2     C 6694   0.571   3.218  11.511  0.0563  0.0539  0.2242
  446MPD2    C1 6695   0.480   3.299  11.443  0.2014  0.4515  0.4394
  446MPD2    C2 6696   0.528   3.420  11.381 -0.3080 -0.1241  0.8258
  446MPD2    C3 6697   0.664   3.450  11.391  0.6921  0.3816 -0.3572
  446MPD2    C4 6698   0.745   3.363  11.467 -0.1038 -0.0306  0.1400
  446MPD2    C5 6699   0.696   3.254  11.525 -0.4154 -0.2029 -0.3498
  446MPD2     H 6700   0.464   3.480  11.318 -0.9236 -0.7976  0.8000
  446MPD2    H1 6701   0.851   3.385  11.480 -0.4538  2.6460 -1.5081
  446MPD2    H2 6702   0.547   3.117  11.543  0.1891  0.2412  0.9140
  446MPD2    H3 6703   0.767   3.189  11.575 -1.1539 -0.3714  0.4675
  446MPD2     N 6704   0.706   3.569  11.331 -0.0123 -0.0468  0.2821
  446MPD2    H5 6705   0.642   3.639  11.296 -0.4623 -1.2699 -1.3427
  446MPD2    N1 6706   0.342   3.267  11.420 -0.2713 -0.1261 -0.5569
  446MPD2    H7 6707   0.301   3.323  11.346  0.2157 -1.4300 -1.8026
  447TMC3    C1 6708   0.873   3.740  11.278  0.5393  0.1363  0.2482
  447TMC3    C2 6709   0.818   3.801  11.165 -0.3369 -1.0126  0.6147
  447TMC3    C3 6710   0.884   3.904  11.097 -0.7109 -0.3015  0.9813
  447TMC3    C4 6711   1.002   3.766  11.305  0.2440 -0.3857 -0.1356
  447TMC3    C5 6712   1.064   3.870  11.240  0.5377 -0.6677  0.5740
  447TMC3    C6 6713   1.009   3.937  11.134 -1.4105 -0.0941  0.2073
  447TMC3     C 6714   0.838   3.598  11.305  0.5419 -0.4877  0.0900
  447TMC3     O 6715   0.941   3.526  11.308  0.7326  0.3585  0.9123
  447TMC3     H 6716   0.722   3.762  11.133 -0.2638 -0.1998 -0.5995
  447TMC3    H1 6717   1.057   3.704  11.375  0.1892  0.0484  0.2920
  447TMC3    H2 6718   1.064   4.023  11.096  1.8295 -1.3360  2.0640
  447TMC3    C7 6719   1.196   3.891  11.280  0.3799 -0.4618  0.2477
  447TMC3    C8 6720   0.848   3.915  10.964 -0.1757 -0.3879  0.2780
  447TMC3    O1 6721   1.276   3.908  11.187  0.3398 -0.3019  0.2096
  447TMC3    O2 6722   0.789   3.821  10.920  0.1107 -0.4814  0.2763
  448TMC3    C1 6723   3.586   3.035  17.187  0.2820  0.1190  0.6813
  448TMC3    C2 6724   3.555   2.948  17.077 -0.2787  0.1115  0.3662
  448TMC3    C3 6725   3.609   2.822  17.073  0.3512 -0.1656  0.6910
  448TMC3    C4 6726   3.686   3.001  17.271  0.2739 -0.6152 -0.0089
  448TMC3    C5 6727   3.723   2.870  17.273 -0.9718 -0.8534  0.0708
  448TMC3    C6 6728   3.694   2.783  17.172 -1.1823 -0.6685 -0.1664
  448TMC3     C 6729   3.539   3.172  17.177 -0.5450 -0.1822 -0.0255
  448TMC3     O 6730   3.499   3.215  17.070  0.2499 -0.5067  0.6336
  448TMC3     H 6731   3.479   2.975  17.004 -2.0952  0.0074  2.2115
  448TMC3    H1 6732   3.734   3.068  17.341 -0.5879  0.3678 -0.3584
  448TMC3    H2 6733   3.734   2.683  17.182  0.4716 -0.2644 -2.5776
  448TMC3    C7 6734   3.839   2.831  17.356  0.2482 -0.0928  0.2843
  448TMC3    C8 6735   3.598   2.740  16.954  0.0020 -0.5779  0.1632
  448TMC3    O1 6736   3.923   2.746  17.325  0.2820 -0.6443 -0.1708
  448TMC3    O2 6737   3.639   2.627  16.963  0.1868  0.1162  0.6678
  449MPD2     C 6738   0.454   1.067  14.272 -0.0431  0.7344 -0.5754
  449MPD2    C1 6739   0.345   1.062  14.193 -1.2485 -0.3632  0.2072
  449MPD2    C2 6740   0.230   1.030  14.250 -0.5802  0.4766 -0.9080
  449MPD2    C3 6741   0.216   0.986  14.383  0.2773 -0.0962 -0.4757
  449MPD2    C4 6742   0.324   0.992  14.458  0.0416  0.0822  0.5262
  449MPD2    C5 6743   0.445   1.033  14.404  0.0126 -0.0470  0.1068
  449MPD2     H 6744   0.142   1.034  14.187  0.0039  1.7466 -1.6505
  449MPD2    H1 6745   0.316   0.967  14.564  2.5526  1.6533  1.0874
  449MPD2    H2 6746   0.549   1.070  14.220  0.7249  1.1840  0.8602
  449MPD2    H3 6747   0.532   1.033  14.469 -0.7968  0.5556  1.1929
  449MPD2     N 6748   0.082   0.965  14.430 -0.5868 -0.0073 -0.2007
  449MPD2    H5 6749   0.004   0.999  14.375 -1.4554 -0.4416  0.7667
  449MPD2    N1 6750   0.336   1.131  14.071  0.5112 -0.4315 -0.6280
  449MPD2    H7 6751   0.240   1.146  14.044  0.2316 -2.4530 -0.7160
  450TMC3    C1 6752   0.382   1.291  13.902 -0.1297  0.1751 -0.5684
  450TMC3    C2 6753   0.432   1.418  13.897 -0.4503 -0.3239  0.3091
  450TMC3    C3 6754   0.346   1.521  13.869  0.5065  0.8292  0.3737
  450TMC3    C4 6755   0.252   1.267  13.863 -0.6300  0.1388 -0.3519
  450TMC3    C5 6756   0.163   1.370  13.843 -0.1793 -0.5276 -1.1975
  450TMC3    C6 6757   0.213   1.498  13.846  0.4323 -0.2109 -0.3582
  450TMC3     C 6758   0.441   1.206  14.004 -0.1821 -0.6762 -0.2145
  450TMC3     O 6759   0.558   1.221  14.037 -0.0761  0.4068  0.5661
  450TMC3     H 6760   0.533   1.441  13.930  0.5603 -2.2743 -1.4683
  450TMC3    H1 6761   0.211   1.168  13.847  0.5230 -0.6472  1.6857
  450TMC3    H2 6762   0.153   1.584  13.823  0.2512  0.3242  2.1373
  450TMC3    C7 6763   0.052   1.347  13.928 -0.8795  0.0130  0.1718
  450TMC3    C8 6764   0.406   1.628  13.783 -0.6390  0.2141 -0.4708
  450TMC3    O1 6765   0.059   1.241  13.989  0.5530  0.2843 -0.3025
  450TMC3    O2 6766   0.337   1.723  13.751  0.2225  0.8313  0.5119
  451MPD2     C 6767   2.049   0.414   1.548  0.3204  0.7095 -0.3402
  451MPD2    C1 6768   1.974   0.405   1.432  0.6843  0.2512  0.0105
  451MPD2    C2 6769   1.984   0.289   1.358 -0.5555 -0.8334  0.4944
  451MPD2    C3 6770   2.078   0.196   1.385 -0.7287  0.1607 -0.3525
  451MPD2    C4 6771   2.174   0.229   1.486 -0.2605  0.8504 -0.0378
  451MPD2    C5 6772   2.160   0.338   1.568  0.0017  0.0129  0.3518
  451MPD2     H 6773   1.906   0.273   1.284  0.0683 -0.3264 -0.2678
  451MPD2    H1 6774   2.256   0.164   1.516 -0.1923  0.7071 -0.5281
  451MPD2    H2 6775   2.035   0.492   1.623 -1.7889 -1.5371  1.5874
  451MPD2    H3 6776   2.232   0.353   1.648  0.4923 -0.8121  0.0577
  451MPD2     N 6777   2.095   0.078   1.308 -0.4535 -0.4713  0.0078
  451MPD2    H5 6778   2.169   0.017   1.341  1.2842  1.0760 -1.1091
  451MPD2    N1 6779   1.874   0.503   1.427 -0.3735  0.8600  0.1954
  451MPD2    H7 6780   1.871   0.573   1.500 -3.9875  0.5178  0.3350
  452TMC3    C1 6781   2.059   4.659   1.136 -0.0129 -0.0389  0.4411
  452TMC3    C2 6782   1.966   4.570   1.089  0.0383 -0.9420  0.6701
  452TMC3    C3 6783   2.005   4.472   0.996  0.5502  0.0782 -0.6964
  452TMC3    C4 6784   2.189   4.655   1.109  0.2619  0.4493 -0.3075
  452TMC3    C5 6785   2.229   4.547   1.033 -0.1623  0.2082  0.6851
  452TMC3    C6 6786   2.138   4.456   0.983  0.8265 -0.4552  0.2400
  452TMC3     C 6787   2.010   0.038   1.214  0.0872  0.5343 -1.2512
  452TMC3     O 6788   1.902   0.078   1.179  0.2951  0.3901  0.1283
  452TMC3     H 6789   1.862   4.577   1.120 -0.1672  1.0068 -0.4937
  452TMC3    H1 6790   2.259   4.727   1.149  1.5089 -0.9834  0.0999
  452TMC3    H2 6791   2.177   4.389   0.907 -0.1980  2.7794 -3.1360
  452TMC3    C7 6792   2.355   4.553   0.967 -0.3154  0.2579 -0.4157
  452TMC3    C8 6793   1.903   4.385   0.922  0.3179 -0.0409  0.6108
  452TMC3    O1 6794   2.400   4.666   0.955 -0.2156  0.5368  0.1375
  452TMC3    O2 6795   1.790   4.388   0.960  0.5434 -0.0108 -0.3432
  453TMC3    C1 6796   2.724   2.285  12.382  0.0222  0.3358 -0.2393
  453TMC3    C2 6797   2.642   2.216  12.462 -0.7513  0.6676  0.6663
  453TMC3    C3 6798   2.509   2.204  12.424 -0.0657 -0.4147  0.1847
  453TMC3    C4 6799   2.690   2.334  12.260 -0.5793 -0.5633 -0.3034
  453TMC3    C5 6800   2.559   2.312  12.224 -0.3516  0.0216 -0.4896
  453TMC3    C6 6801   2.465   2.259  12.309 -0.4888 -0.4905  0.0893
  453TMC3     C 6802   2.859   2.310  12.434 -0.2958 -1.0658 -0.0191
  453TMC3     O 6803   2.911   2.237  12.518 -0.2931 -0.2125 -1.2032
  453TMC3     H 6804   2.666   2.189  12.564 -0.2568 -1.3628  0.0077
  453TMC3    H1 6805   2.757   2.364  12.180  0.0107 -2.1386 -0.4137
  453TMC3    H2 6806   2.359   2.272  12.292 -0.4794  1.6067  1.6681
  453TMC3    C7 6807   2.519   2.383  12.106  0.4914 -0.4595 -0.6396
  453TMC3    C8 6808   2.425   2.101  12.478  0.8048 -0.1188  0.5827
  453TMC3    O1 6809   2.598   2.466  12.060 -0.0784  0.1720  0.1258
  453TMC3    O2 6810   2.306   2.094  12.450  0.3739  0.1814  0.0225
  454MPD2     C 6811   1.680   1.885  15.808 -0.2855  0.3576  0.1484
  454MPD2    C1 6812   1.680   1.755  15.863 -0.0667 -0.0423 -0.9164
  454MPD2    C2 6813   1.706   1.741  15.994  0.1841  0.2448 -0.1793
  454MPD2    C3 6814   1.736   1.847  16.079  0.0389  1.1381 -0.8603
  454MPD2    C4 6815   1.742   1.968  16.019 -0.1320 -0.1197 -0.5201
  454MPD2    C5 6816   1.719   1.991  15.890 -0.7146  0.6763 -0.1728
  454MPD2     H 6817   1.703   1.641  16.035 -0.3771 -0.2240 -1.3861
  454MPD2    H1 6818   1.758   2.057  16.078 -0.6063 -1.3103  1.3951
  454MPD2    H2 6819   1.668   1.904  15.702  0.5472  1.0358  0.1748
  454MPD2    H3 6820   1.739   2.092  15.857 -1.5487  1.9530  3.2036
  454MPD2     N 6821   1.727   1.836  16.217  0.1045  0.5468  0.5764
  454MPD2    H5 6822   1.730   1.927  16.263 -0.7915  1.4006 -1.0709
  454MPD2    N1 6823   1.646   1.635  15.788  0.1415 -0.2222  0.7954
  454MPD2    H7 6824   1.651   1.549  15.842 -1.4782 -1.2034 -0.5934
  455TMC3    C1 6825   1.637   1.744  16.414 -0.1430  0.7065  0.7219
  455TMC3    C2 6826   1.616   1.873  16.449  0.0430 -0.1202 -0.0365
  455TMC3    C3 6827   1.492   1.909  16.498  0.5743  0.2335 -0.1391
  455TMC3    C4 6828   1.543   1.651  16.435  0.6761  0.1820 -0.0044
  455TMC3    C5 6829   1.414   1.688  16.469 -0.0067 -1.1008 -0.5140
  455TMC3    C6 6830   1.382   1.818  16.502 -0.4442 -0.0480  0.1998
  455TMC3     C 6831   1.708   1.724  16.288  0.0264 -0.4804  0.1229
  455TMC3     O 6832   1.737   1.610  16.254  0.3559 -0.3451  0.5156
  455TMC3     H 6833   1.691   1.950  16.436  0.6017 -0.3405  1.8492
  455TMC3    H1 6834   1.573   1.548  16.415 -1.8499 -0.3699 -0.9739
  455TMC3    H2 6835   1.282   1.838  16.536 -0.8972  0.5698 -1.5189
  455TMC3    C7 6836   1.302   1.599  16.463  0.4966 -0.3895 -0.1420
  455TMC3    C8 6837   1.475   2.048  16.543  0.1322 -0.7675  0.5087
  455TMC3    O1 6838   1.210   1.627  16.536  0.0769 -0.2190  0.5650
  455TMC3    O2 6839   1.582   2.099  16.587  0.8209  0.0978 -0.2046
  456MPD2     C 6840   4.241   2.225  15.904 -0.0851 -0.1802  0.1730
  456MPD2    C1 6841   4.243   2.103  15.961 -0.8034  0.5160 -0.6921
  456MPD2    C2 6842   4.153   2.071  16.063  0.7243  0.5881  0.4969
  456MPD2    C3 6843   4.054   2.158  16.109  0.1482 -0.4365 -0.3518
  456MPD2    C4 6844   4.042   2.286  16.052  0.9494 -0.2626  0.5066
  456MPD2    C5 6845   4.149   2.316  15.963 -0.1587 -0.4944  0.3842
  456MPD2     H 6846   4.167   1.970  16.100 -0.5770 -0.8275 -2.8885
  456MPD2    H1 6847   3.971   2.363  16.081 -1.5199 -2.1354 -0.5941
  456MPD2    H2 6848   4.306   2.259  15.823  1.6761 -1.4072  1.0699
  456MPD2    H3 6849   4.149   2.415  15.919  1.4514  0.2056  1.9157
  456MPD2     N 6850   3.978   2.113  16.212 -0.3572 -0.0113 -0.3130
  456MPD2    H5 6851   3.990   2.014  16.233 -0.4068 -0.4043 -2.1799
  456MPD2    N1 6852   4.347   2.016  15.928 -0.1986 -0.2576 -0.3346
  456MPD2    H7 6853   4.419   2.058  15.870 -0.4028 -0.4430 -0.7205
  457TMC3    C1 6854   3.840   2.112  16.409 -0.3815  0.0549  0.5666
  457TMC3    C2 6855   3.735   2.178  16.467 -0.7657 -0.2202 -0.0097
  457TMC3    C3 6856   3.735   2.189  16.604 -0.1878  0.3138 -0.2800
  457TMC3    C4 6857   3.940   2.043  16.483 -0.6247 -0.4919 -0.2330
  457TMC3    C5 6858   3.940   2.072  16.617  0.2259  0.4633  0.6585
  457TMC3    C6 6859   3.847   2.151  16.677 -0.4533 -0.3735  0.2129
  457TMC3     C 6860   3.883   2.184  16.290 -0.6348 -0.6303 -0.1788
  457TMC3     O 6861   3.834   2.289  16.272 -0.8987 -0.1865  0.2406
  457TMC3     H 6862   3.658   2.215  16.400 -1.1430  0.2416  0.6635
  457TMC3    H1 6863   4.019   1.991  16.429 -0.6146  0.6414 -1.2901
  457TMC3    H2 6864   3.855   2.165  16.784 -0.4956  1.8023 -0.0607
  457TMC3    C7 6865   4.036   2.003  16.710 -0.0305 -0.0443 -0.0655
  457TMC3    C8 6866   3.670   2.306  16.657 -0.2021 -0.3568  0.8129
  457TMC3    O1 6867   4.033   2.024  16.829  0.1323 -0.0291  0.5947
  457TMC3    O2 6868   3.679   2.326  16.778  0.0875 -0.0851  0.0964
  458MPD2     C 6869   2.000   1.427  13.038  0.1862  0.2835 -0.0619
  458MPD2    C1 6870   2.026   1.311  13.106 -0.3108  0.8994 -0.4057
  458MPD2    C2 6871   1.926   1.223  13.128 -0.7391 -0.3947  0.1615
  458MPD2    C3 6872   1.796   1.253  13.076  0.3232 -0.3321  0.0374
  458MPD2    C4 6873   1.774   1.371  13.008  0.0068 -0.0486  0.1238
  458MPD2    C5 6874   1.878   1.451  12.982 -0.1629  0.6401  0.4570
  458MPD2     H 6875   1.936   1.139  13.195 -2.3510 -0.6558  0.0864
  458MPD2    H1 6876   1.679   1.398  12.962 -1.1403  0.5455  2.8318
  458MPD2    H2 6877   2.073   1.498  13.001  0.5659 -0.1270 -0.1055
  458MPD2    H3 6878   1.861   1.540  12.923  0.2792 -0.4361 -1.2975
  458MPD2     N 6879   1.695   1.157  13.100 -0.3506  0.1829 -0.1799
  458MPD2    H5 6880   1.728   1.074  13.149 -0.5950  1.1480  1.5909
  458MPD2    N1 6881   2.155   1.291  13.165 -0.4807  0.2074  0.0495
  458MPD2    H7 6882   2.221   1.364  13.140  1.6916 -1.3780  1.1812
  459TMC3    C1 6883   2.333   1.207  13.284 -0.1393  0.5423  0.3929
  459TMC3    C2 6884   2.408   1.311  13.228  0.6007  0.0791 -0.6734
  459TMC3    C3 6885   2.528   1.334  13.296  0.2799 -0.4339  0.9700
  459TMC3    C4 6886   2.379   1.119  13.382  0.1618  0.0194  0.2080
  459TMC3    C5 6887   2.495   1.147  13.439 -0.0080  0.8334  0.8990
  459TMC3    C6 6888   2.566   1.254  13.398  0.4564 -0.0601  0.0532
  459TMC3     C 6889   2.192   1.191  13.249 -0.1646  0.6982 -0.9040
  459TMC3     O 6890   2.137   1.088  13.290  0.1364  0.8862  0.4010
  459TMC3     H 6891   2.399   1.347  13.126  0.4348  3.3746  0.5112
  459TMC3    H1 6892   2.312   1.042  13.419 -1.4839  0.0449 -2.7310
  459TMC3    H2 6893   2.662   1.268  13.446  0.8154 -0.8477 -0.4467
  459TMC3    C7 6894   2.554   1.054  13.534 -0.0332 -0.0442 -0.3830
  459TMC3    C8 6895   2.631   1.399  13.220 -0.9177 -0.5193  0.3253
  459TMC3    O1 6896   2.646   1.091  13.611  0.2446 -0.9149  0.0911
  459TMC3    O2 6897   2.750   1.377  13.250  0.2812  0.1511 -0.3161
  460MPD2     C 6898   0.986   4.156  10.720 -0.5413  0.0738  0.5862
  460MPD2    C1 6899   0.911   4.048  10.766  0.5091 -0.2272  0.2251
  460MPD2    C2 6900   0.845   3.972  10.676 -0.5680 -0.3619  0.3453
  460MPD2    C3 6901   0.838   4.019  10.546 -0.5030 -0.4278 -0.0649
  460MPD2    C4 6902   0.900   4.134  10.496 -0.3326  0.2142  0.0910
  460MPD2    C5 6903   0.979   4.191  10.591 -0.7750  0.2943 -0.0502
  460MPD2     H 6904   0.816   3.870  10.697 -0.0770 -0.5081  0.3260
  460MPD2    H1 6905   0.888   4.170  10.395 -2.0583 -0.5722  0.0120
  460MPD2    H2 6906   1.065   4.202  10.778  1.5805 -0.3484 -1.9638
  460MPD2    H3 6907   1.039   4.274  10.557 -1.0702 -0.0026 -1.3269
  460MPD2     N 6908   0.764   3.929  10.460  0.3353 -0.4511 -0.3293
  460MPD2    H5 6909   0.732   3.840  10.497  2.8054 -1.7632 -1.3434
  460MPD2    N1 6910   0.932   4.001  10.896  0.2391 -0.0852 -0.0253
  460MPD2    H7 6911   0.998   4.055  10.952 -1.2827  2.6976 -0.9418
  461TMC3    C1 6912   0.650   3.846  10.275  0.9406 -0.1648 -0.3014
  461TMC3    C2 6913   0.687   3.718  10.294  0.2880 -0.1888 -0.1818
  461TMC3    C3 6914   0.608   3.622  10.232 -0.0682 -0.0601  0.7273
  461TMC3    C4 6915   0.530   3.881  10.213  0.2051 -0.0465 -0.6512
  461TMC3    C5 6916   0.445   3.787  10.172  0.4314  0.0008  0.4064
  461TMC3    C6 6917   0.486   3.655  10.175  0.1220 -0.1708 -0.0868
  461TMC3     C 6918   0.715   3.956  10.335 -0.4366 -0.1661  0.8435
  461TMC3     O 6919   0.694   4.069  10.288 -0.7312  0.1875  0.5285
  461TMC3     H 6920   0.777   3.688  10.346  1.2317  0.2414 -1.5716
  461TMC3    H1 6921   0.491   3.983  10.208 -2.1383 -0.9542 -0.9840
  461TMC3    H2 6922   0.418   3.590  10.121 -0.9339 -0.6829  1.8193
  461TMC3    C7 6923   0.310   3.819  10.117 -0.7155  0.2818  0.1492
  461TMC3    C8 6924   0.648   3.482  10.231 -0.1838 -0.2972 -1.0429
  461TMC3    O1 6925   0.296   3.924  10.060 -0.4305  1.0426  0.3076
  461TMC3    O2 6926   0.731   3.450  10.314 -0.1950 -0.8237 -0.1243
  462TMC3    C1 6927   1.618   4.009   0.298 -0.3184 -0.1018  0.1926
  462TMC3    C2 6928   1.662   3.881   0.282 -0.5373 -0.6611  0.3461
  462TMC3    C3 6929   1.569   3.784   0.311  0.7396 -0.1228 -0.3235
  462TMC3    C4 6930   1.503   4.034   0.359 -0.0605 -0.2827  0.8291
  462TMC3    C5 6931   1.414   3.932   0.393 -0.4200  0.2999 -0.6707
  462TMC3    C6 6932   1.456   3.801   0.389 -0.4507  0.1418  0.3399
  462TMC3     C 6933   1.712   4.114   0.268  0.2393  0.0028  0.0212
  462TMC3     O 6934   1.799   4.082   0.192 -0.4236  0.5454 -0.8079
  462TMC3     H 6935   1.756   3.872   0.230 -2.1499 -1.4192 -2.4213
  462TMC3    H1 6936   1.463   4.133   0.343 -0.5192 -0.6802 -0.5099
  462TMC3    H2 6937   1.381   3.725   0.405  1.1376 -1.3721  0.6463
  462TMC3    C7 6938   1.290   3.955   0.461  0.3843  0.3869  0.1738
  462TMC3    C8 6939   1.593   3.652   0.257 -0.5664 -0.1515  0.0056
  462TMC3    O1 6940   1.213   3.863   0.475  0.0201 -0.0538  0.1938
  462TMC3    O2 6941   1.526   3.567   0.315  0.1113 -0.6088  0.1957
  463MPD2     C 6942   3.346   3.811   1.396 -0.0724  0.4783 -0.1695
  463MPD2    C1 6943   3.352   3.686   1.467  0.3624 -0.4019  0.6709
  463MPD2    C2 6944   3.473   3.625   1.483 -0.4697  0.1496 -0.0892
  463MPD2    C3 6945   3.583   3.668   1.412  0.2527  0.0561 -0.0951
  463MPD2    C4 6946   3.579   3.781   1.334 -0.0028  0.0376 -0.5222
  463MPD2    C5 6947   3.459   3.856   1.334 -0.1409  0.0165  0.1384
  463MPD2     H 6948   3.468   3.541   1.552  0.2555  0.7021  0.6332
  463MPD2    H1 6949   3.665   3.792   1.268 -1.3138  1.4770 -1.9926
  463MPD2    H2 6950   3.260   3.877   1.387 -1.9433 -2.0088 -0.5860
  463MPD2    H3 6951   3.466   3.945   1.274  1.3034 -0.5438 -0.5346
  463MPD2     N 6952   3.711   3.602   1.423 -0.1985  0.6185  0.3353
  463MPD2    H5 6953   3.794   3.636   1.376 -0.4261  0.0484 -0.4783
  463MPD2    N1 6954   3.239   3.644   1.545 -0.1144 -0.4024 -0.3647
  463MPD2    H7 6955   3.241   3.558   1.598  1.5728  0.0674  0.3552
  464TMC3    C1 6956   3.017   3.635   1.631 -0.9382  0.4864  0.1661
  464TMC3    C2 6957   2.896   3.702   1.640  0.0003 -0.4268  0.4349
  464TMC3    C3 6958   2.782   3.642   1.678  0.0470  0.3644 -0.4703
  464TMC3    C4 6959   3.019   3.497   1.641  0.4165 -0.2633  1.0529
  464TMC3    C5 6960   2.900   3.441   1.671  0.4065 -0.0644  0.0030
  464TMC3    C6 6961   2.778   3.509   1.685  0.0620 -0.4859 -0.5925
  464TMC3     C 6962   3.120   3.714   1.557 -0.3113  0.6190 -0.8297
  464TMC3     O 6963   3.104   3.836   1.546  0.4592  0.3244 -0.3811
  464TMC3     H 6964   2.897   3.809   1.625  0.0524 -0.5342 -0.2865
  464TMC3    H1 6965   3.109   3.439   1.629 -0.0317 -1.2710  2.5496
  464TMC3    H2 6966   2.687   3.459   1.719  1.4569 -2.0539  0.8200
  464TMC3    C7 6967   2.896   3.296   1.698  0.4617  0.4238 -0.7304
  464TMC3    C8 6968   2.658   3.710   1.689  0.1037 -0.3877 -0.3015
  464TMC3    O1 6969   3.006   3.252   1.731 -0.4740 -0.8516 -0.0969
  464TMC3    O2 6970   2.570   3.638   1.644  0.2180 -0.0371  0.1013
  465MPD2     C 6971   3.990   2.021   0.052  0.1235 -0.3440  0.2544
  465MPD2    C1 6972   3.882   2.049   0.134 -0.2873 -0.9328  0.2520
  465MPD2    C2 6973   3.752   2.019   0.095 -0.3232  0.5235 -0.6973
  465MPD2    C3 6974   3.724   1.947  17.711 -0.2057  0.2360 -0.9047
  465MPD2    C4 6975   3.831   1.909  17.633 -0.1068 -0.6764 -0.3040
  465MPD2    C5 6976   3.959   1.947  17.668 -0.2617  0.5375  0.3940
  465MPD2     H 6977   3.666   2.059   0.147 -0.0886  2.0757 -1.4887
  465MPD2    H1 6978   3.823   1.843  17.548  3.6512 -1.4400 -0.0762
  465MPD2    H2 6979   4.090   2.061   0.061 -0.1522  0.9317 -2.3979
  465MPD2    H3 6980   4.039   1.919  17.601 -0.7135  0.8895 -0.2953
  465MPD2     N 6981   3.588   1.918  17.693  0.6738  0.2537 -0.0469
  465MPD2    H5 6982   3.522   1.943   0.036  0.6292  0.6965 -0.2386
  465MPD2    N1 6983   3.898   2.126   0.255  0.1011  0.1288 -0.9595
  465MPD2    H7 6984   3.808   2.145   0.297 -0.4298 -3.5118 -0.3853
  466TMC3    C1 6985   3.194   1.935  17.686 -0.2487 -0.3980 -0.4496
  466TMC3    C2 6986   3.140   1.977  17.564 -0.2970  0.2117  0.2986
  466TMC3    C3 6987   3.210   1.953  17.454  0.0201  0.1368  0.1263
  466TMC3    C4 6988   3.318   1.876  17.689 -0.6294 -0.0151  0.5018
  466TMC3    C5 6989   3.391   1.857  17.574 -1.0880  0.6113  0.5773
  466TMC3    C6 6990   3.328   1.884  17.453  0.0757 -0.5857  0.9137
  466TMC3     C 6991   3.111   1.936   0.080 -0.1825 -0.0613  0.9225
  466TMC3     O 6992   3.166   1.918   0.186  0.0915 -0.0207  0.0287
  466TMC3     H 6993   3.053   2.041  17.563  0.4996  1.2566 -0.6845
  466TMC3    H1 6994   3.352   1.827   0.050 -1.3097 -1.8626 -0.2253
  466TMC3    H2 6995   3.378   1.882  17.357  0.3530 -0.9995  1.0643
  466TMC3    C7 6996   3.536   1.865  17.576 -0.6526  0.0115  0.6317
  466TMC3    C8 6997   3.177   2.025  17.328 -0.3450 -0.9838  0.5932
  466TMC3    O1 6998   3.591   1.829  17.474 -0.2568 -0.4047  0.3498
  466TMC3    O2 6999   3.225   1.983  17.224 -0.5482  0.1232  0.2135
  467TMC3    C1 7000   4.345   0.176  14.008 -0.1713 -0.4273  0.2865
  467TMC3    C2 7001   4.293   0.235  13.891  0.0170 -0.3559 -0.0433
  467TMC3    C3 7002   4.180   0.318  13.909 -0.1054 -0.4716 -0.0661
  467TMC3    C4 7003   4.302   0.207  14.134 -0.2489  0.3584  0.2891
  467TMC3    C5 7004   4.184   0.270  14.144  0.1320  0.3908  0.5578
  467TMC3    C6 7005   4.130   0.339  14.034 -0.4033 -0.7069 -0.8720
  467TMC3     C 7006   4.483   0.138  13.991 -0.1763 -0.3806  0.1450
  467TMC3     O 7007   4.503   0.073  13.887  0.1028  0.0186  0.1340
  467TMC3     H 7008   4.340   0.216  13.795  0.3808  0.8426 -0.1045
  467TMC3    H1 7009   4.341   0.156  14.222  0.3053  1.3758  0.6270
  467TMC3    H2 7010   4.053   0.416  14.041  0.0984 -0.2622 -0.1860
  467TMC3    C7 7011   4.135   0.287  14.275  0.0454 -1.1340 -0.5933
  467TMC3    C8 7012   4.174   0.427  13.815 -0.2606 -0.0623  0.3356
  467TMC3    O1 7013   4.211   0.280  14.370  0.0361 -0.7975 -0.3495
  467TMC3    O2 7014   4.172   0.536  13.867  0.1020 -0.3773 -0.4449
  468MPD2     C 7015   2.496   3.949  11.271 -0.0449 -0.2939  0.0787
  468MPD2    C1 7016   2.626   3.902  11.247  0.1925  1.2415  0.4930
  468MPD2    C2 7017   2.665   3.774  11.275 -0.5241 -0.9183  0.8001
  468MPD2    C3 7018   2.565   3.680  11.308  0.1028  0.1199  0.1011
  468MPD2    C4 7019   2.432   3.722  11.335  0.2954  0.1698 -0.6636
  468MPD2    C5 7020   2.407   3.859  11.319  0.0938 -0.4290  0.3790
  468MPD2     H 7021   2.771   3.762  11.256 -0.5675  1.3671 -1.0325
  468MPD2    H1 7022   2.353   3.657  11.370  0.8529 -0.3623 -0.3990
  468MPD2    H2 7023   2.460   4.051  11.283  0.5023  0.0020 -0.8037
  468MPD2    H3 7024   2.310   3.894  11.354  0.4068  0.7937  0.0133
  468MPD2     N 7025   2.596   3.535  11.327 -0.2154  0.5652 -0.5158
  468MPD2    H5 7026   2.526   3.470  11.361 -0.7411  1.3025 -0.1983
  468MPD2    N1 7027   2.723   3.993  11.199 -0.2070  0.3763 -0.1874
  468MPD2    H7 7028   2.813   3.959  11.168  0.0238  0.3350  0.5132
  469TMC3    C1 7029   2.825   4.199  11.153 -0.2287 -0.5654  0.1122
  469TMC3    C2 7030   2.945   4.138  11.141 -0.6280 -0.3043  0.8765
  469TMC3    C3 7031   3.055   4.219  11.125  0.8002  0.7762 -0.0759
  469TMC3    C4 7032   2.806   4.333  11.136  0.0460  0.0461 -0.7838
  469TMC3    C5 7033   2.917   4.406  11.111 -0.3699  0.1882 -0.2007
  469TMC3    C6 7034   3.042   4.354  11.099 -0.0763 -0.0933 -0.1037
  469TMC3     C 7035   2.700   4.127  11.187  0.5961  0.3935 -0.1098
  469TMC3     O 7036   2.608   4.204  11.214 -0.6437 -0.4445  0.5735
  469TMC3     H 7037   2.955   4.030  11.141 -3.0728 -0.5323 -0.5872
  469TMC3    H1 7038   2.712   4.376  11.103 -0.3014  0.8118  1.2564
  469TMC3    H2 7039   3.133   4.412  11.092 -0.2856  0.5055  1.8623
  469TMC3    C7 7040   2.906   4.540  11.153  0.5222 -0.2151  0.4442
  469TMC3    C8 7041   3.184   4.153  11.111  0.0893  0.2441 -0.3824
  469TMC3    O1 7042   3.006   4.610  11.130  0.3450  0.6257 -0.3367
  469TMC3    O2 7043   3.278   4.206  11.058  0.1988  0.3642  0.3734
  470TMC3    C1 7044   0.860   0.670   0.578 -0.4185  0.6827  0.7712
  470TMC3    C2 7045   0.784   0.751   0.651 -0.3470  0.1261  0.5464
  470TMC3    C3 7046   0.827   0.803   0.769 -0.4944 -0.5721  0.0598
  470TMC3    C4 7047   0.988   0.647   0.626 -0.0373  0.3227 -0.6356
  470TMC3    C5 7048   1.029   0.682   0.750 -0.2550 -0.6290 -0.4238
  470TMC3    C6 7049   0.952   0.767   0.820 -0.0860  0.2143  0.0016
  470TMC3     C 7050   0.811   0.595   0.468  0.0966  0.5281 -0.2935
  470TMC3     O 7051   0.901   0.557   0.391  0.1508 -0.0201  0.1198
  470TMC3     H 7052   0.685   0.779   0.618  0.0835 -0.8797 -1.6125
  470TMC3    H1 7053   1.039   0.565   0.577  2.2829  1.4608 -0.1076
  470TMC3    H2 7054   0.980   0.793   0.922  0.8508  0.2580 -0.2665
  470TMC3    C7 7055   1.158   0.642   0.798  0.1936  0.4111  0.3387
  470TMC3    C8 7056   0.741   0.862   0.868  0.6878 -0.0100 -0.0458
  470TMC3    O1 7057   1.239   0.588   0.719 -0.4420  0.2898 -0.2749
  470TMC3    O2 7058   0.806   0.916   0.952 -0.3691  0.1351 -0.1945
  471MPD2     C 7059   1.334   1.128  17.066 -0.6354  0.5295  0.6280
  471MPD2    C1 7060   1.372   1.000  17.040  0.5820  0.1257 -0.0434
  471MPD2    C2 7061   1.459   0.936  17.122  0.1239 -0.1757  0.2402
  471MPD2    C3 7062   1.495   0.990  17.244  0.3939 -0.0453  0.1876
  471MPD2    C4 7063   1.456   1.120  17.269  0.1943 -0.8842  0.6194
  471MPD2    C5 7064   1.386   1.186  17.179  0.2176 -0.0805 -0.2710
  471MPD2     H 7065   1.493   0.838  17.091  0.2233  0.1467 -0.6749
  471MPD2    H1 7066   1.495   1.179  17.351  1.7129  0.9773 -1.4201
  471MPD2    H2 7067   1.263   1.182  17.005  1.2248  2.9472  0.6090
  471MPD2    H3 7068   1.379   1.293  17.192 -0.0761  0.0353 -1.3754
  471MPD2     N 7069   1.567   0.914  17.339  0.4382 -0.0424  0.0799
  471MPD2    H5 7070   1.588   0.961  17.427  2.6759 -1.3405  0.2177
  471MPD2    N1 7071   1.320   0.932  16.931  0.2955  0.9036  0.0731
  471MPD2    H7 7072   1.351   0.837  16.910  0.9310  1.2214 -0.4204
  472TMC3    C1 7073   1.159   0.866  16.773 -0.3151 -0.5487 -0.1922
  472TMC3    C2 7074   1.114   0.914  16.652  0.3582 -0.3665  0.2195
  472TMC3    C3 7075   1.142   0.834  16.541 -0.3966  0.1176  0.4846
  472TMC3    C4 7076   1.216   0.744  16.785  0.2133 -0.5764 -0.4006
  472TMC3    C5 7077   1.223   0.660  16.679  0.0222 -0.2893 -0.9015
  472TMC3    C6 7078   1.199   0.707  16.552 -0.5874  0.4465  0.1317
  472TMC3     C 7079   1.214   0.975  16.856 -0.5521  0.0902 -0.0659
  472TMC3     O 7080   1.168   1.083  16.824 -0.3365 -0.1606  0.2948
  472TMC3     H 7081   1.068   1.012  16.644  3.0109  0.7893 -1.1871
  472TMC3    H1 7082   1.212   0.698  16.883 -1.0049 -0.0800 -0.2197
  472TMC3    H2 7083   1.200   0.639  16.467 -1.1969  0.4610  0.1121
  472TMC3    C7 7084   1.155   0.530  16.710 -0.5429 -0.0979 -0.3782
  472TMC3    C8 7085   1.031   0.830  16.447 -0.3533 -0.3908 -0.8094
  472TMC3    O1 7086   1.183   0.478  16.815 -0.2612 -0.0727  0.3623
  472TMC3    O2 7087   1.077   0.814  16.334 -0.1534 -0.2720 -0.1682
  473MPD2     C 7088   1.171   2.756  13.757  0.0316  0.1849  0.2413
  473MPD2    C1 7089   1.054   2.831  13.752 -1.4858 -0.5373  0.1949
  473MPD2    C2 7090   1.054   2.948  13.825 -0.0796 -0.3233  0.3838
  473MPD2    C3 7091   1.169   2.992  13.893  0.2462  0.2701 -0.1076
  473MPD2    C4 7092   1.283   2.924  13.885  0.6110 -0.2176 -0.5615
  473MPD2    C5 7093   1.285   2.809  13.812 -0.6257  0.6497  0.1861
  473MPD2     H 7094   0.966   3.012  13.822 -0.4384 -0.7487  1.7606
  473MPD2    H1 7095   1.376   2.957  13.930  1.3914 -3.3403  0.1015
  473MPD2    H2 7096   1.179   2.659  13.710  1.6013  0.2574  0.3801
  473MPD2    H3 7097   1.384   2.767  13.796 -0.2489  1.8247 -0.5183
  473MPD2     N 7098   1.169   3.105  13.971  0.1542 -0.1302 -0.0215
  473MPD2    H5 7099   1.253   3.126  14.025 -0.2973 -1.3764  1.1244
  473MPD2    N1 7100   0.930   2.787  13.703  0.3942 -0.0398 -0.0531
  473MPD2    H7 7101   0.860   2.859  13.692 -0.6507 -1.2628 -1.5032
  474TMC3    C1 7102   1.095   3.295  14.097 -0.4380  0.0273  0.0798
  474TMC3    C2 7103   0.989   3.355  14.159  0.0579  0.0163  0.9474
  474TMC3    C3 7104   1.007   3.449  14.257  0.4736  0.0580  0.1538
  474TMC3    C4 7105   1.226   3.336  14.123 -0.7459  0.1500  0.2617
  474TMC3    C5 7106   1.237   3.409  14.238 -0.3619  0.2591  0.2613
  474TMC3    C6 7107   1.136   3.480  14.300  0.4836  0.6593 -0.0805
  474TMC3     C 7108   1.063   3.185  14.004 -0.4449 -0.1796 -0.5821
  474TMC3     O 7109   0.942   3.163  13.982 -0.0167  0.7609  0.0353
  474TMC3     H 7110   0.885   3.328  14.149  0.3795 -1.2977  1.0216
  474TMC3    H1 7111   1.314   3.290  14.081 -1.5689 -0.4213 -0.8331
  474TMC3    H2 7112   1.144   3.540  14.390  4.2238  0.7617 -0.4908
  474TMC3    C7 7113   1.366   3.405  14.302 -0.1938  0.3474  0.4141
  474TMC3    C8 7114   0.889   3.527  14.294 -0.4384 -0.0034  0.6935
  474TMC3    O1 7115   1.464   3.386  14.227  0.0628 -0.0841 -0.1692
  474TMC3    O2 7116   0.779   3.476  14.293 -0.2919  0.0201 -0.1859
  475MPD2     C 7117   3.371   1.409  10.463  0.8695 -0.1059  0.1834
  475MPD2    C1 7118   3.459   1.495  10.528  0.4441  0.5048  0.0123
  475MPD2    C2 7119   3.459   1.487  10.667 -0.4872  0.1138  0.3000
  475MPD2    C3 7120   3.387   1.389  10.733 -0.7027  0.0095 -0.1508
  475MPD2    C4 7121   3.304   1.304  10.662 -0.1838 -0.2979 -0.6153
  475MPD2    C5 7122   3.291   1.316  10.527  0.7468 -1.0924 -0.3400
  475MPD2     H 7123   3.523   1.547  10.731 -2.0503  0.2970  1.7064
  475MPD2    H1 7124   3.243   1.224  10.703 -0.0438  1.0338  2.1851
  475MPD2    H2 7125   3.388   1.397  10.356 -0.3081 -0.0384 -0.0143
  475MPD2    H3 7126   3.228   1.251  10.468  1.7403 -1.3836 -1.0767
  475MPD2     N 7127   3.408   1.381  10.869  1.1501 -0.1429  0.3072
  475MPD2    H5 7128   3.481   1.439  10.910  1.7668 -0.4411 -0.3566
  475MPD2    N1 7129   3.536   1.583  10.458  0.3043 -0.0727  0.3371
  475MPD2    H7 7130   3.548   1.572  10.358 -0.8803  1.9731 -0.0423
  476TMC3    C1 7131   3.719   1.726  10.428 -0.6578  0.3083  0.2130
  476TMC3    C2 7132   3.671   1.769  10.306 -0.0873 -0.2151 -0.1135
  476TMC3    C3 7133   3.759   1.842  10.237  0.3540  0.3900  0.4512
  476TMC3    C4 7134   3.843   1.747  10.472 -0.0587  0.9442 -0.0197
  476TMC3    C5 7135   3.912   1.844  10.405 -0.2484  0.6432 -0.5190
  476TMC3    C6 7136   3.877   1.884  10.280  0.0257  0.0941 -0.5212
  476TMC3     C 7137   3.632   1.662  10.517  0.3809 -0.4317 -0.1283
  476TMC3     O 7138   3.654   1.684  10.632  0.1020  0.1473  0.4033
  476TMC3     H 7139   3.571   1.745  10.272 -0.9454  0.3612  1.9830
  476TMC3    H1 7140   3.870   1.703  10.567  0.3870  2.2058  0.4438
  476TMC3    H2 7141   3.947   1.934  10.215 -1.3479  0.1534 -1.9481
  476TMC3    C7 7142   4.053   1.851  10.431  0.2567 -0.5123 -0.2908
  476TMC3    C8 7143   3.731   1.882  10.099 -0.3351  0.0010 -0.3744
  476TMC3    O1 7144   4.120   1.848  10.324 -0.6880  0.2329  0.2248
  476TMC3    O2 7145   3.821   1.940  10.042  0.4129 -0.1708  0.1347
  477MPD2     C 7146   1.632   3.105  11.955  0.0669  0.5175 -0.2825
  477MPD2    C1 7147   1.530   3.048  11.884 -0.6301  0.2760  0.4312
  477MPD2    C2 7148   1.484   2.923  11.922 -0.6829 -0.0804  0.1454
  477MPD2    C3 7149   1.529   2.861  12.037 -0.2515 -0.2308  0.2660
  477MPD2    C4 7150   1.632   2.923  12.105 -0.2222 -0.1182 -0.1791
  477MPD2    C5 7151   1.679   3.041  12.061  0.1395  1.3727  0.1637
  477MPD2     H 7152   1.399   2.883  11.868 -0.9040 -0.9271  1.1073
  477MPD2    H1 7153   1.687   2.881  12.187 -1.8000 -1.7849  0.0174
  477MPD2    H2 7154   1.690   3.191  11.924  0.6152  0.3518  0.2849
  477MPD2    H3 7155   1.765   3.083  12.112  1.8223 -0.6293 -1.0322
  477MPD2     N 7156   1.500   2.723  12.071 -0.4286 -0.3945 -1.2368
  477MPD2    H5 7157   1.491   2.667  11.987 -1.0416  0.0484 -1.4691
  477MPD2    N1 7158   1.475   3.120  11.773 -0.5383  0.2382 -0.6112
  477MPD2    H7 7159   1.511   3.213  11.753 -3.6538  1.1641 -1.7957
  478TMC3    C1 7160   1.335   3.163  11.589 -0.0914 -0.4829 -0.3773
  478TMC3    C2 7161   1.339   3.297  11.616  1.0647 -0.0727  0.1632
  478TMC3    C3 7162   1.238   3.366  11.560  0.2249  0.7463  0.5124
  478TMC3    C4 7163   1.263   3.120  11.486 -0.2606 -0.4912 -0.0760
  478TMC3    C5 7164   1.176   3.199  11.414  0.1111  0.4289  0.6806
  478TMC3    C6 7165   1.147   3.321  11.469  0.2615 -0.1879  0.7293
  478TMC3     C 7166   1.395   3.066  11.677 -0.0330  0.1193  0.1511
  478TMC3     O 7167   1.359   2.950  11.659 -0.2779 -0.4946 -0.4432
  478TMC3     H 7168   1.412   3.350  11.678 -0.6546  1.7126  0.6539
  478TMC3    H1 7169   1.270   3.017  11.450 -1.7500 -0.9181  0.8415
  478TMC3    H2 7170   1.071   3.391  11.435  1.6324  1.2567  0.6237
  478TMC3    C7 7171   1.071   3.133  11.343 -0.3363 -0.4269  0.4093
  478TMC3    C8 7172   1.203   3.488  11.637  0.4679  0.2038  0.2465
  478TMC3    O1 7173   1.079   3.012  11.345 -0.7952 -0.1431  0.3594
  478TMC3    O2 7174   1.297   3.559  11.669 -0.3603  0.0449 -0.5132
  479MPD2     C 7175   0.635   0.199  15.580  0.1452  0.0513 -0.6231
  479MPD2    C1 7176   0.590   0.160  15.703  0.5684 -0.8791  0.2853
  479MPD2    C2 7177   0.658   0.195  15.823 -0.1252 -0.5404  0.1221
  479MPD2    C3 7178   0.765   0.287  15.809  0.1017 -0.5545  0.0761
  479MPD2    C4 7179   0.805   0.328  15.683  0.1019 -0.6268 -0.1244
  479MPD2    C5 7180   0.741   0.282  15.571 -0.4904  0.5216 -0.4154
  479MPD2     H 7181   0.616   0.160  15.916 -0.9761  1.1353  0.3646
  479MPD2    H1 7182   0.891   0.393  15.672 -0.9795  0.7946 -0.2197
  479MPD2    H2 7183   0.586   0.159  15.492 -0.4983  0.7375 -0.5673
  479MPD2    H3 7184   0.779   0.319  15.476  1.5669  0.7823  0.5051
  479MPD2     N 7185   0.856   0.331  15.908 -0.2567 -0.2944 -0.2282
  479MPD2    H5 7186   0.944   0.363  15.867  1.3917 -1.2267  2.5301
  479MPD2    N1 7187   0.486   0.068  15.702  0.3597  0.3070 -0.1731
  479MPD2    H7 7188   0.452   0.037  15.612 -0.8689  1.4782 -0.1075
  480TMC3    C1 7189   0.615   0.133  16.221 -0.0562  0.0132  0.1865
  480TMC3    C2 7190   0.496   0.213  16.210  0.4116  0.6090 -0.0676
  480TMC3    C3 7191   0.501   0.323  16.135  0.6850 -1.1993  0.5177
  480TMC3    C4 7192   0.735   0.177  16.180 -0.1800  0.2449  0.1904
  480TMC3    C5 7193   0.728   0.281  16.099  0.2279 -0.0988  0.2452
  480TMC3    C6 7194   0.615   0.353  16.070 -0.9539  0.7633  0.5176
  480TMC3     C 7195   0.594   4.720  16.240 -0.2115 -0.3091 -0.2758
  480TMC3     O 7196   0.691   4.645  16.250  0.0626 -0.3125 -0.7010
  480TMC3     H 7197   0.404   0.186  16.260 -0.2489  1.2722 -0.9234
  480TMC3    H1 7198   0.819   0.109  16.189  0.5302  1.1832  0.5643
  480TMC3    H2 7199   0.635   0.444  16.013 -1.5317  0.8849  0.5124
  480TMC3    C7 7200   0.853   0.315  16.044 -0.4979 -0.2070  0.7386
  480TMC3    C8 7201   0.379   0.339  16.062 -0.1222 -0.3744  0.8438
  480TMC3    O1 7202   0.957   0.319  16.108 -0.2732 -0.1740  0.6006
  480TMC3    O2 7203   0.275   0.295  16.107  0.3088 -0.0909  0.5981
  481MPD2     C 7204   2.164   4.699  14.402 -0.1414  1.1646 -0.0089
  481MPD2    C1 7205   2.059   4.614  14.399 -1.1149  0.0631 -0.6280
  481MPD2    C2 7206   2.045   4.541  14.513  0.3920 -0.2282  1.1003
  481MPD2    C3 7207   2.127   4.547  14.624  0.0211 -0.0612  0.0361
  481MPD2    C4 7208   2.240   4.619  14.608 -0.0348  0.6309  0.6623
  481MPD2    C5 7209   2.253   4.704  14.508 -0.7891 -0.0294 -0.4253
  481MPD2     H 7210   1.959   4.475  14.514  1.1767 -1.2710 -1.8211
  481MPD2    H1 7211   2.311   4.614  14.689 -0.8347 -2.1570  1.1897
  481MPD2    H2 7212   2.165   0.040  14.323  0.2002 -0.0991 -1.1804
  481MPD2    H3 7213   2.335   0.042  14.514  0.3206 -1.2442 -1.1874
  481MPD2     N 7214   2.112   4.473  14.745 -1.0376  0.7108  0.1432
  481MPD2    H5 7215   2.193   4.476  14.806  0.6847 -1.1487 -2.0512
  481MPD2    N1 7216   1.967   4.620  14.290  0.2311  0.8862  0.0360
  481MPD2    H7 7217   1.971   4.700  14.227  0.5915 -0.7706 -2.0270
  482TMC3    C1 7218   1.816   4.530  14.129 -0.9208  0.3751  0.7973
  482TMC3    C2 7219   1.715   4.442  14.101 -0.1347  0.1227  0.2880
  482TMC3    C3 7220   1.662   4.438  13.980 -0.1949  0.2301  0.9231
  482TMC3    C4 7221   1.885   4.594  14.024 -0.5458 -0.4803  0.4435
  482TMC3    C5 7222   1.831   4.579  13.895 -0.1262  0.9467 -0.7417
  482TMC3    C6 7223   1.713   4.510  13.876 -0.0152 -0.6566 -0.2514
  482TMC3     C 7224   1.883   4.514  14.252  0.1957  0.6141 -0.7644
  482TMC3     O 7225   1.868   4.404  14.306 -0.8275 -0.3565  0.2468
  482TMC3     H 7226   1.668   4.400  14.189  1.1213 -0.4210  0.7023
  482TMC3    H1 7227   1.982   4.641  14.036  0.4057 -2.0164 -1.2147
  482TMC3    H2 7228   1.665   4.520  13.779 -0.8426 -2.5350 -0.0393
  482TMC3    C7 7229   1.864   4.672  13.791  0.1552  1.6264 -0.5353
  482TMC3    C8 7230   1.593   4.322  13.951  0.0597 -0.3130  0.3423
  482TMC3    O1 7231   1.831   4.651  13.676  0.9260 -0.5342 -0.4747
  482TMC3    O2 7232   1.575   4.238  14.037  0.3121 -0.5992 -0.3792
  483TMC3    C1 7233   4.521   3.111   0.895 -0.7609  0.6197  0.2458
  483TMC3    C2 7234   4.490   3.238   0.881  0.0451 -0.1537  0.2243
  483TMC3    C3 7235   4.530   3.333   0.971 -0.6336 -0.0819 -0.8482
  483TMC3    C4 7236   4.602   3.060   0.997  0.4011 -0.3725 -0.1437
  483TMC3    C5 7237   4.636   3.153   1.095 -0.3476 -0.1260  1.1785
  483TMC3    C6 7238   4.595   3.286   1.085 -0.6203 -0.2817 -0.0962
  483TMC3     C 7239   4.507   3.027   0.778 -0.5128 -0.4513 -0.1199
  483TMC3     O 7240   4.427   3.056   0.691 -0.6755 -0.2932  0.0138
  483TMC3     H 7241   4.438   3.270   0.792 -0.7969  0.5691  0.9782
  483TMC3    H1 7242   4.622   2.955   1.012 -0.5730 -0.6317 -0.6649
  483TMC3    H2 7243   4.621   3.360   1.159 -1.4158 -0.4047  0.3043
  483TMC3    C7 7244   0.033   3.130   1.162  0.3876  0.2759  0.1793
  483TMC3    C8 7245   4.589   3.454   0.923 -0.1711  0.5130  0.4314
  483TMC3    O1 7246   0.109   3.056   1.096  0.1125  0.1052  0.0738
  483TMC3    O2 7247   4.609   3.466   0.802 -0.2262  0.2872 -0.6824
  484MPD2     C 7248   2.615   1.648  12.942  0.6184 -0.1119 -0.4672
  484MPD2    C1 7249   2.665   1.544  13.018  0.2948  0.3976 -0.4202
  484MPD2    C2 7250   2.793   1.505  12.988  0.3512 -0.5264  0.4845
  484MPD2    C3 7251   2.868   1.578  12.899 -0.8543 -0.9888  0.3858
  484MPD2    C4 7252   2.820   1.685  12.833  0.1290  0.0126  0.0741
  484MPD2    C5 7253   2.687   1.717  12.846  0.1949 -0.0680  0.3112
  484MPD2     H 7254   2.827   1.409  13.025 -0.8636 -1.2049 -0.1755
  484MPD2    H1 7255   2.868   1.737  12.751  2.4312  1.6328  2.4463
  484MPD2    H2 7256   2.508   1.666  12.946  0.5773 -0.4960  0.1496
  484MPD2    H3 7257   2.644   1.788  12.777  0.9482 -0.7490 -0.8757
  484MPD2     N 7258   3.001   1.550  12.866 -0.0676  0.0018 -0.5044
  484MPD2    H5 7259   3.052   1.622  12.814 -0.7938  1.5046  0.8698
  484MPD2    N1 7260   2.586   1.484  13.117 -0.2907 -0.0948  0.4340
  484MPD2    H7 7261   2.490   1.515  13.106  0.6811  2.8465  0.0090
  485TMC3    C1 7262   3.214   1.440  12.863  0.0885  0.7065  0.2178
  485TMC3    C2 7263   3.322   1.390  12.933  0.4588 -1.2123 -0.0478
  485TMC3    C3 7264   3.449   1.428  12.892 -0.2605 -0.0915  0.0965
  485TMC3    C4 7265   3.237   1.519  12.758  0.1529  0.1203  0.3163
  485TMC3    C5 7266   3.368   1.545  12.722  0.0843  0.4354  0.2170
  485TMC3    C6 7267   3.472   1.518  12.796 -0.6795  0.2680 -0.0222
  485TMC3     C 7268   3.074   1.447  12.922  0.0515 -0.2152 -0.0525
  485TMC3     O 7269   3.051   1.374  13.014  0.1363 -0.0730 -0.2863
  485TMC3     H 7270   3.312   1.309  13.004 -1.2830 -0.1697  0.8930
  485TMC3    H1 7271   3.157   1.558  12.697  1.7410  0.5237 -1.4934
  485TMC3    H2 7272   3.574   1.543  12.768  0.3601 -3.3032  0.6154
  485TMC3    C7 7273   3.382   1.529  12.577 -0.2829  0.2857 -0.4436
  485TMC3    C8 7274   3.551   1.322  12.885  0.1112  0.3102 -0.6036
  485TMC3    O1 7275   3.308   1.570  12.493 -0.3162 -0.2532  0.1524
  485TMC3    O2 7276   3.618   1.323  12.781  0.8765 -0.3318  0.4377
  486MPD2     C 7277   4.670   4.331  12.896  0.8580 -0.3656 -0.2795
  486MPD2    C1 7278   4.541   4.351  12.932  0.7702  0.3242  0.3866
  486MPD2    C2 7279   4.478   4.473  12.898  0.4110 -0.0365 -0.0030
  486MPD2    C3 7280   4.551   4.569  12.828  0.0117 -0.3023  0.5325
  486MPD2    C4 7281   4.678   4.537  12.780  0.1748 -0.8766 -0.4382
  486MPD2    C5 7282   0.008   4.424  12.822 -0.5828  0.1465 -0.3118
  486MPD2     H 7283   4.373   4.492  12.917  0.3989  1.3356 -1.4464
  486MPD2    H1 7284   0.008   4.604  12.723  1.6249 -1.2331  0.7282
  486MPD2    H2 7285   4.724   4.243  12.928  2.3728  0.1227 -1.5206
  486MPD2    H3 7286   0.106   4.396  12.786 -0.1302 -1.6193  2.2347
  486MPD2     N 7287   4.495   4.703  12.808  0.2554  0.0906 -0.3368
  486MPD2    H5 7288   4.549   0.034  12.750  0.7094 -0.3719 -0.4169
  486MPD2    N1 7289   4.476   4.248  13.009 -0.6428 -0.2402  0.0629
  486MPD2    H7 7290   4.532   4.170  13.040  2.6391  1.2509 -2.0578
  487TMC3    C1 7291   4.311   4.128  13.124 -0.3496  1.4560 -0.0903
  487TMC3    C2 7292   4.179   4.075  13.110  0.3308 -0.3584 -0.2731
  487TMC3    C3 7293   4.130   4.003  13.214 -0.0432  0.0461 -0.4778
  487TMC3    C4 7294   4.377   4.103  13.240  0.6657 -0.1797  0.0910
  487TMC3    C5 7295   4.327   4.013  13.328 -0.3863 -0.9282 -1.5387
  487TMC3    C6 7296   4.206   3.955  13.311 -0.6221  0.5342 -0.0578
  487TMC3     C 7297   4.345   4.239  13.042 -0.5581  0.8162 -0.2529
  487TMC3     O 7298   4.248   4.301  12.997  0.4296  0.1142  0.0325
  487TMC3     H 7299   4.113   4.111  13.032  0.9962  0.0609 -0.6453
  487TMC3    H1 7300   4.459   4.168  13.267 -0.3920  1.1894  0.0125
  487TMC3    H2 7301   4.167   3.883  13.382  1.5278  0.1566  0.7395
  487TMC3    C7 7302   4.361   4.020  13.470  0.2028  0.3369  0.8562
  487TMC3    C8 7303   4.000   4.043  13.264  0.6541  0.4363  0.1344
  487TMC3    O1 7304   4.469   4.065  13.503 -0.4868 -0.1331  0.4592
  487TMC3    O2 7305   3.990   4.052  13.384 -0.5595 -0.1771  0.4377
  488MPD2     C 7306   0.056   1.745  16.394 -0.4447 -0.4848 -0.0751
  488MPD2    C1 7307   0.165   1.794  16.461  0.4407 -0.2821 -0.2168
  488MPD2    C2 7308   0.159   1.782  16.600  0.5838 -0.1311  0.2165
  488MPD2    C3 7309   0.047   1.737  16.667  0.7572  0.6187 -0.3256
  488MPD2    C4 7310   4.668   1.686  16.595  0.3906 -0.3400  0.0298
  488MPD2    C5 7311   4.675   1.694  16.458 -1.5144  0.4843 -0.3735
  488MPD2     H 7312   0.241   1.824  16.656  0.1276  0.5401  0.3845
  488MPD2    H1 7313   4.587   1.639  16.649  0.5668 -1.6075 -0.8112
  488MPD2    H2 7314   0.057   1.738  16.286  1.3404 -0.8801 -0.0249
  488MPD2    H3 7315   4.593   1.660  16.397 -1.2368 -1.0061  0.0955
  488MPD2     N 7316   0.052   1.744  16.810  0.2306  0.0750 -0.3327
  488MPD2    H5 7317   0.142   1.765  16.852 -0.4238  1.1952  0.5198
  488MPD2    N1 7318   0.265   1.867  16.401 -0.6593 -0.3370  0.0535
  488MPD2    H7 7319   0.345   1.886  16.460 -0.5409 -0.1261 -0.1747
  489TMC3    C1 7320   4.694   1.747  17.028  0.9535 -0.2288 -0.1249
  489TMC3    C2 7321   0.031   1.863  17.045  0.3243 -0.7698  0.0548
  489TMC3    C3 7322   0.044   1.918  17.172 -0.4264  0.5160 -0.2172
  489TMC3    C4 7323   4.659   1.667  17.131  0.0668  0.3909  0.5215
  489TMC3    C5 7324   4.690   1.710  17.257  0.7303  0.4334  0.0567
  489TMC3    C6 7325   0.009   1.838  17.276 -0.2474  0.3408 -0.4239
  489TMC3     C 7326   4.691   1.689  16.893  1.2658 -0.0188 -0.2619
  489TMC3     O 7327   4.626   1.583  16.874  0.3095 -0.0131 -0.2174
  489TMC3     H 7328   0.069   1.914  16.958  0.8284  0.0006  0.7181
  489TMC3    H1 7329   4.602   1.577  17.113 -1.6849  1.6059  0.0192
  489TMC3    H2 7330   0.028   1.875  17.377  0.4516  0.0549 -0.4587
  489TMC3    C7 7331   4.688   1.615  17.371 -0.6153 -0.4725  0.2407
  489TMC3    C8 7332   0.138   2.024  17.191  0.1439  0.0889  0.3764
  489TMC3    O1 7333   4.656   1.658  17.480  0.2669 -0.1779 -0.5487
  489TMC3    O2 7334   0.211   2.041  17.098 -0.1486  0.4471 -0.8479
  490MPD2     C 7335   0.957   2.043   0.031  0.6190 -0.4725  0.0980
  490MPD2    C1 7336   0.980   1.923  17.705  0.2052  0.2547 -0.3282
  490MPD2    C2 7337   1.105   1.898  17.653  0.0866  0.1007  0.0886
  490MPD2    C3 7338   1.203   1.989  17.657  0.4610  0.3610 -0.1516
  490MPD2    C4 7339   1.179   2.112  17.704  0.3926 -0.8108  0.0339
  490MPD2    C5 7340   1.053   2.140   0.022 -0.1258 -0.4103  0.5733
  490MPD2     H 7341   1.111   1.806  17.597 -0.0055 -1.0885  2.0105
  490MPD2    H1 7342   1.255   2.185  17.730  0.3488 -0.3889 -1.0340
  490MPD2    H2 7343   0.866   2.070   0.085  0.8164  1.7499 -0.7300
  490MPD2    H3 7344   1.025   2.231   0.073 -0.4257 -0.9041  1.2849
  490MPD2     N 7345   1.337   1.957  17.609 -0.0267 -0.0299  0.1708
  490MPD2    H5 7346   1.396   2.040  17.616  0.8963 -0.4912 -2.0686
  490MPD2    N1 7347   0.893   1.819  17.707 -0.1718 -0.0373  0.4139
  490MPD2    H7 7348   0.938   1.733  17.678  1.1712  0.5846  0.6606
  491TMC3    C1 7349   0.674   1.718   0.011 -0.1138  0.0571  0.3439
  491TMC3    C2 7350   0.582   1.705   0.112 -0.3935 -0.0715 -0.0876
  491TMC3    C3 7351   0.520   1.580   0.118 -0.1986  0.0966 -0.8457
  491TMC3    C4 7352   0.719   1.621  17.656  0.3314 -0.8588  0.8697
  491TMC3    C5 7353   0.655   1.497  17.670  0.5445  0.2034  0.7820
  491TMC3    C6 7354   0.554   1.477   0.033 -0.0012 -0.7420 -0.1730
  491TMC3     C 7355   0.762   1.831   0.026 -0.6629 -0.9256  0.5626
  491TMC3     O 7356   0.697   1.929   0.062  0.5381  0.1943 -0.4037
  491TMC3     H 7357   0.560   1.774   0.192 -2.0255 -0.7196  0.0211
  491TMC3    H1 7358   0.775   1.646  17.567 -1.2116 -0.9563 -0.1389
  491TMC3    H2 7359   0.508   1.379   0.045  1.9821 -1.4847  1.2822
  491TMC3    C7 7360   0.672   1.401  17.569 -0.2881 -1.5518  0.1500
  491TMC3    C8 7361   0.482   1.550   0.256  0.4848  0.9617 -0.3057
  491TMC3    O1 7362   0.623   1.290  17.591  0.3675  0.6733 -0.2037
  491TMC3    O2 7363   0.374   1.497   0.280  0.1573 -0.0118  0.2445
  492MPD2     C 7364   0.811   1.646  12.052 -0.2892  0.0288 -0.3854
  492MPD2    C1 7365   0.858   1.543  11.980  0.5808  0.4352  0.9778
  492MPD2    C2 7366   0.868   1.413  12.027  0.0533  0.0391  0.8937
  492MPD2    C3 7367   0.839   1.387  12.158 -0.1968 -0.2123  0.3568
  492MPD2    C4 7368   0.811   1.496  12.238 -0.5846  0.4470  0.3727
  492MPD2    C5 7369   0.788   1.621  12.189  0.1326  0.4320 -0.0296
  492MPD2     H 7370   0.899   1.331  11.962 -0.6494 -0.3790  1.0855
  492MPD2    H1 7371   0.800   1.478  12.345  2.2969  2.5466  1.0210
  492MPD2    H2 7372   0.780   1.737  12.002 -2.3001 -0.6253 -0.3282
  492MPD2    H3 7373   0.753   1.694  12.261  1.5562  1.1951 -0.1058
  492MPD2     N 7374   0.843   1.252  12.212  0.2296  0.0837  0.3826
  492MPD2    H5 7375   0.825   1.247  12.312 -0.4875  0.5265  0.2708
  492MPD2    N1 7376   0.866   1.561  11.843  0.1541  0.2466  0.1676
  492MPD2    H7 7377   0.863   1.658  11.814  0.2793  0.2617  0.2028
  493TMC3    C1 7378   0.900   1.525  11.618 -0.2658 -0.1426  0.2836
  493TMC3    C2 7379   0.885   1.657  11.589 -0.5524  0.9148  0.0575
  493TMC3    C3 7380   0.939   1.705  11.475  0.5961 -0.4298 -0.8733
  493TMC3    C4 7381   0.961   1.444  11.527 -0.0946 -0.1663 -0.6024
  493TMC3    C5 7382   1.029   1.494  11.420 -0.3080  0.0420 -0.1160
  493TMC3    C6 7383   1.011   1.624  11.387  0.1115 -0.0728  0.1664
  493TMC3     C 7384   0.874   1.464  11.747 -0.0266 -0.8109 -0.5756
  493TMC3     O 7385   0.881   1.339  11.754  0.5714 -0.0142 -0.0081
  493TMC3     H 7386   0.834   1.725  11.656 -0.4393  0.6866  0.3723
  493TMC3    H1 7387   0.971   1.339  11.555 -0.6261 -0.0108  0.1764
  493TMC3    H2 7388   1.047   1.662  11.292 -0.8724 -0.1304 -0.2345
  493TMC3    C7 7389   1.115   1.415  11.331 -0.8376 -0.1424  0.0074
  493TMC3    C8 7390   0.920   1.842  11.447  0.4621  0.2002 -0.3844
  493TMC3    O1 7391   1.151   1.464  11.223 -0.2292 -0.0556  0.2820
  493TMC3    O2 7392   0.852   1.914  11.526 -0.0794 -0.1062 -0.7652
  494TMC3    C1 7393   1.707   3.329   0.845 -0.6355 -0.3289 -0.0075
  494TMC3    C2 7394   1.690   3.194   0.848 -0.1248  0.0496 -0.3619
  494TMC3    C3 7395   1.667   3.119   0.736  0.7685 -0.7788  0.6428
  494TMC3    C4 7396   1.724   3.397   0.726  0.2914 -0.0815  0.3237
  494TMC3    C5 7397   1.713   3.320   0.613 -0.2257 -0.0479 -0.2878
  494TMC3    C6 7398   1.667   3.189   0.619 -0.3569 -0.0647 -0.0862
  494TMC3     C 7399   1.744   3.400   0.972  0.0909  0.2357 -0.1903
  494TMC3     O 7400   1.706   3.513   0.980  0.3400 -0.3675  0.0313
  494TMC3     H 7401   1.686   3.154   0.949  1.4111  0.5518 -0.1058
  494TMC3    H1 7402   1.764   3.498   0.733  1.7576 -0.7547  1.5053
  494TMC3    H2 7403   1.663   3.128   0.529  0.9992 -0.9493  0.4614
  494TMC3    C7 7404   1.756   3.363   0.483  0.2793 -0.2387 -0.5253
  494TMC3    C8 7405   1.717   2.982   0.742  0.3648  0.6879 -0.8879
  494TMC3    O1 7406   1.769   3.279   0.394  0.4061 -0.0384  0.2334
  494TMC3    O2 7407   1.774   2.952   0.844 -0.5650  0.3157 -0.1927
  495TMC3    C1 7408   0.672   0.571  15.126  0.4719 -0.5694  0.1641
  495TMC3    C2 7409   0.571   0.606  15.036  0.2997  0.2352 -1.4082
  495TMC3    C3 7410   0.440   0.601  15.077  0.1079  0.0826  0.6577
  495TMC3    C4 7411   0.641   0.561  15.257 -0.2269 -0.3769 -0.0879
  495TMC3    C5 7412   0.511   0.559  15.298  0.5807  0.1620  0.3548
  495TMC3    C6 7413   0.409   0.574  15.206 -0.0481 -0.1643 -0.1534
  495TMC3     C 7414   0.701   0.433  15.084  0.3268 -0.1733  0.1622
  495TMC3     O 7415   0.660   0.340  15.150 -0.4932  0.1196 -0.1662
  495TMC3     H 7416   0.590   0.610  14.929  1.1938  1.7633 -1.1917
  495TMC3    H1 7417   0.713   0.520  15.327 -2.4868 -0.5354  2.0954
  495TMC3    H2 7418   0.304   0.574  15.232 -0.7847  0.4040 -3.1049
  495TMC3    C7 7419   0.492   0.539  15.441 -0.0373  0.2908  0.5314
  495TMC3    C8 7420   0.345   0.544  14.985  0.1236 -1.2059 -0.9156
  495TMC3    O1 7421   0.573   0.577  15.523  0.3325 -0.9202 -0.3038
  495TMC3    O2 7422   0.231   0.534  15.027 -0.2285  0.0910 -0.2283
  496MPD2     C 7423   2.219   0.493  15.254 -0.2428 -0.8547 -0.1400
  496MPD2    C1 7424   2.270   0.415  15.359  0.5726  0.6948 -0.0491
  496MPD2    C2 7425   2.205   0.432  15.481 -0.4641  0.3282 -0.0769
  496MPD2    C3 7426   2.076   0.496  15.496  0.2313  0.2426 -0.5176
  496MPD2    C4 7427   2.025   0.562  15.387 -0.3040  0.3396  0.3450
  496MPD2    C5 7428   2.100   0.559  15.269  0.3933  0.2885  0.1392
  496MPD2     H 7429   2.243   0.375  15.566 -1.6807  0.9141  0.8716
  496MPD2    H1 7430   1.927   0.606  15.379 -1.5437 -2.5409 -0.1512
  496MPD2    H2 7431   2.261   0.480  15.155 -0.4169  0.4145 -0.3760
  496MPD2    H3 7432   2.062   0.602  15.177 -0.0559  0.8207  0.5741
  496MPD2     N 7433   2.002   0.496  15.616  0.0239  0.2553 -0.1018
  496MPD2    H5 7434   1.921   0.555  15.630 -2.2676 -2.4909 -1.8799
  496MPD2    N1 7435   2.387   0.346  15.336 -0.5313 -0.3128  0.0304
  496MPD2    H7 7436   2.418   0.347  15.239  1.2473  0.1245  0.6069
  497TMC3    C1 7437   2.038   0.264  15.678 -0.0743 -0.1924 -0.3575
  497TMC3    C2 7438   1.954   0.205  15.590 -0.5213  1.0309 -0.3755
  497TMC3    C3 7439   1.961   0.073  15.576 -0.0938  0.5197 -0.7695
  497TMC3    C4 7440   2.111   0.186  15.760  0.4908 -0.0666  0.0455
  497TMC3    C5 7441   2.111   0.051  15.742  0.6081 -0.3969 -0.1077
  497TMC3    C6 7442   2.037   4.720  15.645 -0.1278 -0.3045 -0.3430
  497TMC3     C 7443   2.010   0.402  15.717 -0.1490 -0.1139  0.6995
  497TMC3     O 7444   1.963   0.416  15.830 -0.4944 -0.7263  0.2841
  497TMC3     H 7445   1.908   0.271  15.518 -2.8263 -0.8347 -0.5817
  497TMC3    H1 7446   2.183   0.229  15.829  0.2383 -2.2599  1.6797
  497TMC3    H2 7447   2.043   4.612  15.636 -0.3811 -0.3104 -0.4358
  497TMC3    C7 7448   2.211   4.700  15.810  0.5977  0.0163 -0.6020
  497TMC3    C8 7449   1.862   0.011  15.488  0.1185  0.6612 -0.5872
  497TMC3    O1 7450   2.240   4.607  15.736 -0.0582  0.0553 -0.2838
  497TMC3    O2 7451   1.842   0.052  15.375  0.0010  0.0129  0.2483
  498MPD2     C 7452   2.871   1.865   9.756  0.5947  0.4807  0.0532
  498MPD2    C1 7453   2.969   1.824   9.849  0.1366  0.8384  0.0495
  498MPD2    C2 7454   2.949   1.703   9.914 -0.6634 -0.3125  0.1199
  498MPD2    C3 7455   2.847   1.621   9.876  0.3467 -1.3495  1.0345
  498MPD2    C4 7456   2.743   1.673   9.799  0.3299  0.2219  0.3595
  498MPD2    C5 7457   2.762   1.785   9.732  0.1336 -0.2571  0.0395
  498MPD2     H 7458   3.009   1.678  10.001  1.0483 -0.0442 -1.0011
  498MPD2    H1 7459   2.660   1.611   9.767  0.9846  0.3106 -1.5149
  498MPD2    H2 7460   2.886   1.959   9.704  2.1165 -0.3009 -0.9017
  498MPD2    H3 7461   2.692   1.816   9.656  0.6645 -0.8727 -0.7019
  498MPD2     N 7462   2.833   1.500   9.949 -0.1517  0.0217  0.0315
  498MPD2    H5 7463   2.911   1.472  10.008 -1.9668 -1.6380  1.6007
  498MPD2    N1 7464   3.076   1.905   9.888  0.0289 -0.1403 -0.4652
  498MPD2    H7 7465   3.127   1.877   9.971  1.4310 -0.3665 -1.3948
  499TMC3    C1 7466   3.217   2.090   9.920 -0.3908  0.0147 -0.0778
  499TMC3    C2 7467   3.262   2.035  10.032  0.9266 -0.6374 -0.6869
  499TMC3    C3 7468   3.367   2.097  10.100  0.3638 -0.0914 -0.2480
  499TMC3    C4 7469   3.256   2.213   9.873 -0.0119  0.0700  0.1317
  499TMC3    C5 7470   3.356   2.268   9.941 -0.0108  0.5565  0.4137
  499TMC3    C6 7471   3.422   2.212  10.046  0.3302  0.0478  0.1611
  499TMC3     C 7472   3.115   2.026   9.842  0.4678  0.0464  0.2051
  499TMC3     O 7473   3.082   2.080   9.738  0.2021  0.3704  0.0327
  499TMC3     H 7474   3.246   1.934  10.069 -0.7579 -0.2619 -0.4052
  499TMC3    H1 7475   3.207   2.260   9.788 -1.0338 -1.3171 -0.0334
  499TMC3    H2 7476   3.520   2.251  10.071  0.1586  0.0893  0.7529
  499TMC3    C7 7477   3.425   2.388   9.894 -0.2405 -0.2772  0.7135
  499TMC3    C8 7478   3.418   2.055  10.232 -0.1221  0.4594 -0.4543
  499TMC3    O1 7479   3.475   2.460   9.980  0.2528 -0.1307 -0.2250
  499TMC3    O2 7480   3.403   1.941  10.267 -0.3325  0.2488 -0.0313
  500MPD2     C 7481   0.208   2.070  10.831 -0.4321 -0.1720  0.0894
  500MPD2    C1 7482   0.196   2.203  10.788  0.3872  0.2127  0.1834
  500MPD2    C2 7483   0.154   2.213  10.655  0.4913  0.2143 -0.0033
  500MPD2    C3 7484   0.113   2.114  10.575 -0.5578 -0.1913 -0.3313
  500MPD2    C4 7485   0.122   1.992  10.625 -0.0050  0.0112  0.3703
  500MPD2    C5 7486   0.173   1.970  10.752 -0.2264 -0.1784  0.5827
  500MPD2     H 7487   0.150   2.315  10.618 -0.2683  0.1312 -0.1291
  500MPD2    H1 7488   0.103   1.902  10.567  3.8747  0.4447 -1.6223
  500MPD2    H2 7489   0.227   2.041  10.933 -0.8366 -0.1114  0.1829
  500MPD2    H3 7490   0.172   1.868  10.789 -1.0143 -1.1700 -2.1901
  500MPD2     N 7491   0.065   2.125  10.446  0.1343 -0.0185 -0.0448
  500MPD2    H5 7492   0.001   2.053  10.415 -0.8751  0.7778  0.1875
  500MPD2    N1 7493   0.221   2.318  10.870  0.3381  0.1099  0.5054
  500MPD2    H7 7494   0.225   2.409  10.825 -1.6188  0.4522  1.0294
  501TMC3    C1 7495   0.315   2.444  11.029  0.0217 -0.4011 -0.3494
  501TMC3    C2 7496   0.264   2.560  10.974  0.2644  0.3604 -0.4663
  501TMC3    C3 7497   0.319   2.676  11.007 -0.0810 -0.4626  0.4564
  501TMC3    C4 7498   0.423   2.450  11.112  0.1090  0.3716 -0.4140
  501TMC3    C5 7499   0.480   2.569  11.140 -1.0580 -0.2503 -0.7013
  501TMC3    C6 7500   0.431   2.689  11.085  0.5262  0.3419 -0.3434
  501TMC3     C 7501   0.271   2.312  10.995 -0.1291 -0.3410  0.7382
  501TMC3     O 7502   0.286   2.220  11.079 -0.1905 -0.1962  0.4240
  501TMC3     H 7503   0.160   2.553  10.942  0.4279  1.4441 -1.2222
  501TMC3    H1 7504   0.454   2.364  11.170 -3.5329 -1.8300 -1.7439
  501TMC3    H2 7505   0.484   2.783  11.081 -1.6358  1.5878  0.0440
  501TMC3    C7 7506   0.588   2.574  11.240  0.3714  0.1843 -0.3911
  501TMC3    C8 7507   0.263   2.800  10.965 -0.2401  0.0003 -0.5297
  501TMC3    O1 7508   0.649   2.472  11.259 -0.6825  0.6523 -0.1243
  501TMC3    O2 7509   0.305   2.899  11.019 -0.4305 -0.3064 -0.1825
  502TMC3    C1 7510   0.123   1.277  15.165  0.0784  0.3795 -0.1533
  502TMC3    C2 7511   0.088   1.391  15.109  0.1261 -0.0362 -0.1401
  502TMC3    C3 7512   4.693   1.428  15.129  0.1588  0.3397  0.3868
  502TMC3    C4 7513   0.036   1.192  15.219  0.2980 -0.0588 -0.2763
  502TMC3    C5 7514   4.631   1.226  15.225 -0.2951 -0.1726  0.9078
  502TMC3    C6 7515   4.596   1.348  15.184  0.8272  0.0199 -0.1694
  502TMC3     C 7516   0.244   1.286  15.253 -1.0609  0.0182 -0.2292
  502TMC3     O 7517   0.338   1.337  15.194 -0.0595  0.1865  1.0306
  502TMC3     H 7518   0.158   1.451  15.053  0.9106 -0.9087 -0.0760
  502TMC3    H1 7519   0.066   1.103  15.274  3.3794  0.9156 -0.3929
  502TMC3    H2 7520   4.496   1.388  15.202  1.5405  1.7992 -0.1144
  502TMC3    C7 7521   4.584   1.198  15.365  0.5159  0.6336 -0.3209
  502TMC3    C8 7522   4.671   1.569  15.105  0.3636 -0.1977  0.4077
  502TMC3    O1 7523   4.680   1.197  15.441  0.1628 -0.3295 -0.0509
  502TMC3    O2 7524   0.007   1.629  15.021  0.1622 -0.0822 -0.5800
  503MPD2     C 7525   2.180   2.107  17.156  0.7193 -0.0230 -0.0594
  503MPD2    C1 7526   2.253   2.165  17.260  0.1570  0.0188 -0.1309
  503MPD2    C2 7527   2.311   2.078  17.355  0.2913  0.4401 -0.1860
  503MPD2    C3 7528   2.267   1.945  17.357 -0.2056 -0.1772 -0.6512
  503MPD2    C4 7529   2.196   1.893  17.256 -0.4682 -0.2073  0.1156
  503MPD2    C5 7530   2.155   1.971  17.152 -0.7485  0.1045  0.2480
  503MPD2     H 7531   2.356   2.119  17.445 -0.2773 -0.6918  0.6099
  503MPD2    H1 7532   2.164   1.789  17.258 -0.3598 -0.2079  1.3715
  503MPD2    H2 7533   2.137   2.165  17.075  0.8713 -0.0919 -0.1908
  503MPD2    H3 7534   2.087   1.947  17.070  3.7452 -0.4189 -3.3224
  503MPD2     N 7535   2.309   1.861  17.460 -0.6154  0.1017 -0.6639
  503MPD2    H5 7536   2.389   1.896  17.511 -1.4126  0.8428  0.0808
  503MPD2    N1 7537   2.264   2.307  17.278  1.0535 -0.0602 -0.0214
  503MPD2    H7 7538   2.322   2.338  17.356 -0.7126  1.2978  0.7433
  504TMC3    C1 7539   2.342   1.662  17.580  0.1674 -0.2154 -0.3028
  504TMC3    C2 7540   2.292   1.592  17.685  0.0421  0.0524 -0.0677
  504TMC3    C3 7541   2.376   1.578   0.064  0.5841  0.2842  0.5867
  504TMC3    C4 7542   2.476   1.686  17.556 -0.2314 -0.0856 -0.2022
  504TMC3    C5 7543   2.563   1.629  17.647  0.6729 -0.4443  0.3027
  504TMC3    C6 7544   2.512   1.598   0.040  0.1798  0.1909 -0.5269
  504TMC3     C 7545   2.254   1.740  17.496  0.3264  0.5347 -0.1010
  504TMC3     O 7546   2.146   1.688  17.466  0.2248  0.5502  0.3790
  504TMC3     H 7547   2.185   1.609  17.689 -0.1938 -1.1653 -1.1666
  504TMC3    H1 7548   2.506   1.732  17.463  1.7981  0.5324  0.7453
  504TMC3    H2 7549   2.580   1.569   0.119  0.3650  0.9866 -0.3893
  504TMC3    C7 7550   2.703   1.650  17.620  0.1025 -0.5065  0.6909
  504TMC3    C8 7551   2.326   1.554   0.193 -0.6742  0.2769  0.1870
  504TMC3    O1 7552   2.737   1.673  17.505  0.2371 -0.3732  0.2155
  504TMC3    O2 7553   2.207   1.576   0.217 -0.9709  0.2693 -0.0626
  505MPD2     C 7554   1.930   0.847  10.660 -0.1607 -0.1501 -0.8261
  505MPD2    C1 7555   2.022   0.763  10.723  0.0461 -0.3358 -0.3487
  505MPD2    C2 7556   2.102   0.823  10.825  0.3155 -0.4761 -0.3013
  505MPD2    C3 7557   2.099   0.957  10.841  0.4276 -0.4360 -0.4622
  505MPD2    C4 7558   2.023   1.036  10.759 -0.4094 -0.5538  0.6127
  505MPD2    C5 7559   1.935   0.985  10.670 -0.6784  0.2955  0.2941
  505MPD2     H 7560   2.166   0.760  10.885  0.8064 -0.8170 -1.1691
  505MPD2    H1 7561   2.034   1.143  10.759  2.5424 -0.8685  1.6160
  505MPD2    H2 7562   1.868   0.797  10.586  0.5544  0.9317 -2.1657
  505MPD2    H3 7563   1.881   1.050  10.601 -0.6055 -0.7727 -0.7661
  505MPD2     N 7564   2.181   1.029  10.929  0.2343 -1.0297 -0.1456
  505MPD2    H5 7565   2.172   1.129  10.945  2.1684 -0.9814  0.6391
  505MPD2    N1 7566   2.038   0.628  10.676  0.3243 -0.4597 -0.3998
  505MPD2    H7 7567   1.989   0.599  10.591  0.8222  0.6038 -1.0526
  506TMC3    C1 7568   2.134   0.416  10.663  0.5240  0.3772  0.7827
  506TMC3    C2 7569   2.175   0.432  10.532  0.4085  0.8399  0.9059
  506TMC3    C3 7570   2.284   0.358  10.485 -0.1514  0.6572 -0.2057
  506TMC3    C4 7571   2.205   0.319  10.732 -0.5195 -0.6731  1.0644
  506TMC3    C5 7572   2.327   0.261  10.695 -0.1435 -0.1825 -0.4478
  506TMC3    C6 7573   2.369   0.281  10.566  0.3553  0.1063 -0.0857
  506TMC3     C 7574   2.111   0.533  10.744 -0.2558 -0.1084 -0.1312
  506TMC3     O 7575   2.171   0.544  10.850  0.0091  0.2235  0.2159
  506TMC3     H 7576   2.122   0.490  10.457 -0.6789 -1.2252  0.0992
  506TMC3    H1 7577   2.169   0.302  10.833 -1.0274  0.7699  1.1161
  506TMC3    H2 7578   2.472   0.258  10.542  1.0403  1.4070  1.5787
  506TMC3    C7 7579   2.425   0.273  10.803 -0.3766  0.4161  0.0996
  506TMC3    C8 7580   2.350   0.389  10.359 -0.4236  0.3217 -0.5182
  506TMC3    O1 7581   2.511   0.188  10.801  0.0953  0.6054  0.0774
  506TMC3    O2 7582   2.434   0.308  10.320 -0.6878 -0.2000 -0.0812
  507TMC3    C1 7583   3.845   1.386  14.914  0.2027 -0.1851  0.4438
  507TMC3    C2 7584   3.760   1.294  14.854  0.6271 -0.2423 -0.5667
  507TMC3    C3 7585   3.699   1.336  14.738  0.2996 -0.8523 -0.5853
  507TMC3    C4 7586   3.858   1.516  14.868 -0.0725  0.0823 -0.8531
  507TMC3    C5 7587   3.778   1.557  14.768 -0.5070  1.9752 -0.6767
  507TMC3    C6 7588   3.712   1.462  14.697 -0.9333 -0.1589  0.6205
  507TMC3     C 7589   3.827   1.394  15.056  0.1095  0.4941 -0.8283
  507TMC3     O 7590   3.910   1.443  15.131  0.0552 -0.7640  1.1720
  507TMC3     H 7591   3.749   1.190  14.884 -0.2574  0.4874  1.6357
  507TMC3    H1 7592   3.922   1.588  14.919 -1.3121 -1.0998  2.3672
  507TMC3    H2 7593   3.651   1.492  14.613  0.7308 -0.1381 -0.5805
  507TMC3    C7 7594   3.684   1.655  14.820  0.2298  0.4854 -0.6904
  507TMC3    C8 7595   3.564   1.281  14.721  0.0048  0.1157 -0.2508
  507TMC3    O1 7596   3.578   1.659  14.761 -0.8460  0.1042  0.1976
  507TMC3    O2 7597   3.548   1.158  14.728 -0.2277  0.1030  0.3349
  508MPD2     C 7598   4.444   3.395  15.866  1.2483 -0.2813 -0.7415
  508MPD2    C1 7599   4.420   3.486  15.972 -0.0254  0.0577 -0.0098
  508MPD2    C2 7600   4.399   3.613  15.936  0.1809 -0.2238 -0.7698
  508MPD2    C3 7601   4.408   3.662  15.805  0.2082 -0.1362  0.3090
  508MPD2    C4 7602   4.414   3.569  15.704 -0.1827  0.1589  0.2890
  508MPD2    C5 7603   4.440   3.437  15.737 -0.2534 -0.6134  0.5040
  508MPD2     H 7604   4.354   3.681  16.008 -0.5682 -0.7292 -0.7695
  508MPD2    H1 7605   4.411   3.602  15.601  0.3106  0.0397  0.2335
  508MPD2    H2 7606   4.458   3.289  15.885 -1.9597 -0.5798  0.0186
  508MPD2    H3 7607   4.467   3.362  15.664 -1.2218 -1.4371  0.9887
  508MPD2     N 7608   4.380   3.797  15.778  0.0605  0.2658 -0.6072
  508MPD2    H5 7609   4.348   3.852  15.857 -1.1918  0.0280 -0.9456
  508MPD2    N1 7610   4.431   3.436  16.106  0.1125  0.0442  0.1567
  508MPD2    H7 7611   4.473   3.346  16.124  2.6154  1.1011 -0.3981
  509TMC3    C1 7612   4.226   4.198  15.612 -0.3876  0.1326  0.7021
  509TMC3    C2 7613   4.248   4.255  15.735  0.5915  0.0263  0.0807
  509TMC3    C3 7614   4.331   4.190  15.816  0.0278  0.2154 -0.5158
  509TMC3    C4 7615   4.277   4.073  15.584  0.4240 -0.1187 -0.1407
  509TMC3    C5 7616   4.340   4.000  15.677  0.2034 -0.7237  0.6792
  509TMC3    C6 7617   4.378   4.061  15.796  1.0364 -0.2241 -1.0956
  509TMC3     C 7618   4.133   4.255  15.521  0.3107 -0.8231 -0.1875
  509TMC3     O 7619   4.084   4.180  15.439 -0.0052 -0.1913 -0.2923
  509TMC3     H 7620   4.202   4.347  15.769 -0.4042  0.3829 -2.2483
  509TMC3    H1 7621   4.235   4.022  15.498 -0.9754 -1.9202  1.6132
  509TMC3    H2 7622   4.458   4.017  15.853  1.9853  0.2912 -2.0300
  509TMC3    C7 7623   4.368   3.863  15.656 -0.0085 -0.3892 -0.5495
  509TMC3    C8 7624   4.362   4.252  15.940 -0.6856 -0.4958  0.2890
  509TMC3    O1 7625   4.400   3.838  15.542  0.2834  0.3268  0.3746
  509TMC3    O2 7626   4.371   4.173  16.033 -0.5001  0.0655 -0.1655
  510MPD2     C 7627   1.853   0.812  14.372  0.0580  0.4932  0.1632
  510MPD2    C1 7628   1.910   0.775  14.492 -0.3244 -0.4294 -0.5478
  510MPD2    C2 7629   2.048   0.787  14.507 -0.0362  0.3067 -0.1880
  510MPD2    C3 7630   2.123   0.834  14.399 -0.5078  0.4178  0.5081
  510MPD2    C4 7631   2.055   0.890  14.285  0.2474 -0.3456 -0.6521
  510MPD2    C5 7632   1.922   0.884  14.284 -0.0506 -0.1475  0.0251
  510MPD2     H 7633   2.103   0.747  14.591 -0.3194  0.7548  0.2083
  510MPD2    H1 7634   2.111   0.944  14.209 -1.4609 -0.1162 -1.7315
  510MPD2    H2 7635   1.745   0.807  14.375  0.0219 -0.7600 -3.1799
  510MPD2    H3 7636   1.870   0.938  14.206  2.2984  2.1174  0.0279
  510MPD2     N 7637   2.262   0.825  14.417  0.0256  0.0204  0.1288
  510MPD2    H5 7638   2.290   0.791  14.509 -1.7669  0.2667  0.7668
  510MPD2    N1 7639   1.831   0.721  14.595 -0.2210  0.0621  0.6529
  510MPD2    H7 7640   1.734   0.701  14.573 -0.2610 -0.6826  1.4837
  511TMC3    C1 7641   1.764   0.660  14.809  0.0983  0.0210  0.5494
  511TMC3    C2 7642   1.775   0.697  14.942  0.1915 -0.6310  0.7185
  511TMC3    C3 7643   1.710   0.615  15.029  0.3290 -0.1856 -0.3195
  511TMC3    C4 7644   1.714   0.538  14.767  0.5582  0.3839 -0.2231
  511TMC3    C5 7645   1.656   0.459  14.858  0.5401  0.4099  0.1350
  511TMC3    C6 7646   1.646   0.501  14.987 -0.1683 -0.2535 -0.1393
  511TMC3     C 7647   1.869   0.710  14.727  0.0861 -0.1616 -0.1055
  511TMC3     O 7648   1.970   0.766  14.772 -0.1618  0.1654 -0.3216
  511TMC3     H 7649   1.841   0.776  14.975 -0.8218  0.8011 -0.7270
  511TMC3    H1 7650   1.719   0.505  14.664  4.1937 -2.4147  0.8899
  511TMC3    H2 7651   1.612   0.443  15.072 -3.3431 -0.0850 -1.2945
  511TMC3    C7 7652   1.596   0.334  14.812  0.1630  0.7923  0.6363
  511TMC3    C8 7653   1.695   0.670  15.164 -0.6143  0.4208 -0.0086
  511TMC3    O1 7654   1.610   0.305  14.692 -0.0663 -0.1314  0.5310
  511TMC3    O2 7655   1.655   0.786  15.176  0.2194  0.1414 -0.1912
  512TMC3    C1 7656   1.063   4.278  13.638 -0.1365  0.2497  0.0971
  512TMC3    C2 7657   1.126   4.366  13.716 -0.2530  0.0723  0.4393
  512TMC3    C3 7658   1.131   4.345  13.856  0.2172  0.3002 -0.8360
  512TMC3    C4 7659   1.007   4.162  13.679 -0.1097 -0.5626  0.4247
  512TMC3    C5 7660   1.017   4.140  13.818 -0.0749 -0.1018  0.4670
  512TMC3    C6 7661   1.078   4.229  13.907  0.2810  0.8461  0.6931
  512TMC3     C 7662   1.018   4.320  13.506  0.1497 -0.4428  0.3073
  512TMC3     O 7663   0.984   4.233  13.431  0.4772 -0.4199  0.1708
  512TMC3     H 7664   1.190   4.446  13.680  1.1996 -1.8488 -1.2118
  512TMC3    H1 7665   0.961   4.095  13.607  0.3605 -1.3411  0.8459
  512TMC3    H2 7666   1.081   4.218  14.015 -2.4194 -0.0281  0.6838
  512TMC3    C7 7667   1.005   4.002  13.868  0.4058 -1.2231 -0.0424
  512TMC3    C8 7668   1.224   4.420  13.944 -0.5179 -0.1992 -0.6207
  512TMC3    O1 7669   1.012   3.979  13.987  0.0082  0.5558 -0.6509
  512TMC3    O2 7670   1.251   4.355  14.043  0.1127  0.1874 -0.2482
  513MPD2     C 7671   2.824   0.089  13.678 -0.3203  0.0394  0.2379
  513MPD2    C1 7672   2.857   0.201  13.609 -0.0411  0.1444  0.4475
  513MPD2    C2 7673   2.946   0.287  13.661 -0.4952 -0.4551 -0.1055
  513MPD2    C3 7674   2.992   0.282  13.787  0.2349 -0.3221  0.2166
  513MPD2    C4 7675   2.967   0.166  13.862  0.0261 -0.9981  0.3885
  513MPD2    C5 7676   2.887   0.070  13.800  0.7803 -0.4348  0.6532
  513MPD2     H 7677   2.980   0.366  13.595  0.0637  0.9008  1.7847
  513MPD2    H1 7678   2.999   0.160  13.965 -0.3208 -0.4991  0.5252
  513MPD2    H2 7679   2.746   0.018  13.654  1.5244 -1.6177 -0.8514
  513MPD2    H3 7680   2.864   4.713  13.858  2.2309 -0.0974  1.7248
  513MPD2     N 7681   3.076   0.394  13.827  0.1420 -0.3617  0.2093
  513MPD2    H5 7682   3.105   0.464  13.760 -0.8611 -1.1402 -1.0364
  513MPD2    N1 7683   2.803   0.227  13.478 -0.5179  0.6235 -0.5368
  513MPD2    H7 7684   2.857   0.296  13.427  1.4890 -1.2926 -0.9975
  514TMC3    C1 7685   2.719   0.186  13.272  0.6151 -0.0021  0.3883
  514TMC3    C2 7686   2.721   0.086  13.182  0.4930  0.1196  0.3691
  514TMC3    C3 7687   2.808   0.101  13.078 -0.0080 -0.2475  0.8428
  514TMC3    C4 7688   2.788   0.304  13.249  0.4911 -0.0440  0.1460
  514TMC3    C5 7689   2.882   0.313  13.145 -0.4366 -0.1948  0.6859
  514TMC3    C6 7690   2.897   0.203  13.073  0.2957 -0.1328 -0.5930
  514TMC3     C 7691   2.722   0.142  13.410  0.4532  0.0331 -0.1539
  514TMC3     O 7692   2.667   0.033  13.443 -0.2239  0.7221  0.1896
  514TMC3     H 7693   2.660   4.732  13.202  1.3483 -0.5873 -0.0878
  514TMC3    H1 7694   2.782   0.390  13.313  1.5261  0.1951 -0.0879
  514TMC3    H2 7695   2.971   0.202  12.994  0.4715 -1.0812 -0.4137
  514TMC3    C7 7696   3.000   0.373  13.204 -0.4149  0.4357 -0.0459
  514TMC3    C8 7697   2.824   4.725  12.986  0.1521  0.0704  0.4059
  514TMC3    O1 7698   2.987   0.453  13.292  0.3842  0.5739  0.6894
  514TMC3    O2 7699   2.794   4.616  13.028  0.1304  0.2906  0.1743
  515MPD2     C 7700   0.745   1.954  14.746  0.0959 -0.3251  0.1269
  515MPD2    C1 7701   0.814   1.837  14.734  0.4360 -0.0223  0.3854
  515MPD2    C2 7702   0.925   1.817  14.814  0.5716  0.0147 -0.2383
  515MPD2    C3 7703   0.971   1.913  14.902 -0.6137 -0.5714 -0.3656
  515MPD2    C4 7704   0.896   2.026  14.916 -0.8472 -0.1799 -0.8682
  515MPD2    C5 7705   0.785   2.044  14.837 -0.0444  0.3941  0.2083
  515MPD2     H 7706   0.967   1.717  14.811 -1.1263 -0.6941 -0.2487
  515MPD2    H1 7707   0.927   2.103  14.986  0.7911 -0.8764 -0.8231
  515MPD2    H2 7708   0.653   1.971  14.691  0.2089 -1.5790 -0.4475
  515MPD2    H3 7709   0.738   2.141  14.847 -2.0327 -0.5856  0.3903
  515MPD2     N 7710   1.073   1.896  14.997 -0.1409 -0.2930 -0.1210
  515MPD2    H5 7711   1.100   1.977  15.052 -1.8885  0.9476 -1.0913
  515MPD2    N1 7712   0.769   1.722  14.660 -0.0121 -0.3859  0.2479
  515MPD2    H7 7713   0.829   1.640  14.657  0.5445 -0.0215  1.3846
  516TMC3    C1 7714   0.619   1.592  14.526 -0.3575  0.2165  0.4193
  516TMC3    C2 7715   0.519   1.600  14.431 -0.3481 -0.2589 -0.4183
  516TMC3    C3 7716   0.445   1.488  14.420 -0.0703  0.0646 -0.3339
  516TMC3    C4 7717   0.632   1.488  14.616 -0.6040 -0.4772 -0.2625
  516TMC3    C5 7718   0.551   1.382  14.597 -0.4671  0.2994 -0.4411
  516TMC3    C6 7719   0.447   1.385  14.506  0.3682  0.0615  0.1677
  516TMC3     C 7720   0.664   1.722  14.573  0.2078  0.4126 -0.5424
  516TMC3     O 7721   0.603   1.819  14.533 -0.2062  0.1438 -0.8222
  516TMC3     H 7722   0.498   1.694  14.382  0.0682 -0.0973 -0.2893
  516TMC3    H1 7723   0.685   1.504  14.709 -2.8172 -2.5454  1.3396
  516TMC3    H2 7724   0.380   1.300  14.499  1.7175 -0.9558 -0.4896
  516TMC3    C7 7725   0.543   1.287  14.707  0.0265 -0.3107 -0.6271
  516TMC3    C8 7726   0.321   1.505  14.348 -0.0011 -0.4289  0.2871
  516TMC3    O1 7727   0.640   1.284  14.783 -0.4019 -0.1490 -0.5187
  516TMC3    O2 7728   0.229   1.434  14.383 -0.9812  0.3594 -0.2395
  517MPD2     C 7729   0.331   3.596  17.699  0.1597 -0.1775 -0.1663
  517MPD2    C1 7730   0.430   3.556   0.050 -0.6048 -0.1521  0.5006
  517MPD2    C2 7731   0.451   3.626   0.168 -0.3892 -0.5603 -0.0436
  517MPD2    C3 7732   0.376   3.738   0.205 -0.7415  0.2529  0.1721
  517MPD2    C4 7733   0.271   3.775   0.124  0.0532  0.3333 -0.0437
  517MPD2    C5 7734   0.252   3.703   0.009 -0.0159  0.2605  0.0946
  517MPD2     H 7735   0.525   3.588   0.239  0.2150 -0.7958 -0.7971
  517MPD2    H1 7736   0.198   3.850   0.156  0.3404  0.6792 -0.2008
  517MPD2    H2 7737   0.307   3.550  17.603 -1.1070 -0.5317  0.3254
  517MPD2    H3 7738   0.160   3.703  17.682  1.1357  3.9540 -1.7771
  517MPD2     N 7739   0.381   3.797   0.331  0.0438  0.0009 -0.5071
  517MPD2    H5 7740   0.303   3.857   0.352  0.0751 -0.8038  1.8757
  517MPD2    N1 7741   0.512   3.442   0.013  0.1303 -0.9446 -0.4640
  517MPD2    H7 7742   0.595   3.429   0.070 -0.3840 -0.0935  0.4852
  518TMC3    C1 7743   0.592   3.251  17.649 -0.3345 -0.2728 -0.5056
  518TMC3    C2 7744   0.556   3.120  17.658 -0.3577  1.1783  0.1802
  518TMC3    C3 7745   0.657   3.026  17.649  0.5171 -0.6528 -0.2263
  518TMC3    C4 7746   0.722   3.292  17.635 -0.4365 -0.0405 -0.1221
  518TMC3    C5 7747   0.813   3.189  17.625 -0.5928 -0.4042 -0.0050
  518TMC3    C6 7748   0.782   3.058  17.628  0.5369 -0.3686  0.2305
  518TMC3     C 7749   0.486   3.347  17.645  0.1912 -0.0043  0.2222
  518TMC3     O 7750   0.378   3.316  17.597  1.0098 -0.3988 -0.0939
  518TMC3     H 7751   0.458   3.088  17.690 -0.6635 -0.5832 -2.5073
  518TMC3    H1 7752   0.754   3.394  17.618  0.7524  0.0127  2.5666
  518TMC3    H2 7753   0.857   2.980  17.621 -2.5683 -3.4309  1.2286
  518TMC3    C7 7754   0.956   3.215  17.602 -0.5967  0.2533 -0.9617
  518TMC3    C8 7755   0.637   2.889  17.699  0.8412  0.2279  0.4579
  518TMC3    O1 7756   1.001   3.305  17.670 -0.3367 -0.0611 -0.0204
  518TMC3    O2 7757   0.682   2.805  17.628  0.0814  0.0289  0.0018
  519MPD2     C 7758   2.221   1.769  14.729  0.1974 -0.0770  0.6378
  519MPD2    C1 7759   2.149   1.697  14.639  0.2323  0.0473  0.4434
  519MPD2    C2 7760   2.213   1.611  14.545  0.1872  0.2380  0.0136
  519MPD2    C3 7761   2.348   1.586  14.550 -0.1495 -0.2997  0.5666
  519MPD2    C4 7762   2.416   1.656  14.643 -0.1717  0.5960 -0.5423
  519MPD2    C5 7763   2.356   1.735  14.737 -0.6485 -0.5246  0.3325
  519MPD2     H 7764   2.154   1.557  14.473  1.4744  1.4737 -1.9569
  519MPD2    H1 7765   2.522   1.639  14.653 -0.4154 -0.9499 -0.5237
  519MPD2    H2 7766   2.184   1.839  14.803 -0.6896  1.5405 -1.3121
  519MPD2    H3 7767   2.421   1.795  14.800 -0.6003  0.7651 -0.9446
  519MPD2     N 7768   2.423   1.502  14.472 -0.2225 -0.2531 -0.2499
  519MPD2    H5 7769   2.524   1.514  14.467 -0.4418  1.3719 -0.8072
  519MPD2    N1 7770   2.008   1.721  14.634  0.1163 -0.3112  0.6593
  519MPD2    H7 7771   1.966   1.797  14.686  0.7357  1.1069 -0.9031
  520TMC3    C1 7772   2.452   1.364  14.285 -0.0521  0.4125  0.5041
  520TMC3    C2 7773   2.391   1.342  14.168  0.3706 -0.0215  0.2330
  520TMC3    C3 7774   2.456   1.259  14.077  0.3891  0.3193  0.4164
  520TMC3    C4 7775   2.570   1.302  14.328 -0.0127  0.0684  0.0086
  520TMC3    C5 7776   2.625   1.213  14.233 -0.8775  0.3306 -0.0400
  520TMC3    C6 7777   2.567   1.190  14.110 -0.4277  0.0286 -0.7672
  520TMC3     C 7778   2.368   1.404  14.389  0.2610  0.1448  0.1192
  520TMC3     O 7779   2.259   1.347  14.396 -0.3034  0.0351  0.3861
  520TMC3     H 7780   2.304   1.402  14.141  0.5212  1.5845  3.3966
  520TMC3    H1 7781   2.608   1.327  14.426 -1.9416 -0.2217  0.8325
  520TMC3    H2 7782   2.610   1.118  14.042  2.2362  1.3180 -0.4310
  520TMC3    C7 7783   2.764   1.163  14.268 -0.6644 -0.1346  0.2242
  520TMC3    C8 7784   2.404   1.244  13.950  0.4492  0.2460 -0.6269
  520TMC3    O1 7785   2.810   1.193  14.376  0.1072 -0.7924  0.2729
  520TMC3    O2 7786   2.478   1.208  13.862  0.4424  0.2285 -0.0363
  521MPD2     C 7787   3.216   3.964   0.096 -0.3436 -0.2864  0.4303
  521MPD2    C1 7788   3.189   4.037  17.709  0.2814 -0.4115  0.5339
  521MPD2    C2 7789   3.275   4.038  17.599 -0.2379  0.0077 -0.0509
  521MPD2    C3 7790   3.397   3.977  17.614  0.6845 -0.7153  0.7390
  521MPD2    C4 7791   3.428   3.908   0.001 -0.2458  0.1878  0.2103
  521MPD2    C5 7792   3.336   3.898   0.099 -0.0723  0.6706  0.0636
  521MPD2     H 7793   3.249   4.090  17.508 -0.6237 -0.7690 -0.3767
  521MPD2    H1 7794   3.524   3.859   0.009  0.1132  1.0290  1.0058
  521MPD2    H2 7795   3.157   3.972   0.187  1.5512 -1.0926  1.7492
  521MPD2    H3 7796   3.367   3.839   0.185 -0.4993 -0.7249 -0.7285
  521MPD2     N 7797   3.490   3.986  17.507 -0.8448  0.5621  0.5509
  521MPD2    H5 7798   3.460   4.048  17.432 -1.1883  1.6973  1.6396
  521MPD2    N1 7799   3.069   4.115  17.705 -0.6060  0.4417 -0.5741
  521MPD2    H7 7800   3.004   4.100   0.051 -0.8133  0.9161 -0.6574
  522TMC3    C1 7801   3.673   3.926  17.372  1.0910 -0.7254 -0.1411
  522TMC3    C2 7802   3.782   3.847  17.351  0.5427  0.0035 -1.1449
  522TMC3    C3 7803   3.836   3.826  17.229  0.2533 -0.6552  0.3727
  522TMC3    C4 7804   3.612   3.983  17.261 -0.0358 -0.4311  0.5183
  522TMC3    C5 7805   3.668   3.945  17.138 -0.5994  0.0302 -0.2792
  522TMC3    C6 7806   3.786   3.876  17.120  0.2850  0.2743  0.3098
  522TMC3     C 7807   3.617   3.936  17.508 -0.0479 -0.1396 -0.0106
  522TMC3     O 7808   3.687   3.888  17.598  0.1268  0.0532 -0.2826
  522TMC3     H 7809   3.807   3.783  17.435  0.7923  1.7289  0.0756
  522TMC3    H1 7810   3.524   4.046  17.268  0.1794  0.1025 -1.6606
  522TMC3    H2 7811   3.828   3.846  17.025 -0.1637 -3.8120  1.4056
  522TMC3    C7 7812   3.618   4.004  17.012 -0.2501  0.0876 -0.2738
  522TMC3    C8 7813   3.951   3.725  17.221  0.1882 -0.3302  0.4475
  522TMC3    O1 7814   3.689   3.969  16.921  0.6962  0.0707 -0.3774
  522TMC3    O2 7815   4.008   3.706  17.331 -0.8954 -0.1718  0.7577
  523MPD2     C 7816   0.013   3.587  10.103  0.1530 -0.1826 -0.0663
  523MPD2    C1 7817   0.087   3.705  10.085  0.2049 -0.0975 -0.3941
  523MPD2    C2 7818   0.021   3.814  10.030 -0.6149 -0.0029 -0.2146
  523MPD2    C3 7819   4.621   3.805   9.981  0.1988 -0.4061 -0.5655
  523MPD2    C4 7820   4.553   3.690   9.989 -0.1216 -1.0206  0.6242
  523MPD2    C5 7821   4.615   3.586  10.059 -0.8815  0.5297 -0.1746
  523MPD2     H 7822   0.071   3.910  10.022 -1.1871  0.5156  2.4037
  523MPD2    H1 7823   4.454   3.672   9.950 -1.9215  2.0725  3.7696
  523MPD2    H2 7824   0.059   3.501  10.150  1.4895 -0.9507 -2.7538
  523MPD2    H3 7825   4.568   3.488  10.060  2.0613 -0.9196 -1.9281
  523MPD2     N 7826   4.566   3.908   9.903 -0.4691 -0.4567 -0.0551
  523MPD2    H5 7827   4.473   3.889   9.867 -0.7609  0.5169  0.1896
  523MPD2    N1 7828   0.223   3.713  10.124  0.1215  0.0067 -0.2110
  523MPD2    H7 7829   0.258   3.633  10.175  0.0152 -1.1174 -1.9216
  524TMC3    C1 7830   4.549   4.091   9.756  0.5025  0.2131 -0.1509
  524TMC3    C2 7831   4.447   4.019   9.695  0.1766 -0.2038  0.3560
  524TMC3    C3 7832   4.362   4.087   9.619  0.1677 -0.3276 -0.0866
  524TMC3    C4 7833   4.540   4.228   9.759  0.7319 -0.7045 -0.8116
  524TMC3    C5 7834   4.444   4.288   9.682 -0.4441  0.4921  1.1631
  524TMC3    C6 7835   4.352   4.219   9.604  0.4540 -0.1745 -0.2896
  524TMC3     C 7836   4.624   4.029   9.866  1.0035 -0.2257 -0.1776
  524TMC3     O 7837   4.720   4.091   9.911 -0.9207  0.1670 -0.6921
  524TMC3     H 7838   4.457   3.911   9.696  1.7709 -0.0654 -1.3441
  524TMC3    H1 7839   4.611   4.290   9.813  1.0308 -1.7235 -0.0355
  524TMC3    H2 7840   4.282   4.264   9.535 -0.6697 -2.4726 -0.6402
  524TMC3    C7 7841   4.456   4.430   9.662 -0.1820 -0.0413  0.3609
  524TMC3    C8 7842   4.310   4.006   9.514  1.0308  0.3361 -0.3850
  524TMC3    O1 7843   4.564   4.479   9.691  0.3486  0.4009 -0.7701
  524TMC3    O2 7844   4.385   3.927   9.462 -0.4236  0.1584  0.0300
  525MPD2     C 7845   3.865   0.960  14.861 -0.2328 -0.4112  0.7034
  525MPD2    C1 7846   3.910   0.978  14.988 -0.5693  0.8578  0.3267
  525MPD2    C2 7847   4.019   1.065  15.017 -0.8816  0.2815 -0.2780
  525MPD2    C3 7848   4.079   1.137  14.913 -0.0337 -0.2294 -0.1599
  525MPD2    C4 7849   4.022   1.127  14.794  0.8379 -0.0827  0.2388
  525MPD2    C5 7850   3.918   1.035  14.760 -0.0593 -0.0888  0.1724
  525MPD2     H 7851   4.057   1.071  15.118 -1.7054  2.0247 -0.0649
  525MPD2    H1 7852   4.060   1.192  14.717  1.6315 -0.0460  0.6670
  525MPD2    H2 7853   3.788   0.890  14.832  1.5934 -1.9368 -0.4521
  525MPD2    H3 7854   3.866   1.034  14.665 -1.3749 -3.2475  0.9151
  525MPD2     N 7855   4.170   1.239  14.935 -0.4783 -0.4183  0.5376
  525MPD2    H5 7856   4.175   1.313  14.866 -1.8636 -0.9717 -0.1559
  525MPD2    N1 7857   3.870   0.903  15.093 -0.0257 -0.9584 -0.0934
  525MPD2    H7 7858   3.931   0.896  15.175 -0.2131  0.3839  0.1706
  526TMC3    C1 7859   3.747   0.771  15.228 -0.1053 -0.2085 -0.7150
  526TMC3    C2 7860   3.667   0.803  15.328 -0.1049 -0.6397  0.0219
  526TMC3    C3 7861   3.678   0.737  15.445  0.2621  0.5391 -0.3830
  526TMC3    C4 7862   3.858   0.687  15.239  0.0132 -0.4852 -0.8027
  526TMC3    C5 7863   3.860   0.612  15.353 -0.2977 -0.5681  0.5960
  526TMC3    C6 7864   3.766   0.633  15.455 -0.2201  0.1758 -0.3206
  526TMC3     C 7865   3.739   0.862  15.109  0.2641  0.3062  0.0207
  526TMC3     O 7866   3.638   0.868  15.039 -0.1661 -0.0660  0.4107
  526TMC3     H 7867   3.589   0.878  15.321 -0.9640 -1.3947  1.4400
  526TMC3    H1 7868   3.922   0.672  15.152  1.2193 -2.5458  0.4455
  526TMC3    H2 7869   3.760   0.569  15.542  2.0439  0.9222  0.3935
  526TMC3    C7 7870   3.986   0.570  15.405 -0.5097 -0.1130  0.2885
  526TMC3    C8 7871   3.665   0.809  15.570  0.4007 -0.1481  0.3356
  526TMC3    O1 7872   3.996   0.566  15.526 -0.1220 -0.3085 -0.1484
  526TMC3    O2 7873   3.748   0.781  15.655  0.2517 -0.5658  0.3193
  527MPD2     C 7874   1.937   4.694   1.633  0.4453 -0.3971 -0.5262
  527MPD2    C1 7875   1.886   4.626   1.532  0.4141 -0.0812  0.9055
  527MPD2    C2 7876   1.970   4.536   1.469  0.0807 -0.2092  1.1369
  527MPD2    C3 7877   2.106   4.532   1.496  0.1038 -0.7274  0.2080
  527MPD2    C4 7878   2.162   4.609   1.590  0.2220 -0.8351 -0.0181
  527MPD2    C5 7879   2.070   4.688   1.667 -0.5491  0.2433  0.4888
  527MPD2     H 7880   1.930   4.475   1.388 -1.5046  0.6763  1.2540
  527MPD2    H1 7881   2.266   4.603   1.620  0.1277  1.7134  0.8476
  527MPD2    H2 7882   1.880   0.027   1.697 -0.9074 -0.6085 -1.5191
  527MPD2    H3 7883   2.101   0.024   1.745  2.1618 -0.2535 -0.1525
  527MPD2     N 7884   2.179   4.435   1.422 -0.7487  0.0778 -0.0986
  527MPD2    H5 7885   2.122   4.373   1.365 -0.9590 -0.0704  0.2774
  527MPD2    N1 7886   1.750   4.634   1.487 -0.5930  0.2997  0.5353
  527MPD2    H7 7887   1.724   4.569   1.414  0.9069 -0.6816  0.8858
  528TMC3    C1 7888   1.530   4.672   1.473  0.0125  0.4434 -0.7546
  528TMC3    C2 7889   1.514   4.583   1.373 -0.4255  0.4400 -0.0868
  528TMC3    C3 7890   1.388   4.577   1.316 -0.3308  0.4295 -0.2550
  528TMC3    C4 7891   1.423   0.014   1.515  0.1115 -0.5086  0.4405
  528TMC3    C5 7892   1.309   0.016   1.444 -0.0245 -0.4869 -0.0497
  528TMC3    C6 7893   1.288   4.666   1.338  0.6655 -0.1857 -0.4998
  528TMC3     C 7894   1.656   4.717   1.521 -0.1504  0.5725  0.4043
  528TMC3     O 7895   1.654   0.060   1.618  0.7762 -0.2276 -0.3098
  528TMC3     H 7896   1.591   4.512   1.345 -0.8022  0.7085 -1.8007
  528TMC3    H1 7897   1.431   0.096   1.585 -2.5494  0.9468 -0.9282
  528TMC3    H2 7898   1.197   4.664   1.278 -0.6846 -0.4098  1.5535
  528TMC3    C7 7899   1.197   0.078   1.503  0.0383  0.0956  0.0388
  528TMC3    C8 7900   1.369   4.472   1.213 -0.3369  0.5606 -0.2677
  528TMC3    O1 7901   1.188   0.110   1.617 -0.2130  0.3090 -0.5048
  528TMC3    O2 7902   1.473   4.416   1.173  0.6020 -0.4187 -0.5233
  529MPD2     C 7903   4.249   3.305   1.166  0.7424  0.5697  0.8251
  529MPD2    C1 7904   4.216   3.178   1.134 -0.1174 -0.3094 -0.3074
  529MPD2    C2 7905   4.129   3.165   1.030 -0.4755  0.1555  0.2048
  529MPD2    C3 7906   4.074   3.273   0.956 -0.6747 -1.2015 -0.1801
  529MPD2    C4 7907   4.111   3.400   1.006  0.2298  0.2201 -0.8686
  529MPD2    C5 7908   4.201   3.415   1.100 -0.2399  0.1848  0.2205
  529MPD2     H 7909   4.097   3.066   0.999 -2.4264  1.2984 -1.3931
  529MPD2    H1 7910   4.075   3.491   0.961  1.7608  1.7588  1.0281
  529MPD2    H2 7911   4.324   3.321   1.242 -0.2758 -0.1080  1.9720
  529MPD2    H3 7912   4.222   3.515   1.137 -0.1373  0.8401 -1.5869
  529MPD2     N 7913   3.994   3.256   0.842 -0.3587 -0.2355 -0.1550
  529MPD2    H5 7914   3.957   3.341   0.801  1.7723  0.2163 -1.1422
  529MPD2    N1 7915   4.265   3.062   1.193  0.0786 -0.5413  0.3196
  529MPD2    H7 7916   4.227   2.978   1.151  1.2881 -0.3474 -1.1585
  530TMC3    C1 7917   4.393   2.925   1.328  0.3102 -0.4744  0.8304
  530TMC3    C2 7918   4.417   2.845   1.215 -0.3048  0.7697  0.2434
  530TMC3    C3 7919   4.446   2.715   1.242 -0.8511 -0.5003 -0.6021
  530TMC3    C4 7920   4.407   2.886   1.462  0.4305 -0.0478  0.6364
  530TMC3    C5 7921   4.423   2.752   1.477 -0.0958 -0.5179  0.3143
  530TMC3    C6 7922   4.446   2.668   1.370  0.6665  0.1403 -0.2332
  530TMC3     C 7923   4.357   3.057   1.294  0.1846  0.2790  0.3228
  530TMC3     O 7924   4.391   3.149   1.372 -0.2334 -0.2224  0.2978
  530TMC3     H 7925   4.410   2.884   1.114 -0.5865  0.4107  0.1224
  530TMC3    H1 7926   4.392   2.958   1.542 -0.1685 -1.5549  1.8989
  530TMC3    H2 7927   4.477   2.564   1.377  0.4217 -0.0255 -1.4900
  530TMC3    C7 7928   4.431   2.707   1.617  0.1620  0.8982 -0.3584
  530TMC3    C8 7929   4.505   2.637   1.136 -0.2608 -0.5076 -0.9524
  530TMC3    O1 7930   4.458   2.794   1.698  0.8588  0.1697  0.3455
  530TMC3    O2 7931   4.468   2.661   1.023  0.2454 -0.0881 -0.2155
  531MPD2     C 7932   3.431   0.245  13.450  0.9810  0.3724 -0.3452
  531MPD2    C1 7933   3.340   0.350  13.475 -0.8653 -0.1833 -0.2820
  531MPD2    C2 7934   3.230   0.360  13.390 -0.0805 -0.1212  0.1957
  531MPD2    C3 7935   3.211   0.279  13.278 -1.6092 -0.1988 -0.1666
  531MPD2    C4 7936   3.307   0.183  13.257  0.3249 -0.3895 -0.6374
  531MPD2    C5 7937   3.411   0.164  13.346 -1.1601  0.5751  0.0807
  531MPD2     H 7938   3.161   0.436  13.423 -0.2414 -0.0160 -0.3881
  531MPD2    H1 7939   3.292   0.103  13.186  0.9272  0.1430 -1.3749
  531MPD2    H2 7940   3.520   0.224  13.508 -0.4074 -0.0845  1.6270
  531MPD2    H3 7941   3.481   0.088  13.315 -1.0679  0.5867  0.2590
  531MPD2     N 7942   3.099   0.287  13.192 -0.3145  0.2095 -0.3975
  531MPD2    H5 7943   3.091   0.215  13.122  2.7791  0.6369 -1.2162
  531MPD2    N1 7944   3.376   0.421  13.591 -0.2022 -0.4343  0.3764
  531MPD2    H7 7945   3.444   0.382  13.655  1.0547  0.0678 -0.6542
  532TMC3    C1 7946   3.363   0.562  13.771  0.2343  0.3474 -0.0413
  532TMC3    C2 7947   3.257   0.573  13.848 -0.3752  0.4227  0.0292
  532TMC3    C3 7948   3.256   0.494  13.955 -0.5499  0.1530  0.1234
  532TMC3    C4 7949   3.479   0.491  13.816 -0.2037 -0.2523  0.0397
  532TMC3    C5 7950   3.465   0.405  13.914  0.1491 -0.0835  0.0003
  532TMC3    C6 7951   3.355   0.416  13.995  0.5957 -0.1616  0.8626
  532TMC3     C 7952   3.316   0.536  13.640  0.1969  0.2294 -0.0095
  532TMC3     O 7953   3.207   0.574  13.600 -0.4937  0.2757  0.0153
  532TMC3     H 7954   3.174   0.633  13.814 -1.4603 -0.6194  0.8111
  532TMC3    H1 7955   3.573   0.498  13.762 -0.2747 -0.2206 -0.0817
  532TMC3    H2 7956   3.336   0.344  14.074 -3.5167 -1.0923 -0.9832
  532TMC3    C7 7957   3.491   0.277  13.857 -0.1391 -0.3641  0.0692
  532TMC3    C8 7958   3.133   0.406  13.952  0.0439 -0.2485  0.1443
  532TMC3    O1 7959   3.544   0.281  13.745  0.4742  0.0365 -0.2517
  532TMC3    O2 7960   3.110   0.350  14.054  0.3323  0.3294 -0.1350
  533TMC3    C1 7961   4.280   1.387  15.062  0.4782  1.1537 -0.3709
  533TMC3    C2 7962   4.291   1.464  14.942 -0.2741 -0.1189  0.3503
  533TMC3    C3 7963   4.279   1.598  14.956  0.0713 -0.5186  0.6499
  533TMC3    C4 7964   4.243   1.445  15.176 -0.1732 -0.2042  0.1550
  533TMC3    C5 7965   4.207   1.575  15.178  0.0238  0.0552 -0.8531
  533TMC3    C6 7966   4.242   1.654  15.071 -0.2776 -0.6710 -0.5995
  533TMC3     C 7967   4.230   1.258  15.056 -0.1373  0.7927  0.0903
  533TMC3     O 7968   4.253   1.181  15.152 -0.0576 -0.6658 -0.2703
  533TMC3     H 7969   4.305   1.420  14.844  0.1808 -0.4564  0.5728
  533TMC3    H1 7970   4.211   1.379  15.257  1.4508  2.5213  3.0101
  533TMC3    H2 7971   4.246   1.763  15.073 -0.2992 -0.6743 -0.3529
  533TMC3    C7 7972   4.164   1.630  15.307 -0.2488 -0.3963  0.5765
  533TMC3    C8 7973   4.336   1.685  14.854  0.2729 -0.9992  0.3143
  533TMC3    O1 7974   4.185   1.555  15.403 -0.2680 -0.4741  0.0092
  533TMC3    O2 7975   4.283   1.796  14.844  0.1451  0.0513  0.3757
  534MPD2     C 7976   2.872   3.005   1.639 -0.4006  0.0410 -0.1088
  534MPD2    C1 7977   2.767   3.088   1.628  0.1142 -0.6965 -0.1843
  534MPD2    C2 7978   2.642   3.045   1.588  0.2415  0.1862 -0.1354
  534MPD2    C3 7979   2.624   2.911   1.553  0.3016 -0.7593  0.1422
  534MPD2    C4 7980   2.731   2.828   1.566  0.1414  0.3980 -0.1669
  534MPD2    C5 7981   2.852   2.873   1.616  0.5435 -0.3002  0.4320
  534MPD2     H 7982   2.559   3.111   1.567 -0.4337 -0.6928 -0.2439
  534MPD2    H1 7983   2.736   2.723   1.536 -2.2650 -0.2920  1.8716
  534MPD2    H2 7984   2.970   3.040   1.670 -0.7963  0.4381  0.6955
  534MPD2    H3 7985   2.930   2.797   1.613  1.4839  0.7364 -0.8040
  534MPD2     N 7986   2.493   2.853   1.512  0.4465  0.1472 -0.2066
  534MPD2    H5 7987   2.496   2.762   1.467 -0.2674 -0.4683  0.9875
  534MPD2    N1 7988   2.783   3.226   1.643  0.0332 -0.2273 -0.1761
  534MPD2    H7 7989   2.710   3.286   1.606  0.5257  1.3385  1.3869
  535TMC3    C1 7990   2.272   2.844   1.428 -0.2825  0.7283  0.4367
  535TMC3    C2 7991   2.147   2.900   1.438  0.0250  0.5397 -0.7105
  535TMC3    C3 7992   2.048   2.851   1.356  0.0008 -0.1331 -0.2081
  535TMC3    C4 7993   2.300   2.733   1.352  0.1809 -0.7084  0.4222
  535TMC3    C5 7994   2.198   2.688   1.279 -0.2627  0.9078 -0.0926
  535TMC3    C6 7995   2.077   2.748   1.268  0.2428 -0.0213 -0.3402
  535TMC3     C 7996   2.376   2.921   1.493 -0.1786 -0.6899  0.4608
  535TMC3     O 7997   2.343   3.040   1.513 -0.3973  0.6333 -0.1527
  535TMC3     H 7998   2.119   2.975   1.511 -1.2392 -0.0680 -0.5804
  535TMC3    H1 7999   2.399   2.696   1.327 -0.3638 -2.6652  1.2229
  535TMC3    H2 8000   1.997   2.712   1.205 -0.4400  2.5895 -0.9822
  535TMC3    C7 8001   2.200   2.545   1.241  0.5612  0.2139 -0.0292
  535TMC3    C8 8002   1.910   2.868   1.390  0.0164 -0.8670 -0.4938
  535TMC3    O1 8003   2.102   2.505   1.183 -0.0453  0.3622 -0.1674
  535TMC3    O2 8004   1.833   2.816   1.309 -0.0130  0.2632  0.3822
  536MPD2     C 8005   0.699   1.079  16.542 -0.2933  0.0633  0.7124
  536MPD2    C1 8006   0.583   1.017  16.589  0.4335  0.6279  0.4814
  536MPD2    C2 8007   0.467   1.011  16.511  0.1593 -0.3117 -0.5232
  536MPD2    C3 8008   0.469   1.078  16.387 -0.1823  0.1526  0.2095
  536MPD2    C4 8009   0.586   1.143  16.346  0.5716  0.7271 -0.2707
  536MPD2    C5 8010   0.697   1.145  16.424  0.8725  0.0047 -0.2549
  536MPD2     H 8011   0.379   0.954  16.539 -0.9393  3.1137  2.9703
  536MPD2    H1 8012   0.589   1.189  16.248 -0.0246  1.5421  0.0966
  536MPD2    H2 8013   0.785   1.082  16.606 -1.2945  0.6357  2.0332
  536MPD2    H3 8014   0.786   1.198  16.391  0.7043  0.7912  0.5479
  536MPD2     N 8015   0.359   1.087  16.296  0.6962  0.4035  0.0150
  536MPD2    H5 8016   0.372   1.148  16.216 -0.5908 -0.3403 -0.7607
  536MPD2    N1 8017   0.580   0.977  16.723  0.3401  0.5844  0.1994
  536MPD2    H7 8018   0.662   0.993  16.781 -0.4139  0.0852  1.4163
  537TMC3    C1 8019   0.496   0.872  16.933 -0.0049 -0.7498  0.2794
  537TMC3    C2 8020   0.590   0.930  17.011 -0.3328 -0.3021 -0.0414
  537TMC3    C3 8021   0.604   0.884  17.138  0.2635 -0.5886 -0.8088
  537TMC3    C4 8022   0.412   0.773  16.986 -0.0861 -0.0563  0.1784
  537TMC3    C5 8023   0.433   0.731  17.113  1.1688 -0.5608 -0.1214
  537TMC3    C6 8024   0.531   0.783  17.190 -0.3923  0.6424 -0.1281
  537TMC3     C 8025   0.483   0.901  16.786 -0.2647  0.5452 -0.1745
  537TMC3     O 8026   0.387   0.848  16.735  0.3190 -0.3693 -0.1936
  537TMC3     H 8027   0.654   1.013  16.981  2.5528 -2.1407  0.9969
  537TMC3    H1 8028   0.345   0.718  16.920  0.2386  2.0683 -1.9248
  537TMC3    H2 8029   0.555   0.746  17.289 -3.9359 -2.1960 -0.3627
  537TMC3    C7 8030   0.339   0.629  17.158 -0.3224 -0.4182 -0.0059
  537TMC3    C8 8031   0.664   0.968  17.228 -0.5882 -0.3155  0.0136
  537TMC3    O1 8032   0.227   0.637  17.110 -0.5982  0.0636  0.1922
  537TMC3    O2 8033   0.606   0.981  17.340  0.1912  0.3575 -0.0138
  538TMC3    C1 8034   1.413   4.240  11.708  0.0987  0.2930 -0.3622
  538TMC3    C2 8035   1.537   4.275  11.675  0.1527 -0.3532  0.2338
  538TMC3    C3 8036   1.564   4.273  11.537 -0.4826 -0.7002  0.7401
  538TMC3    C4 8037   1.311   4.217  11.625  0.2289 -0.1889  0.7376
  538TMC3    C5 8038   1.338   4.242  11.495  0.0919  0.4508 -0.4260
  538TMC3    C6 8039   1.459   4.259  11.446  0.3546  0.6115  0.1282
  538TMC3     C 8040   1.370   4.242  11.845  0.0767  0.0082 -0.2222
  538TMC3     O 8041   1.250   4.241  11.869  0.2684  0.1539 -0.0783
  538TMC3     H 8042   1.610   4.308  11.748  0.1513  2.8783 -1.2370
  538TMC3    H1 8043   1.210   4.201  11.662  1.1223 -2.2724  2.2371
  538TMC3    H2 8044   1.480   4.269  11.340  1.3370  1.5486  0.4159
  538TMC3    C7 8045   1.224   4.245  11.404 -0.3559  0.7193  0.1003
  538TMC3    C8 8046   1.711   4.283  11.492 -0.1440  0.1204  0.1229
  538TMC3    O1 8047   1.122   4.257  11.464 -0.0716  0.5024  0.0815
  538TMC3    O2 8048   1.801   4.245  11.564 -0.2664  0.5761  0.5710
  539MPD2     C 8049   1.081   3.665  11.838 -0.0742 -0.5963 -0.4771
  539MPD2    C1 8050   1.005   3.590  11.750 -0.3620 -0.7320 -1.2885
  539MPD2    C2 8051   0.869   3.594  11.764  0.3359 -0.5852  0.3536
  539MPD2    C3 8052   0.810   3.682  11.845 -1.0233 -0.0563  0.4028
  539MPD2    C4 8053   0.886   3.762  11.930  0.1852  0.5799  0.6165
  539MPD2    C5 8054   1.022   3.750  11.928 -0.0782  0.5355 -0.2192
  539MPD2     H 8055   0.805   3.525  11.710 -0.2135 -0.1189  0.4100
  539MPD2    H1 8056   0.843   3.817  12.013 -1.5817  0.6738 -0.3584
  539MPD2    H2 8057   1.188   3.658  11.850  0.0138 -1.8600 -1.8741
  539MPD2    H3 8058   1.087   3.805  11.996 -0.4262  0.0658  0.4959
  539MPD2     N 8059   0.669   3.689  11.847 -0.0222  0.0688  0.3999
  539MPD2    H5 8060   0.635   3.760  11.913 -2.6239  0.2235 -1.1004
  539MPD2    N1 8061   1.070   3.492  11.665 -0.0076  0.7229  0.5527
  539MPD2    H7 8062   1.016   3.413  11.632  0.2952  0.2908  1.0861
  540TMC3    C1 8063   0.442   3.697  11.793  0.2524  0.4913  0.4909
  540TMC3    C2 8064   0.348   3.673  11.698  1.0940 -0.2321  0.2168
  540TMC3    C3 8065   0.216   3.710  11.731  0.7012 -0.2050 -0.8842
  540TMC3    C4 8066   0.414   3.787  11.895 -0.0552 -0.0579 -0.5457
  540TMC3    C5 8067   0.290   3.834  11.920  0.1177  0.2534 -0.0285
  540TMC3    C6 8068   0.181   3.791  11.842 -0.1946 -0.3715 -0.6112
  540TMC3     C 8069   0.576   3.663  11.749  0.1084 -0.7095 -0.3337
  540TMC3     O 8070   0.596   3.615  11.639 -0.1495  0.2409 -0.8422
  540TMC3     H 8071   0.370   3.602  11.619 -3.0782 -0.3304 -0.8696
  540TMC3    H1 8072   0.486   3.796  11.975 -3.7513  2.0520  2.5127
  540TMC3    H2 8073   0.081   3.826  11.865 -0.5746 -3.7453  2.8827
  540TMC3    C7 8074   0.268   3.881  12.049 -0.1069 -0.1206 -0.1870
  540TMC3    C8 8075   0.107   3.682  11.635  0.0128  0.7850 -0.1134
  540TMC3    O1 8076   0.170   3.830  12.104  0.1563 -0.3421 -0.6186
  540TMC3    O2 8077   4.724   3.672  11.676 -0.2370  0.1704  0.3008
  541MPD2     C 8078   4.051   4.463  13.417 -0.7695  0.1848  0.4646
  541MPD2    C1 8079   3.977   4.579  13.417 -0.3116 -0.2596 -0.0249
  541MPD2    C2 8080   3.978   4.670  13.311  0.5705  1.0370  0.3982
  541MPD2    C3 8081   4.062   4.645  13.201 -0.1453 -0.4787  0.6583
  541MPD2    C4 8082   4.131   4.529  13.201 -0.5261 -0.2206 -0.4326
  541MPD2    C5 8083   4.125   4.435  13.307 -0.1855 -0.5203  0.5611
  541MPD2     H 8084   3.914   0.024  13.314 -1.7667 -0.6458 -0.3309
  541MPD2    H1 8085   4.191   4.502  13.115  1.2957 -1.3482  1.1835
  541MPD2    H2 8086   4.049   4.396  13.502  1.1596 -1.5070 -0.8406
  541MPD2    H3 8087   4.182   4.342  13.302  0.1178 -0.2642 -0.8375
  541MPD2     N 8088   4.067   4.728  13.085  0.1860  0.1519 -0.5363
  541MPD2    H5 8089   4.125   4.691  13.010 -0.0382 -0.7350 -0.2761
  541MPD2    N1 8090   3.892   4.598  13.533 -0.2850 -0.3634 -0.4268
  541MPD2    H7 8091   3.903   4.533  13.610 -2.3973  1.4760  1.4387
  542TMC3    C1 8092   4.004   0.163  12.936 -0.2019  0.2328 -0.0716
  542TMC3    C2 8093   4.051   0.090  12.833 -0.2018 -0.6740  0.3653
  542TMC3    C3 8094   4.031   0.140  12.706 -0.0250  0.3632  0.1407
  542TMC3    C4 8095   3.942   0.284  12.926  0.3907  0.5400  0.1908
  542TMC3    C5 8096   3.916   0.326  12.800 -0.5649 -0.3835  0.2729
  542TMC3    C6 8097   3.946   0.250  12.686 -0.5132  0.4623 -0.5213
  542TMC3     C 8098   4.010   0.118  13.073  0.0063 -0.1448  0.4732
  542TMC3     O 8099   3.936   0.180  13.144 -0.2816 -0.5766 -0.0904
  542TMC3     H 8100   4.099   4.727  12.854  0.8261 -0.7778 -2.4116
  542TMC3    H1 8101   3.915   0.350  13.008  0.2598  3.6031 -2.3050
  542TMC3    H2 8102   3.919   0.285  12.587 -0.0005  0.8046 -0.5396
  542TMC3    C7 8103   3.838   0.447  12.797 -0.5087 -0.2203  0.4967
  542TMC3    C8 8104   4.105   0.102  12.590 -0.6122 -0.2483  0.2924
  542TMC3    O1 8105   3.861   0.526  12.891 -0.5489 -0.3803 -0.3887
  542TMC3    O2 8106   4.099   0.172  12.495 -0.1398 -0.2444 -0.0541
  543TMC3    C1 8107   3.889   1.109   0.034 -0.1042  0.2118 -0.5105
  543TMC3    C2 8108   3.856   0.978   0.042 -0.1536  0.0701  0.4589
  543TMC3    C3 8109   3.892   0.907   0.151 -0.2468  0.1969  0.2094
  543TMC3    C4 8110   3.974   1.177   0.126 -0.0328 -0.3240 -0.3911
  543TMC3    C5 8111   4.010   1.099   0.235  0.2637  0.2370  0.7108
  543TMC3    C6 8112   3.975   0.960   0.244  0.6496 -0.6797 -0.5586
  543TMC3     C 8113   3.873   1.160  17.632 -0.1530 -0.5189  0.2115
  543TMC3     O 8114   3.811   1.093  17.552 -0.5493 -0.4035  0.6229
  543TMC3     H 8115   3.809   0.925  17.690 -1.3508  0.1660  1.0811
  543TMC3    H1 8116   4.008   1.279   0.119 -1.6653  0.2277 -0.1828
  543TMC3    H2 8117   3.992   0.916   0.342  0.5846 -0.3612 -0.4031
  543TMC3    C7 8118   4.056   1.173   0.360 -0.1263 -0.5359 -0.3981
  543TMC3    C8 8119   3.882   0.765   0.140 -0.8071  0.7108  0.0543
  543TMC3    O1 8120   4.101   1.104   0.451 -0.1864  0.2271 -0.1205
  543TMC3    O2 8121   3.814   0.726   0.047  0.1077 -0.1628 -0.1502
  544MPD2     C 8122   4.062   0.293   0.212  0.6219  0.0105  0.3091
  544MPD2    C1 8123   3.963   0.340   0.131 -0.2830  0.6239  0.4893
  544MPD2    C2 8124   3.937   0.477   0.130  0.0557 -0.3966  0.2908
  544MPD2    C3 8125   3.994   0.560   0.223 -0.1850 -0.4989 -0.1161
  544MPD2    C4 8126   4.076   0.504   0.319  0.0761  0.2171  0.0720
  544MPD2    C5 8127   4.111   0.369   0.313 -0.5965  0.3688 -0.1292
  544MPD2     H 8128   3.863   0.523   0.064 -0.7703 -0.3254  1.2664
  544MPD2    H1 8129   4.128   0.569   0.390  0.3486 -1.3279  1.2745
  544MPD2    H2 8130   4.091   0.190   0.196  1.0554  0.1428  0.2443
  544MPD2    H3 8131   4.181   0.324   0.383 -0.2484 -1.7598 -1.8664
  544MPD2     N 8132   3.975   0.699   0.220 -0.7561 -0.5918 -0.5800
  544MPD2    H5 8133   4.018   0.754   0.293  0.6188 -1.5051 -0.7059
  544MPD2    N1 8134   3.895   0.249   0.045 -0.2965 -0.1878 -0.1325
  544MPD2    H7 8135   3.920   0.153   0.065 -2.5908 -1.3741 -2.8666
  545TMC3    C1 8136   3.752   0.180  17.606  0.7377  1.1819  0.0918
  545TMC3    C2 8137   3.678   0.220  17.494 -0.3599 -0.3411  0.3539
  545TMC3    C3 8138   3.628   0.114  17.421 -0.6496  0.5924  0.8465
  545TMC3    C4 8139   3.750   0.057  17.660  0.0663  0.2517  0.7737
  545TMC3    C5 8140   3.682   4.696  17.591 -0.1242 -0.0123 -0.1811
  545TMC3    C6 8141   3.626   4.725  17.468 -0.1534 -0.1520 -0.2128
  545TMC3     C 8142   3.793   0.286  17.696 -0.0011  0.3367 -0.0049
  545TMC3     O 8143   3.729   0.388  17.669  0.3334 -0.2084 -0.3406
  545TMC3     H 8144   3.687   0.320  17.453  3.2196 -1.1436 -0.8562
  545TMC3    H1 8145   3.782   0.041   0.032 -1.3459 -2.7600  0.7533
  545TMC3    H2 8146   3.577   4.649  17.409 -2.0211  0.0721  1.0816
  545TMC3    C7 8147   3.673   4.558  17.639  0.3713 -0.3571  0.4922
  545TMC3    C8 8148   3.570   0.139  17.292  0.2529  0.2218  0.3848
  545TMC3    O1 8149   3.584   4.499  17.583 -0.3607  0.3208 -0.3028
  545TMC3    O2 8150   3.575   0.046  17.211  0.0431 -0.2389  0.4722
  546MPD2     C 8151   0.129   1.461   0.087 -0.0640  0.0708  0.6879
  546MPD2    C1 8152   0.188   1.466  17.688 -0.4548 -0.3705 -0.3030
  546MPD2    C2 8153   0.222   1.587  17.629  0.6646 -0.2412 -0.8873
  546MPD2    C3 8154   0.184   1.708  17.697 -0.5793 -0.4293 -0.2261
  546MPD2    C4 8155   0.112   1.701   0.086 -0.2909 -0.3635  0.2114
  546MPD2    C5 8156   0.096   1.580   0.151  0.3342 -0.4926  1.2097
  546MPD2     H 8157   0.278   1.600  17.537 -1.4881  0.8305 -2.0456
  546MPD2    H1 8158   0.081   1.787   0.144 -2.4428 -0.6450 -0.5038
  546MPD2    H2 8159   0.116   1.368   0.142 -1.0340 -0.9324 -1.2480
  546MPD2    H3 8160   0.062   1.576   0.254 -1.2443 -0.6902  0.6884
  546MPD2     N 8161   0.212   1.840  17.653  0.0451  0.1892 -0.4355
  546MPD2    H5 8162   0.188   1.911  17.721 -0.3250  1.4145 -1.8400
  546MPD2    N1 8163   0.221   1.341  17.627  0.2539 -0.3940 -0.1701
  546MPD2    H7 8164   0.189   1.261  17.681  0.9771 -0.0723  0.7277
  547TMC3    C1 8165   0.311   1.186  17.475 -0.0451 -0.2554  0.3819
  547TMC3    C2 8166   0.244   1.141  17.367 -0.0715 -0.4895 -0.6862
  547TMC3    C3 8167   0.233   1.002  17.340  0.5188 -0.5446 -0.0183
  547TMC3    C4 8168   0.337   1.099  17.576  0.2008  0.3899 -0.3515
  547TMC3    C5 8169   0.322   0.962  17.561 -0.1563 -0.6518  0.3159
  547TMC3    C6 8170   0.265   0.909  17.446  0.4656  0.2022  0.2269
  547TMC3     C 8171   0.282   1.321  17.502 -0.1888 -0.0370 -0.0630
  547TMC3     O 8172   0.303   1.399  17.411 -0.1729  0.3427  0.0864
  547TMC3     H 8173   0.199   1.212  17.298  0.6684 -0.4599 -1.1375
  547TMC3    H1 8174   0.364   1.130  17.677 -1.6872 -1.2779  0.6544
  547TMC3    H2 8175   0.270   0.803  17.425  1.0776  0.3388 -0.3253
  547TMC3    C7 8176   0.291   0.879  17.678 -0.2442  0.3072  0.0272
  547TMC3    C8 8177   0.123   0.973  17.248  0.3236 -0.5508  0.6697
  547TMC3    O1 8178   0.243   0.942   0.040  0.3802  0.4802 -0.5436
  547TMC3    O2 8179   0.107   1.053  17.155  0.2417  1.0404  0.3642
  548MPD2     C 8180   0.123   1.614  13.151 -0.0302 -0.5388  0.5990
  548MPD2    C1 8181   0.077   1.484  13.130  0.0807 -0.0182  0.3423
  548MPD2    C2 8182   0.160   1.388  13.092  0.7146  0.2034  0.0964
  548MPD2    C3 8183   0.294   1.410  13.077 -1.4341 -0.3232 -0.9378
  548MPD2    C4 8184   0.343   1.535  13.110  0.1661 -0.1849 -0.1680
  548MPD2    C5 8185   0.257   1.636  13.145 -0.0098 -0.3736  0.0447
  548MPD2     H 8186   0.123   1.287  13.074 -1.3443  0.9471  0.0807
  548MPD2    H1 8187   0.443   1.575  13.096  0.1911  0.2870  1.4309
  548MPD2    H2 8188   0.062   1.696  13.186 -0.6847 -0.9991  0.5335
  548MPD2    H3 8189   0.301   1.731  13.170 -3.9578  0.9419  2.0875
  548MPD2     N 8190   0.377   1.314  13.026 -0.1025 -0.1865  0.5116
  548MPD2    H5 8191   0.330   1.231  12.991 -0.3513 -0.7347  2.1484
  548MPD2    N1 8192   4.670   1.471  13.124  0.2002  0.2056 -0.4493
  548MPD2    H7 8193   4.610   1.551  13.139  1.2729  1.3495 -2.3941
  549TMC3    C1 8194   4.460   1.365  13.089  0.0647  0.2276 -0.2935
  549TMC3    C2 8195   4.404   1.488  13.049  0.6456 -0.8343  0.0236
  549TMC3    C3 8196   4.266   1.488  13.042  0.0378  0.4476 -0.2090
  549TMC3    C4 8197   4.383   1.262  13.123  0.5909  0.4773 -0.5201
  549TMC3    C5 8198   4.245   1.276  13.126 -0.2813  0.3914 -0.3973
  549TMC3    C6 8199   4.186   1.385  13.076 -0.4294  0.4575  0.3316
  549TMC3     C 8200   4.610   1.349  13.095  0.1700 -0.3495  0.1974
  549TMC3     O 8201   4.651   1.235  13.089 -0.1859  0.3484 -0.0869
  549TMC3     H 8202   4.469   1.553  12.992  1.2723 -0.1398  1.5246
  549TMC3    H1 8203   4.427   1.171  13.163  2.0996  1.3103 -0.2840
  549TMC3    H2 8204   4.078   1.398  13.077 -0.5538 -0.4708 -0.6751
  549TMC3    C7 8205   4.162   1.164  13.166  0.9921  0.4055 -0.5248
  549TMC3    C8 8206   4.198   1.607  12.990  0.8335 -0.0656 -0.1359
  549TMC3    O1 8207   4.043   1.186  13.187  0.1909  0.2231 -0.0756
  549TMC3    O2 8208   4.077   1.602  12.970  0.2115  0.1168 -0.5965
  550TMC3    C1 8209   4.052   4.339  12.437 -0.2471  0.4453  0.3156
  550TMC3    C2 8210   3.964   4.396  12.531 -0.0474 -0.3009  0.1731
  550TMC3    C3 8211   3.916   4.522  12.518  0.4869  0.0323  0.0056
  550TMC3    C4 8212   4.094   4.408  12.331 -0.9114 -0.2615  0.0950
  550TMC3    C5 8213   4.038   4.529  12.311 -0.1946 -0.2691  0.0292
  550TMC3    C6 8214   3.948   4.589  12.404 -0.0389 -0.3824 -0.0961
  550TMC3     C 8215   4.021   4.199  12.415  0.4905 -0.7487  0.5269
  550TMC3     O 8216   4.025   4.131  12.515  0.2388 -0.9043 -0.4574
  550TMC3     H 8217   3.901   4.337  12.597 -2.6003  0.9870 -1.1358
  550TMC3    H1 8218   4.159   4.360  12.258 -0.4755 -1.2737  1.1446
  550TMC3    H2 8219   3.898   4.684  12.388 -0.2487 -0.2983  1.0689
  550TMC3    C7 8220   3.998   4.551  12.175  0.1881 -0.3270 -0.9754
  550TMC3    C8 8221   3.827   4.587  12.614  0.3083  0.1670 -0.7270
  550TMC3    O1 8222   4.058   4.505  12.077  1.0248 -0.2649 -0.4841
  550TMC3    O2 8223   3.773   4.690  12.578  0.1137  0.4062 -0.3234
  551TMC3    C1 8224   1.115   2.207  13.639  0.2935 -0.1364  0.7436
  551TMC3    C2 8225   1.251   2.176  13.614 -0.1139 -0.3713 -0.5443
  551TMC3    C3 8226   1.341   2.195  13.719 -0.6586  0.1029 -0.5090
  551TMC3    C4 8227   1.081   2.266  13.758  0.6247  0.3751  0.5495
  551TMC3    C5 8228   1.176   2.278  13.857 -0.4063 -0.1228  0.6983
  551TMC3    C6 8229   1.308   2.243  13.838 -0.6624 -0.0605 -0.1981
  551TMC3     C 8230   1.031   2.227  13.527  0.2126 -0.1003 -0.2968
  551TMC3     O 8231   0.913   2.243  13.554 -0.2678 -0.5280 -0.2408
  551TMC3     H 8232   1.283   2.128  13.522 -0.6738 -0.2918 -0.7844
  551TMC3    H1 8233   0.983   2.307  13.780  0.7081  1.2524 -0.7229
  551TMC3    H2 8234   1.381   2.266  13.915  0.7237 -0.8274 -1.2793
  551TMC3    C7 8235   1.153   2.352  13.977 -0.0617 -0.5050 -0.2150
  551TMC3    C8 8236   1.481   2.217  13.682 -0.1792  0.4267 -0.2761
  551TMC3    O1 8237   1.191   2.294  14.081  0.2756  0.6971 -0.0870
  551TMC3    O2 8238   1.527   2.144  13.594 -0.6008 -0.2228 -0.8098
  552MPD2     C 8239   3.201   4.485  14.554  0.6628  0.0422  1.0669
  552MPD2    C1 8240   3.154   4.386  14.636  0.3198  0.3933 -0.2684
  552MPD2    C2 8241   3.245   4.319  14.720  0.9558 -0.2210 -0.0342
  552MPD2    C3 8242   3.382   4.348  14.712 -0.2400  0.1195 -1.0363
  552MPD2    C4 8243   3.427   4.441  14.624  0.3195  0.5302  0.0562
  552MPD2    C5 8244   3.333   4.502  14.550 -0.4363 -0.0099  0.0497
  552MPD2     H 8245   3.211   4.248  14.794 -1.7993 -0.6095 -1.6514
  552MPD2    H1 8246   3.532   4.466  14.613 -0.1291  2.3699  0.0125
  552MPD2    H2 8247   3.137   4.536  14.483  1.1597  0.0572  0.6381
  552MPD2    H3 8248   3.364   4.561  14.464  1.3344 -0.8795  0.0869
  552MPD2     N 8249   3.477   4.292  14.799 -0.7098  0.3636 -0.4776
  552MPD2    H5 8250   3.566   4.339  14.793 -1.3867  1.5843 -0.9692
  552MPD2    N1 8251   3.024   4.340  14.632  0.5498  0.1034  0.0260
  552MPD2    H7 8252   3.009   4.257  14.688 -0.0817 -1.2051 -2.0662
  553TMC3    C1 8253   2.802   4.325  14.555 -0.1332  0.2876  0.2795
  553TMC3    C2 8254   2.690   4.386  14.503 -0.0691  0.0117  0.5148
  553TMC3    C3 8255   2.583   4.309  14.465  0.4276  0.4354 -0.3946
  553TMC3    C4 8256   2.802   4.189  14.580 -0.2800  0.9245  0.3233
  553TMC3    C5 8257   2.686   4.117  14.550 -0.2372 -0.4440 -0.0986
  553TMC3    C6 8258   2.578   4.176  14.496  0.0501  0.3915  0.5307
  553TMC3     C 8259   2.917   4.405  14.581 -0.2679 -0.5383 -1.2503
  553TMC3     O 8260   2.911   4.519  14.543  0.1087 -0.0264 -0.0555
  553TMC3     H 8261   2.700   4.491  14.476  0.0008 -0.2305 -0.4003
  553TMC3    H1 8262   2.868   4.138  14.650 -0.9076  1.3871  1.2504
  553TMC3    H2 8263   2.487   4.119  14.483  1.3090 -1.4580 -0.0596
  553TMC3    C7 8264   2.698   3.972  14.534  0.4242  0.4700 -0.3271
  553TMC3    C8 8265   2.471   4.365  14.387 -0.3635 -0.4945 -0.4096
  553TMC3    O1 8266   2.597   3.902  14.518  0.4080 -0.4086 -0.0603
  553TMC3    O2 8267   2.433   4.480  14.413  0.8441  0.2625 -0.0421
  554TMC3    C1 8268   4.547   3.871  12.134  0.3226  0.6301 -0.3192
  554TMC3    C2 8269   4.489   3.786  12.043  0.0784 -0.0561 -0.0376
  554TMC3    C3 8270   4.452   3.848  11.929  0.1153  0.2514  1.0874
  554TMC3    C4 8271   4.592   3.998  12.106 -0.3689  0.3412 -0.3350
  554TMC3    C5 8272   4.564   4.041  11.975 -0.2250 -0.3058  0.0113
  554TMC3    C6 8273   4.485   3.972  11.891  0.1865 -0.3774  0.3084
  554TMC3     C 8274   4.613   3.818  12.252 -0.0408 -0.1716 -0.1595
  554TMC3     O 8275   4.633   3.889  12.351  0.1988 -0.2402  0.1820
  554TMC3     H 8276   4.448   3.690  12.072 -1.6517  0.8348  0.4904
  554TMC3    H1 8277   4.661   4.042  12.177 -0.8816 -2.5088  1.9005
  554TMC3    H2 8278   4.477   4.002  11.787  1.1462  0.0144  0.3478
  554TMC3    C7 8279   4.664   4.120  11.905 -0.1224 -0.6064  0.1715
  554TMC3    C8 8280   4.373   3.788  11.825  0.0598 -0.0949 -0.2956
  554TMC3    O1 8281   4.675   4.098  11.784 -0.0298 -0.3889  1.0911
  554TMC3    O2 8282   4.316   3.869  11.752  0.2113  0.7377 -0.6093
  555TMC3    C1 8283   3.790   3.320  15.801 -0.3233 -0.0254  0.2196
  555TMC3    C2 8284   3.834   3.363  15.923  0.3842  0.2414 -0.7169
  555TMC3    C3 8285   3.919   3.283  16.002  0.4959  0.1076  0.5639
  555TMC3    C4 8286   3.829   3.198  15.749 -0.2542 -0.6108 -0.5659
  555TMC3    C5 8287   3.907   3.120  15.832 -0.1020 -0.2152  0.0411
  555TMC3    C6 8288   3.955   3.156  15.956  0.3678  0.7657  1.0712
  555TMC3     C 8289   3.736   3.427  15.709  0.3506  0.6560  0.3861
  555TMC3     O 8290   3.699   3.526  15.775 -1.1444 -0.1350  0.3548
  555TMC3     H 8291   3.818   3.467  15.948  1.8875  0.2736  0.1221
  555TMC3    H1 8292   3.797   3.166  15.650 -1.4900 -0.0478 -0.3582
  555TMC3    H2 8293   4.003   3.081  16.017 -1.4107 -0.4436  1.0080
  555TMC3    C7 8294   3.954   2.995  15.772  0.2598  0.6436 -0.5927
  555TMC3    C8 8295   3.951   3.327  16.134 -0.1765  0.1368  0.4627
  555TMC3    O1 8296   3.989   2.913  15.857 -0.4692 -0.1506 -0.3280
  555TMC3    O2 8297   3.883   3.421  16.169 -0.0137 -0.6261 -0.0909
  556MPD2     C 8298   1.844   0.684  11.038 -0.0918  0.1427  0.4705
  556MPD2    C1 8299   1.874   0.570  11.116 -0.3696  0.4377  0.5388
  556MPD2    C2 8300   1.863   0.445  11.074 -0.0611  0.3907 -0.0944
  556MPD2    C3 8301   1.805   0.424  10.954 -0.4516 -0.2518  0.1293
  556MPD2    C4 8302   1.756   0.534  10.877 -0.3501  0.1458  0.4671
  556MPD2    C5 8303   1.781   0.665  10.918  0.0081  0.2608  0.0053
  556MPD2     H 8304   1.900   0.358  11.126  0.9033  2.2578  2.3026
  556MPD2    H1 8305   1.693   0.517  10.791 -0.8193  2.5541  0.3487
  556MPD2    H2 8306   1.845   0.785  11.076 -0.3112  1.2057 -2.3307
  556MPD2    H3 8307   1.738   0.749  10.864  1.4382  2.0002  1.5712
  556MPD2     N 8308   1.810   0.290  10.903 -0.5474  0.1486 -0.2982
  556MPD2    H5 8309   1.831   0.214  10.967 -3.1180 -0.3855 -0.0864
  556MPD2    N1 8310   1.935   0.580  11.243 -0.2840  1.4331 -0.3249
  556MPD2    H7 8311   1.954   0.492  11.289 -0.3303  2.1976  1.1312
  557TMC3    C1 8312   1.827   0.127  10.734 -0.8272  0.0499  0.1793
  557TMC3    C2 8313   1.807   0.092  10.601 -0.4562 -0.6334  0.1685
  557TMC3    C3 8314   1.800   4.692  10.566 -0.6465  0.0494 -0.3842
  557TMC3    C4 8315   1.856   0.030  10.827  0.0238  0.6721 -0.0338
  557TMC3    C5 8316   1.852   4.632  10.792 -0.0183  0.5130 -0.4976
  557TMC3    C6 8317   1.810   4.598  10.665  1.0083 -0.2137  0.4710
  557TMC3     C 8318   1.789   0.261  10.772 -1.0123  0.7910 -1.4618
  557TMC3     O 8319   1.767   0.339  10.681  0.3719 -0.3679  0.4841
  557TMC3     H 8320   1.788   0.167  10.526  3.2451 -1.2651 -1.4178
  557TMC3    H1 8321   1.861   0.053  10.933 -0.2516  1.5624 -0.2182
  557TMC3    H2 8322   1.785   4.494  10.649 -1.1352  0.2768  0.6207
  557TMC3    C7 8323   1.859   4.537  10.900 -0.3487 -1.0547 -0.4092
  557TMC3    C8 8324   1.752   4.667  10.430 -0.0019  0.2824 -0.8863
  557TMC3    O1 8325   1.792   4.434  10.888  0.4256  0.3205  0.5003
  557TMC3    O2 8326   1.697   0.036  10.384 -0.1845 -0.0949 -0.9501
  558TMC3    C1 8327   4.698   2.255  10.283  0.3541 -0.4248  0.3025
  558TMC3    C2 8328   4.575   2.213  10.324  0.3833 -0.0974  0.1329
  558TMC3    C3 8329   4.469   2.236  10.249 -0.5889  0.5750  0.3456
  558TMC3    C4 8330   4.712   2.337  10.178  0.4278  0.7117  0.3061
  558TMC3    C5 8331   4.604   2.365  10.104 -0.1484 -0.0978  0.3926
  558TMC3    C6 8332   4.484   2.302  10.130  0.6197  0.2238 -0.1903
  558TMC3     C 8333   0.077   2.239  10.375  0.8050 -0.1590  0.1334
  558TMC3     O 8334   0.164   2.325  10.374  0.5008 -0.2051 -0.1639
  558TMC3     H 8335   4.574   2.144  10.408  3.6352 -0.0295  0.2623
  558TMC3    H1 8336   0.075   2.376  10.147  0.9715  0.8980  2.2237
  558TMC3    H2 8337   4.396   2.314  10.068  1.0297  0.6393 -0.6952
  558TMC3    C7 8338   4.617   2.478  10.019  0.6206  0.1158 -0.3087
  558TMC3    C8 8339   4.333   2.217  10.303 -0.2778  0.0217 -0.4890
  558TMC3    O1 8340   4.731   2.520  10.002  0.0667 -0.1246 -0.7064
  558TMC3    O2 8341   4.238   2.220  10.230 -0.5977 -0.3007  0.2262
  559MPD2     C 8342   4.328   3.361  10.794 -0.2803 -0.3124 -0.0103
  559MPD2    C1 8343   4.266   3.305  10.902 -0.2214  0.1194  0.1358
  559MPD2    C2 8344   4.341   3.269  11.012 -0.0646 -0.7303 -0.3862
  559MPD2    C3 8345   4.474   3.296  11.017  0.6362  0.3780 -0.0404
  559MPD2    C4 8346   4.528   3.360  10.907 -0.4197  0.2576  0.1869
  559MPD2    C5 8347   4.462   3.385  10.794 -0.4291  0.0586  0.4926
  559MPD2     H 8348   4.295   3.213  11.092  1.5342 -1.7079 -0.1552
  559MPD2    H1 8349   4.632   3.391  10.901 -0.4066  0.1391 -0.2481
  559MPD2    H2 8350   4.273   3.388  10.705  1.9596  2.8280 -0.4294
  559MPD2    H3 8351   4.517   3.416  10.707 -0.3456 -1.6477 -0.0563
  559MPD2     N 8352   4.552   3.239  11.124  0.4605  0.6695  0.3910
  559MPD2    H5 8353   4.510   3.184  11.198 -0.6885  0.0482 -0.7241
  559MPD2    N1 8354   4.126   3.285  10.890 -0.7909  0.0017  0.0772
  559MPD2    H7 8355   4.079   3.328  10.812 -0.0475  0.2635 -0.2253
  560TMC3    C1 8356   0.008   3.169  11.225 -0.3640 -0.1444 -0.6145
  560TMC3    C2 8357   4.699   3.036  11.217  0.4230  0.1952  0.4089
  560TMC3    C3 8358   0.033   2.951  11.303 -0.4645 -0.6692  0.4049
  560TMC3    C4 8359   0.089   3.219  11.321 -0.0759 -0.0105 -0.7433
  560TMC3    C5 8360   0.149   3.128  11.400 -0.7603 -0.5218 -0.0343
  560TMC3    C6 8361   0.111   2.997  11.398 -0.1224 -0.6724 -0.7950
  560TMC3     C 8362   4.685   3.262  11.134 -0.4844  0.3976  0.1142
  560TMC3     O 8363   0.028   3.328  11.069  0.2329  0.1432 -0.0220
  560TMC3     H 8364   4.645   3.005  11.129  0.8901  0.1050  0.1550
  560TMC3    H1 8365   0.109   3.325  11.336 -1.3934  0.2252 -0.7243
  560TMC3    H2 8366   0.149   2.926  11.471 -0.1721  1.0056  0.8640
  560TMC3    C7 8367   0.274   3.155  11.470 -0.5594  0.4824  0.0827
  560TMC3    C8 8368   0.006   2.813  11.286  0.3293 -0.3040  0.6190
  560TMC3    O1 8369   0.309   3.084  11.561 -0.2309 -0.5894 -0.0852
  560TMC3    O2 8370   4.640   2.794  11.216  0.0371 -0.2595  0.0967
  561TMC3    C1 8371   2.105   2.483  11.184 -0.5288  0.4385  0.2892
  561TMC3    C2 8372   2.035   2.385  11.247 -0.0492 -0.2558  0.5160
  561TMC3    C3 8373   1.918   2.425  11.309  0.0905 -0.2497  0.5993
  561TMC3    C4 8374   2.059   2.614  11.176 -0.6876  1.0341 -0.2938
  561TMC3    C5 8375   1.929   2.633  11.212  0.0696 -0.0427  0.3673
  561TMC3    C6 8376   1.852   2.542  11.274 -0.1376  0.5975  0.1808
  561TMC3     C 8377   2.233   2.458  11.125  0.0143 -0.3109  0.0883
  561TMC3     O 8378   2.289   2.527  11.041  0.2527  0.0589  0.1769
  561TMC3     H 8379   2.074   2.284  11.257  0.3892  0.0177  1.5273
  561TMC3    H1 8380   2.119   2.685  11.120  0.0675  0.1162 -0.6525
  561TMC3    H2 8381   1.755   2.574  11.309  0.3532  0.0354  2.0631
  561TMC3    C7 8382   1.910   2.765  11.274 -0.1576 -0.9458  0.1858
  561TMC3    C8 8383   1.837   2.318  11.355  0.8220  0.2450  0.6127
  561TMC3    O1 8384   1.803   2.815  11.303 -0.0820 -0.5776 -1.2789
  561TMC3    O2 8385   1.852   2.214  11.291 -0.4107  0.5356  0.1008
  562TMC3    C1 8386   3.816   3.316  16.975 -0.5481 -0.5514  0.6472
  562TMC3    C2 8387   3.786   3.443  16.941  0.3534 -0.1314  0.3752
  562TMC3    C3 8388   3.716   3.469  16.824  0.4155  0.5337 -1.0263
  562TMC3    C4 8389   3.810   3.215  16.883  0.2737  0.1823  0.0822
  562TMC3    C5 8390   3.719   3.234  16.782 -0.2895 -0.2090  0.5857
  562TMC3    C6 8391   3.672   3.363  16.751 -0.1162 -0.3119 -0.2631
  562TMC3     C 8392   3.903   3.293  17.087 -0.0962 -0.0933 -0.0034
  562TMC3     O 8393   3.988   3.209  17.069 -0.0704 -0.2219  0.4221
  562TMC3     H 8394   3.812   3.533  16.995  0.1385  0.0793  0.1265
  562TMC3    H1 8395   3.831   3.113  16.915 -2.0595 -0.1703  0.4864
  562TMC3    H2 8396   3.598   3.380  16.674 -0.2047 -0.3941 -0.1963
  562TMC3    C7 8397   3.694   3.132  16.685 -0.3689  1.0303  0.1164
  562TMC3    C8 8398   3.735   3.596  16.756  0.1538  0.1754  0.0146
  562TMC3    O1 8399   3.605   3.149  16.602 -0.1636  0.1537  0.1602
  562TMC3    O2 8400   3.788   3.679  16.829 -0.3402 -0.0157  0.2797
  563MPD2     C 8401   1.483   0.255  15.879 -0.3514  0.0556  0.3316
  563MPD2    C1 8402   1.517   0.258  16.013  0.1431 -0.2345  0.4239
  563MPD2    C2 8403   1.627   0.178  16.047  0.3036  0.5194 -0.1422
  563MPD2    C3 8404   1.697   0.099  15.967 -0.5387 -0.0225  0.2671
  563MPD2    C4 8405   1.661   0.100  15.833 -0.4483 -0.3925  0.5770
  563MPD2    C5 8406   1.552   0.166  15.794 -0.0698  0.4014  0.1134
  563MPD2     H 8407   1.642   0.182  16.155 -2.4887  0.2845  0.2497
  563MPD2    H1 8408   1.699   0.017  15.774  1.9109  0.3227  1.0734
  563MPD2    H2 8409   1.402   0.309  15.831  0.1085 -1.0311 -1.6500
  563MPD2    H3 8410   1.518   0.165  15.691 -0.5399  3.4345  0.2214
  563MPD2     N 8411   1.786   0.008  16.023  0.2361  0.3592 -0.0183
  563MPD2    H5 8412   1.804   0.010  16.123  0.2799  2.2995 -0.0511
  563MPD2    N1 8413   1.444   0.342  16.101  0.2038 -0.2642  0.4756
  563MPD2    H7 8414   1.353   0.383  16.083  0.3267 -0.1864  0.0373
  564TMC3    C1 8415   1.380   0.328  16.327  0.9242 -0.3158 -0.2666
  564TMC3    C2 8416   1.272   0.269  16.266 -0.5968 -0.6690  0.3319
  564TMC3    C3 8417   1.219   0.159  16.330  0.3912 -0.1917  0.8662
  564TMC3    C4 8418   1.442   0.281  16.441 -0.4587 -0.2078  0.1177
  564TMC3    C5 8419   1.385   0.174  16.502  0.3830 -0.0927  0.3593
  564TMC3    C6 8420   1.278   0.110  16.445 -0.1978  0.0269 -0.2203
  564TMC3     C 8421   1.480   0.362  16.232  0.4222  0.0448  0.3289
  564TMC3     O 8422   1.598   0.363  16.266 -0.1577  0.0584 -0.5022
  564TMC3     H 8423   1.222   0.316  16.181  0.5765 -2.4286 -1.3279
  564TMC3    H1 8424   1.534   0.326  16.478  0.1492 -2.4046  1.2822
  564TMC3    H2 8425   1.224   0.028  16.491 -0.8189 -1.1319 -3.0404
  564TMC3    C7 8426   1.483   0.077  16.545 -1.2840 -0.0153 -0.0811
  564TMC3    C8 8427   1.187   0.046  16.246 -0.0786  0.1193 -1.3762
  564TMC3    O1 8428   1.583   0.121  16.603 -0.4207 -0.2920  0.1456
  564TMC3    O2 8429   1.224   4.671  16.292 -0.4204 -0.1683 -0.3786
  565TMC3    C1 8430   1.799   1.675  10.203 -0.2762  1.0468  0.5542
  565TMC3    C2 8431   1.789   1.586  10.308 -0.1165  0.3581  0.3944
  565TMC3    C3 8432   1.667   1.520  10.336 -0.3677 -0.8028 -0.0273
  565TMC3    C4 8433   1.689   1.709  10.131 -0.2650 -0.1422 -0.1897
  565TMC3    C5 8434   1.570   1.658  10.180  0.5941 -0.7073 -0.0636
  565TMC3    C6 8435   1.551   1.558  10.275 -0.2790 -0.3165  0.1142
  565TMC3     C 8436   1.924   1.731  10.165 -0.5616 -0.2787  0.2377
  565TMC3     O 8437   1.917   1.809  10.071  0.1330 -0.8468  0.1682
  565TMC3     H 8438   1.870   1.545  10.366  0.1288 -0.8741 -0.8119
  565TMC3    H1 8439   1.695   1.783  10.052  0.5298  1.4376  1.3698
  565TMC3    H2 8440   1.461   1.526  10.324  0.7598 -0.0987  2.1632
  565TMC3    C7 8441   1.453   1.732  10.140 -0.8328 -0.0582  0.7490
  565TMC3    C8 8442   1.687   1.393  10.405 -0.0993  0.0690  0.2756
  565TMC3    O1 8443   1.468   1.842  10.085 -0.2917  0.2172 -0.2671
  565TMC3    O2 8444   1.785   1.377  10.481 -0.3419 -0.1288 -0.4235
  566MPD2     C 8445   3.460   2.550  14.582  0.3632  0.3074  0.6449
  566MPD2    C1 8446   3.370   2.614  14.495 -0.6369 -0.3831 -0.1103
  566MPD2    C2 8447   3.238   2.566  14.504  0.3145 -0.3073 -0.4284
  566MPD2    C3 8448   3.196   2.469  14.591 -0.5579  0.3882 -0.3411
  566MPD2    C4 8449   3.291   2.415  14.680  0.9158 -0.4787  0.2594
  566MPD2    C5 8450   3.421   2.460  14.672  0.8633  0.2250 -0.4185
  566MPD2     H 8451   3.163   2.606  14.436 -0.3394  1.3123  1.2305
  566MPD2    H1 8452   3.259   2.334  14.746 -1.7835  0.0008 -0.4520
  566MPD2    H2 8453   3.565   2.577  14.578  0.9969 -2.4568 -1.3626
  566MPD2    H3 8454   3.492   2.410  14.737 -0.4658 -1.1417 -0.0207
  566MPD2     N 8455   3.064   2.414  14.592  0.4677  0.2924 -0.2115
  566MPD2    H5 8456   3.027   2.388  14.683  3.3041  1.8454  1.3872
  566MPD2    N1 8457   3.418   2.715  14.412 -0.0109  0.3057  0.5398
  566MPD2    H7 8458   3.516   2.738  14.427  0.1911 -0.1343 -0.1106
  567TMC3    C1 8459   3.438   2.878  14.257  0.6346 -0.2440  0.4050
  567TMC3    C2 8460   3.427   2.915  14.129  0.2357 -0.1413 -0.3771
  567TMC3    C3 8461   3.500   3.024  14.084  0.0562  0.2916  0.1668
  567TMC3    C4 8462   3.505   2.953  14.346 -0.6968 -0.7082 -0.7809
  567TMC3    C5 8463   3.562   3.074  14.301  0.4196 -0.0467 -0.0518
  567TMC3    C6 8464   3.565   3.098  14.169 -0.2843 -0.1377 -0.4594
  567TMC3     C 8465   3.357   2.772  14.304  0.1668 -0.6368  0.0640
  567TMC3     O 8466   3.255   2.742  14.242 -0.3063 -0.7215  0.0465
  567TMC3     H 8467   3.379   2.847  14.059 -0.5631 -0.0588  0.0955
  567TMC3    H1 8468   3.476   2.941  14.450 -1.1529 -0.1906 -0.8461
  567TMC3    H2 8469   3.596   3.198  14.140  0.9164 -0.4987 -0.3987
  567TMC3    C7 8470   3.665   3.140  14.386 -0.1613  0.2172 -0.0676
  567TMC3    C8 8471   3.453   3.074  13.963 -0.4864  0.2634  0.8800
  567TMC3    O1 8472   3.685   3.262  14.361  0.3095  0.0329 -0.3463
  567TMC3    O2 8473   3.367   3.006  13.906 -0.7511 -0.0751  0.2278
  568MPD2     C 8474   1.508   3.548  16.266  0.2940 -0.6745 -0.4715
  568MPD2    C1 8475   1.417   3.585  16.364  0.7841  0.1850 -0.4602
  568MPD2    C2 8476   1.327   3.685  16.339  0.8022  0.0817 -1.2357
  568MPD2    C3 8477   1.322   3.745  16.219 -0.1110  0.4206 -0.4629
  568MPD2    C4 8478   1.414   3.712  16.118 -0.6337  0.8488 -0.8777
  568MPD2    C5 8479   1.496   3.606  16.146  0.2331  0.2315 -0.3387
  568MPD2     H 8480   1.260   3.708  16.421  2.3969  0.1617  0.0581
  568MPD2    H1 8481   1.406   3.732  16.012 -0.1548 -0.8272 -1.2416
  568MPD2    H2 8482   1.577   3.464  16.270 -1.9872 -2.5571 -0.9861
  568MPD2    H3 8483   1.562   3.579  16.064  0.3861  0.0289 -0.1458
  568MPD2     N 8484   1.219   3.840  16.195 -0.7143 -0.0924 -0.4033
  568MPD2    H5 8485   1.146   3.838  16.265 -0.1446 -1.4012  0.1564
  568MPD2    N1 8486   1.424   3.508  16.481  0.2041  0.7782  0.5127
  568MPD2    H7 8487   1.485   3.427  16.490 -0.8706 -0.3711 -2.7839
  569TMC3    C1 8488   1.099   4.009  16.084  0.1337  0.0727 -0.8695
  569TMC3    C2 8489   1.041   4.046  16.208  1.2670  0.7191 -0.8651
  569TMC3    C3 8490   0.946   4.139  16.206  0.0088  0.3975  0.3299
  569TMC3    C4 8491   1.063   4.067  15.966  0.4181  0.1053 -0.7572
  569TMC3    C5 8492   0.960   4.161  15.974 -0.6528 -0.2386  0.5226
  569TMC3    C6 8493   0.899   4.194  16.090  0.5057  0.4564 -0.0564
  569TMC3     C 8494   1.212   3.924  16.082  0.1718  0.2153 -0.0833
  569TMC3     O 8495   1.292   3.931  15.988 -0.5283 -1.2473  0.1903
  569TMC3     H 8496   1.070   4.005  16.304 -0.7198 -0.2752 -0.6931
  569TMC3    H1 8497   1.115   4.065  15.871  2.6651  1.1175  0.4534
  569TMC3    H2 8498   0.819   4.267  16.100  1.8290  1.9763 -0.4987
  569TMC3    C7 8499   0.983   4.280  15.892  0.3020  0.6100  0.0180
  569TMC3    C8 8500   0.914   4.209  16.331 -0.2773 -0.9341  0.6786
  569TMC3    O1 8501   0.963   4.280  15.774 -0.0889 -0.1830  0.4062
  569TMC3    O2 8502   0.799   4.239  16.358 -0.1130  0.0962  0.1272
  570TMC3    C1 8503   0.363   2.014  16.251 -0.4208 -0.6593 -0.3025
  570TMC3    C2 8504   0.405   2.019  16.124 -0.0098 -0.3028 -0.2582
  570TMC3    C3 8505   0.501   2.114  16.095  0.3121  0.7416 -0.6462
  570TMC3    C4 8506   0.402   2.109  16.351  0.3703  0.3328 -1.3264
  570TMC3    C5 8507   0.502   2.199  16.315 -0.0489  0.0383 -0.4097
  570TMC3    C6 8508   0.558   2.200  16.192  0.2440 -0.7387 -0.6841
  570TMC3     C 8509   0.258   1.914  16.272  0.3073 -0.1896 -0.1581
  570TMC3     O 8510   0.205   1.863  16.177  0.0847 -0.0954 -0.3817
  570TMC3     H 8511   0.363   1.955  16.048  0.3676 -0.9235  0.0574
  570TMC3    H1 8512   0.362   2.108  16.451  0.2474 -3.6445 -1.4094
  570TMC3    H2 8513   0.642   2.259  16.157 -2.2290  3.0206 -0.1973
  570TMC3    C7 8514   0.545   2.293  16.420 -0.5161  0.5793  0.1744
  570TMC3    C8 8515   0.580   2.110  15.974 -0.1472 -0.4652  0.2593
  570TMC3    O1 8516   0.498   2.282  16.531  0.4331  0.8191  0.4145
  570TMC3    O2 8517   0.692   2.155  15.969 -0.2451 -0.0762 -0.7941
  571MPD2     C 8518   2.737   4.611   0.138 -0.2909  0.4082  0.0360
  571MPD2    C1 8519   2.753   4.498   0.217  0.0272  0.3023  0.0525
  571MPD2    C2 8520   2.881   4.440   0.219 -0.1844  0.1062 -0.1104
  571MPD2    C3 8521   2.987   4.504   0.149 -0.7267  0.8769  0.5549
  571MPD2    C4 8522   2.970   4.623   0.079  0.6617  0.4431  1.0462
  571MPD2    C5 8523   2.844   4.678   0.079  0.3746 -0.5285  0.1647
  571MPD2     H 8524   2.907   4.360   0.288 -0.8085  0.2635  0.3044
  571MPD2    H1 8525   3.057   4.668   0.032 -1.5021  0.8751 -2.5112
  571MPD2    H2 8526   2.637   4.649   0.121 -0.5803  0.5366  2.0398
  571MPD2    H3 8527   2.823   0.026   0.010  1.0453 -0.0800  0.4897
  571MPD2     N 8528   3.127   4.469   0.162  0.1494  0.4317 -0.5595
  571MPD2    H5 8529   3.190   4.517   0.100  1.9364 -0.9356  0.1963
  571MPD2    N1 8530   2.640   4.445   0.293 -0.1605  0.4331  0.0413
  571MPD2    H7 8531   2.561   4.507   0.282  0.1434  1.4715  3.7159
  572TMC3    C1 8532   3.325   4.374   0.244  0.2378 -0.4338  0.9125
  572TMC3    C2 8533   3.397   4.260   0.269  0.3101 -0.8692  0.7428
  572TMC3    C3 8534   3.515   4.278   0.328  0.9852  0.1486  0.1548
  572TMC3    C4 8535   3.376   4.499   0.235 -0.0519 -0.5674 -0.8812
  572TMC3    C5 8536   3.498   4.513   0.286 -0.7434  0.4378  0.4460
  572TMC3    C6 8537   3.570   4.405   0.332  0.4564  0.2842 -0.4145
  572TMC3     C 8538   3.183   4.354   0.221 -0.0738 -0.4050 -0.0398
  572TMC3     O 8539   3.124   4.257   0.260  0.2129 -0.1540 -0.5182
  572TMC3     H 8540   3.342   4.171   0.298  1.6309 -1.7100  0.6423
  572TMC3    H1 8541   3.320   4.588   0.211 -0.2200 -0.0908  1.2718
  572TMC3    H2 8542   3.673   4.415   0.366  0.6815 -2.1986 -0.3559
  572TMC3    C7 8543   3.562   4.640   0.247 -1.0418  0.4934 -0.2117
  572TMC3    C8 8544   3.576   4.173   0.409  0.9752 -0.4120  0.4335
  572TMC3    O1 8545   3.506   4.693   0.154  0.6207 -0.1028 -0.3610
  572TMC3    O2 8546   3.548   4.058   0.373 -0.3236 -0.1828  0.2916
  573MPD2     C 8547   4.551   4.483   1.071  0.1425  0.0989 -0.7632
  573MPD2    C1 8548   4.499   4.560   0.979 -0.2012  0.6239  0.3721
  573MPD2    C2 8549   4.454   4.498   0.859 -0.2873 -0.1281  0.2437
  573MPD2    C3 8550   4.461   4.359   0.837  0.3203  0.1127 -0.2222
  573MPD2    C4 8551   4.532   4.283   0.933  0.5145 -0.1713  0.0666
  573MPD2    C5 8552   4.580   4.356   1.047  0.1197  0.7601  0.3749
  573MPD2     H 8553   4.401   4.558   0.786  3.2092  1.6898 -0.8506
  573MPD2    H1 8554   4.553   4.177   0.924 -0.7725 -0.3862 -0.3812
  573MPD2    H2 8555   4.571   4.524   1.169 -0.2368  0.0626 -0.6702
  573MPD2    H3 8556   4.629   4.308   1.131  1.6153 -2.5184 -2.3341
  573MPD2     N 8557   4.406   4.299   0.721  0.1127  0.1867  0.5392
  573MPD2    H5 8558   4.430   4.203   0.696 -2.8338 -0.7561  1.3209
  573MPD2    N1 8559   4.492   4.701   1.007  0.1285 -0.4360  0.5219
  573MPD2    H7 8560   4.526   4.729   1.099 -0.4157 -0.0667  0.6136
  574TMC3    C1 8561   4.321   4.246   0.529 -0.4154 -0.3371  0.3662
  574TMC3    C2 8562   4.200   4.233   0.462  0.6143  0.2256  0.4543
  574TMC3    C3 8563   4.181   4.112   0.391  0.3843 -0.5268 -0.6511
  574TMC3    C4 8564   4.424   4.156   0.522  0.2997  1.3447 -0.0281
  574TMC3    C5 8565   4.407   4.047   0.439 -0.4540 -0.2847 -0.3753
  574TMC3    C6 8566   4.286   4.017   0.380  0.0124  0.1261 -0.0993
  574TMC3     C 8567   4.329   4.351   0.622 -0.5362 -0.1817  0.7803
  574TMC3     O 8568   4.258   4.454   0.613 -0.6552  0.0672  0.4070
  574TMC3     H 8569   4.110   4.287   0.486 -0.5063 -0.4540 -2.1900
  574TMC3    H1 8570   4.524   4.191   0.548 -0.2805  1.6715  1.7500
  574TMC3    H2 8571   4.288   3.926   0.321  1.5518 -0.0038  0.1528
  574TMC3    C7 8572   4.530   3.965   0.415  0.5807 -0.2197 -0.0691
  574TMC3    C8 8573   4.065   4.086   0.303  0.0231 -0.2747  0.5502
  574TMC3    O1 8574   4.615   3.984   0.499 -0.2880 -0.3229  0.0234
  574TMC3    O2 8575   4.043   3.973   0.265 -0.2310  0.7979  0.0974
  575TMC3    C1 8576   1.776   1.070  11.134 -0.7785 -0.4526  0.3195
  575TMC3    C2 8577   1.731   0.994  11.234 -0.3235  0.4919 -0.1459
  575TMC3    C3 8578   1.621   0.915  11.210  0.2291  0.7748  0.0565
  575TMC3    C4 8579   1.711   1.078  11.018  0.5529  0.1148  0.7433
  575TMC3    C5 8580   1.599   1.003  10.997  0.7618 -0.2363  0.0922
  575TMC3    C6 8581   1.556   0.920  11.094 -0.6676 -1.2502 -0.3665
  575TMC3     C 8582   1.889   1.165  11.157  0.2235  0.2212  0.0788
  575TMC3     O 8583   1.897   1.265  11.088 -0.4022 -0.1952 -0.5087
  575TMC3     H 8584   1.774   0.999  11.334 -0.1375  2.0129 -0.3082
  575TMC3    H1 8585   1.750   1.152  10.948 -1.4378 -1.6437 -2.2427
  575TMC3    H2 8586   1.463   0.864  11.100 -1.5173  0.0539 -1.5406
  575TMC3    C7 8587   1.556   0.967  10.863 -0.3136  0.8400  0.2999
  575TMC3    C8 8588   1.578   0.815  11.307  0.1087  0.4931 -0.0225
  575TMC3    O1 8589   1.479   0.872  10.861  0.2810  0.0429 -0.5718
  575TMC3    O2 8590   1.531   0.707  11.270 -0.2610 -0.3760  0.2570
  576MPD2     C 8591   1.668   2.153  12.710  0.0466  0.0568  0.0492
  576MPD2    C1 8592   1.613   2.279  12.688 -0.3474  0.7175  0.4578
  576MPD2    C2 8593   1.616   2.361  12.798  1.0456 -0.6494  0.3271
  576MPD2    C3 8594   1.677   2.328  12.920 -0.0663 -0.0575 -0.0801
  576MPD2    C4 8595   1.737   2.199  12.939  0.8891  0.5589  0.4841
  576MPD2    C5 8596   1.725   2.109  12.831 -0.2720  0.4427 -0.0490
  576MPD2     H 8597   1.576   2.462  12.800  2.2040 -0.1984  0.4143
  576MPD2    H1 8598   1.782   2.156  13.028  0.9195  0.1876  0.2918
  576MPD2    H2 8599   1.681   2.079  12.632  0.2096 -0.5835  0.6714
  576MPD2    H3 8600   1.783   2.018  12.831  0.9616  1.2313 -1.6166
  576MPD2     N 8601   1.671   2.426  13.018 -0.2380 -0.0283  0.1194
  576MPD2    H5 8602   1.608   2.503  13.000  0.6604  1.0063  1.4899
  576MPD2    N1 8603   1.573   2.324  12.561 -0.1230  0.1408 -0.0146
  576MPD2    H7 8604   1.551   2.423  12.559  0.3956  0.2809  0.9833
  577TMC3    C1 8605   1.539   2.329  12.329 -0.1921 -0.0481  0.0242
  577TMC3    C2 8606   1.503   2.254  12.221 -0.2887 -0.7360 -0.1527
  577TMC3    C3 8607   1.488   2.315  12.104 -0.1595 -0.7452 -0.8979
  577TMC3    C4 8608   1.555   2.466  12.324 -0.0872  0.2245  0.4459
  577TMC3    C5 8609   1.523   2.526  12.203  0.2423  0.3278 -0.2051
  577TMC3    C6 8610   1.481   2.456  12.093  0.1277 -0.0585 -0.1148
  577TMC3     C 8611   1.585   2.255  12.444 -0.6907  0.6813  0.0425
  577TMC3     O 8612   1.620   2.140  12.427 -0.1813 -0.2907 -0.5271
  577TMC3     H 8613   1.507   2.146  12.222  0.3332 -0.6826  2.2973
  577TMC3    H1 8614   1.607   2.515  12.406 -2.3183  0.0472  1.9645
  577TMC3    H2 8615   1.436   2.487  12.000  0.3159 -0.4612 -0.3397
  577TMC3    C7 8616   1.517   2.669  12.199 -0.0406  0.1648 -0.0242
  577TMC3    C8 8617   1.495   2.229  11.986 -0.0182 -0.3468  0.5044
  577TMC3    O1 8618   1.519   2.723  12.308  0.3433  0.1241 -0.0321
  577TMC3    O2 8619   1.501   2.109  12.003  0.9068 -0.0762 -0.2720
  578MPD2     C 8620   0.416   2.624   1.148  0.5024  0.6041 -0.0916
  578MPD2    C1 8621   0.509   2.557   1.075 -0.0090 -0.1967  0.0942
  578MPD2    C2 8622   0.641   2.553   1.122 -0.2054 -0.4735 -0.3393
  578MPD2    C3 8623   0.665   2.623   1.239  0.0369 -0.2090  0.2546
  578MPD2    C4 8624   0.573   2.684   1.314  0.1001 -0.4074  0.1190
  578MPD2    C5 8625   0.441   2.687   1.266 -0.0514 -0.2296 -0.2843
  578MPD2     H 8626   0.724   2.500   1.077  0.8866  1.4758 -0.6174
  578MPD2    H1 8627   0.590   2.756   1.393 -2.9905  0.1870  0.2675
  578MPD2    H2 8628   0.313   2.622   1.113  0.1466  0.6195  0.9826
  578MPD2    H3 8629   0.361   2.737   1.318 -0.1197  0.1406 -0.7411
  578MPD2     N 8630   0.797   2.618   1.289 -0.6913 -0.5204  0.3386
  578MPD2    H5 8631   0.857   2.546   1.248  0.4077  0.8205 -0.4108
  578MPD2    N1 8632   0.462   2.501   0.953  0.2760 -0.5599  0.1023
  578MPD2    H7 8633   0.366   2.524   0.928  0.9875  1.6174 -0.6085
  579TMC3    C1 8634   1.001   2.682   1.372  0.0849  0.1206  0.4092
  579TMC3    C2 8635   1.074   2.731   1.475 -0.4154  0.9795  0.1461
  579TMC3    C3 8636   1.210   2.723   1.460 -0.2198 -0.0408  0.3743
  579TMC3    C4 8637   1.055   2.624   1.255  0.3794  0.3479  0.0514
  579TMC3    C5 8638   1.192   2.592   1.263  0.1207 -0.4182  0.2322
  579TMC3    C6 8639   1.268   2.651   1.357  0.3925  0.2932 -0.0828
  579TMC3     C 8640   0.857   2.702   1.376  0.1262  0.6661  0.4699
  579TMC3     O 8641   0.822   2.796   1.448  0.2756  0.0945 -0.0828
  579TMC3     H 8642   1.025   2.779   1.559 -2.0927  1.8663 -1.3616
  579TMC3    H1 8643   1.005   2.614   1.159 -0.5734 -0.8129  0.6658
  579TMC3    H2 8644   1.367   2.613   1.375  0.5305  0.3506 -0.7376
  579TMC3    C7 8645   1.255   2.506   1.164 -0.0239 -0.4305  0.3112
  579TMC3    C8 8646   1.291   2.788   1.562  0.2433  1.1312 -0.8842
  579TMC3    O1 8647   1.379   2.521   1.156 -0.3005 -0.3605  0.2731
  579TMC3    O2 8648   1.238   2.852   1.654  0.3993  0.1749 -0.1122
  580TMC3    C1 8649   4.317   1.448  12.578  0.6756  0.0713  0.4797
  580TMC3    C2 8650   4.429   1.512  12.609 -0.5047 -0.2730 -0.4547
  580TMC3    C3 8651   4.544   1.441  12.627  0.1479 -1.0520  0.4080
  580TMC3    C4 8652   4.306   1.312  12.581 -0.2721 -0.3461  0.3567
  580TMC3    C5 8653   4.417   1.242  12.600  0.1431  0.6568  0.3421
  580TMC3    C6 8654   4.535   1.296  12.620  0.0577  0.2142  0.2946
  580TMC3     C 8655   4.228   1.531  12.501 -0.1957  0.3323 -0.1534
  580TMC3     O 8656   4.267   1.641  12.457 -0.4646  0.3486  0.1407
  580TMC3     H 8657   4.433   1.620  12.618 -0.3234 -0.1002 -2.6214
  580TMC3    H1 8658   4.216   1.256  12.558 -1.3932  0.4213  2.8288
  580TMC3    H2 8659   4.626   1.236  12.616 -1.3874 -1.7829 -1.9262
  580TMC3    C7 8660   4.412   1.098  12.612  0.2166 -0.0419 -0.0206
  580TMC3    C8 8661   4.652   1.494  12.544  0.1043 -0.2339 -0.6491
  580TMC3    O1 8662   4.493   1.051  12.696  0.5033 -0.0635  0.3724
  580TMC3    O2 8663   4.684   1.421  12.450  0.3414 -0.2127  0.2443
  581MPD2     C 8664   2.577   1.030  15.216 -0.8698  0.3185  0.7477
  581MPD2    C1 8665   2.527   1.104  15.321  0.0133  0.0041  0.2079
  581MPD2    C2 8666   2.396   1.152  15.307 -0.0309  0.0084  0.4211
  581MPD2    C3 8667   2.317   1.139  15.190 -0.9234 -0.1847 -0.3991
  581MPD2    C4 8668   2.377   1.071  15.087  0.5838 -0.2929 -0.2509
  581MPD2    C5 8669   2.508   1.025  15.098  0.4998  0.3200 -0.5110
  581MPD2     H 8670   2.353   1.198  15.395 -2.3162 -1.3080 -0.0111
  581MPD2    H1 8671   2.335   1.069  14.987  2.7206 -0.7755 -1.1366
  581MPD2    H2 8672   2.672   0.979  15.229 -1.8683 -1.8886 -0.4689
  581MPD2    H3 8673   2.548   0.968  15.015  2.0364  1.8169 -0.7949
  581MPD2     N 8674   2.183   1.192  15.189 -0.0686 -0.1858 -0.1573
  581MPD2    H5 8675   2.163   1.257  15.265 -0.6790 -0.2781 -0.2405
  581MPD2    N1 8676   2.604   1.111  15.440 -0.0794  0.7017  0.0354
  581MPD2    H7 8677   2.695   1.069  15.432 -1.0552 -1.5017  0.4383
  582TMC3    C1 8678   2.666   1.144  15.654  0.2908  0.3285 -0.4755
  582TMC3    C2 8679   2.660   1.226  15.766  0.2775  0.4785  0.0360
  582TMC3    C3 8680   2.703   1.174  15.884 -0.1660  0.2110  0.0909
  582TMC3    C4 8681   2.704   1.012  15.661 -0.5049 -0.3274  0.9676
  582TMC3    C5 8682   2.713   0.950  15.784 -0.1862  0.4292 -0.1374
  582TMC3    C6 8683   2.718   1.034  15.896  0.0178  0.2826 -0.1654
  582TMC3     C 8684   2.577   1.185  15.550 -0.5690 -1.4645  0.2257
  582TMC3     O 8685   2.485   1.258  15.574  0.1027 -0.1491  0.6167
  582TMC3     H 8686   2.623   1.328  15.758 -0.0600  0.4611  1.4222
  582TMC3    H1 8687   2.704   0.948  15.573  0.2602  0.0436  0.6969
  582TMC3    H2 8688   2.739   0.984  15.989  1.5706  0.3544 -0.4745
  582TMC3    C7 8689   2.760   0.812  15.786  0.1079  0.0873  0.2870
  582TMC3    C8 8690   2.659   1.243  16.001 -0.3999  1.3289  0.0085
  582TMC3    O1 8691   2.832   0.774  15.881 -0.5129 -0.0018  0.1111
  582TMC3    O2 8692   2.587   1.346  15.997  0.1498  0.4543  0.3807
  583MPD2     C 8693   2.527   2.706  17.345 -0.2140  0.2339  0.2267
  583MPD2    C1 8694   2.505   2.784  17.235  0.5309 -0.2788  0.0074
  583MPD2    C2 8695   2.439   2.902  17.248 -0.6329 -0.4110 -0.0655
  583MPD2    C3 8696   2.371   2.923  17.364 -0.3194  0.4925 -0.4128
  583MPD2    C4 8697   2.389   2.848  17.478 -0.1772  0.6807  0.6850
  583MPD2    C5 8698   2.470   2.731  17.466  0.0742 -0.4213 -0.5592
  583MPD2     H 8699   2.428   2.963  17.159 -0.6292 -0.7746 -0.3155
  583MPD2    H1 8700   2.347   2.875  17.574  3.3291  2.0051  1.8474
  583MPD2    H2 8701   2.588   2.617  17.336  1.1830  0.9697  2.2964
  583MPD2    H3 8702   2.493   2.669  17.552 -0.0172  1.2344  0.6779
  583MPD2     N 8703   2.283   3.034  17.358  0.4369 -0.2541 -0.5884
  583MPD2    H5 8704   2.275   3.093  17.276  0.1430 -2.1134 -1.8924
  583MPD2    N1 8705   2.578   2.768  17.114 -0.1556 -0.3088 -0.1260
  583MPD2    H7 8706   2.575   2.846  17.048  0.4168 -0.3927 -0.2598
  584TMC3    C1 8707   2.125   3.198  17.450  0.3787 -0.3082 -0.6775
  584TMC3    C2 8708   2.184   3.292  17.376 -0.5034  0.8123  1.1980
  584TMC3    C3 8709   2.199   3.415  17.435  0.4928  0.4067  0.7230
  584TMC3    C4 8710   2.062   3.227  17.570 -0.3863  0.2433 -0.1882
  584TMC3    C5 8711   2.060   3.356  17.615 -0.3848 -0.1333 -0.3675
  584TMC3    C6 8712   2.136   3.452  17.551 -0.4649 -0.4542 -0.4023
  584TMC3     C 8713   2.179   3.061  17.442 -0.3729  0.1599  0.9720
  584TMC3     O 8714   2.137   2.981  17.521  0.0718  1.3256  0.4741
  584TMC3     H 8715   2.229   3.276  17.279 -0.8937  0.2291  1.1134
  584TMC3    H1 8716   1.993   3.155  17.611  1.1177 -0.9338  0.2602
  584TMC3    H2 8717   2.135   3.557  17.575  2.1729 -1.2443  3.1397
  584TMC3    C7 8718   2.025   3.376   0.023  0.3107  0.4274 -0.5139
  584TMC3    C8 8719   2.230   3.527  17.350 -0.2972 -0.5195  0.5113
  584TMC3    O1 8720   1.996   3.281   0.098  0.3162  0.4482 -0.3565
  584TMC3    O2 8721   2.219   3.500  17.232 -0.1784 -0.4667  0.6282
  585MPD2     C 8722   2.210   2.062   0.273 -0.4750  0.4587  0.0176
  585MPD2    C1 8723   2.101   1.994   0.304 -0.2420 -0.8309 -0.2439
  585MPD2    C2 8724   2.016   1.945   0.207 -0.2817 -0.5504 -0.0109
  585MPD2    C3 8725   2.044   1.970   0.074  0.0404  0.3849 -0.4401
  585MPD2    C4 8726   2.154   2.043   0.043  0.7950  0.1337 -0.0331
  585MPD2    C5 8727   2.241   2.089   0.141  0.5618 -0.2500  0.6435
  585MPD2     H 8728   1.928   1.893   0.243 -2.1701  1.0389 -2.2915
  585MPD2    H1 8729   2.159   2.076  17.670 -1.6220 -0.1421 -0.2409
  585MPD2    H2 8730   2.283   2.102   0.342 -1.9378 -0.6025  2.1938
  585MPD2    H3 8731   2.333   2.141   0.119  0.6217  0.9806  3.7449
  585MPD2     N 8732   1.950   1.939  17.704 -0.2281 -0.0939  0.2190
  585MPD2    H5 8733   1.977   1.957  17.608 -0.7370 -1.2096 -0.1285
  585MPD2    N1 8734   2.077   1.962   0.438  0.2637 -0.2331  0.1644
  585MPD2    H7 8735   1.991   1.909   0.446  0.7986 -0.8903  1.4909
  586TMC3    C1 8736   1.742   1.883  17.621  0.0063  0.7594 -0.6658
  586TMC3    C2 8737   1.797   1.784  17.546 -1.0653 -0.0734  0.2693
  586TMC3    C3 8738   1.712   1.707  17.473  0.0008 -0.2646 -0.3445
  586TMC3    C4 8739   1.608   1.905  17.622 -0.4394  0.0080  0.3752
  586TMC3    C5 8740   1.529   1.832  17.538  0.2031 -0.5627 -0.6464
  586TMC3    C6 8741   1.576   1.733  17.456 -0.5476  0.0264  1.0518
  586TMC3     C 8742   1.816   1.928   0.001 -0.1548 -0.2275  0.4629
  586TMC3     O 8743   1.752   1.945   0.108  1.1773  0.3575 -0.4039
  586TMC3     H 8744   1.902   1.763  17.562 -0.8779 -0.4138 -1.4462
  586TMC3    H1 8745   1.568   1.967  17.701 -0.4567 -1.2722  1.3609
  586TMC3    H2 8746   1.506   1.661  17.415  1.6912 -2.6595  1.9015
  586TMC3    C7 8747   1.385   1.834  17.572  0.6985  0.1584  0.3490
  586TMC3    C8 8748   1.772   1.607  17.391  1.3417 -0.5560  0.1200
  586TMC3    O1 8749   1.328   1.726  17.568  0.1882  0.7665  0.3741
  586TMC3    O2 8750   1.880   1.566  17.425  0.4078  0.0509  0.2419
  587TMC3    C1 8751   3.497   0.693  16.549  0.6373 -0.2348 -0.4106
  587TMC3    C2 8752   3.561   0.748  16.654 -0.3751  0.6801 -0.1613
  587TMC3    C3 8753   3.675   0.696  16.696  0.3446  0.0925  0.0403
  587TMC3    C4 8754   3.547   0.576  16.491 -0.4446  0.0776 -0.2116
  587TMC3    C5 8755   3.665   0.528  16.533 -1.1043 -0.1946  1.2351
  587TMC3    C6 8756   3.731   0.589  16.637  0.9351  0.0196  0.1474
  587TMC3     C 8757   3.366   0.754  16.517  0.4995 -0.1283 -0.3754
  587TMC3     O 8758   3.339   0.874  16.528 -0.6583 -0.0783 -0.3541
  587TMC3     H 8759   3.510   0.833  16.698  1.1112  0.1232  2.5703
  587TMC3    H1 8760   3.495   0.522  16.412  0.4572 -1.4576  0.2555
  587TMC3    H2 8761   3.829   0.557  16.671  2.0820  1.3886 -1.9143
  587TMC3    C7 8762   3.709   0.394  16.495  0.1210  0.5001  0.1468
  587TMC3    C8 8763   3.745   0.751  16.811 -0.0636 -1.1195  0.3974
  587TMC3    O1 8764   3.792   0.349  16.568  0.1561  0.1650  1.0375
  587TMC3    O2 8765   3.826   0.685  16.872  0.5454  0.0022  0.2089
  588TMC3    C1 8766   1.102   3.477  10.373 -0.1431  0.5161  0.3562
  588TMC3    C2 8767   1.043   3.357  10.362 -0.1197  0.0419  0.3983
  588TMC3    C3 8768   1.080   3.258  10.437 -0.2319 -0.4518  0.3123
  588TMC3    C4 8769   1.190   3.508  10.474  0.2980 -0.0430  0.3242
  588TMC3    C5 8770   1.233   3.403  10.550  0.0201 -0.0788 -0.1615
  588TMC3    C6 8771   1.177   3.280  10.537  0.2632 -0.0439  0.2663
  588TMC3     C 8772   1.041   3.590  10.303  0.3978 -0.0361 -0.2328
  588TMC3     O 8773   0.985   3.572  10.197 -0.1342  0.2700  0.9507
  588TMC3     H 8774   0.969   3.341  10.285  1.2001 -0.3292 -0.7792
  588TMC3    H1 8775   1.226   3.605  10.505  1.3942  0.2252 -1.7652
  588TMC3    H2 8776   1.197   3.204  10.612  2.8758  2.1567  1.8245
  588TMC3    C7 8777   1.341   3.432  10.644 -0.1775 -0.3290 -0.1839
  588TMC3    C8 8778   1.005   3.136  10.431  0.1730  0.2982  0.2236
  588TMC3    O1 8779   1.365   3.342  10.725 -0.2528  0.0246 -0.4216
  588TMC3    O2 8780   0.926   3.125  10.339 -0.6200  0.2069  0.5028
  589TMC3    C1 8781   0.599   1.327   1.575 -0.4971 -0.9185 -0.0343
  589TMC3    C2 8782   0.702   1.304   1.661  0.5332  0.3716  0.1857
  589TMC3    C3 8783   0.766   1.184   1.642  0.7679  0.0457 -0.0242
  589TMC3    C4 8784   0.553   1.232   1.484 -0.9353 -0.0462  0.2051
  589TMC3    C5 8785   0.618   1.115   1.473 -0.2448  1.2184  0.1901
  589TMC3    C6 8786   0.730   1.090   1.550  0.1933  0.1145  0.4468
  589TMC3     C 8787   0.502   1.435   1.597  0.0745 -0.0284 -0.8234
  589TMC3     O 8788   0.387   1.407   1.565 -0.3527 -0.1200 -0.0499
  589TMC3     H 8789   0.738   1.382   1.728 -1.0820 -0.5474  2.1052
  589TMC3    H1 8790   0.461   1.256   1.433  0.8832  1.7777 -2.2323
  589TMC3    H2 8791   0.784   0.996   1.545 -0.4976 -0.2880  0.6201
  589TMC3    C7 8792   0.588   1.022   1.357 -0.9045 -0.3154  0.6224
  589TMC3    C8 8793   0.881   1.172   1.723  0.8508 -0.3255 -0.0089
  589TMC3    O1 8794   0.673   0.939   1.343 -0.3124  0.5315  0.3134
  589TMC3    O2 8795   0.872   1.211   1.835 -0.5298 -0.2342  0.3287
  590MPD2     C 8796   0.137   3.477  16.837  0.6632  0.0185 -0.4503
  590MPD2    C1 8797   0.123   3.493  16.698  0.5748  0.3749 -1.0527
  590MPD2    C2 8798   0.215   3.576  16.633 -0.3942  0.1935  0.0387
  590MPD2    C3 8799   0.327   3.615  16.705  0.8050 -0.1718  0.5568
  590MPD2    C4 8800   0.343   3.598  16.840  0.5969 -0.1556  0.1751
  590MPD2    C5 8801   0.249   3.521  16.903  0.0432  0.2166 -0.0899
  590MPD2     H 8802   0.211   3.605  16.529  0.2568 -0.9344 -0.3088
  590MPD2    H1 8803   0.429   3.627  16.900  2.1245 -0.2850 -1.9505
  590MPD2    H2 8804   0.061   3.432  16.900  1.4783 -0.2906  0.3198
  590MPD2    H3 8805   0.261   3.513  17.011  1.7300 -0.2678 -0.3246
  590MPD2     N 8806   0.423   3.685  16.625  0.0942  0.0796 -0.3859
  590MPD2    H5 8807   0.399   3.707  16.529 -0.4801  1.6766  0.1313
  590MPD2    N1 8808   0.006   3.431  16.639  0.1250  0.9648  0.5071
  590MPD2    H7 8809   4.677   3.381  16.701  2.8029 -0.9795  1.5993
  591TMC3    C1 8810   0.601   3.824  16.566 -0.4162 -0.9812 -0.3449
  591TMC3    C2 8811   0.713   3.793  16.485  0.2185 -0.1199 -0.3910
  591TMC3    C3 8812   0.735   3.869  16.373  0.6210  0.1308 -0.3705
  591TMC3    C4 8813   0.517   3.924  16.531  0.0588  0.0576  0.5657
  591TMC3    C5 8814   0.547   3.999  16.426 -0.2835 -0.2315  0.0466
  591TMC3    C6 8815   0.655   3.976  16.342  0.0841  0.2036  0.0270
  591TMC3     C 8816   0.553   3.725  16.660  0.2257 -0.2020  0.0217
  591TMC3     O 8817   0.622   3.694  16.753 -0.3746 -0.6275 -0.3210
  591TMC3     H 8818   0.779   3.709  16.505 -2.5174 -1.5568  2.5390
  591TMC3    H1 8819   0.422   3.941  16.581  0.0957  0.7283  0.4014
  591TMC3    H2 8820   0.677   4.039  16.257 -0.4434 -0.7493 -0.8087
  591TMC3    C7 8821   0.449   4.089  16.370  0.5956  0.3663 -0.5770
  591TMC3    C8 8822   0.820   3.812  16.272  0.6291 -0.7488 -0.8110
  591TMC3    O1 8823   0.333   4.046  16.363  0.2514  0.2824  0.1903
  591TMC3    O2 8824   0.914   3.744  16.314 -0.4178  0.0527 -0.5239
  592MPD2     C 8825   0.523   0.880  11.888  0.8560 -0.1231  0.1624
  592MPD2    C1 8826   0.474   0.917  12.011 -0.4428 -0.1225  0.0946
  592MPD2    C2 8827   0.405   0.832  12.089 -0.5603  0.6111  0.4200
  592MPD2    C3 8828   0.379   0.699  12.049 -0.0438 -0.1198  0.2312
  592MPD2    C4 8829   0.438   0.661  11.931 -0.1964  0.3458 -0.0059
  592MPD2    C5 8830   0.504   0.755  11.848  0.1904 -0.3020 -0.6446
  592MPD2     H 8831   0.379   0.855  12.191 -0.6864 -2.5486  1.1207
  592MPD2    H1 8832   0.433   0.559  11.893  0.7604 -0.0431  0.8929
  592MPD2    H2 8833   0.582   0.946  11.824  0.3302  0.2873  0.1001
  592MPD2    H3 8834   0.525   0.719  11.747  1.0902  2.1984 -1.3463
  592MPD2     N 8835   0.298   0.615  12.129 -0.0109  0.2044  0.0956
  592MPD2    H5 8836   0.258   0.653  12.214  0.9631 -1.0527  1.1237
  592MPD2    N1 8837   0.490   1.049  12.047 -0.1911  0.3098 -0.0844
  592MPD2    H7 8838   0.536   1.108  11.978  1.0432  0.4324  0.8287
  593TMC3    C1 8839   0.472   1.237  12.191 -0.2701  0.5676 -0.1308
  593TMC3    C2 8840   0.472   1.284  12.318 -0.1814  0.6741 -0.3598
  593TMC3    C3 8841   0.433   1.411  12.343 -0.7245  0.0328 -0.4220
  593TMC3    C4 8842   0.438   1.321  12.085 -0.5159  0.2770  0.7011
  593TMC3    C5 8843   0.394   1.453  12.113  0.5511 -0.2995 -0.1774
  593TMC3    C6 8844   0.384   1.497  12.244 -0.1978 -0.7699  0.9313
  593TMC3     C 8845   0.484   1.095  12.182 -0.0482  0.1083  0.5184
  593TMC3     O 8846   0.478   1.033  12.287 -0.5383  0.2210  0.2443
  593TMC3     H 8847   0.503   1.221  12.400  0.6183  1.6995  0.1240
  593TMC3    H1 8848   0.437   1.279  11.985  1.3139  1.0090  0.3618
  593TMC3    H2 8849   0.342   1.596  12.260 -0.6679 -0.8459  0.1555
  593TMC3    C7 8850   0.416   1.563  12.013  0.1231  0.9068  0.7528
  593TMC3    C8 8851   0.443   1.460  12.482 -0.2437 -0.1678 -0.4521
  593TMC3    O1 8852   0.436   1.665  12.074 -0.1570 -0.1088 -0.0971
  593TMC3    O2 8853   0.428   1.380  12.571  0.0854  0.1105  0.0638
  594MPD2     C 8854   4.104   4.228  14.658  0.0160  0.3604 -0.4367
  594MPD2    C1 8855   4.067   4.279  14.777 -0.0485  0.1359  0.1560
  594MPD2    C2 8856   4.142   4.390  14.817 -0.1301 -0.1473 -0.5564
  594MPD2    C3 8857   4.237   4.452  14.743  0.5692  0.1680 -0.5196
  594MPD2    C4 8858   4.261   4.402  14.617  0.2933 -0.3837  0.6453
  594MPD2    C5 8859   4.198   4.288  14.578 -0.4575  0.0559  0.2759
  594MPD2     H 8860   4.116   4.429  14.915 -1.3873 -3.5642  0.4808
  594MPD2    H1 8861   4.316   4.450  14.538 -1.0596  2.0661  1.1812
  594MPD2    H2 8862   4.059   4.134  14.626  1.6460 -0.1266 -1.2945
  594MPD2    H3 8863   4.227   4.245  14.483 -0.0772  0.3153  0.2735
  594MPD2     N 8864   4.304   4.563  14.798 -0.7861 -0.5732 -0.2035
  594MPD2    H5 8865   4.264   4.608  14.880 -1.0190  1.6878 -1.5525
  594MPD2    N1 8866   3.960   4.215  14.849  0.2226  0.1420  0.4133
  594MPD2    H7 8867   3.915   4.139  14.798 -1.0574  0.4707  1.0641
  595TMC3    C1 8868   4.673   0.050  14.954  0.1787  0.2444 -0.0068
  595TMC3    C2 8869   4.620   4.693  14.859 -0.0331 -0.1520 -0.3844
  595TMC3    C3 8870   4.482   4.705  14.840  0.6536  0.1531  0.4267
  595TMC3    C4 8871   4.595   0.140  15.016 -0.3611 -0.1020 -0.2871
  595TMC3    C5 8872   4.465   0.149  14.995 -0.4782  0.2167  0.0825
  595TMC3    C6 8873   4.400   0.063  14.910  0.2591 -0.0383  0.5789
  595TMC3     C 8874   0.073   0.103  14.933 -0.2135 -0.2316  0.2718
  595TMC3     O 8875   0.130   0.144  15.031 -0.0290 -0.0074 -0.2041
  595TMC3     H 8876   4.674   4.615  14.806  2.4075  1.4060 -0.1449
  595TMC3    H1 8877   4.647   0.220  15.068 -0.9689 -0.5816  1.0748
  595TMC3    H2 8878   4.297   0.082  14.879  0.6753  2.4259  0.6741
  595TMC3    C7 8879   4.390   0.240  15.077 -0.4393  0.5924 -0.2574
  595TMC3    C8 8880   4.421   4.606  14.753 -0.0432  0.2828  0.7296
  595TMC3    O1 8881   4.269   0.249  15.056  0.3982 -0.4984  0.0768
  595TMC3    O2 8882   4.501   4.552  14.674 -0.0318  0.9547  0.3219
  596MPD2     C 8883   3.284   2.739  17.285 -0.0059 -0.0891 -0.2522
  596MPD2    C1 8884   3.224   2.831  17.200  0.0499  0.4994 -0.1451
  596MPD2    C2 8885   3.191   2.795  17.071  0.1562  0.5030 -0.2972
  596MPD2    C3 8886   3.242   2.682  17.014  0.0305  0.0205 -0.5037
  596MPD2    C4 8887   3.298   2.585  17.095  0.7298 -0.1374  0.0502
  596MPD2    C5 8888   3.312   2.617  17.229 -0.3922 -0.3275 -0.2158
  596MPD2     H 8889   3.144   2.869  17.008 -2.4568  0.0318  1.0894
  596MPD2    H1 8890   3.340   2.491  17.063  4.5277  2.5083 -2.6066
  596MPD2    H2 8891   3.316   2.751  17.388  1.6377  1.4959 -0.9410
  596MPD2    H3 8892   3.362   2.548  17.296 -1.5151 -0.4317  0.5222
  596MPD2     N 8893   3.241   2.651  16.875  0.4745  0.4366  0.0043
  596MPD2    H5 8894   3.292   2.570  16.843 -1.3755  0.0619 -1.9616
  596MPD2    N1 8895   3.195   2.963  17.235 -0.2389  1.0140 -0.8810
  596MPD2    H7 8896   3.171   3.027  17.160 -0.9752  1.1737 -0.5074
  597TMC3    C1 8897   3.135   3.147  17.371 -0.5820  0.1615 -0.0919
  597TMC3    C2 8898   3.177   3.240  17.281  0.2214  0.5499 -0.4429
  597TMC3    C3 8899   3.116   3.362  17.283 -0.1711  0.2172  0.1419
  597TMC3    C4 8900   3.038   3.178  17.464  0.0133  0.6195 -0.5882
  597TMC3    C5 8901   3.000   3.307  17.468 -0.0236  0.0316  0.2696
  597TMC3    C6 8902   3.028   3.406  17.375  0.1192 -0.3029  0.6603
  597TMC3     C 8903   3.199   3.010  17.361 -0.8439  0.1532  0.1047
  597TMC3     O 8904   3.209   2.954  17.467  0.8239  0.2896  0.1052
  597TMC3     H 8905   3.267   3.233  17.221 -0.3279 -2.2347 -0.9613
  597TMC3    H1 8906   3.015   3.095  17.530 -0.2141 -2.7310 -4.8736
  597TMC3    H2 8907   2.993   3.509  17.385  0.3053 -0.0641 -1.2814
  597TMC3    C7 8908   2.902   3.332  17.567  0.5012 -0.5318 -0.8585
  597TMC3    C8 8909   3.140   3.452  17.182  0.4923  0.0289  0.3250
  597TMC3    O1 8910   2.826   3.237  17.594  0.1951 -0.1363  0.1037
  597TMC3    O2 8911   3.084   3.560  17.188 -0.1642 -0.5882  0.4312
  598TMC3    C1 8912   1.191   4.455  15.466  0.3054 -0.2374  0.1577
  598TMC3    C2 8913   1.075   4.387  15.490 -1.0305 -0.1165 -0.0580
  598TMC3    C3 8914   0.994   4.372  15.380  0.5197  0.2654  0.0134
  598TMC3    C4 8915   1.218   4.517  15.347  0.2610 -0.8336  0.3741
  598TMC3    C5 8916   1.133   4.502  15.243 -0.5802  0.5299 -0.2084
  598TMC3    C6 8917   1.020   4.419  15.254 -0.3125  0.0210  0.1769
  598TMC3     C 8918   1.278   4.492  15.570  0.5064  0.3468  0.2205
  598TMC3     O 8919   1.338   4.597  15.556  0.0848 -0.1853 -0.1547
  598TMC3     H 8920   1.046   4.351  15.588  3.4026  0.1648  1.3589
  598TMC3    H1 8921   1.316   4.563  15.345  1.6284 -3.8134 -1.6252
  598TMC3    H2 8922   0.953   4.405  15.171 -0.6084 -1.2422  0.6351
  598TMC3    C7 8923   1.178   4.534  15.104  0.4115  0.2694 -0.3030
  598TMC3    C8 8924   0.896   4.267  15.377  0.7017  0.6562  0.0313
  598TMC3    O1 8925   1.152   4.458  15.015  0.0243  0.5936 -0.0286
  598TMC3    O2 8926   0.858   4.236  15.265  0.1220  0.5395  0.2041
  599MPD2     C 8927   1.331   1.789  15.883 -0.2870  0.4391  0.4925
  599MPD2    C1 8928   1.250   1.671  15.874 -0.1201  0.5838 -0.3084
  599MPD2    C2 8929   1.170   1.641  15.978 -0.6174 -0.7512  0.7478
  599MPD2    C3 8930   1.173   1.714  16.101  0.1349  0.0436  0.6175
  599MPD2    C4 8931   1.274   1.800  16.117  0.0012 -0.4224 -0.3713
  599MPD2    C5 8932   1.354   1.843  16.005 -0.0583 -0.1629 -0.2012
  599MPD2     H 8933   1.093   1.567  15.959 -2.1706  0.9649  0.4366
  599MPD2    H1 8934   1.293   1.855  16.208  2.8762 -0.4260 -0.9523
  599MPD2    H2 8935   1.385   1.832  15.799 -1.4724  0.7787 -0.1022
  599MPD2    H3 8936   1.424   1.925  16.017  0.6283 -0.4893 -2.0142
  599MPD2     N 8937   1.088   1.685  16.210 -0.0411 -0.4739 -0.1607
  599MPD2    H5 8938   1.095   1.746  16.291  0.5953  0.0631 -0.6195
  599MPD2    N1 8939   1.254   1.598  15.752 -0.7303 -0.2273 -0.3724
  599MPD2    H7 8940   1.327   1.638  15.693  0.4252  1.8453  2.4764
  600TMC3    C1 8941   0.897   1.624  16.330  0.1884 -0.1148  0.1669
  600TMC3    C2 8942   0.779   1.557  16.333 -0.1459 -0.0912 -0.4878
  600TMC3    C3 8943   0.712   1.537  16.451 -0.2661 -0.1907 -0.3486
  600TMC3    C4 8944   0.936   1.695  16.444 -0.5553 -0.1582 -0.4775
  600TMC3    C5 8945   0.866   1.673  16.556 -0.1939  1.5138 -0.5005
  600TMC3    C6 8946   0.755   1.594  16.566  0.4538 -0.6630  0.6840
  600TMC3     C 8947   0.973   1.610  16.206 -0.6745 -0.2284 -0.0860
  600TMC3     O 8948   0.927   1.542  16.118  0.1149  0.3031 -0.3124
  600TMC3     H 8949   0.732   1.516  16.244  0.5774  0.5458 -1.1599
  600TMC3    H1 8950   1.020   1.764  16.451  0.0559 -1.2402  3.3715
  600TMC3    H2 8951   0.716   1.579  16.666 -0.8851 -1.2315  0.0796
  600TMC3    C7 8952   0.900   1.743  16.677 -0.3150  0.0542  0.3948
  600TMC3    C8 8953   0.576   1.483  16.464  0.3792 -0.3814  0.1386
  600TMC3    O1 8954   0.807   1.786  16.747 -0.0290  0.5478  0.0226
  600TMC3    O2 8955   0.544   1.455  16.577  0.1814  0.0125 -0.0877
  601MPD2     C 8956   3.729   0.366   0.384 -0.5710 -0.0448  0.5180
  601MPD2    C1 8957   3.648   0.330   0.276  0.2436 -0.0467  0.6547
  601MPD2    C2 8958   3.622   0.193   0.254  0.5714 -0.1977 -0.0113
  601MPD2    C3 8959   3.677   0.095   0.341 -0.6881 -0.0835  0.0011
  601MPD2    C4 8960   3.770   0.137   0.438  0.1666  0.2137 -0.9386
  601MPD2    C5 8961   3.803   0.272   0.453 -0.1229  0.3248 -0.1356
  601MPD2     H 8962   3.568   0.163   0.165  1.4412  0.5454 -0.7867
  601MPD2    H1 8963   3.816   0.061   0.500 -1.0176  0.7233  0.5593
  601MPD2    H2 8964   3.749   0.469   0.411 -0.4905  0.4537 -1.4551
  601MPD2    H3 8965   3.872   0.300   0.531 -0.6345 -0.8599  0.7437
  601MPD2     N 8966   3.655   4.688   0.332  0.0419 -0.1894 -0.2643
  601MPD2    H5 8967   3.707   4.625   0.392 -2.3805 -1.0105  0.9709
  601MPD2    N1 8968   3.591   0.422   0.192  0.0683 -1.1270 -0.0951
  601MPD2    H7 8969   3.553   0.378   0.108  1.0018 -0.3740 -0.9148
  602TMC3    C1 8970   3.503   0.621   0.110  0.2530 -0.7373 -0.6136
  602TMC3    C2 8971   3.465   0.758   0.122 -0.0501 -0.3474  0.3485
  602TMC3    C3 8972   3.392   0.811   0.022 -0.2089 -0.0944  0.0754
  602TMC3    C4 8973   3.478   0.545   0.002 -0.7646 -0.0129  0.2206
  602TMC3    C5 8974   3.403   0.605  17.633  0.3628  0.4177  0.0299
  602TMC3    C6 8975   3.357   0.732  17.642 -0.4106 -0.5497  0.1013
  602TMC3     C 8976   3.592   0.559   0.206 -0.3975  0.2822  0.3591
  602TMC3     O 8977   3.618   0.621   0.308  0.9602 -0.3913  0.3608
  602TMC3     H 8978   3.466   0.816   0.213  1.2665 -0.5426  0.4579
  602TMC3    H1 8979   3.477   0.437  17.727 -0.7257 -0.0431  0.8913
  602TMC3    H2 8980   3.314   0.778  17.554  2.2858  0.5344 -0.6652
  602TMC3    C7 8981   3.346   0.527  17.524  0.5898 -0.3102 -0.5012
  602TMC3    C8 8982   3.316   0.936   0.051  0.1409  0.4866 -0.0204
  602TMC3    O1 8983   3.407   0.432  17.478  0.2771  0.5047  0.5040
  602TMC3    O2 8984   3.365   1.033   0.113 -0.3307  0.0050  0.4705
  603TMC3    C1 8985   0.710   1.018  11.492 -0.1245 -0.5430 -0.2702
  603TMC3    C2 8986   0.805   1.021  11.589  0.3237 -0.4423 -0.2382
  603TMC3    C3 8987   0.882   0.909  11.598 -0.1159  0.8830  0.3503
  603TMC3    C4 8988   0.682   0.910  11.410  0.5086  0.4901  0.1584
  603TMC3    C5 8989   0.765   0.801  11.433 -0.0016 -0.8170  0.9283
  603TMC3    C6 8990   0.867   0.799  11.521 -0.4313 -0.0955 -0.2780
  603TMC3     C 8991   0.628   1.131  11.491 -0.0470 -0.0439 -0.1989
  603TMC3     O 8992   0.682   1.241  11.494 -0.4971 -0.2845 -0.3416
  603TMC3     H 8993   0.803   1.109  11.652 -0.8182  1.2299 -2.5887
  603TMC3    H1 8994   0.589   0.900  11.355  0.4929 -0.3502  0.3415
  603TMC3    H2 8995   0.942   0.723  11.507  0.6622  0.4751  2.5318
  603TMC3    C7 8996   0.731   0.672  11.368  0.2896 -0.0330 -0.3610
  603TMC3    C8 8997   0.954   0.888  11.724 -0.3241  0.3027  0.2332
  603TMC3    O1 8998   0.775   0.566  11.411  0.0106  0.7549 -0.5293
  603TMC3    O2 8999   0.998   0.776  11.734 -0.7813 -0.3627  0.3736
  604MPD2     C 9000   2.574   4.086  16.884 -0.3399 -0.0874 -0.0071
  604MPD2    C1 9001   2.450   4.112  16.827 -0.3850 -0.4150  0.8594
  604MPD2    C2 9002   2.427   4.078  16.693 -0.1493 -0.3255  0.1673
  604MPD2    C3 9003   2.531   4.025  16.617  0.6970  0.4700 -0.5192
  604MPD2    C4 9004   2.655   4.023  16.669 -0.2814 -0.0841  0.6676
  604MPD2    C5 9005   2.676   4.049  16.805 -0.2504  0.0565 -0.3916
  604MPD2     H 9006   2.330   4.090  16.646 -1.4885 -0.4014  2.8911
  604MPD2    H1 9007   2.741   3.991  16.612 -1.0119  0.0445 -0.5236
  604MPD2    H2 9008   2.596   4.109  16.988 -1.1129 -1.3686  0.4403
  604MPD2    H3 9009   2.770   4.032  16.855 -0.8664  0.0592  0.7869
  604MPD2     N 9010   2.493   3.972  16.493 -0.2519  0.3436  0.3441
  604MPD2    H5 9011   2.397   3.988  16.464 -0.7529 -1.3346  1.1145
  604MPD2    N1 9012   2.346   4.174  16.902 -1.2498  0.4508  0.0927
  604MPD2    H7 9013   2.379   4.233  16.978 -1.7652  0.8829 -0.0161
  605TMC3    C1 9014   2.176   4.325  16.864 -0.3143 -0.0514 -0.6668
  605TMC3    C2 9015   2.222   4.404  16.967 -0.2965  0.3862  0.5822
  605TMC3    C3 9016   2.178   4.529  16.990  0.4759  0.1621 -0.3792
  605TMC3    C4 9017   2.087   4.372  16.774  0.4091 -0.3102  0.2986
  605TMC3    C5 9018   2.027   4.496  16.804  0.1713 -0.2652  1.2867
  605TMC3    C6 9019   2.073   4.572  16.910  0.2109  0.3349 -0.3833
  605TMC3     C 9020   2.215   4.192  16.854 -0.3122  0.0712 -0.6657
  605TMC3     O 9021   2.156   4.127  16.769 -0.0365 -0.2152 -0.0186
  605TMC3     H 9022   2.285   4.369  17.048 -0.0907 -1.2510 -0.2822
  605TMC3    H1 9023   2.047   4.306  16.698  1.3597  0.0676 -0.5199
  605TMC3    H2 9024   2.030   4.671  16.921  1.6379  0.7727  1.1895
  605TMC3    C7 9025   1.931   4.558  16.709  0.5056  0.6046  0.2769
  605TMC3    C8 9026   2.184   4.566  17.121 -0.1949 -0.0487  0.5951
  605TMC3    O1 9027   1.910   4.679  16.724  0.3348 -0.3129 -0.2076
  605TMC3    O2 9028   2.073   4.555  17.175 -0.2635  0.2521 -0.0401
  606TMC3    C1 9029   2.900   3.454   0.335 -0.2906 -0.0139 -0.2986
  606TMC3    C2 9030   3.005   3.537   0.331  0.1516  0.4547 -0.0447
  606TMC3    C3 9031   3.105   3.505   0.242 -0.5434  0.2631 -0.2244
  606TMC3    C4 9032   2.887   3.331   0.271 -0.0258  0.3907 -0.8603
  606TMC3    C5 9033   2.993   3.305   0.182 -0.3039  0.2635 -0.1446
  606TMC3    C6 9034   3.101   3.391   0.168  0.1837  0.0480  0.3269
  606TMC3     C 9035   2.791   3.491   0.419  0.8430  0.2083 -0.0015
  606TMC3     O 9036   2.787   3.608   0.457 -0.0825  0.1370  0.0373
  606TMC3     H 9037   2.993   3.631   0.383 -0.2439 -0.2684  1.1764
  606TMC3    H1 9038   2.794   3.276   0.268 -0.0845  0.5920 -2.5086
  606TMC3    H2 9039   3.184   3.368   0.103  0.5717  0.3026  0.7354
  606TMC3    C7 9040   3.017   3.168   0.150 -0.8682  0.0690 -0.1421
  606TMC3    C8 9041   3.243   3.535   0.282 -0.3949  1.0116 -0.7622
  606TMC3    O1 9042   3.089   3.155   0.054 -0.2326 -0.1368 -0.4783
  606TMC3    O2 9043   3.322   3.441   0.262 -0.1421  0.1291 -0.0854
  607MPD2     C 9044   0.700   0.387  12.135  0.9747 -0.6749  0.1350
  607MPD2    C1 9045   0.654   0.475  12.229  0.0103  0.5572  0.2341
  607MPD2    C2 9046   0.564   0.444  12.330  0.7743  0.1655 -0.0195
  607MPD2    C3 9047   0.518   0.310  12.336  0.2218 -0.4772 -0.4976
  607MPD2    C4 9048   0.559   0.220  12.248 -0.2537  0.0303 -0.1145
  607MPD2    C5 9049   0.639   0.261  12.140 -0.0742 -0.6566 -0.2385
  607MPD2     H 9050   0.541   0.513  12.411  2.0448  0.5411  0.0129
  607MPD2    H1 9051   0.540   0.114  12.262  1.7516 -0.3011  0.2558
  607MPD2    H2 9052   0.766   0.415  12.054  2.3086 -0.6993  1.2189
  607MPD2    H3 9053   0.668   0.190  12.063  1.6950  0.4295 -0.5902
  607MPD2     N 9054   0.447   0.277  12.457  0.3111 -0.4717 -0.4632
  607MPD2    H5 9055   0.441   0.350  12.527 -0.1122 -1.7397  0.8221
  607MPD2    N1 9056   0.704   0.612  12.228 -0.4750 -0.1239  0.1929
  607MPD2    H7 9057   0.661   0.675  12.295  0.2830 -0.0284  0.5880
  608TMC3    C1 9058   0.853   0.781  12.205  0.0143  0.0204  0.7382
  608TMC3    C2 9059   0.882   0.772  12.339 -0.0282 -0.1874 -0.1050
  608TMC3    C3 9060   0.892   0.892  12.404 -0.0096  0.6004  0.2871
  608TMC3    C4 9061   0.831   0.896  12.140  0.3484 -0.0893 -0.1345
  608TMC3    C5 9062   0.847   1.014  12.212  0.0220 -0.6254  0.5334
  608TMC3    C6 9063   0.876   1.016  12.345 -0.1809  0.3322  0.4169
  608TMC3     C 9064   0.797   0.668  12.144 -0.1591 -0.0200 -0.5073
  608TMC3     O 9065   0.836   0.632  12.035 -0.1546  0.2260 -0.2746
  608TMC3     H 9066   0.912   0.677  12.382 -1.9351 -0.8819 -0.3197
  608TMC3    H1 9067   0.795   0.900  12.038 -0.3606  0.1534  0.1246
  608TMC3    H2 9068   0.872   1.106  12.405  0.0061  1.4955 -1.3272
  608TMC3    C7 9069   0.833   1.136  12.134  0.3636  0.1815 -0.6390
  608TMC3    C8 9070   0.886   0.895  12.548  0.4124  0.0841 -0.2719
  608TMC3    O1 9071   0.826   1.125  12.010  0.1088  0.1139 -0.2569
  608TMC3    O2 9072   0.933   0.991  12.605  0.0841 -0.1408  0.2349
  609TMC3    C1 9073   2.749   0.437   9.659  0.4215  0.4476 -0.1858
  609TMC3    C2 9074   2.629   0.433   9.596  0.0102 -0.1002 -0.1989
  609TMC3    C3 9075   2.577   0.312   9.561  0.9769 -0.0520  0.2561
  609TMC3    C4 9076   2.823   0.324   9.686 -0.1716 -0.3867 -0.2604
  609TMC3    C5 9077   2.763   0.201   9.651 -0.1633  0.4376 -0.4178
  609TMC3    C6 9078   2.642   0.193   9.588 -0.5085  0.0596  0.3822
  609TMC3     C 9079   2.799   0.564   9.699 -0.1437 -0.4265  0.8432
  609TMC3     O 9080   2.772   0.657   9.624  0.0187  0.3671 -0.3264
  609TMC3     H 9081   2.580   0.527   9.572 -0.3456 -0.5780 -1.3780
  609TMC3    H1 9082   2.921   0.325   9.734 -1.0566 -3.0767  1.6302
  609TMC3    H2 9083   2.596   0.100   9.556 -0.3033 -0.4257  1.5014
  609TMC3    C7 9084   2.858   0.092   9.642  0.1982  0.2880  0.3561
  609TMC3    C8 9085   2.445   0.309   9.495  0.3088  0.0931  0.9755
  609TMC3    O1 9086   2.979   0.118   9.643  0.0743  0.0634  0.4389
  609TMC3    O2 9087   2.363   0.389   9.530 -0.1474  0.1309 -0.3801
  610TMC3    C1 9088   1.332   1.162  12.764  0.2844 -1.0706  0.0993
  610TMC3    C2 9089   1.393   1.237  12.663 -0.1298  0.3904  0.0192
  610TMC3    C3 9090   1.507   1.182  12.606  0.0196  0.4292 -0.1309
  610TMC3    C4 9091   1.364   1.036  12.789 -0.1542  0.3181  0.7906
  610TMC3    C5 9092   1.478   0.991  12.736 -0.5713 -0.5994 -0.3340
  610TMC3    C6 9093   1.556   1.065  12.648 -0.5011 -0.6284  1.1143
  610TMC3     C 9094   1.210   1.213  12.822 -0.9361 -0.4725  0.3516
  610TMC3     O 9095   1.138   1.132  12.880  0.8028 -0.2997 -0.4141
  610TMC3     H 9096   1.346   1.320  12.612  0.0746  1.7552  2.0739
  610TMC3    H1 9097   1.301   0.968  12.846  0.7139 -0.4173  0.8830
  610TMC3    H2 9098   1.652   1.023  12.622 -0.8377 -1.7437  1.6815
  610TMC3    C7 9099   1.539   0.863  12.776 -0.2409  0.7684 -0.4530
  610TMC3    C8 9100   1.572   1.255  12.505 -0.1381  0.5835  0.0547
  610TMC3    O1 9101   1.664   0.858  12.768  0.2598  0.2326 -0.5005
  610TMC3    O2 9102   1.551   1.371  12.501 -0.7293  0.4024  0.0294
  611MPD2     C 9103   4.314   0.833  10.126  0.0993  0.3318 -0.0423
  611MPD2    C1 9104   4.397   0.725  10.145 -0.3338  0.8364 -0.0727
  611MPD2    C2 9105   4.483   0.724  10.255  0.7405  0.1874 -0.3007
  611MPD2    C3 9106   4.492   0.836  10.330 -0.4775 -0.2954  0.6916
  611MPD2    C4 9107   4.421   0.953  10.296 -0.9902 -0.2666  0.3700
  611MPD2    C5 9108   4.331   0.944  10.198 -0.1877 -0.0288 -0.1308
  611MPD2     H 9109   4.556   0.645  10.258 -0.5461 -0.9454  0.9443
  611MPD2    H1 9110   4.430   1.047  10.347 -0.6463  0.2184 -0.5765
  611MPD2    H2 9111   4.241   0.839  10.047 -0.9713  0.2419  0.9472
  611MPD2    H3 9112   4.269   1.032  10.182 -2.1157 -0.9280  2.3857
  611MPD2     N 9113   4.576   0.857  10.442  0.0259 -0.9540  0.0888
  611MPD2    H5 9114   4.572   0.951  10.480 -1.6935 -0.8164 -0.4654
  611MPD2    N1 9115   4.367   0.617  10.063  0.5445 -1.1265  0.6190
  611MPD2    H7 9116   4.292   0.633   9.997 -0.1428 -1.3752  1.3423
  612TMC3    C1 9117   0.015   0.784  10.605 -0.6172  0.2183  0.6568
  612TMC3    C2 9118   0.080   0.677  10.663  0.2615  0.4549  0.5676
  612TMC3    C3 9119   0.170   0.713  10.758  0.4923  0.3060 -0.1942
  612TMC3    C4 9120   0.039   0.916  10.638 -0.2416  0.6092 -0.9296
  612TMC3    C5 9121   0.144   0.940  10.722  0.1687 -0.7491 -0.4507
  612TMC3    C6 9122   0.211   0.842  10.784  0.3675 -0.8872  0.8204
  612TMC3     C 9123   4.652   0.754  10.492  0.2943 -0.0033  0.6709
  612TMC3     O 9124   4.659   0.636  10.461 -0.2458  0.1915  0.2134
  612TMC3     H 9125   0.056   0.576  10.634 -0.9826  0.9631 -0.2091
  612TMC3    H1 9126   4.715   0.993  10.587  1.1419  0.8761 -2.0492
  612TMC3    H2 9127   0.267   0.875  10.871  1.8085 -1.2252  0.0229
  612TMC3    C7 9128   0.183   1.075  10.740  0.2737  0.0057 -0.5721
  612TMC3    C8 9129   0.226   0.597  10.834 -0.8397 -0.5799  0.0782
  612TMC3    O1 9130   0.300   1.103  10.754  0.1085  0.4575 -0.5207
  612TMC3    O2 9131   0.161   0.495  10.829 -0.2497 -0.0868  0.1794
  613MPD2     C 9132   4.726   2.426  17.052 -0.2978 -0.4128  0.1908
  613MPD2    C1 9133   4.620   2.515  17.024  0.5960  0.0006 -0.1957
  613MPD2    C2 9134   4.508   2.473  16.958  0.0726  0.3304  0.2755
  613MPD2    C3 9135   4.499   2.345  16.907  0.4848 -0.3231  0.6558
  613MPD2    C4 9136   4.599   2.257  16.941  1.3964 -0.5688  0.0216
  613MPD2    C5 9137   4.709   2.298  17.015 -1.0843 -0.1140  0.8333
  613MPD2     H 9138   4.429   2.539  16.923 -0.7702 -1.4817 -1.2302
  613MPD2    H1 9139   4.587   2.153  16.913 -2.4420 -0.1901  0.3286
  613MPD2    H2 9140   0.082   2.462  17.103  0.7523  0.2959 -2.0979
  613MPD2    H3 9141   0.056   2.229  17.039  0.3827  1.0621 -0.6303
  613MPD2     N 9142   4.386   2.293  16.829  0.2557  0.3694 -0.8722
  613MPD2    H5 9143   4.398   2.197  16.797  4.3915  0.0280  1.6302
  613MPD2    N1 9144   4.643   2.653  17.042  0.4139  0.4249 -0.7248
  613MPD2    H7 9145   4.721   2.671  17.104  0.3829  0.9232 -0.8302
  614TMC3    C1 9146   4.528   2.784  16.873 -0.1716 -0.2816 -0.7923
  614TMC3    C2 9147   4.584   2.712  16.771  0.3047 -0.4762  0.1323
  614TMC3    C3 9148   4.534   2.731  16.648 -0.6426 -0.4066  0.0260
  614TMC3    C4 9149   4.449   2.896  16.847 -0.0308  0.0183 -0.2895
  614TMC3    C5 9150   4.405   2.921  16.718  0.1943  0.5319 -0.2646
  614TMC3    C6 9151   4.449   2.831  16.620  0.4579 -0.5187 -0.1644
  614TMC3     C 9152   4.572   2.768  17.007  0.2691 -0.0813 -0.5041
  614TMC3     O 9153   4.607   2.874  17.052  0.3091  0.4510 -0.6082
  614TMC3     H 9154   4.661   2.640  16.796 -0.0339 -0.3316  1.5664
  614TMC3    H1 9155   4.430   2.973  16.921  3.2421 -1.2418  1.8812
  614TMC3    H2 9156   4.400   2.824  16.523  1.2351  0.2071 -0.6138
  614TMC3    C7 9157   4.298   3.017  16.701 -0.2395  0.1392 -0.5136
  614TMC3    C8 9158   4.547   2.610  16.566 -0.5150  0.6432 -0.2797
  614TMC3    O1 9159   4.260   3.076  16.803 -0.1174 -0.9158 -0.6299
  614TMC3    O2 9160   4.569   2.502  16.625  0.1027 -0.2300  0.0748
  615MPD2     C 9161   4.058   4.475  16.041 -1.0247  0.2618  0.0645
  615MPD2    C1 9162   4.003   4.560  15.956  0.5524 -0.2275  0.0513
  615MPD2    C2 9163   3.908   4.513  15.869  0.6133 -0.9479  0.4815
  615MPD2    C3 9164   3.877   4.378  15.863 -0.9360 -0.5635  0.0634
  615MPD2    C4 9165   3.942   4.288  15.942  1.0936  0.1362 -0.6319
  615MPD2    C5 9166   4.038   4.337  16.035 -0.5164  0.5290 -0.5436
  615MPD2     H 9167   3.852   4.590  15.816  0.3173  0.0629  2.2598
  615MPD2    H1 9168   3.910   4.184  15.950  2.8814 -0.4954 -1.6332
  615MPD2    H2 9169   4.133   4.498  16.116  0.4238 -0.9782 -0.9936
  615MPD2    H3 9170   4.080   4.273  16.111  0.0757 -0.6658 -1.8887
  615MPD2     N 9171   3.756   4.353  15.787  0.3219 -0.1932 -0.2625
  615MPD2    H5 9172   3.714   4.421  15.724 -1.2647 -0.1287  0.8732
  615MPD2    N1 9173   4.031   4.700  15.952  0.1292  0.6318 -0.8358
  615MPD2    H7 9174   3.986   0.025  15.882  0.6361  0.4381 -1.3264
  616TMC3    C1 9175   4.081   0.177  16.021  0.1621  0.1992 -0.5604
  616TMC3    C2 9176   4.159   0.265  16.101 -0.4273 -0.1024  0.9358
  616TMC3    C3 9177   4.109   0.391  16.126 -0.1112  0.0184 -0.8844
  616TMC3    C4 9178   3.951   0.219  15.982 -0.1043 -0.4245 -0.0810
  616TMC3    C5 9179   3.907   0.350  16.004 -0.9107 -0.4046 -0.2345
  616TMC3    C6 9180   3.980   0.429  16.084 -0.1131 -0.2398 -0.3748
  616TMC3     C 9181   4.108   0.039  16.039  0.2072  0.2462 -0.4418
  616TMC3     O 9182   4.153   0.006  16.146  0.3245 -0.0261 -0.0714
  616TMC3     H 9183   4.263   0.243  16.121 -0.4669 -0.6738  0.5475
  616TMC3    H1 9184   3.882   0.151  15.933 -0.9049 -0.0809  0.5716
  616TMC3    H2 9185   3.945   0.531  16.095 -2.9452 -0.9904 -2.3511
  616TMC3    C7 9186   3.788   0.411  15.939 -0.2646 -0.2446  0.4225
  616TMC3    C8 9187   4.188   0.500  16.189  0.3403  0.1004  0.3338
  616TMC3    O1 9188   3.765   0.527  15.960  0.0586 -0.2311 -0.1356
  616TMC3    O2 9189   4.124   0.605  16.205  1.4473  0.1294  0.0400
  617MPD2     C 9190   1.820   2.210  14.072 -0.5272 -0.7387 -0.3276
  617MPD2    C1 9191   1.835   2.170  14.202  0.0662  0.5226 -0.0511
  617MPD2    C2 9192   1.728   2.189  14.294 -0.0748 -0.7174  0.2967
  617MPD2    C3 9193   1.608   2.237  14.244 -0.4022 -0.5240  0.3744
  617MPD2    C4 9194   1.593   2.274  14.115 -0.0278  0.4777 -0.3162
  617MPD2    C5 9195   1.699   2.260  14.036 -0.0126 -0.0211  0.2356
  617MPD2     H 9196   1.743   2.147  14.393 -2.3980  0.1565  1.0192
  617MPD2    H1 9197   1.498   2.301  14.071  0.5237  1.7725 -0.6916
  617MPD2    H2 9198   1.904   2.216  14.004  0.0280 -2.2473  0.2257
  617MPD2    H3 9199   1.685   2.288  13.932  0.8848 -0.6175 -0.0518
  617MPD2     N 9200   1.487   2.233  14.322 -0.0683  0.4642  0.7802
  617MPD2    H5 9201   1.396   2.258  14.287  0.1792  2.8277  1.8410
  617MPD2    N1 9202   1.960   2.115  14.234  0.1722 -0.1936 -0.2969
  617MPD2    H7 9203   2.020   2.090  14.156 -1.1103  1.0192 -1.6782
  618TMC3    C1 9204   2.141   2.013  14.349 -0.1515  0.2960 -0.3423
  618TMC3    C2 9205   2.246   2.048  14.428  0.4872 -0.2499 -0.1741
  618TMC3    C3 9206   2.357   1.978  14.418  0.6748  0.1524  0.6589
  618TMC3    C4 9207   2.141   1.893  14.281 -0.7243  0.3655 -0.1062
  618TMC3    C5 9208   2.260   1.825  14.281 -1.0144 -0.0130 -0.1974
  618TMC3    C6 9209   2.370   1.874  14.333 -0.0917 -0.1439  0.6892
  618TMC3     C 9210   2.024   2.101  14.355  0.4947  0.4732  0.1389
  618TMC3     O 9211   1.982   2.132  14.470  0.6894 -0.1116 -0.1244
  618TMC3     H 9212   2.236   2.146  14.474 -2.1794 -0.0879 -1.0544
  618TMC3    H1 9213   2.054   1.859  14.226 -1.2502 -0.1347  1.0304
  618TMC3    H2 9214   2.463   1.817  14.331 -0.7619 -1.2321  0.3605
  618TMC3    C7 9215   2.267   1.729  14.175  0.4363  0.3390  0.3539
  618TMC3    C8 9216   2.470   2.036  14.492 -0.3768 -0.3333  0.0289
  618TMC3    O1 9217   2.163   1.674  14.150 -0.2230 -0.5031  0.3983
  618TMC3    O2 9218   2.441   2.097  14.594  0.9239 -0.5997 -0.1422
  619MPD2     C 9219   3.196   3.557  13.947  0.4974  0.3286 -0.4192
  619MPD2    C1 9220   3.090   3.654  13.944  0.3702  0.1259 -1.0507
  619MPD2    C2 9221   2.962   3.616  13.950 -0.1066  0.1179 -0.2064
  619MPD2    C3 9222   2.931   3.481  13.970 -0.6591  0.2975  0.5030
  619MPD2    C4 9223   3.034   3.394  13.976 -0.7201  0.5711  0.8235
  619MPD2    C5 9224   3.166   3.428  13.967 -0.2469  0.2636 -0.0893
  619MPD2     H 9225   2.877   3.683  13.950 -0.3167 -0.1561 -1.1370
  619MPD2    H1 9226   3.015   3.288  13.966  1.9482  0.0303  1.6714
  619MPD2    H2 9227   3.300   3.587  13.943  1.0980 -1.6259  0.2530
  619MPD2    H3 9228   3.249   3.359  13.979 -2.8541 -2.6155  1.3456
  619MPD2     N 9229   2.800   3.426  13.988 -0.1419  0.0859 -0.1583
  619MPD2    H5 9230   2.795   3.335  14.032 -0.1859  0.7428  1.2096
  619MPD2    N1 9231   3.110   3.795  13.965 -0.7196  0.0105  0.1812
  619MPD2    H7 9232   3.023   3.848  13.972 -1.9746 -2.0320  0.2358
  620TMC3    C1 9233   3.206   3.989  14.046 -0.5606 -0.4351 -0.0970
  620TMC3    C2 9234   3.096   4.003  14.124 -0.0113 -0.0278 -0.3427
  620TMC3    C3 9235   3.053   4.133  14.138 -0.2157  0.1033 -0.0151
  620TMC3    C4 9236   3.266   4.094  13.974  0.3201 -0.1595  0.8157
  620TMC3    C5 9237   3.223   4.220  13.999 -0.6694  0.2891  0.2616
  620TMC3    C6 9238   3.114   4.243  14.078 -0.4330  0.8092 -0.8420
  620TMC3     C 9239   3.228   3.859  13.979 -0.0695  0.0257  0.8291
  620TMC3     O 9240   3.345   3.822  13.953 -0.2811 -0.0608 -0.3749
  620TMC3     H 9241   3.043   3.920  14.168 -0.1631 -0.2060 -0.8732
  620TMC3    H1 9242   3.336   4.082  13.893  0.4319  1.4500  0.6805
  620TMC3    H2 9243   3.066   4.340  14.069 -0.3866  0.8417 -0.7286
  620TMC3    C7 9244   3.229   4.314  13.893 -0.3622  0.4521 -0.6786
  620TMC3    C8 9245   2.919   4.152  14.190 -0.1073  0.1193 -1.1967
  620TMC3    O1 9246   3.214   4.277  13.776 -0.2357  0.1133 -0.0230
  620TMC3    O2 9247   2.908   4.249  14.266 -0.1257  0.2950  0.7108
  621MPD2     C 9248   2.916   4.303  10.416 -0.1634 -0.4541  0.5000
  621MPD2    C1 9249   2.988   4.227  10.326  0.2661  0.4207  0.2081
  621MPD2    C2 9250   3.056   4.294  10.228 -0.2886 -0.0908  0.2610
  621MPD2    C3 9251   3.063   4.435  10.227  0.7006  0.2069 -0.2016
  621MPD2    C4 9252   2.969   4.503  10.307  0.3303 -0.2402 -0.0929
  621MPD2    C5 9253   2.899   4.435  10.403  0.0656  0.3207  1.1349
  621MPD2     H 9254   3.112   4.242  10.151 -3.2863 -0.7065 -1.5377
  621MPD2    H1 9255   2.966   4.611  10.305  0.0305 -0.2948 -2.1614
  621MPD2    H2 9256   2.875   4.252  10.502  1.3248  1.3876  2.2730
  621MPD2    H3 9257   2.836   4.475  10.482 -0.5517  0.0585  0.7657
  621MPD2     N 9258   3.167   4.489  10.156 -0.5205  0.2831  0.3669
  621MPD2    H5 9259   3.218   4.423  10.097 -0.4534  0.2679  0.4423
  621MPD2    N1 9260   3.002   4.088  10.336 -0.4264  0.2292 -0.5078
  621MPD2    H7 9261   3.080   4.047  10.284  1.1916  1.4306  0.9802
  622TMC3    C1 9262   2.964   3.862  10.404 -0.5524 -0.1460 -0.0738
  622TMC3    C2 9263   2.907   3.800  10.509  0.4081  0.5801 -0.1612
  622TMC3    C3 9264   2.825   3.687  10.496  0.0666 -0.4985  0.2234
  622TMC3    C4 9265   2.957   3.804  10.277  0.6413 -0.2104 -0.0239
  622TMC3    C5 9266   2.879   3.685  10.272  0.0976  0.2107  0.7492
  622TMC3    C6 9267   2.813   3.623  10.379  0.4136  0.5423 -0.0682
  622TMC3     C 9268   2.920   3.996  10.408 -0.2388  0.2080 -0.4942
  622TMC3     O 9269   2.829   4.016  10.486 -0.2852 -0.2319 -0.0625
  622TMC3     H 9270   2.925   3.844  10.606  0.5108  1.3817 -0.5463
  622TMC3    H1 9271   3.022   3.834  10.195  0.9820  0.7139  0.5864
  622TMC3    H2 9272   2.747   3.537  10.371  1.8457 -0.6431  0.9105
  622TMC3    C7 9273   2.884   3.607  10.153 -0.4628 -0.2795  0.3806
  622TMC3    C8 9274   2.707   3.699  10.581  0.0284 -0.0918  0.5798
  622TMC3    O1 9275   2.866   3.486  10.170 -0.1999  0.0610  0.0433
  622TMC3    O2 9276   2.627   3.608  10.576  0.0528 -0.2270  0.6884
  623MPD2     C 9277   2.456   4.193  16.005  0.6527 -0.9095 -0.8295
  623MPD2    C1 9278   2.395   4.219  16.124 -0.5006  0.5383 -0.9761
  623MPD2    C2 9279   2.476   4.234  16.234 -0.3008 -0.4856  0.1983
  623MPD2    C3 9280   2.611   4.242  16.232  0.0580 -0.3684 -0.4221
  623MPD2    C4 9281   2.674   4.208  16.113  0.0073  0.5616 -0.1372
  623MPD2    C5 9282   2.593   4.187  16.004  0.6230  0.5925  0.5363
  623MPD2     H 9283   2.430   4.270  16.325  0.9901 -1.1983  1.1249
  623MPD2    H1 9284   2.782   4.209  16.103  0.0329 -1.2144  0.0626
  623MPD2    H2 9285   2.407   4.186  15.908  0.0427  0.5110 -0.6242
  623MPD2    H3 9286   2.634   4.164  15.907 -0.4417  0.3309  0.1517
  623MPD2     N 9287   2.670   4.284  16.351 -0.0600  0.3416 -0.1685
  623MPD2    H5 9288   2.614   4.284  16.436  0.1902 -2.0534 -0.0089
  623MPD2    N1 9289   2.259   4.248  16.139 -0.1419  0.3272 -0.4271
  623MPD2    H7 9290   2.223   4.265  16.232 -0.5660 -0.1492 -0.5004
  624TMC3    C1 9291   2.921   4.307  16.732  0.1052  0.0432  0.5724
  624TMC3    C2 9292   2.817   4.360  16.798 -0.5934 -0.2198 -0.0034
  624TMC3    C3 9293   2.713   4.407  16.725 -0.1825 -0.1558 -0.4075
  624TMC3    C4 9294   2.921   4.297  16.594 -0.1777 -0.6498 -0.0318
  624TMC3    C5 9295   2.812   4.342  16.522  0.2222 -0.0105  1.0774
  624TMC3    C6 9296   2.704   4.397  16.585  0.1286  0.0184  0.3692
  624TMC3     C 9297   3.040   4.267  16.810 -0.3245 -0.0235 -0.2827
  624TMC3     O 9298   3.024   4.216  16.918  0.8961 -0.2890 -0.1493
  624TMC3     H 9299   2.823   4.362  16.906  2.5304 -1.2050 -0.1581
  624TMC3    H1 9300   3.003   4.251  16.539 -0.4101 -0.4423 -0.5529
  624TMC3    H2 9301   2.624   4.452  16.536 -0.2852 -1.1557 -0.2746
  624TMC3    C7 9302   2.799   4.301  16.385  0.0035  0.5862  0.2100
  624TMC3    C8 9303   2.620   4.500  16.791 -0.4739 -0.2013  0.0186
  624TMC3    O1 9304   2.900   4.288  16.313  0.1644  0.2684 -0.3177
  624TMC3    O2 9305   2.512   4.524  16.743 -0.7242 -0.5796  0.3034
  625MPD2     C 9306   3.370   1.013   0.786  0.1729 -0.1284  0.6142
  625MPD2    C1 9307   3.322   1.118   0.862 -0.2702  0.6998  0.3600
  625MPD2    C2 9308   3.403   1.190   0.944 -0.2963 -0.1345 -0.1105
  625MPD2    C3 9309   3.539   1.152   0.969 -0.2927  0.7856  0.1746
  625MPD2    C4 9310   3.576   1.048   0.897  0.6764 -0.6561 -0.1916
  625MPD2    C5 9311   3.501   0.988   0.803 -0.3667  0.0532  0.4130
  625MPD2     H 9312   3.365   1.267   1.010  0.1657 -1.2984  1.4931
  625MPD2    H1 9313   3.677   1.009   0.904  1.9232  1.6120 -5.3896
  625MPD2    H2 9314   3.318   0.959   0.708  1.4285 -0.1179 -0.2295
  625MPD2    H3 9315   3.556   0.918   0.742  0.9798  1.0046  0.5120
  625MPD2     N 9316   3.612   1.226   1.067 -0.3207 -0.0481 -0.0545
  625MPD2    H5 9317   3.575   1.305   1.118 -1.1525 -0.8996  0.6592
  625MPD2    N1 9318   3.189   1.147   0.874 -1.1702  0.1595  0.4846
  625MPD2    H7 9319   3.158   1.222   0.935 -1.8413 -0.6446  1.1432
  626TMC3    C1 9320   2.963   1.147   0.854 -0.1133  0.0926 -0.0660
  626TMC3    C2 9321   2.866   1.173   0.764 -0.5547  0.2582 -0.4548
  626TMC3    C3 9322   2.782   1.281   0.781 -0.0486  0.2099 -0.5314
  626TMC3    C4 9323   2.979   1.237   0.962 -0.5236 -0.4131 -0.1581
  626TMC3    C5 9324   2.892   1.337   0.975  0.2574  0.2341 -1.1797
  626TMC3    C6 9325   2.810   1.371   0.878 -0.5531 -0.7094 -0.3150
  626TMC3     C 9326   3.086   1.091   0.800  0.0818  0.4016 -0.3000
  626TMC3     O 9327   3.086   1.015   0.704 -0.1822 -0.0396 -0.3024
  626TMC3     H 9328   2.857   1.116   0.672  3.2196  2.0380 -1.9574
  626TMC3    H1 9329   3.038   1.213   1.050 -0.6199 -0.3633 -0.0808
  626TMC3    H2 9330   2.750   1.461   0.885  0.7219  0.2001 -1.1749
  626TMC3    C7 9331   2.933   1.433   1.071  0.0840  1.4678  0.4725
  626TMC3    C8 9332   2.680   1.303   0.684  0.2053  0.3572 -0.2453
  626TMC3    O1 9333   3.044   1.412   1.114  0.0081 -0.3612 -0.2344
  626TMC3    O2 9334   2.688   1.240   0.582 -0.1724 -0.3019 -0.1002
  627MPD2     C 9335   1.714   1.137  14.537 -0.1576 -0.2994  0.5389
  627MPD2    C1 9336   1.644   1.131  14.653  0.7687 -0.2063 -0.9240
  627MPD2    C2 9337   1.516   1.094  14.649 -0.0231 -0.3637 -0.1153
  627MPD2    C3 9338   1.455   1.057  14.532  0.1995 -0.2031 -0.5807
  627MPD2    C4 9339   1.524   1.062  14.412  0.0339  0.5970 -0.1896
  627MPD2    C5 9340   1.655   1.107  14.419 -0.2141  0.4307  0.2585
  627MPD2     H 9341   1.468   1.081  14.745  0.5761 -1.1378  0.0798
  627MPD2    H1 9342   1.480   1.062  14.313 -2.1239  3.4307  0.7763
  627MPD2    H2 9343   1.819   1.164  14.538 -0.1569 -0.3379  1.6073
  627MPD2    H3 9344   1.721   1.110  14.333  0.2128  1.1618  0.6058
  627MPD2     N 9345   1.326   1.005  14.544 -0.2927 -0.3101  0.2348
  627MPD2    H5 9346   1.279   1.015  14.634  1.4229 -0.6288  1.1698
  627MPD2    N1 9347   1.713   1.161  14.774  0.3877  0.3012 -0.5109
  627MPD2    H7 9348   1.811   1.177  14.754  0.1495  2.2347 -0.0745
  628TMC3    C1 9349   1.756   1.229  14.990 -0.5449 -0.1314  0.2091
  628TMC3    C2 9350   1.871   1.160  15.009 -0.9776 -0.0243 -0.6870
  628TMC3    C3 9351   1.961   1.230  15.092 -0.2004 -0.4268  0.5142
  628TMC3    C4 9352   1.735   1.360  15.025 -1.2513  0.1284 -0.2679
  628TMC3    C5 9353   1.837   1.429  15.087  0.1068  0.1327 -0.1875
  628TMC3    C6 9354   1.945   1.360  15.132  0.5066 -0.6117  0.1061
  628TMC3     C 9355   1.660   1.173  14.898  0.5074  1.5486 -0.4887
  628TMC3     O 9356   1.546   1.190  14.928 -0.6454  0.4069 -0.4043
  628TMC3     H 9357   1.883   1.055  14.988 -0.9487 -0.3601  0.9899
  628TMC3    H1 9358   1.642   1.401  14.988 -1.2452  1.0862  0.7638
  628TMC3    H2 9359   2.034   1.414  15.163  0.6446 -1.2450  0.8143
  628TMC3    C7 9360   1.870   1.560  15.035 -0.2591 -0.0747 -0.7608
  628TMC3    C8 9361   2.088   1.157  15.093  0.5545  0.0583  0.0685
  628TMC3    O1 9362   1.991   1.589  15.025 -0.4620  0.8033  0.6889
  628TMC3    O2 9363   2.101   1.069  15.006 -0.1026 -0.2164  0.2075
  629MPD2     C 9364   4.618   0.719  16.350 -0.3452  0.2124  0.1668
  629MPD2    C1 9365   4.614   0.593  16.409  0.6562  0.0460  0.0393
  629MPD2    C2 9366   4.506   0.516  16.383  0.0716  0.1491 -0.0609
  629MPD2    C3 9367   4.415   0.545  16.281 -0.4940 -0.1418 -0.6474
  629MPD2    C4 9368   4.424   0.664  16.213 -1.1191  0.1119 -0.3704
  629MPD2    C5 9369   4.522   0.755  16.257  0.1853 -0.1195  0.0011
  629MPD2     H 9370   4.486   0.420  16.429  1.3892 -0.7992 -1.4674
  629MPD2    H1 9371   4.353   0.697  16.138  0.8033  0.9718 -1.7995
  629MPD2    H2 9372   4.707   0.779  16.365 -0.0675  0.0610 -0.8288
  629MPD2    H3 9373   4.521   0.857  16.219 -0.5162  0.3084  1.1893
  629MPD2     N 9374   4.304   0.461  16.256  0.3180  0.1737 -0.1127
  629MPD2    H5 9375   4.316   0.364  16.284  0.3431 -0.6387 -2.8588
  629MPD2    N1 9376   4.723   0.565  16.494  0.0024  0.2905  0.4198
  629MPD2    H7 9377   0.061   0.631  16.524  0.1640 -1.2421  3.4549
  630TMC3    C1 9378   0.112   0.451  16.665 -0.3703  0.1680  0.4353
  630TMC3    C2 9379   0.224   0.528  16.639  0.0642  0.1716 -0.1987
  630TMC3    C3 9380   0.335   0.508  16.711  1.0364  0.1569 -0.0348
  630TMC3    C4 9381   0.122   0.349  16.752  0.8658  0.4480 -0.6738
  630TMC3    C5 9382   0.240   0.330  16.818 -0.1910  0.3953  0.0188
  630TMC3    C6 9383   0.345   0.410  16.798 -0.0639  0.3453 -0.2256
  630TMC3     C 9384   4.729   0.458  16.579 -0.0279  0.6050  0.3959
  630TMC3     O 9385   4.643   0.373  16.593 -0.0822  0.3444 -0.3324
  630TMC3     H 9386   0.227   0.597  16.555 -0.2130 -0.7148 -0.9410
  630TMC3    H1 9387   0.044   0.273  16.750  1.2991 -0.0292  0.1997
  630TMC3    H2 9388   0.438   0.398  16.852 -1.7170 -1.8039  2.0880
  630TMC3    C7 9389   0.267   0.203  16.890  0.1933  0.4793  0.3814
  630TMC3    C8 9390   0.463   0.561  16.665  0.7022 -0.4383  0.2293
  630TMC3    O1 9391   0.381   0.153  16.902  0.5060  0.2432 -0.3978
  630TMC3    O2 9392   0.556   0.557  16.745 -0.3403  0.0023 -0.1104
  631MPD2     C 9393   2.758   4.555  15.781  0.1995  0.0871  0.4303
  631MPD2    C1 9394   2.829   4.568  15.665 -0.0927  0.1162 -0.7843
  631MPD2    C2 9395   2.960   4.528  15.655  0.2081  0.5724 -0.6002
  631MPD2    C3 9396   3.011   4.447  15.752  0.0626 -0.1434 -0.2627
  631MPD2    C4 9397   2.934   4.423  15.863 -0.1715  0.0497  0.4111
  631MPD2    C5 9398   2.807   4.482  15.883  0.4262  0.3128 -0.8657
  631MPD2     H 9399   3.024   4.558  15.573  0.0891 -0.2407 -0.9918
  631MPD2    H1 9400   2.984   4.365  15.939 -0.6278  1.4937  1.8236
  631MPD2    H2 9401   2.659   4.596  15.797 -0.4169 -1.1233 -0.2429
  631MPD2    H3 9402   2.753   4.489  15.977  0.9510  0.6836 -0.5849
  631MPD2     N 9403   3.135   4.384  15.726 -0.3990  0.0715  0.6244
  631MPD2    H5 9404   3.179   4.407  15.637 -0.5544 -0.8599  0.3090
  631MPD2    N1 9405   2.764   4.641  15.564  0.3438  0.2558  0.0190
  631MPD2    H7 9406   2.677   4.685  15.591  0.5024  1.5358 -1.6071
  632TMC3    C1 9407   2.727   0.021  15.366 -0.7186  0.2800 -0.6873
  632TMC3    C2 9408   2.635   0.097  15.429 -0.3038 -1.5707 -0.0301
  632TMC3    C3 9409   2.594   0.214  15.366  0.3477  0.5798 -0.4713
  632TMC3    C4 9410   2.782   0.068  15.250  0.1073  0.5286  0.4007
  632TMC3    C5 9411   2.742   0.184  15.196 -0.6188 -0.4595  0.0049
  632TMC3    C6 9412   2.645   0.261  15.246 -0.5151  0.4217  0.4985
  632TMC3     C 9413   2.806   4.652  15.434 -1.1797 -0.5765 -0.3438
  632TMC3     O 9414   2.893   4.601  15.371 -0.1463  0.1929 -0.8432
  632TMC3     H 9415   2.594   0.074  15.527  0.2903  0.4117  0.6887
  632TMC3    H1 9416   2.866   0.016  15.206 -0.6355 -2.1275  2.0965
  632TMC3    H2 9417   2.610   0.356  15.208 -0.0646  0.3530 -0.0827
  632TMC3    C7 9418   2.824   0.236  15.089 -0.3121 -0.0623 -0.8817
  632TMC3    C8 9419   2.466   0.265  15.415  0.7412  0.4542  0.2136
  632TMC3    O1 9420   2.880   0.151  15.017  0.2584 -0.4416 -0.4405
  632TMC3    O2 9421   2.427   0.215  15.518  0.6325 -0.5513  0.0973
  633MPD2     C 9422   2.522   2.831   0.226  0.8140 -0.6491  0.3115
  633MPD2    C1 9423   2.652   2.786   0.199  0.1127  0.1457  0.2296
  633MPD2    C2 9424   2.717   2.714   0.292 -0.5209 -0.3811  0.7677
  633MPD2    C3 9425   2.660   2.680   0.413 -0.4604  0.1097  0.9047
  633MPD2    C4 9426   2.531   2.721   0.439 -0.3609  0.4905 -1.0591
  633MPD2    C5 9427   2.464   2.800   0.347 -0.5670  0.4721 -0.7127
  633MPD2     H 9428   2.816   2.678   0.265  0.3608  1.4094  1.6835
  633MPD2    H1 9429   2.482   2.703   0.534 -0.7092  0.9342 -1.1493
  633MPD2    H2 9430   2.471   2.892   0.153 -0.7376 -1.8934  0.3724
  633MPD2    H3 9431   2.362   2.827   0.371 -0.9330 -2.2511  0.8091
  633MPD2     N 9432   2.741   2.614   0.503 -0.7214 -0.0296 -0.6384
  633MPD2    H5 9433   2.837   2.594   0.476 -0.5884 -0.4903  0.1585
  633MPD2    N1 9434   2.724   2.817   0.078 -0.7130 -0.4039 -0.3491
  633MPD2    H7 9435   2.816   2.774   0.070 -0.1055  0.8370 -0.1193
  634TMC3    C1 9436   2.754   2.897  17.591 -0.1289  0.2935  0.4980
  634TMC3    C2 9437   2.848   2.802  17.573  0.2162  0.3610  0.1772
  634TMC3    C3 9438   2.890   2.777  17.441  0.1675 -0.2461  0.7479
  634TMC3    C4 9439   2.719   2.983  17.486  0.0196  0.0618  0.0204
  634TMC3    C5 9440   2.766   2.964  17.360 -0.2835 -0.3686 -0.1429
  634TMC3    C6 9441   2.846   2.855  17.337  0.5320 -0.1307 -0.3240
  634TMC3     C 9442   2.691   2.916  17.721  0.2872 -0.2748  0.0950
  634TMC3     O 9443   2.604   3.000   0.000  0.6142  0.1225 -0.4899
  634TMC3     H 9444   2.908   2.752  17.647  0.9585  1.9997  0.6832
  634TMC3    H1 9445   2.625   3.035  17.500 -0.1377  0.3999 -2.1700
  634TMC3    H2 9446   2.891   2.837  17.241  1.7362  1.0126  0.0338
  634TMC3    C7 9447   2.757   3.064  17.255 -0.5477  0.0817  0.5646
  634TMC3    C8 9448   2.956   2.648  17.419 -0.7371  0.3446 -0.4277
  634TMC3    O1 9449   2.789   3.037  17.142  0.0866 -0.4026 -0.7490
  634TMC3    O2 9450   2.982   2.579  17.518 -0.0708  0.4673 -0.8699
  635TMC3    C1 9451   2.525   4.284   0.430 -0.3701  0.8969  0.3176
  635TMC3    C2 9452   2.540   4.167   0.510  0.0130 -0.4501 -0.0759
  635TMC3    C3 9453   2.456   4.147   0.617 -0.5315  0.2140 -0.1394
  635TMC3    C4 9454   2.443   4.388   0.476  0.5547 -0.5166  0.0569
  635TMC3    C5 9455   2.357   4.363   0.584 -0.2885  0.0883  0.2344
  635TMC3    C6 9456   2.360   4.239   0.653 -0.0931  0.0289  0.4013
  635TMC3     C 9457   2.644   4.318   0.352  0.5530  1.6075 -0.1676
  635TMC3     O 9458   2.739   4.238   0.365 -0.3212 -0.8977 -0.1601
  635TMC3     H 9459   2.619   4.096   0.487  0.7048  0.4638 -0.5237
  635TMC3    H1 9460   2.430   4.473   0.410 -2.7156 -0.6053  0.5925
  635TMC3    H2 9461   2.301   4.230   0.743  1.1554 -2.6089  0.9524
  635TMC3    C7 9462   2.272   4.468   0.630  0.0909  0.2901 -0.2408
  635TMC3    C8 9463   2.482   4.052   0.723 -0.4856  0.7517 -0.4821
  635TMC3    O1 9464   2.172   4.432   0.689  0.5101 -0.2923  0.1365
  635TMC3    O2 9465   2.430   4.071   0.831 -0.5567 -0.1776 -0.7650
  636MPD2     C 9466   3.770   2.982  16.435 -0.2872  0.2022 -0.2064
  636MPD2    C1 9467   3.822   2.957  16.563 -0.0629 -0.0397 -0.1949
  636MPD2    C2 9468   3.913   2.855  16.583  0.0080  0.0512  0.1996
  636MPD2    C3 9469   3.947   2.772  16.488 -0.5675 -0.2383 -0.0055
  636MPD2    C4 9470   3.915   2.798  16.357 -0.2749 -0.3139  0.1623
  636MPD2    C5 9471   3.828   2.902  16.335 -0.0850  1.3529  0.2375
  636MPD2     H 9472   3.953   2.834  16.682 -1.6729 -3.1966  0.1906
  636MPD2    H1 9473   3.946   2.748  16.266 -0.6640 -0.0263 -0.1287
  636MPD2    H2 9474   3.702   3.059  16.401 -0.4572 -0.6305 -1.7688
  636MPD2    H3 9475   3.801   2.925  16.232  3.0569 -0.4325 -1.0000
  636MPD2     N 9476   4.017   2.651  16.518  0.0494 -0.3144  0.0211
  636MPD2    H5 9477   4.036   2.621  16.613  0.4895  0.7469  0.2652
  636MPD2    N1 9478   3.793   3.038  16.677 -0.4014 -0.4920  0.2035
  636MPD2    H7 9479   3.859   3.022  16.753  0.1721 -0.2027 -0.2376
  637TMC3    C1 9480   4.123   2.444  16.488 -0.1831  0.1384 -0.5422
  637TMC3    C2 9481   4.128   2.423  16.620  0.0903  0.0026 -0.2678
  637TMC3    C3 9482   4.202   2.320  16.676  0.1375 -0.3041  0.0906
  637TMC3    C4 9483   4.193   2.359  16.406  0.0526  0.2477 -0.3343
  637TMC3    C5 9484   4.254   2.250  16.463 -0.3298  0.0345  0.0992
  637TMC3    C6 9485   4.257   2.220  16.596  0.4242 -0.5773 -0.5597
  637TMC3     C 9486   4.073   2.565  16.427 -0.1355 -0.6743 -0.1712
  637TMC3     O 9487   4.094   2.573  16.309  0.3162 -0.1149 -0.4485
  637TMC3     H 9488   4.076   2.485  16.691  0.5991  0.3691 -0.2150
  637TMC3    H1 9489   4.184   2.356  16.298 -2.7104  0.1124 -0.0965
  637TMC3    H2 9490   4.308   2.136  16.644  0.2048 -0.6394 -0.4336
  637TMC3    C7 9491   4.315   2.143  16.385  1.1168  0.2439 -0.2058
  637TMC3    C8 9492   4.271   2.364  16.794 -0.3307 -0.3396 -0.3176
  637TMC3    O1 9493   4.275   2.032  16.420  0.1021 -0.2541  0.2697
  637TMC3    O2 9494   4.233   2.468  16.850 -0.1060  0.1756  0.4196
  638MPD2     C 9495   3.907   1.883  15.368  0.1912 -0.2341 -0.1643
  638MPD2    C1 9496   3.979   1.766  15.378  0.4869  0.1601 -0.1155
  638MPD2    C2 9497   3.941   1.678  15.479 -0.4992 -0.3418 -0.8520
  638MPD2    C3 9498   3.820   1.690  15.537 -0.0404  0.0755  0.3160
  638MPD2    C4 9499   3.748   1.806  15.524 -0.0188 -0.3253 -0.1660
  638MPD2    C5 9500   3.788   1.901  15.431 -0.0215 -0.5025 -0.3107
  638MPD2     H 9501   3.990   1.582  15.487  0.1587  0.1963  1.6672
  638MPD2    H1 9502   3.652   1.819  15.574 -0.2657 -0.3432 -0.6380
  638MPD2    H2 9503   3.921   1.960  15.293  0.1606  0.6974  0.7851
  638MPD2    H3 9504   3.714   1.977  15.410 -0.6328 -0.3454  2.4211
  638MPD2     N 9505   3.783   1.572  15.606  0.6291  0.3039  0.4916
  638MPD2    H5 9506   3.842   1.489  15.601  0.3269 -0.0346  2.4003
  638MPD2    N1 9507   4.091   1.743  15.293  0.3132  0.2708  0.3394
  638MPD2    H7 9508   4.093   1.788  15.202  1.6513 -1.8374 -0.6695
  639TMC3    C1 9509   3.655   1.407  15.686  0.7051 -0.3413 -0.4317
  639TMC3    C2 9510   3.590   1.339  15.586 -0.0696 -1.0478  0.3037
  639TMC3    C3 9511   3.631   1.221  15.537  0.3400 -0.3134 -0.5301
  639TMC3    C4 9512   3.776   1.353  15.719  0.4680  0.3117  0.5277
  639TMC3    C5 9513   3.812   1.242  15.660  0.0753  0.5964  0.1045
  639TMC3    C6 9514   3.751   1.164  15.569  0.5332 -0.1325 -0.3658
  639TMC3     C 9515   3.659   1.548  15.666  0.1882  0.2330 -0.2269
  639TMC3     O 9516   3.560   1.618  15.672 -0.0560 -0.7214  0.0451
  639TMC3     H 9517   3.516   1.391  15.525 -1.3356 -2.0880  0.9611
  639TMC3    H1 9518   3.836   1.387  15.803 -1.4351  2.7087  0.9007
  639TMC3    H2 9519   3.788   1.068  15.536 -1.2903 -1.5307  1.6253
  639TMC3    C7 9520   3.934   1.192  15.706  0.0106 -0.3242  0.2862
  639TMC3    C8 9521   3.587   1.176  15.411 -0.0056 -0.7237 -0.4830
  639TMC3    O1 9522   3.946   1.135  15.814 -0.1997 -0.3620 -0.2255
  639TMC3    O2 9523   3.670   1.109  15.350 -0.0879  0.4110  0.3502
  640MPD2     C 9524   3.363   0.932   9.811  0.3410  0.3233  0.5417
  640MPD2    C1 9525   3.279   0.930   9.706 -0.1397  0.0632 -0.0484
  640MPD2    C2 9526   3.194   1.038   9.683  0.2525  0.1014 -0.3073
  640MPD2    C3 9527   3.215   1.154   9.757  0.4251 -0.9366  0.4518
  640MPD2    C4 9528   3.310   1.157   9.854  0.1417  0.4860  0.4387
  640MPD2    C5 9529   3.376   1.038   9.887 -0.0225 -0.2527  0.2559
  640MPD2     H 9530   3.117   1.032   9.606  0.3476 -2.5436 -0.2147
  640MPD2    H1 9531   3.330   1.244   9.917 -0.5726  1.1938 -0.3068
  640MPD2    H2 9532   3.424   0.845   9.834 -0.2548  0.3065  2.0880
  640MPD2    H3 9533   3.445   1.046   9.970  0.9071  2.0793 -0.7347
  640MPD2     N 9534   3.155   1.279   9.725 -0.1160 -0.0199 -0.2865
  640MPD2    H5 9535   3.188   1.353   9.786 -0.7460 -0.4118  0.5312
  640MPD2    N1 9536   3.275   0.804   9.641 -0.0801  0.2465 -0.4436
  640MPD2    H7 9537   3.349   0.739   9.664 -0.5994  0.3789  1.5518
  641TMC3    C1 9538   3.167   0.620   9.520 -0.5483  0.5141  0.4031
  641TMC3    C2 9539   3.264   0.533   9.565  0.0967  0.3324 -0.1822
  641TMC3    C3 9540   3.252   0.404   9.529  0.2606  0.0392 -0.8372
  641TMC3    C4 9541   3.069   0.584   9.443  0.5578 -1.5586 -0.1678
  641TMC3    C5 9542   3.058   0.453   9.416  0.1926 -0.0204 -0.7956
  641TMC3    C6 9543   3.139   0.361   9.468  0.0771 -0.0443  0.1717
  641TMC3     C 9544   3.173   0.762   9.557  0.1748 -0.0114  0.7359
  641TMC3     O 9545   3.072   0.825   9.519  0.5586  0.4089  0.1365
  641TMC3     H 9546   3.346   0.567   9.627 -0.3724 -0.0150  0.6356
  641TMC3    H1 9547   3.002   0.659   9.403 -0.1346 -1.1306  1.8132
  641TMC3    H2 9548   3.119   0.255   9.475 -1.7401  0.3010  0.3504
  641TMC3    C7 9549   2.935   0.413   9.339 -0.2226 -0.1444 -0.1172
  641TMC3    C8 9550   3.364   0.314   9.548  0.1038 -0.2924  0.1845
  641TMC3    O1 9551   2.929   0.295   9.303  0.0144  0.3149 -0.1824
  641TMC3    O2 9552   3.347   0.213   9.484 -0.2739  0.0432 -0.3117
  642TMC3    C1 9553   0.573   1.247  12.920  0.7975 -0.2319 -0.4390
  642TMC3    C2 9554   0.679   1.298  12.851 -0.4370  0.6592  0.2067
  642TMC3    C3 9555   0.681   1.255  12.718 -0.0688  0.3850 -0.2956
  642TMC3    C4 9556   0.494   1.148  12.881 -0.2997 -1.2634  0.2433
  642TMC3    C5 9557   0.519   1.098  12.755  0.5676 -0.8989 -0.4101
  642TMC3    C6 9558   0.606   1.153  12.669  0.1986 -0.6633 -0.9231
  642TMC3     C 9559   0.511   1.335  13.011  0.0449  0.1223  0.4309
  642TMC3     O 9560   0.585   1.405  13.072  0.3261 -0.2436 -0.0531
  642TMC3     H 9561   0.731   1.387  12.884  0.9591  0.8315 -2.3981
  642TMC3    H1 9562   0.430   1.098  12.952  0.1806 -1.2221  0.7035
  642TMC3    H2 9563   0.606   1.122  12.565 -1.6129  1.6215 -1.5964
  642TMC3    C7 9564   0.453   0.974  12.718 -0.1572  0.1750  0.0843
  642TMC3    C8 9565   0.755   1.321  12.615  0.7589  0.4920 -0.1162
  642TMC3    O1 9566   0.443   0.957  12.597  0.3625 -0.3057 -0.5012
  642TMC3    O2 9567   0.750   1.271  12.498  0.0272  0.2431  0.3314
  643TMC3    C1 9568   4.511   0.915   0.529  0.2002  0.8795 -0.1388
  643TMC3    C2 9569   4.396   0.916   0.457 -0.2854 -0.3090  0.3774
  643TMC3    C3 9570   4.383   0.821   0.358  0.1711 -0.0250 -0.2217
  643TMC3    C4 9571   4.617   0.830   0.518  0.3093 -0.3102  0.1941
  643TMC3    C5 9572   4.599   0.736   0.414 -0.0070 -0.0790  0.3337
  643TMC3    C6 9573   4.485   0.739   0.332  0.2902  0.1660  0.6179
  643TMC3     C 9574   4.514   1.016   0.637  0.0805 -0.4451  0.6643
  643TMC3     O 9575   4.410   1.055   0.687 -0.2957 -0.7069  0.0955
  643TMC3     H 9576   4.316   0.981   0.490 -0.3755 -0.5648  0.6573
  643TMC3    H1 9577   4.706   0.842   0.579 -0.6722 -1.0234  1.7573
  643TMC3    H2 9578   4.478   0.675   0.244 -0.2072  2.0948 -0.7627
  643TMC3    C7 9579   4.721   0.701   0.348  0.6283 -0.1165  0.3255
  643TMC3    C8 9580   4.337   0.881   0.240  0.0581  0.5856  0.5555
  643TMC3    O1 9581   0.091   0.763   0.381  0.0398 -0.5280 -0.2095
  643TMC3    O2 9582   4.305   0.996   0.258  0.4947 -0.0382  0.1262
  644MPD2     C 9583   3.291   0.561   9.128  0.1090 -0.5043 -1.0404
  644MPD2    C1 9584   3.408   0.572   9.206  1.1898 -0.3968  0.6590
  644MPD2    C2 9585   3.450   0.694   9.255  0.1817  0.4990  0.7307
  644MPD2    C3 9586   3.367   0.801   9.240 -0.1404 -0.4203 -0.3349
  644MPD2    C4 9587   3.243   0.789   9.181 -0.3055  0.4116  0.0256
  644MPD2    C5 9588   3.213   0.671   9.121  0.4370 -0.1308  0.6091
  644MPD2     H 9589   3.543   0.693   9.312  0.1546  2.4046  0.8002
  644MPD2    H1 9590   3.170   0.870   9.187 -1.3336 -0.4504 -0.7843
  644MPD2    H2 9591   3.278   0.475   9.064  0.2861  0.7154 -2.7368
  644MPD2    H3 9592   3.123   0.665   9.061 -0.5692  0.2118  2.1012
  644MPD2     N 9593   3.411   0.916   9.308  0.1502 -0.1817  0.0649
  644MPD2    H5 9594   3.499   0.905   9.356  1.3946  0.5893 -2.0569
  644MPD2    N1 9595   3.482   0.445   9.218  0.3692  0.0222  0.2627
  644MPD2    H7 9596   3.442   0.375   9.156 -0.8087  1.4775 -0.6123
  645TMC3    C1 9597   3.403   1.141   9.396 -0.5924  0.2876 -0.2966
  645TMC3    C2 9598   3.394   1.273   9.361 -0.1046  0.3492 -0.7249
  645TMC3    C3 9599   3.461   1.375   9.424 -0.5769  0.0348  0.6812
  645TMC3    C4 9600   3.482   1.102   9.499 -0.2550 -0.9293  0.3600
  645TMC3    C5 9601   3.554   1.203   9.553 -0.7075 -0.9801 -0.1032
  645TMC3    C6 9602   3.541   1.339   9.526  0.6066  1.0206 -0.2626
  645TMC3     C 9603   3.355   1.038   9.297  0.0265  0.5053  0.0295
  645TMC3     O 9604   3.257   1.069   9.233  0.0825  0.4443 -0.1687
  645TMC3     H 9605   3.334   1.301   9.276 -0.1720  0.2992 -0.6930
  645TMC3    H1 9606   3.482   1.004   9.545  0.1228 -1.5122 -0.8959
  645TMC3    H2 9607   3.608   1.413   9.568  0.7034 -0.3744  2.0469
  645TMC3    C7 9608   3.640   1.181   9.672  0.0436  0.4080  0.2693
  645TMC3    C8 9609   3.421   1.512   9.408  0.0336  0.5574 -1.1371
  645TMC3    O1 9610   3.670   1.283   9.739 -0.4985 -0.5803  0.3371
  645TMC3    O2 9611   3.316   1.533   9.352  0.0396 -0.4532 -0.2956
  646MPD2     C 9612   4.066   0.437  14.886 -0.2374 -0.4451  0.0847
  646MPD2    C1 9613   3.951   0.422  14.966  0.1560 -0.1453 -0.3160
  646MPD2    C2 9614   3.834   0.484  14.928  0.2551  0.3153  0.3044
  646MPD2    C3 9615   3.826   0.561  14.812  0.1731  0.5833 -0.3143
  646MPD2    C4 9616   3.937   0.571  14.732  0.1652 -0.7266  0.0276
  646MPD2    C5 9617   4.059   0.510  14.771 -0.1028 -0.4586 -0.1162
  646MPD2     H 9618   3.742   0.469  14.984 -0.0094 -0.4959 -0.3386
  646MPD2    H1 9619   3.939   0.631  14.641 -2.8517 -0.9140 -0.1705
  646MPD2    H2 9620   4.159   0.385  14.908  0.9674  1.4743 -0.4960
  646MPD2    H3 9621   4.143   0.526  14.704  0.2136  0.6078  0.5247
  646MPD2     N 9622   3.700   0.622  14.782 -0.5962 -0.3406 -0.5903
  646MPD2    H5 9623   3.624   0.587  14.840 -0.5822  0.8568  0.1385
  646MPD2    N1 9624   3.971   0.333  15.073  0.4350  0.5113 -0.1565
  646MPD2    H7 9625   4.064   0.296  15.087 -0.2918 -1.4001 -0.4352
  647TMC3    C1 9626   3.936   0.243  15.290  0.6782 -0.5689 -0.3111
  647TMC3    C2 9627   3.858   0.254  15.406  0.4264 -0.1497  0.3170
  647TMC3    C3 9628   3.916   0.226  15.526 -0.1101  0.2456  0.5655
  647TMC3    C4 9629   4.063   0.201  15.298 -0.8305  0.0559 -0.0679
  647TMC3    C5 9630   4.120   0.178  15.419  0.7200  0.3998  0.6451
  647TMC3    C6 9631   4.050   0.199  15.539  0.4161 -0.5232  0.2436
  647TMC3     C 9632   3.879   0.299  15.172  0.3310  0.2953  0.3649
  647TMC3     O 9633   3.761   0.329  15.176  0.7501 -0.3561  0.2187
  647TMC3     H 9634   3.751   0.266  15.396  0.2790 -0.4512  1.5260
  647TMC3    H1 9635   4.121   0.173  15.211  1.7616  1.1242  1.3188
  647TMC3    H2 9636   4.096   0.177  15.635  1.6874  0.0822 -0.2354
  647TMC3    C7 9637   4.247   0.111  15.434 -0.2276 -0.1107 -0.1684
  647TMC3    C8 9638   3.847   0.119  15.585  0.1481 -0.0299  0.6798
  647TMC3    O1 9639   4.307   0.132  15.537 -0.4919 -0.8365 -0.0626
  647TMC3    O2 9640   3.890   0.082  15.695 -0.0519 -0.5917  0.0299
  648TMC3    C1 9641   3.195   2.675  16.646  0.2969 -0.4505  0.2293
  648TMC3    C2 9642   3.203   2.540  16.619 -0.0837 -0.1396 -0.0500
  648TMC3    C3 9643   3.195   2.497  16.495 -0.5670 -0.3357 -0.0317
  648TMC3    C4 9644   3.167   2.763  16.539 -0.0843 -0.8607 -0.3045
  648TMC3    C5 9645   3.157   2.712  16.411  0.2081 -0.2031 -0.5999
  648TMC3    C6 9646   3.173   2.579  16.390  0.3499  0.0144  0.0189
  648TMC3     C 9647   3.217   2.737  16.779 -0.3592  0.8099  0.2035
  648TMC3     O 9648   3.193   2.855  16.782  0.6449  0.0705  0.0649
  648TMC3     H 9649   3.204   2.470  16.701 -0.9423  0.6685  0.6481
  648TMC3    H1 9650   3.162   2.870  16.548  1.3392 -0.8577  0.4597
  648TMC3    H2 9651   3.135   2.550  16.293 -1.8234 -0.1910  0.9437
  648TMC3    C7 9652   3.096   2.811  16.311  0.0862 -0.8710  0.6660
  648TMC3    C8 9653   3.242   2.367  16.466 -0.8644 -0.4071  0.1487
  648TMC3    O1 9654   3.125   2.788  16.191  0.6403  0.0710 -0.1543
  648TMC3    O2 9655   3.228   2.281  16.554 -0.2544  0.1541  0.1914
  649TMC3    C1 9656   2.135   3.777  13.164  0.4058 -0.0667  0.6232
  649TMC3    C2 9657   2.236   3.692  13.135  0.0315  0.1646 -0.9652
  649TMC3    C3 9658   2.274   3.602  13.231  0.1299  0.5072  0.0286
  649TMC3    C4 9659   2.082   3.787  13.291  0.1156 -0.0088 -1.0586
  649TMC3    C5 9660   2.125   3.696  13.389  0.9169 -0.2774 -0.0827
  649TMC3    C6 9661   2.218   3.602  13.360 -0.1802  0.0768 -0.1848
  649TMC3     C 9662   2.122   3.903  13.095  0.3248 -0.1635  0.3431
  649TMC3     O 9663   2.015   3.960  13.094 -0.3772  0.2500 -0.0837
  649TMC3     H 9664   2.278   3.688  13.035  1.4497 -1.0016 -0.3203
  649TMC3    H1 9665   1.992   3.843  13.311 -0.3557 -0.3121 -2.3431
  649TMC3    H2 9666   2.267   3.538  13.433 -0.7853  0.3722  0.4751
  649TMC3    C7 9667   2.032   3.665  13.496 -0.0745 -0.0048 -0.3893
  649TMC3    C8 9668   2.374   3.506  13.178 -0.4715  0.1151 -0.2391
  649TMC3    O1 9669   1.960   3.754  13.532  0.3270 -0.0860 -0.5599
  649TMC3    O2 9670   2.424   3.536  13.069  0.6610 -0.9440  0.2909
  650TMC3    C1 9671   4.400   0.176  12.863  0.0365 -0.1980 -0.6828
  650TMC3    C2 9672   4.345   0.238  12.968  0.1995  0.3735 -0.0049
  650TMC3    C3 9673   4.319   0.372  12.953  0.8182  0.2032  0.5556
  650TMC3    C4 9674   4.422   0.235  12.738 -0.7644  0.6529 -0.6387
  650TMC3    C5 9675   4.387   0.372  12.731  0.4441 -0.7616  0.1798
  650TMC3    C6 9676   4.346   0.438  12.839  0.0624  0.5012  0.1902
  650TMC3     C 9677   4.393   0.031  12.877  0.1463  0.5670 -0.2263
  650TMC3     O 9678   4.313   4.715  12.951 -0.3667  0.9172 -0.1867
  650TMC3     H 9679   4.341   0.192  13.066 -2.4370  1.8373  0.5841
  650TMC3    H1 9680   4.454   0.184  12.648 -0.8638  1.3832 -1.0889
  650TMC3    H2 9681   4.331   0.544  12.825  1.1808  1.0072  2.8306
  650TMC3    C7 9682   4.404   0.440  12.598  0.1041 -0.1237 -0.3394
  650TMC3    C8 9683   4.270   0.439  13.076  0.3104 -0.0606 -0.2101
  650TMC3    O1 9684   4.378   0.378  12.496  0.1491  0.3322  0.0542
  650TMC3    O2 9685   4.208   0.368  13.156 -0.5109 -0.0821  0.9287
  651MPD2     C 9686   3.232   2.960  11.427  0.5784  0.2534  0.1788
  651MPD2    C1 9687   3.202   3.086  11.385  0.3241  0.6859 -0.6675
  651MPD2    C2 9688   3.308   3.167  11.339 -0.2647  0.1048 -0.0295
  651MPD2    C3 9689   3.435   3.118  11.320  0.3562  0.1739 -0.5340
  651MPD2    C4 9690   3.456   2.986  11.354  0.5373  0.1590 -0.3782
  651MPD2    C5 9691   3.355   2.910  11.401  0.4135 -0.0779  0.0236
  651MPD2     H 9692   3.282   3.265  11.301  0.1404 -0.2418 -1.2073
  651MPD2    H1 9693   3.553   2.939  11.344  1.3763  2.0749 -1.3453
  651MPD2    H2 9694   3.163   2.879  11.446  2.5443 -1.5105 -0.1444
  651MPD2    H3 9695   3.384   2.808  11.423 -0.9170 -0.1852  1.2728
  651MPD2     N 9696   3.537   3.202  11.262 -0.7807 -0.0879  0.7058
  651MPD2    H5 9697   3.513   3.297  11.236  1.2994  0.4139  0.6397
  651MPD2    N1 9698   3.067   3.130  11.387  0.1649  0.0720  0.1337
  651MPD2    H7 9699   3.051   3.226  11.362  1.5194  0.9605  2.6726
  652TMC3    C1 9700   3.921   3.280  10.989  0.7432 -0.0854 -0.1665
  652TMC3    C2 9701   3.835   3.194  11.051 -0.0360 -0.3454  0.0508
  652TMC3    C3 9702   3.740   3.251  11.132 -0.7864 -0.4080 -0.3073
  652TMC3    C4 9703   3.929   3.410  11.028  0.1816  0.3763  0.9768
  652TMC3    C5 9704   3.831   3.459  11.104  0.1293  0.4078  0.1584
  652TMC3    C6 9705   3.738   3.384  11.164 -0.1028 -0.3777  0.5693
  652TMC3     C 9706   4.049   3.223  10.982 -0.7241  0.7554  0.1604
  652TMC3     O 9707   4.085   3.149  11.074 -0.4829  0.4715  0.0005
  652TMC3     H 9708   3.825   3.088  11.029  1.8663 -0.4222 -0.4658
  652TMC3    H1 9709   4.025   3.457  11.009  0.2600  0.6172  1.9807
  652TMC3    H2 9710   3.679   3.437  11.238 -1.6341  0.1239 -1.0285
  652TMC3    C7 9711   3.851   3.590  11.166  0.7832  0.3503  0.4358
  652TMC3    C8 9712   3.659   3.154  11.213  0.2035  0.2922 -0.3243
  652TMC3    O1 9713   3.825   3.609  11.284  0.4056 -0.0144  0.5082
  652TMC3    O2 9714   3.704   3.038  11.219  0.2738  0.1143 -0.7431
  653MPD2     C 9715   2.122   2.832   0.328  0.6309  0.2286 -0.9002
  653MPD2    C1 9716   2.138   2.932   0.233 -0.1554 -0.2464 -0.3035
  653MPD2    C2 9717   2.123   2.895   0.097 -0.2931  0.3713  0.2661
  653MPD2    C3 9718   2.112   2.762   0.050  0.0226 -0.7542 -0.7790
  653MPD2    C4 9719   2.104   2.669   0.152  0.7203 -0.3274  0.5939
  653MPD2    C5 9720   2.103   2.702   0.287  0.3737 -0.0882  0.1186
  653MPD2     H 9721   2.118   2.970   0.019 -0.1364  0.0046 -0.0967
  653MPD2    H1 9722   2.106   2.563   0.130 -1.4549 -0.0060 -1.1143
  653MPD2    H2 9723   2.129   2.848   0.435 -2.0917  0.7940 -0.7968
  653MPD2    H3 9724   2.115   2.621   0.357  0.9433 -1.8866 -2.0438
  653MPD2     N 9725   2.098   2.737  17.639  0.4008 -0.5858 -0.1589
  653MPD2    H5 9726   2.103   2.824  17.587 -0.3007 -0.0150  0.7201
  653MPD2    N1 9727   2.166   3.063   0.256  0.4949  0.2536 -0.0040
  653MPD2    H7 9728   2.149   3.129   0.181 -0.1441  1.0858  0.8794
  654TMC3    C1 9729   2.092   2.625  17.437 -0.3731 -0.0521 -0.0929
  654TMC3    C2 9730   2.038   2.726  17.364 -0.0469  0.0709  0.9716
  654TMC3    C3 9731   2.063   2.721  17.231 -0.0273  0.5541 -0.0231
  654TMC3    C4 9732   2.164   2.521  17.386 -0.6275  0.9156  0.1882
  654TMC3    C5 9733   2.184   2.522  17.250  0.1910 -0.0325 -0.2198
  654TMC3    C6 9734   2.119   2.612  17.173  0.4257 -0.9301  0.0197
  654TMC3     C 9735   2.085   2.619  17.584 -0.4417 -0.3347  0.2078
  654TMC3     O 9736   2.091   2.508  17.637  0.4072 -0.2998  0.3802
  654TMC3     H 9737   1.984   2.809  17.408  1.6022  0.7934  1.6090
  654TMC3    H1 9738   2.200   2.438  17.445  3.3785  1.3432 -1.6592
  654TMC3    H2 9739   2.132   2.607  17.066 -1.5789 -2.3285 -0.1580
  654TMC3    C7 9740   2.228   2.398  17.186 -0.2806 -0.2340  0.5250
  654TMC3    C8 9741   1.957   2.792  17.156 -0.5010 -0.4749 -0.7284
  654TMC3    O1 9742   2.194   2.375  17.071  0.0309 -0.1897  0.0737
  654TMC3    O2 9743   1.901   2.890  17.204 -0.0941 -0.5453  0.5124
  655MPD2     C 9744   3.626   2.834  15.960  0.4862  0.1566  0.2494
  655MPD2    C1 9745   3.589   2.956  15.902  0.4197 -0.3107  0.3069
  655MPD2    C2 9746   3.572   2.960  15.759  0.2288  0.4929  0.0761
  655MPD2    C3 9747   3.598   2.847  15.683 -0.6389 -0.0822 -0.5683
  655MPD2    C4 9748   3.637   2.734  15.746 -0.1769 -0.0325  0.3289
  655MPD2    C5 9749   3.654   2.727  15.882 -0.1785  0.4170 -0.1555
  655MPD2     H 9750   3.552   3.057  15.713  2.4020  0.9096  0.0115
  655MPD2    H1 9751   3.660   2.642  15.694 -0.7916 -1.4163  2.5061
  655MPD2    H2 9752   3.653   2.830  16.065  0.9495 -1.5707  0.0776
  655MPD2    H3 9753   3.687   2.633  15.925 -1.5950 -0.8550 -1.8848
  655MPD2     N 9754   3.601   2.849  15.540  0.3593 -0.2183  0.3214
  655MPD2    H5 9755   3.615   2.757  15.501 -0.4673  0.2111 -0.9865
  655MPD2    N1 9756   3.560   3.072  15.980  0.2442 -0.0397 -0.5015
  655MPD2    H7 9757   3.532   3.154  15.927 -0.7882  0.6281  1.0757
  656TMC3    C1 9758   3.426   3.174  16.150  0.2702  0.2640  0.0308
  656TMC3    C2 9759   3.390   3.173  16.279 -1.1683 -0.5952  1.1962
  656TMC3    C3 9760   3.273   3.243  16.317 -0.0369  0.5713  0.0132
  656TMC3    C4 9761   3.350   3.237  16.058 -0.2315  0.1686 -0.7787
  656TMC3    C5 9762   3.239   3.308  16.098 -0.2931  0.0799  0.4924
  656TMC3    C6 9763   3.197   3.312  16.227 -0.4236 -0.3375  0.1480
  656TMC3     C 9764   3.520   3.068  16.113 -0.3363  0.2467  0.1729
  656TMC3     O 9765   3.521   2.967  16.187  0.6468  0.5917 -0.3605
  656TMC3     H 9766   3.452   3.124  16.354  1.0572 -1.3419 -1.1440
  656TMC3    H1 9767   3.385   3.248  15.956  1.7553 -0.2290 -0.1366
  656TMC3    H2 9768   3.099   3.343  16.263 -1.0359 -0.3878 -1.4693
  656TMC3    C7 9769   3.140   3.341  15.994  0.3416  0.2022 -1.0132
  656TMC3    C8 9770   3.227   3.206  16.453  0.2448 -0.2238 -0.1980
  656TMC3    O1 9771   3.142   3.280  15.890  0.5071  0.4103  0.1348
  656TMC3    O2 9772   3.265   3.098  16.495  0.7818 -0.0591  0.1063
  657TMC3    C1 9773   2.402   2.321  15.368  0.1914  0.6506 -0.4645
  657TMC3    C2 9774   2.498   2.411  15.419  0.7085  0.5110 -0.1736
  657TMC3    C3 9775   2.474   2.545  15.410  0.1094 -0.2407 -0.0637
  657TMC3    C4 9776   2.279   2.366  15.333  0.9953  0.0319 -0.4631
  657TMC3    C5 9777   2.261   2.500  15.317 -0.0748 -0.3264 -0.1560
  657TMC3    C6 9778   2.353   2.591  15.360  0.5385 -0.0865  0.2934
  657TMC3     C 9779   2.413   2.178  15.388  0.4478 -0.8115  0.0466
  657TMC3     O 9780   2.310   2.113  15.408  0.2943  0.3777  0.0871
  657TMC3     H 9781   2.590   2.375  15.463  0.5236 -1.3302 -1.2955
  657TMC3    H1 9782   2.209   2.291  15.298  2.8824 -1.3879 -1.2389
  657TMC3    H2 9783   2.326   2.696  15.374 -0.4961  0.0227 -2.4838
  657TMC3    C7 9784   2.152   2.537  15.233 -0.1069 -0.6187 -0.7552
  657TMC3    C8 9785   2.565   2.640  15.465 -0.2426  0.5358  0.5035
  657TMC3    O1 9786   2.065   2.455  15.215 -0.5294  0.2460 -0.6589
  657TMC3    O2 9787   2.547   2.759  15.445  0.6256 -0.1245 -0.2745
  658MPD2     C 9788   3.824   3.224  14.868 -0.0696 -0.0475  0.9631
  658MPD2    C1 9789   3.777   3.096  14.859  0.1321  0.1349 -0.3885
  658MPD2    C2 9790   3.740   3.039  14.737 -0.3617  0.0612 -0.1667
  658MPD2    C3 9791   3.736   3.117  14.623 -0.2690 -0.1680  0.0640
  658MPD2    C4 9792   3.774   3.248  14.632  0.0193  0.1942 -0.1787
  658MPD2    C5 9793   3.816   3.303  14.754  0.2207 -0.6319 -0.6644
  658MPD2     H 9794   3.704   2.937  14.727 -0.2993 -0.0526  0.8244
  658MPD2    H1 9795   3.759   3.327  14.559 -3.4890 -2.1423 -1.9851
  658MPD2    H2 9796   3.845   3.270  14.963 -2.0207  2.3460  0.2180
  658MPD2    H3 9797   3.838   3.409  14.761 -0.0407 -0.4392 -2.7267
  658MPD2     N 9798   3.685   3.068  14.502 -0.1301  0.2655 -0.1560
  658MPD2    H5 9799   3.666   2.969  14.488  0.0924  0.1938  0.0566
  658MPD2    N1 9800   3.758   3.024  14.978 -0.1621  0.0662  0.2936
  658MPD2    H7 9801   3.752   3.082  15.061 -0.2066 -0.5980  0.7526
  659TMC3    C1 9802   3.656   2.869  15.115  0.4397  0.4278 -0.3082
  659TMC3    C2 9803   3.674   2.946  15.225 -0.4461 -0.2438  0.6729
  659TMC3    C3 9804   3.571   2.929  15.322 -0.2768 -1.4555  0.6241
  659TMC3    C4 9805   3.545   2.795  15.083  0.6041 -0.6941  0.5820
  659TMC3    C5 9806   3.445   2.797  15.181  0.2665  0.5372  1.0906
  659TMC3    C6 9807   3.458   2.862  15.303  0.2669 -0.1033 -0.1046
  659TMC3     C 9808   3.735   2.894  14.993  0.5884  0.6107 -0.7946
  659TMC3     O 9809   3.750   2.809  14.909  0.0037  0.1703  0.3669
  659TMC3     H 9810   3.765   2.996  15.255 -0.4554  0.1056  0.1165
  659TMC3    H1 9811   3.519   2.761  14.983  4.0352 -0.3557 -0.4274
  659TMC3    H2 9812   3.382   2.857  15.380 -1.0510 -2.2941 -1.5383
  659TMC3    C7 9813   3.310   2.778  15.146  0.6541 -0.1330 -0.8787
  659TMC3    C8 9814   3.609   2.966  15.457 -0.1545  0.6243 -0.6461
  659TMC3    O1 9815   3.228   2.845  15.210 -0.7992 -0.6546  0.2573
  659TMC3    O2 9816   3.658   3.071  15.491  0.4931 -0.8627  0.6823
  660MPD2     C 9817   1.473   1.725  12.680  0.3704  0.0677  0.2211
  660MPD2    C1 9818   1.409   1.809  12.772 -0.4401  0.2884  1.1944
  660MPD2    C2 9819   1.393   1.757  12.902 -0.4172  0.3936  0.2528
  660MPD2    C3 9820   1.426   1.627  12.942 -0.1801  0.4326  0.0511
  660MPD2    C4 9821   1.493   1.549  12.847  0.1079  0.8499  0.8695
  660MPD2    C5 9822   1.502   1.597  12.718  0.4402 -0.0576  0.2598
  660MPD2     H 9823   1.334   1.816  12.972  0.8830  1.8968  0.0761
  660MPD2    H1 9824   1.534   1.449  12.858 -3.2112 -0.3502  2.3562
  660MPD2    H2 9825   1.497   1.757  12.579  0.6156  1.0118  0.5784
  660MPD2    H3 9826   1.550   1.541  12.638 -0.1929 -0.1746 -0.0346
  660MPD2     N 9827   1.400   1.564  13.068 -0.2453  0.4255 -0.9731
  660MPD2    H5 9828   1.429   1.466  13.074 -1.6849  0.0978  0.3788
  660MPD2    N1 9829   1.357   1.937  12.730 -0.7802  0.5361  0.2711
  660MPD2    H7 9830   1.355   1.955  12.630  1.4426 -0.2805  0.0614
  661TMC3    C1 9831   1.198   2.117  12.737  0.6536  0.2322 -0.2068
  661TMC3    C2 9832   1.222   2.125  12.602  0.0461  0.1338  0.6550
  661TMC3    C3 9833   1.116   2.105  12.510  0.5755  0.3283  0.0240
  661TMC3    C4 9834   1.071   2.100  12.781  0.6158 -0.4156 -0.1999
  661TMC3    C5 9835   0.970   2.084  12.689 -0.7033 -0.4522 -0.3489
  661TMC3    C6 9836   0.985   2.078  12.555 -0.2174  0.1255  0.2567
  661TMC3     C 9837   1.294   2.031  12.809  0.8583  0.4632  0.3951
  661TMC3     O 9838   1.284   2.035  12.928  0.6759 -0.3022  0.2212
  661TMC3     H 9839   1.323   2.130  12.561 -1.2537  1.1334 -2.3980
  661TMC3    H1 9840   1.049   2.088  12.886 -1.2389  0.9971 -0.4262
  661TMC3    H2 9841   0.903   2.080  12.485  1.7599  0.5840 -2.0179
  661TMC3    C7 9842   0.860   1.997  12.746  0.1929 -0.3253 -0.3406
  661TMC3    C8 9843   1.148   2.147  12.372 -0.5411 -0.5138 -0.0999
  661TMC3    O1 9844   0.837   1.994  12.866 -0.5419 -0.2169  0.3461
  661TMC3    O2 9845   1.221   2.243  12.348 -0.1560  0.1761  0.0811
  662MPD2     C 9846   1.723   1.224  17.036 -0.7239 -0.1934  0.1845
  662MPD2    C1 9847   1.820   1.244  17.133  0.4471  0.4009 -0.0391
  662MPD2    C2 9848   1.807   1.348  17.225 -0.0032 -0.2735  0.2688
  662MPD2    C3 9849   1.708   1.444  17.204  0.5546  0.5719 -1.1678
  662MPD2    C4 9850   1.633   1.434  17.093  0.9670 -0.2259  0.0071
  662MPD2    C5 9851   1.636   1.323  17.017  0.2409  0.2409  0.7467
  662MPD2     H 9852   1.876   1.352  17.309  1.9396 -1.0757 -1.2978
  662MPD2    H1 9853   1.563   1.509  17.059  3.2508  0.8446 -2.2932
  662MPD2    H2 9854   1.725   1.138  16.970  1.3190 -1.3827  1.7789
  662MPD2    H3 9855   1.568   1.321  16.932 -0.0326  1.2719  0.9383
  662MPD2     N 9856   1.689   1.560  17.290 -0.0425  0.1191 -0.6659
  662MPD2    H5 9857   1.620   1.625  17.254  0.3308 -0.0967 -1.7754
  662MPD2    N1 9858   1.914   1.139  17.163  0.3675 -0.5439  0.2419
  662MPD2    H7 9859   1.972   1.151  17.246  0.6708  1.2252 -0.2306
  663TMC3    C1 9860   2.031   0.946  17.156  0.1412  0.0242 -1.1252
  663TMC3    C2 9861   2.037   0.947  17.296 -0.5732 -0.1382 -0.6191
  663TMC3    C3 9862   2.120   0.848  17.349  0.0143 -0.3107  0.3939
  663TMC3    C4 9863   2.117   0.874  17.078  0.1303 -0.5949 -0.3224
  663TMC3    C5 9864   2.187   0.777  17.141 -0.5342 -0.5474 -0.2103
  663TMC3    C6 9865   2.183   0.756  17.273 -0.3727  0.2911 -0.3150
  663TMC3     C 9866   1.926   1.020  17.090  1.0242 -0.8044  0.6355
  663TMC3     O 9867   1.889   0.983  16.977  0.3118  0.3889  0.3867
  663TMC3     H 9868   1.949   0.979  17.350 -0.0458  0.2441  0.0111
  663TMC3    H1 9869   2.110   0.878  16.970  0.6907 -1.7077 -0.4014
  663TMC3    H2 9870   2.257   0.697  17.325 -0.3938 -0.7203 -1.4395
  663TMC3    C7 9871   2.210   0.652  17.070 -0.7710 -0.0336  0.0949
  663TMC3    C8 9872   2.066   0.773  17.463  0.0584  0.2057 -0.8612
  663TMC3    O1 9873   2.225   0.656  16.950  0.1783 -0.2897 -0.4026
  663TMC3    O2 9874   2.067   0.656  17.448  0.1604 -0.5240  0.5634
  664MPD2     C 9875   0.166   4.260   0.054  0.1663  0.3372 -0.5466
  664MPD2    C1 9876   0.196   4.395   0.064  0.1525 -0.4532  0.5049
  664MPD2    C2 9877   0.132   4.472   0.158 -0.0851  0.2255 -1.1222
  664MPD2    C3 9878   0.054   4.421   0.257 -0.6673 -0.1200  0.4828
  664MPD2    C4 9879   0.036   4.286   0.260  0.2287 -0.2351  0.4937
  664MPD2    C5 9880   0.078   4.209   0.148  0.1514 -0.8019 -0.4240
  664MPD2     H 9881   0.146   4.579   0.167  0.5268  0.1145 -0.6563
  664MPD2    H1 9882   4.705   4.243   0.336  1.8573 -0.3971  1.7527
  664MPD2    H2 9883   0.191   4.190  17.706  2.6206  1.4070 -0.7320
  664MPD2    H3 9884   0.041   4.108   0.136  0.9196 -1.5590  3.5160
  664MPD2     N 9885   0.017   4.506   0.362  0.3513 -0.9754 -0.6396
  664MPD2    H5 9886   0.026   4.604   0.340  1.5987 -0.7234  0.9761
  664MPD2    N1 9887   0.284   4.463  17.703  0.0906  0.3934 -0.0464
  664MPD2    H7 9888   0.301   4.562  17.720  3.2831 -0.0751 -0.4527
  665TMC3    C1 9889   4.694   4.586   0.577  0.4204  0.6401 -0.5696
  665TMC3    C2 9890   0.026   4.581   0.696 -0.2910 -0.0428  0.1460
  665TMC3    C3 9891   0.071   4.694   0.761 -0.4538  0.3765 -0.5992
  665TMC3    C4 9892   4.652   4.704   0.528  0.2854 -0.1867 -0.2140
  665TMC3    C5 9893   4.681   0.089   0.598  0.1584  0.2272 -0.2129
  665TMC3    C6 9894   0.027   0.081   0.714 -0.1512 -0.7282 -0.8774
  665TMC3     C 9895   4.710   4.470   0.495  0.2041  0.4362  0.4312
  665TMC3     O 9896   4.711   4.355   0.543 -0.4452 -0.1122  0.0938
  665TMC3     H 9897   0.057   4.481   0.725 -1.0220  0.0485  1.2584
  665TMC3    H1 9898   4.599   4.718   0.435  0.9341 -0.1033 -0.5656
  665TMC3    H2 9899   0.043   0.177   0.762  1.4744 -1.8366  0.7734
  665TMC3    C7 9900   4.571   0.184   0.589 -0.3867  0.2595 -0.7070
  665TMC3    C8 9901   0.120   4.696   0.893 -0.2741 -0.6589 -0.4698
  665TMC3    O1 9902   4.465   0.148   0.534  0.0225  0.2104 -0.2037
  665TMC3    O2 9903   0.139   0.076   0.937  0.1274  0.0893 -0.2610
  666TMC3    C1 9904   3.331   4.634  10.065 -0.1558  0.2165 -0.0306
  666TMC3    C2 9905   3.441   4.550  10.082 -0.1887 -0.1450  0.2653
  666TMC3    C3 9906   3.560   4.606  10.048  0.3174  0.1156 -0.2371
  666TMC3    C4 9907   3.342   0.022  10.004  0.3899  0.8880 -0.0030
  666TMC3    C5 9908   3.457   0.061   9.952 -0.3973  0.1355  0.4133
  666TMC3    C6 9909   3.568   4.717   9.968 -0.5355  0.8272 -0.2461
  666TMC3     C 9910   3.215   4.619  10.153 -0.0767 -0.1033 -0.3252
  666TMC3     O 9911   3.155   4.725  10.181 -0.7820 -0.3089 -0.0783
  666TMC3     H 9912   3.431   4.451  10.123  1.0464 -0.8378 -1.1078
  666TMC3    H1 9913   3.251   0.080   9.995  0.1005 -0.0466 -2.9889
  666TMC3    H2 9914   3.664   0.031   9.946  0.0014  1.7896  4.0807
  666TMC3    C7 9915   3.485   0.201   9.974 -0.2577  0.1817 -0.3839
  666TMC3    C8 9916   3.679   4.525  10.071 -0.6763  0.6038 -0.1588
  666TMC3    O1 9917   3.597   0.242   9.995 -0.0206 -0.3882 -0.4775
  666TMC3    O2 9918   3.662   4.411  10.117  0.3278  0.2204 -0.1986
  667MPD2     C 9919   0.837   4.422  14.611 -0.1233  0.3849 -0.4810
  667MPD2    C1 9920   0.838   4.397  14.750 -0.4948  0.5220 -0.4622
  667MPD2    C2 9921   0.801   4.277  14.798 -0.1253  0.7102 -0.1060
  667MPD2    C3 9922   0.773   4.171  14.711  0.2457  0.6992  1.1210
  667MPD2    C4 9923   0.784   4.189  14.572  0.4413 -0.9076 -0.0796
  667MPD2    C5 9924   0.821   4.316  14.529  0.2908 -0.8125  0.0399
  667MPD2     H 9925   0.799   4.256  14.904 -3.0305 -3.2413 -0.9349
  667MPD2    H1 9926   0.758   4.106  14.507 -0.6909 -1.4103  1.0064
  667MPD2    H2 9927   0.879   4.514  14.573 -3.1001  2.7174  1.8801
  667MPD2    H3 9928   0.821   4.330  14.422 -0.1893 -2.0214 -0.1174
  667MPD2     N 9929   0.739   4.041  14.760 -0.4595  0.0209 -0.4326
  667MPD2    H5 9930   0.719   3.977  14.683 -0.0305  0.3343 -0.8037
  667MPD2    N1 9931   0.876   4.494  14.844 -0.0478 -0.0621  0.3787
  667MPD2    H7 9932   0.887   4.469  14.942 -0.0308 -1.0127  0.1386
  668TMC3    C1 9933   0.932   4.720  14.929  0.1869  0.2734  0.1418
  668TMC3    C2 9934   1.002   0.103  14.912  0.3368 -0.0752 -0.6155
  668TMC3    C3 9935   1.017   0.182  15.023 -0.2499  0.2773 -0.3234
  668TMC3    C4 9936   0.860   4.696  15.044  0.2912 -0.2977 -0.3663
  668TMC3    C5 9937   0.872   0.053  15.145  0.0950 -0.5382  0.4237
  668TMC3    C6 9938   0.958   0.156  15.144  0.6242 -0.1309  0.1297
  668TMC3     C 9939   0.930   4.620  14.813  0.1523  0.1823 -0.0651
  668TMC3     O 9940   0.968   4.664  14.707  0.0339  0.1136  0.0724
  668TMC3     H 9941   1.071   0.107  14.828 -1.5921 -0.4486 -2.2123
  668TMC3    H1 9942   0.798   4.608  15.050  1.4911 -1.0457  1.1790
  668TMC3    H2 9943   0.972   0.219  15.230 -3.2223  0.6818  0.1360
  668TMC3    C7 9944   0.815   0.027  15.284 -0.2585 -0.3268  0.0789
  668TMC3    C8 9945   1.090   0.305  15.009  0.2202 -0.0337 -0.1766
  668TMC3    O1 9946   0.876   0.072  15.376  0.0572 -0.2612 -0.6700
  668TMC3    O2 9947   1.120   0.359  15.111 -0.2446 -0.3903 -0.3396
  669TMC3    C1 9948   3.656   4.115  15.186  0.4329  0.0648 -0.2667
  669TMC3    C2 9949   3.555   4.113  15.099  0.1027 -0.0600 -0.7266
  669TMC3    C3 9950   3.579   4.165  14.972 -0.5044 -0.2178  0.8240
  669TMC3    C4 9951   3.778   4.151  15.146  0.6118 -0.2314  0.2421
  669TMC3    C5 9952   3.800   4.183  15.012  0.5920  0.3595 -0.2050
  669TMC3    C6 9953   3.696   4.196  14.927  0.0676  0.6725 -0.0916
  669TMC3     C 9954   3.620   4.071  15.318 -0.3264 -0.0363 -0.0719
  669TMC3     O 9955   3.502   4.033  15.336  0.2432 -0.1061 -0.0679
  669TMC3     H 9956   3.453   4.113  15.136  0.2115 -0.1573 -0.4233
  669TMC3    H1 9957   3.861   4.145  15.215  0.8505  0.9109  0.0662
  669TMC3    H2 9958   3.715   4.226  14.825 -2.0656  0.6233 -0.5040
  669TMC3    C7 9959   3.926   4.245  14.976 -0.2320  0.2053 -0.2473
  669TMC3    C8 9960   3.460   4.185  14.890  0.3901 -0.0843 -0.4726
  669TMC3    O1 9961   3.976   4.326  15.051 -0.1364 -0.0060 -0.1797
  669TMC3    O2 9962   3.359   4.129  14.927  0.4588 -0.0436  0.1905
  670MPD2     C 9963   1.583   1.899  13.799  0.1851  0.0093 -0.3044
  670MPD2    C1 9964   1.707   1.850  13.827 -0.0697  0.6545 -0.4709
  670MPD2    C2 9965   1.743   1.847  13.966 -0.3387  0.5579 -0.1732
  670MPD2    C3 9966   1.665   1.888  14.068  0.2286 -0.3052  0.0904
  670MPD2    C4 9967   1.538   1.938  14.029 -0.2496 -0.0396 -0.5810
  670MPD2    C5 9968   1.500   1.936  13.897 -0.1786  0.5556 -0.6713
  670MPD2     H 9969   1.840   1.802  13.986  0.0990  1.2355 -0.7760
  670MPD2    H1 9970   1.462   1.977  14.097  1.3528 -0.9217  1.7248
  670MPD2    H2 9971   1.541   1.908  13.699 -1.9337 -0.7061  0.5094
  670MPD2    H3 9972   1.405   1.983  13.871 -1.1953  0.0216  2.0816
  670MPD2     N 9973   1.703   1.869  14.202  0.2230 -0.3093  0.0610
  670MPD2    H5 9974   1.786   1.812  14.215 -0.8894 -1.4656  2.0875
  670MPD2    N1 9975   1.799   1.805  13.733  0.3527 -0.6714 -0.2760
  670MPD2    H7 9976   1.895   1.803  13.765 -0.0034 -0.5641  0.7880
  671TMC3    C1 9977   1.645   1.793  14.424 -0.0223 -0.3404  0.8828
  671TMC3    C2 9978   1.776   1.780  14.476  0.2432  0.5124 -0.2650
  671TMC3    C3 9979   1.796   1.670  14.559 -0.3064 -0.6611 -0.2619
  671TMC3    C4 9980   1.539   1.712  14.465  0.8274 -0.0123  0.8705
  671TMC3    C5 9981   1.576   1.594  14.530 -0.6013  0.4972 -0.2658
  671TMC3    C6 9982   1.697   1.578  14.579 -0.3452 -0.4315 -0.5281
  671TMC3     C 9983   1.613   1.876  14.304 -0.5855 -0.5589 -0.4463
  671TMC3     O 9984   1.497   1.917  14.309 -0.3528  0.2057 -0.1526
  671TMC3     H 9985   1.861   1.838  14.443  2.1909 -1.8306  0.6501
  671TMC3    H1 9986   1.448   1.718  14.405  0.8078 -1.4969  0.7448
  671TMC3    H2 9987   1.725   1.482  14.620 -0.8618 -0.8515 -1.1733
  671TMC3    C7 9988   1.536   1.484  14.451 -0.0193 -0.3014 -0.1949
  671TMC3    C8 9989   1.930   1.622  14.572 -0.1283  0.4707 -0.2009
  671TMC3    O1 9990   1.596   1.483  14.342  0.1969 -0.5000 -0.1139
  671TMC3    O2 9991   1.952   1.502  14.559 -0.7059  0.6159 -0.4458
  672MPD2     C 9992   2.249   3.035   1.079 -0.3559 -0.4478  0.4518
  672MPD2    C1 9993   2.364   2.955   1.074  0.3811 -0.3473  0.5930
  672MPD2    C2 9994   2.476   2.999   1.138 -0.1668 -0.4540 -0.1554
  672MPD2    C3 9995   2.486   3.128   1.190 -0.3963 -0.8400 -0.4092
  672MPD2    C4 9996   2.369   3.203   1.202  0.0133  0.3169  0.7567
  672MPD2    C5 9997   2.263   3.157   1.138  0.1660 -0.1044  0.5067
  672MPD2     H 9998   2.556   2.927   1.150  1.3509  0.9421 -1.6995
  672MPD2    H1 9999   2.363   3.303   1.244  1.5387 -0.1185  2.0004
  672MPD2    H210000   2.151   3.006   1.043 -0.4071 -0.0761  0.2936
  672MPD2    H310001   2.173   3.218   1.135 -1.4741 -2.5505  0.3452
  672MPD2     N10002   2.605   3.192   1.236 -0.0526  0.3390 -0.0374
  672MPD2    H510003   2.594   3.288   1.267 -1.4458  0.3859 -0.6470
  672MPD2    N110004   2.352   2.833   1.001  0.6023 -0.1144 -0.1492
  672MPD2    H710005   2.265   2.812   0.953  0.8433 -0.4859 -0.4171
  673TMC3    C110006   2.407   2.615   0.935 -0.6195  0.8504 -0.6513
  673TMC3    C210007   2.477   2.508   0.975 -0.3203 -0.1943  0.1355
  673TMC3    C310008   2.439   2.391   0.920  0.2540 -0.5256 -0.6245
  673TMC3    C410009   2.300   2.618   0.850 -0.7038 -0.6623 -0.6040
  673TMC3    C510010   2.270   2.496   0.799  0.3660  0.2522 -0.7182
  673TMC3    C610011   2.330   2.384   0.842  0.0725  0.6979  0.1269
  673TMC3     C10012   2.454   2.740   0.984 -0.4433  0.0169 -0.1688
  673TMC3     O10013   2.565   2.740   1.020  0.6280  0.1691 -0.4473
  673TMC3     H10014   2.558   2.529   1.044  0.5954 -0.3765 -0.8862
  673TMC3    H110015   2.278   2.708   0.793 -4.6148 -1.9332 -1.1365
  673TMC3    H210016   2.300   2.290   0.797  0.0357  0.5218  0.5217
  673TMC3    C710017   2.152   2.494   0.700  0.0387  0.2486  0.0152
  673TMC3    C810018   2.507   2.267   0.946 -0.6515 -1.0249 -0.8892
  673TMC3    O110019   2.151   2.398   0.622 -0.4446 -0.0257 -0.3052
  673TMC3    O210020   2.475   2.164   0.887 -0.3916 -0.7474 -0.3094
  674MPD2     C10021   2.034   1.147   0.559  0.2175 -0.7090 -0.1531
  674MPD2    C110022   1.989   1.182   0.682  0.2896 -0.2900  0.1217
  674MPD2    C210023   1.980   1.317   0.710 -0.0599 -0.6569  0.3029
  674MPD2    C310024   1.999   1.419   0.619  0.2734  0.2884  0.1621
  674MPD2    C410025   2.032   1.379   0.492 -0.7026  0.9245  0.0591
  674MPD2    C510026   2.057   1.247   0.469  0.5876  0.7596 -0.3124
  674MPD2     H10027   1.941   1.347   0.807  3.6848  0.3309  1.5045
  674MPD2    H110028   2.055   1.452   0.415  0.2139 -0.6147 -1.1132
  674MPD2    H210029   2.042   1.045   0.524  2.2332 -0.0340 -1.6855
  674MPD2    H310030   2.079   1.219   0.367 -0.9177  2.4641 -1.1048
  674MPD2     N10031   1.983   1.557   0.643 -0.2453 -0.0538  0.4687
  674MPD2    H510032   2.001   1.614   0.561  0.0508 -1.0610 -0.1708
  674MPD2    N110033   1.975   1.089   0.785 -0.2976  0.6692 -0.1225
  674MPD2    H710034   2.000   0.995   0.756  1.3784  1.5501 -1.5372
  675TMC3    C110035   1.903   0.997   0.993  0.2836  0.2124  0.1784
  675TMC3    C210036   1.856   1.023   1.122  0.1729 -0.0660 -0.1318
  675TMC3    C310037   1.884   0.927   1.217 -0.3495 -0.1145 -0.5320
  675TMC3    C410038   1.974   0.881   0.969  0.6250  0.7945 -1.0070
  675TMC3    C510039   2.017   0.802   1.079  0.4183 -0.0740 -0.0202
  675TMC3    C610040   1.966   0.820   1.203  0.1622 -0.6628  0.3502
  675TMC3     C10041   1.903   1.110   0.895  0.0139  0.6543 -0.1043
  675TMC3     O10042   1.830   1.198   0.941  0.0397 -0.1448 -0.1014
  675TMC3     H10043   1.787   1.102   1.150 -0.0682 -0.4090  0.2631
  675TMC3    H110044   2.032   0.869   0.878  1.3439 -0.1659 -0.4285
  675TMC3    H210045   1.988   0.753   1.285 -3.5310 -0.9378  1.1130
  675TMC3    C710046   2.096   0.688   1.043  0.5165  0.7495 -0.2585
  675TMC3    C810047   1.859   0.964   1.353  0.2443 -0.2626  0.3987
  675TMC3    O110048   2.119   0.677   0.923 -0.3549 -0.1159 -0.1002
  675TMC3    O210049   1.871   0.875   1.433  0.0706 -0.3547  0.0572
  676MPD2     C10050   4.514   0.837  11.097  0.3914 -0.1939  0.1871
  676MPD2    C110051   4.428   0.755  11.172 -0.7300 -0.4397  0.0540
  676MPD2    C210052   4.402   0.625  11.125 -0.4708  0.3085 -1.0378
  676MPD2    C310053   4.470   0.583  11.009 -0.1899 -0.7174 -0.1714
  676MPD2    C410054   4.544   0.669  10.935 -0.1765 -0.0773 -0.5213
  676MPD2    C510055   4.573   0.789  10.978 -0.0454 -0.2090 -0.0460
  676MPD2     H10056   4.344   0.556  11.186 -0.1477 -1.1429 -2.3670
  676MPD2    H110057   4.593   0.646  10.840 -0.0149  1.2569 -0.7566
  676MPD2    H210058   4.539   0.938  11.129 -0.2637  0.1833 -0.4896
  676MPD2    H310059   4.643   0.855  10.928 -0.9965  0.3323 -0.6682
  676MPD2     N10060   4.449   0.454  10.954  0.6071  0.2170 -0.4852
  676MPD2    H510061   4.491   0.434  10.864  0.2888 -0.0989 -0.5639
  676MPD2    N110062   4.392   0.781  11.305 -0.5038  0.0095 -0.1928
  676MPD2    H710063   4.341   0.711  11.358  0.0947  0.3603  0.8545
  677TMC3    C110064   4.341   0.906  11.497  0.2333  0.6265  0.3760
  677TMC3    C210065   4.319   0.790  11.557  0.2878 -0.6923  0.0346
  677TMC3    C310066   4.234   0.789  11.674 -0.5637 -0.0173  0.2585
  677TMC3    C410067   4.287   1.024  11.525 -0.3974 -0.0072 -0.0285
  677TMC3    C510068   4.205   1.018  11.643  0.8305 -1.0397  0.5268
  677TMC3    C610069   4.179   0.906  11.713 -0.6380  0.0667  0.1491
  677TMC3     C10070   4.416   0.904  11.370 -0.1336 -0.5221  0.1491
  677TMC3     O10071   4.471   1.009  11.330  0.3295  0.2445 -0.8345
  677TMC3     H10072   4.376   0.701  11.532  1.1006 -0.0610 -0.3472
  677TMC3    H110073   4.307   1.113  11.467 -2.6121  1.1521  0.9631
  677TMC3    H210074   4.116   0.912  11.801  0.4923  1.4362  0.8544
  677TMC3    C710075   4.170   1.136  11.712  0.0962  0.7390 -0.1682
  677TMC3    C810076   4.268   0.696  11.778 -0.2867  0.2767  0.1804
  677TMC3    O110077   4.068   1.135  11.781 -0.1851 -0.1532 -0.1410
  677TMC3    O210078   4.379   0.646  11.764  0.1700 -0.4302  0.1806
  678MPD2     C10079   1.343   0.958   1.783 -0.2476  0.1851  0.2352
  678MPD2    C110080   1.298   0.923   1.658 -0.4039 -0.6749  0.4193
  678MPD2    C210081   1.171   0.972   1.620  0.7315 -0.4898  0.7517
  678MPD2    C310082   1.089   1.044   1.710 -0.2925  0.5612 -0.1010
  678MPD2    C410083   1.132   1.073   1.839  0.1837 -1.0277 -0.0879
  678MPD2    C510084   1.263   1.035   1.862  0.0165 -0.6599 -0.3186
  678MPD2     H10085   1.136   0.962   1.518  0.8077 -2.0032  0.8697
  678MPD2    H110086   1.079   1.134   1.911  1.4546  0.1992 -0.1986
  678MPD2    H210087   1.443   0.931   1.815 -0.3552 -1.4493 -0.8080
  678MPD2    H310088   1.294   1.043   1.966 -1.6748 -0.2661  0.1706
  678MPD2     N10089   0.971   1.098   1.658  0.3685  0.4194  0.7604
  678MPD2    H510090   0.964   1.085   1.558  0.6926  3.6872  0.3425
  678MPD2    N110091   1.373   0.856   1.562 -0.2355  0.1782  0.4879
  678MPD2    H710092   1.348   0.857   1.464  1.4839  2.1543  0.0880
  679TMC3    C110093   1.689   0.609   1.335  0.9470 -0.8696 -0.8880
  679TMC3    C210094   1.647   0.662   1.458  0.1198  0.0447 -1.0052
  679TMC3    C310095   1.561   0.768   1.460  0.0652  0.7815  0.5236
  679TMC3    C410096   1.644   0.659   1.222 -0.0953 -0.1808  0.1857
  679TMC3    C510097   1.557   0.767   1.223 -0.6015 -0.7577  0.4182
  679TMC3    C610098   1.515   0.821   1.343 -0.1723 -0.0721 -0.0579
  679TMC3     C10099   1.797   0.516   1.314  0.0268  0.3953  0.3105
  679TMC3     O10100   1.806   0.468   1.204  0.0298 -0.0453 -0.1774
  679TMC3     H10101   1.694   0.613   1.543  0.2891  2.2912  0.2067
  679TMC3    H110102   1.674   0.622   1.125 -0.6634 -0.5989  0.1704
  679TMC3    H210103   1.452   0.909   1.348 -0.5920 -0.3704 -0.0512
  679TMC3    C710104   1.539   0.834   1.099  0.3110  0.5829 -0.3995
  679TMC3    C810105   1.497   0.807   1.580  0.4754 -0.7515 -0.0711
  679TMC3    O110106   1.630   0.836   1.022  0.4309  0.0356 -0.0021
  679TMC3    O210107   1.545   0.757   1.686  0.0946  0.2536 -0.4548
  680MPD2     C10108   1.341   4.001  13.638  0.3066  0.4792  0.4012
  680MPD2    C110109   1.367   3.998  13.773  0.8401 -0.5027 -0.3218
  680MPD2    C210110   1.427   4.107  13.836 -0.1149 -0.0301  0.0878
  680MPD2    C310111   1.475   4.216  13.763 -1.0151 -0.3258 -0.5933
  680MPD2    C410112   1.430   4.219  13.630  0.6268  0.0310 -0.1240
  680MPD2    C510113   1.370   4.110  13.570 -0.0947  0.1068  0.0723
  680MPD2     H10114   1.435   4.093  13.943 -0.5938 -0.0607  0.1206
  680MPD2    H110115   1.444   4.294  13.554 -0.7043 -0.5464 -0.9383
  680MPD2    H210116   1.304   3.914  13.584 -0.1351  1.3998 -0.7691
  680MPD2    H310117   1.352   4.105  13.464  1.6973  0.2448 -0.2438
  680MPD2     N10118   1.551   4.321  13.816 -0.4534 -1.2076 -0.3314
  680MPD2    H510119   1.563   4.404  13.759 -0.1733 -0.2344  1.1441
  680MPD2    N110120   1.339   3.887  13.853 -0.1160  0.0080  0.3115
  680MPD2    H710121   1.347   3.896  13.953 -0.8555 -1.1578  0.4854
  681TMC3    C110122   1.305   3.676  13.927 -0.1248 -0.9584  0.1593
  681TMC3    C210123   1.270   3.738  14.051 -0.2778  0.6635 -0.1762
  681TMC3    C310124   1.354   3.746  14.151  0.3667 -0.7114 -1.2875
  681TMC3    C410125   1.430   3.626  13.919 -0.3334  0.2847  0.6831
  681TMC3    C510126   1.521   3.629  14.019 -0.0932  0.2408 -0.0102
  681TMC3    C610127   1.478   3.695  14.134 -0.1570  0.2642  0.2644
  681TMC3     C10128   1.291   3.763  13.816  0.0574 -0.0253  0.1174
  681TMC3     O10129   1.277   3.707  13.706 -0.0661  0.4825 -0.1276
  681TMC3     H10130   1.174   3.787  14.065 -0.1689  0.8100  0.0542
  681TMC3    H110131   1.469   3.597  13.822  2.9367 -1.4110  2.4957
  681TMC3    H210132   1.551   3.710  14.213  1.2927  0.2285 -1.0664
  681TMC3    C710133   1.650   3.571  14.009  0.3667 -0.0902  0.4649
  681TMC3    C810134   1.304   3.779  14.279 -0.1923  0.8979 -0.3620
  681TMC3    O110135   1.708   3.550  14.115 -0.2206 -0.4618  0.0663
  681TMC3    O210136   1.183   3.769  14.296 -0.4542  0.1756  0.0752
  682MPD2     C10137   3.576   1.065  11.035  0.0902 -0.2960 -0.3675
  682MPD2    C110138   3.470   0.978  11.022 -0.3761 -0.3354  0.2079
  682MPD2    C210139   3.412   0.912  11.134 -0.2532  0.3417 -0.3146
  682MPD2    C310140   3.475   0.910  11.261  0.3674  0.5826 -0.2925
  682MPD2    C410141   3.571   1.005  11.273 -0.1644  0.0831  0.1228
  682MPD2    C510142   3.626   1.075  11.165 -0.4775 -0.6341 -0.4193
  682MPD2     H10143   3.337   0.836  11.119 -1.8306  1.8594 -0.1360
  682MPD2    H110144   3.628   1.018  11.364 -0.7587  1.0091  0.3599
  682MPD2    H210145   3.615   1.126  10.955  2.0233  1.7241  2.1155
  682MPD2    H310146   3.701   1.148  11.193 -2.2034  0.7460  0.5906
  682MPD2     N10147   3.440   0.827  11.374 -0.0755 -0.8156  0.3672
  682MPD2    H510148   3.495   0.825  11.459  0.5291  1.0201  0.0109
  682MPD2    N110149   3.422   0.945  10.896  0.5031 -0.4464  0.5741
  682MPD2    H710150   3.332   0.900  10.908  0.3697  0.1667  1.9002
  683TMC3    C110151   3.396   0.585  11.704 -0.3460 -0.0320  0.6502
  683TMC3    C210152   3.311   0.474  11.693  0.1200  0.8689  0.8254
  683TMC3    C310153   3.234   0.462  11.584  0.1523 -0.3044  0.2637
  683TMC3    C410154   3.396   0.682  11.605 -0.4636 -0.8190 -1.3822
  683TMC3    C510155   3.324   0.657  11.494 -0.2526 -0.7716 -0.3612
  683TMC3    C610156   3.236   0.552  11.487 -0.5461  0.2593  0.4515
  683TMC3     C10157   3.487   0.595  11.821  0.2691 -0.5515 -0.5244
  683TMC3     O10158   3.533   0.708  11.843  0.3111 -0.1548  0.3260
  683TMC3     H10159   3.307   0.405  11.776  0.0132 -0.5169 -0.3325
  683TMC3    H110160   3.449   0.776  11.613  1.4539 -2.1420  1.5601
  683TMC3    H210161   3.171   0.540  11.401  1.0906 -0.9997 -0.6090
  683TMC3    C710162   3.324   0.752  11.381 -0.2953 -0.3494 -0.1890
  683TMC3    C810163   3.144   0.350  11.555  0.0704  0.5557  0.4096
  683TMC3    O110164   3.230   0.738  11.302  0.0444  0.3318 -0.3151
  683TMC3    O210165   3.047   0.371  11.482 -1.1092  0.5156  0.0106
  684MPD2     C10166   2.175   0.092  16.590  0.6021  1.2089  0.1086
  684MPD2    C110167   2.138   0.117  16.461 -0.0123  0.5274  0.0992
  684MPD2    C210168   2.139   0.243  16.409  0.2113  0.4947  0.0108
  684MPD2    C310169   2.203   0.351  16.477 -0.2716  0.2382 -0.5404
  684MPD2    C410170   2.239   0.327  16.607 -0.7714  0.3694 -0.0864
  684MPD2    C510171   2.231   0.198  16.657 -0.2384 -0.1694 -0.2973
  684MPD2     H10172   2.094   0.253  16.311  0.4576 -0.6935 -0.2252
  684MPD2    H110173   2.284   0.406  16.665 -1.7485 -0.0351  1.2433
  684MPD2    H210174   2.161   0.002  16.648 -1.6819  1.9554  0.7227
  684MPD2    H310175   2.250   0.187  16.763 -0.0875  1.6103 -0.1369
  684MPD2     N10176   2.230   0.477  16.424  0.0939  0.6969 -0.1206
  684MPD2    H510177   2.265   0.545  16.490 -2.2271 -1.4196  3.3101
  684MPD2    N110178   2.081   0.021  16.382 -0.1607 -0.5681  0.5509
  684MPD2    H710179   2.033   0.058  16.301  1.5482 -2.7395 -1.4573
  685TMC3    C110180   2.042   4.550  16.272 -0.2352  0.0476 -0.1271
  685TMC3    C210181   1.962   4.622  16.188  0.5745  0.8446  0.7087
  685TMC3    C310182   1.940   4.568  16.062  0.0249 -0.8463  1.1101
  685TMC3    C410183   2.101   4.436  16.230 -0.8422  0.0315 -0.0462
  685TMC3    C510184   2.095   4.396  16.095  0.1004 -0.1541  1.1620
  685TMC3    C610185   2.022   4.472  16.004  0.7757 -0.4066  0.2255
  685TMC3     C10186   2.102   4.619  16.384  0.0422 -0.6126  0.7270
  685TMC3     O10187   2.173   4.558  16.460  0.6763 -0.0886 -0.2404
  685TMC3     H10188   1.908   4.708  16.225  0.2743  0.5494  0.9485
  685TMC3    H110189   2.154   4.382  16.308 -1.0581  1.1974  0.9125
  685TMC3    H210190   1.996   4.433  15.906  0.9994  2.3530 -0.9325
  685TMC3    C710191   2.187   4.306  16.039 -0.1073 -0.1452  0.9443
  685TMC3    C810192   1.849   4.632  15.968  0.0467 -0.0378 -0.1674
  685TMC3    O110193   2.198   4.303  15.917 -0.0523  0.1826  0.1825
  685TMC3    O210194   1.848   4.594  15.851 -0.1859  0.3971  0.0878
  686MPD2     C10195   3.193   0.076  15.638 -0.4014  0.5119  0.6047
  686MPD2    C110196   3.272   4.710  15.695 -0.6932 -0.1175 -0.4052
  686MPD2    C210197   3.330   4.611  15.614 -0.1530  0.8653  0.5223
  686MPD2    C310198   3.311   4.609  15.476 -0.4203  0.4751  0.1878
  686MPD2    C410199   3.230   4.705  15.422  0.4540  0.2152  0.4941
  686MPD2    C510200   3.181   0.072  15.500 -0.2373 -0.5178 -0.7237
  686MPD2     H10201   3.396   4.538  15.659  0.3112  1.1551  0.3114
  686MPD2    H110202   3.193   4.692  15.321  2.3496 -1.1744 -0.0367
  686MPD2    H210203   3.141   0.153  15.693 -2.8290  0.1473 -1.1768
  686MPD2    H310204   3.102   0.132  15.456 -1.2172 -1.0980  0.2347
  686MPD2     N10205   3.356   4.507  15.388 -0.0054  0.5441 -0.5910
  686MPD2    H510206   3.329   4.514  15.290  0.6666 -0.8809 -0.8799
  686MPD2    N110207   3.267   4.703  15.835 -0.1274  0.4336  0.5314
  686MPD2    H710208   3.208   0.033  15.889  2.1412  1.1977  2.1705
  687TMC3    C110209   3.444   4.341  15.542 -0.3690 -0.8817 -0.2673
  687TMC3    C210210   3.320   4.301  15.590  0.3553 -0.0865 -0.7157
  687TMC3    C310211   3.316   4.248  15.713 -0.1715 -0.3629 -0.2995
  687TMC3    C410212   3.565   4.319  15.605 -0.0459 -0.3979  0.3294
  687TMC3    C510213   3.554   4.272  15.732  0.1718  0.1744 -0.1661
  687TMC3    C610214   3.434   4.230  15.784  0.2387 -0.2585 -0.0663
  687TMC3     C10215   3.450   4.414  15.415 -0.1982  0.7446 -0.7357
  687TMC3     O10216   3.519   4.357  15.333 -0.4319  0.6618 -0.1673
  687TMC3     H10217   3.234   4.295  15.525 -0.2661  1.9381 -0.0991
  687TMC3    H110218   3.657   4.327  15.548  1.4327 -3.1230  2.2893
  687TMC3    H210219   3.422   4.210  15.890  0.1061  3.0367  0.5267
  687TMC3    C710220   3.672   4.248  15.811 -0.5720 -0.1497 -0.0558
  687TMC3    C810221   3.204   4.292  15.797  0.9646  0.7903  0.6246
  687TMC3    O110222   3.670   4.174  15.908  0.1136 -0.0570  0.2766
  687TMC3    O210223   3.184   4.242  15.908  0.0949  0.0888  0.2013
  688MPD2     C10224   2.641   3.661   0.124  0.2618  0.6956  0.7269
  688MPD2    C110225   2.622   3.523   0.115 -0.3306 -0.5520  0.0748
  688MPD2    C210226   2.705   3.457   0.025  0.3816 -0.0723  0.2964
  688MPD2    C310227   2.803   3.525  17.687 -0.1009 -0.2231  1.0953
  688MPD2    C410228   2.829   3.650  17.713  0.2542  0.4249  0.4756
  688MPD2    C510229   2.744   3.724   0.062 -0.4339  0.7107  0.1579
  688MPD2     H10230   2.687   3.351   0.007  0.3791 -0.0157 -0.0311
  688MPD2    H110231   2.911   3.704  17.667  0.0004 -0.0326 -0.5136
  688MPD2    H210232   2.580   3.724   0.188  0.7113  0.4180  1.4341
  688MPD2    H310233   2.768   3.829   0.068 -0.5552  0.8767 -2.1713
  688MPD2     N10234   2.904   3.469  17.606  0.1956 -0.1563 -0.0771
  688MPD2    H510235   2.972   3.533  17.567 -0.0908 -0.7784 -1.6182
  688MPD2    N110236   2.513   3.458   0.187 -0.0978  0.4351  0.1054
  688MPD2    H710237   2.519   3.357   0.196  0.6106  0.1499 -3.4568
  689TMC3    C110238   2.341   3.438   0.350 -1.1849 -0.4098  0.1005
  689TMC3    C210239   2.282   3.513   0.450 -0.1601  0.1123  0.2869
  689TMC3    C310240   2.182   3.450   0.520 -0.2289 -1.1671 -0.2600
  689TMC3    C410241   2.305   3.313   0.324  0.2082  0.2371 -0.1063
  689TMC3    C510242   2.195   3.263   0.385 -0.3983 -0.1549 -0.2371
  689TMC3    C610243   2.142   3.320   0.489  0.1897  0.5568 -0.1626
  689TMC3     C10244   2.418   3.523   0.258 -0.2994 -0.0376 -0.1764
  689TMC3     O10245   2.381   3.642   0.252 -0.3784 -0.5385  0.3046
  689TMC3     H10246   2.314   3.615   0.467 -0.0982  0.1607 -0.1210
  689TMC3    H110247   2.350   3.257   0.242 -2.2116 -0.8515 -0.6913
  689TMC3    H210248   2.050   3.278   0.527  0.0389  2.1958  1.2609
  689TMC3    C710249   2.180   3.124   0.383 -0.1760  0.4584 -0.0368
  689TMC3    C810250   2.117   3.507   0.635 -0.0307 -0.1712  0.2736
  689TMC3    O110251   2.168   3.073   0.492 -0.7674  0.2951 -0.6800
  689TMC3    O210252   2.038   3.440   0.700 -0.2891 -0.8244  0.1750
  690MPD2     C10253   0.332   0.789  16.104 -0.3689 -0.5604 -0.3894
  690MPD2    C110254   0.254   0.765  15.996  0.4226 -0.0148 -0.1753
  690MPD2    C210255   0.307   0.804  15.871 -0.5604  0.1927 -0.1372
  690MPD2    C310256   0.432   0.866  15.858 -0.2548  0.1008 -0.7493
  690MPD2    C410257   0.500   0.896  15.970  0.4580  0.4608  0.7033
  690MPD2    C510258   0.451   0.862  16.091 -0.5546 -0.0802 -0.2095
  690MPD2     H10259   0.253   0.763  15.786 -1.6062  1.4778 -0.0880
  690MPD2    H110260   0.597   0.945  15.964  1.7547 -2.3402 -1.5894
  690MPD2    H210261   0.304   0.764  16.206  2.4541 -0.6610  0.3655
  690MPD2    H310262   0.510   0.878  16.181 -0.0795  0.1478 -0.5633
  690MPD2     N10263   0.482   0.887  15.731 -0.5662  0.0468 -0.3295
  690MPD2    H510264   0.418   0.861  15.657  0.3153  1.1637 -1.4917
  690MPD2    N110265   0.147   0.674  16.003 -0.9353  0.4642 -0.2890
  690MPD2    H710266   0.101   0.658  15.914  2.5025 -1.3764 -1.7235
  691TMC3    C110267   0.004   0.506  16.080 -0.3556  0.7666  0.2927
  691TMC3    C210268   4.645   0.533  15.984 -0.2550 -0.6779  0.4854
  691TMC3    C310269   4.544   0.442  15.971  0.7519  0.3439 -0.4950
  691TMC3    C410270   0.010   0.383  16.142  0.7583 -0.0177 -0.4002
  691TMC3    C510271   4.652   0.290  16.109 -0.5472  0.0982 -0.2464
  691TMC3    C610272   4.548   0.317  16.022  0.2955 -0.2120  0.5204
  691TMC3     C10273   0.117   0.595  16.112 -0.0252  0.7164  0.0011
  691TMC3     O10274   0.162   0.580  16.226 -0.5892  0.4258  0.3359
  691TMC3     H10275   4.637   0.632  15.941  2.0500 -0.4112  0.6940
  691TMC3    H110276   0.078   0.358  16.223 -0.8002  1.0319  1.2378
  691TMC3    H210277   4.466   0.247  16.015 -0.2159  0.5339 -0.9196
  691TMC3    C710278   4.668   0.150  16.146 -0.7504 -0.4602  0.0483
  691TMC3    C810279   4.430   0.469  15.887  0.1058 -0.1486 -0.4515
  691TMC3    O110280   0.009   0.130  16.242  0.3825 -0.5157  0.6660
  691TMC3    O210281   4.364   0.376  15.852 -0.2916  0.3778 -0.6148
  692TMC3    C110282   1.316   1.417  15.621 -0.1011 -0.6778 -0.4815
  692TMC3    C210283   1.401   1.513  15.576 -0.2150 -0.9254 -0.0860
  692TMC3    C310284   1.535   1.513  15.619  0.2723  0.1298 -0.0582
  692TMC3    C410285   1.376   1.300  15.670  0.1326  0.0545 -0.4782
  692TMC3    C510286   1.506   1.304  15.702  1.2964 -0.2259  0.1040
  692TMC3    C610287   1.586   1.411  15.690  0.0219  0.2765  0.1179
  692TMC3     C10288   1.217   1.468  15.720  0.1169 -0.2493 -0.5635
  692TMC3     O10289   1.166   1.385  15.791  0.4068 -0.2255 -0.0506
  692TMC3     H10290   1.360   1.605  15.537 -3.4922 -1.2232  2.6712
  692TMC3    H110291   1.316   1.210  15.674  0.5573 -0.2362 -0.7196
  692TMC3    H210292   1.695   1.404  15.690  0.0243  0.3066  1.5739
  692TMC3    C710293   1.574   1.178  15.697 -0.9943  0.2862  0.5349
  692TMC3    C810294   1.586   1.643  15.671 -0.3229  0.1325  0.5997
  692TMC3    O110295   1.508   1.086  15.650  0.1028 -0.3051  0.3921
  692TMC3    O210296   1.521   1.741  15.630  0.1997  0.2108 -0.2861
  693MPD2     C10297   0.961   4.390  11.001  0.6580 -0.4581 -0.6237
  693MPD2    C110298   0.911   4.337  11.117  0.3027 -0.7594 -0.4683
  693MPD2    C210299   1.006   4.286  11.213 -0.3693  0.0994  0.4297
  693MPD2    C310300   1.140   4.295  11.177 -0.2634  0.1593  0.4693
  693MPD2    C410301   1.185   4.344  11.060 -0.4239 -0.4203  0.0326
  693MPD2    C510302   1.095   4.395  10.975  0.5499  0.0869 -0.6615
  693MPD2     H10303   0.967   4.229  11.297  0.2086 -1.8444 -0.6072
  693MPD2    H110304   1.288   4.369  11.038 -0.5741 -0.5661 -0.8448
  693MPD2    H210305   0.888   4.433  10.932 -1.1086 -2.0540  0.2375
  693MPD2    H310306   1.130   4.446  10.886  2.2362  0.2073  0.0656
  693MPD2     N10307   1.247   4.260  11.267  0.4075  0.1490  0.5062
  693MPD2    H510308   1.341   4.255  11.231  0.4901 -1.3681  0.9337
  693MPD2    N110309   0.775   4.355  11.146 -0.7636 -0.1132 -0.2851
  693MPD2    H710310   0.718   4.395  11.073 -2.3404  0.7365  1.4143
  694TMC3    C110311   0.585   4.402  11.272 -0.0577 -0.5012  0.4096
  694TMC3    C210312   0.498   4.331  11.204  0.2991  0.0506  0.4908
  694TMC3    C310313   0.366   4.310  11.247  0.0970 -0.0982  0.3890
  694TMC3    C410314   0.553   4.457  11.392 -0.3085  0.6910  0.7300
  694TMC3    C510315   0.426   4.436  11.441 -0.1999  0.1617  0.5958
  694TMC3    C610316   0.328   4.365  11.370  0.2738  0.1715 -0.5850
  694TMC3     C10317   0.717   4.341  11.272 -0.1638 -1.1389 -0.1467
  694TMC3     O10318   0.774   4.321  11.379  0.7663 -0.3782  0.0836
  694TMC3     H10319   0.534   4.270  11.122  0.4025 -0.5622  0.9863
  694TMC3    H110320   0.630   4.508  11.449 -0.1574  1.2918 -0.0155
  694TMC3    H210321   0.227   4.341  11.400  1.6457 -2.1079  2.3072
  694TMC3    C710322   0.408   4.455  11.580 -0.5338 -0.5225  0.3020
  694TMC3    C810323   0.273   4.230  11.170  0.1490 -0.0997  0.1913
  694TMC3    O110324   0.505   4.492  11.648 -0.1999  0.7038 -0.3296
  694TMC3    O210325   0.170   4.205  11.232  0.0788 -0.5124  0.5106
  695MPD2     C10326   2.246   1.305  13.698  0.6340 -0.1807  0.2391
  695MPD2    C110327   2.192   1.309  13.827  0.5529 -0.4961  0.2042
  695MPD2    C210328   2.060   1.327  13.843 -0.3511 -0.7215 -0.1092
  695MPD2    C310329   1.973   1.359  13.738  0.5027 -0.3504 -0.7197
  695MPD2    C410330   2.025   1.360  13.609 -0.2607  0.3006  0.0643
  695MPD2    C510331   2.163   1.335  13.597 -0.0655  0.1513 -0.2506
  695MPD2     H10332   2.022   1.323  13.945  1.9333 -1.5188  0.7090
  695MPD2    H110333   1.976   1.386  13.516  1.9607  1.8575 -0.6814
  695MPD2    H210334   2.351   1.282  13.682  0.9009  0.5826  0.9411
  695MPD2    H310335   2.200   1.343  13.495  0.0101  0.5705 -0.1890
  695MPD2     N10336   1.838   1.376  13.769 -0.8756 -0.1849  0.1825
  695MPD2    H510337   1.803   1.349  13.861  0.2603  0.1339  0.7012
  695MPD2    N110338   2.269   1.276  13.948  0.0523  0.6888 -0.4010
  695MPD2    H710339   2.214   1.277  14.034 -0.1856 -2.5323 -0.5031
  696TMC3    C110340   1.611   1.410  13.731 -0.0898  0.0562  0.0674
  696TMC3    C210341   1.578   1.311  13.821 -0.0463 -0.4183 -0.0272
  696TMC3    C310342   1.450   1.303  13.873  0.6778 -0.6396 -0.3781
  696TMC3    C410343   1.520   1.504  13.704 -0.2221  0.0476  0.0102
  696TMC3    C510344   1.397   1.501  13.761 -0.3236  0.0301  0.2414
  696TMC3    C610345   1.352   1.400  13.846  0.4466  0.3386 -0.1879
  696TMC3     C10346   1.744   1.422  13.682  0.1344  0.1338 -0.6170
  696TMC3     O10347   1.755   1.481  13.575  0.4782  0.0687  0.1758
  696TMC3     H10348   1.645   1.231  13.849  0.0445 -0.4770 -0.4140
  696TMC3    H110349   1.540   1.589  13.640  1.1349 -0.5317 -0.3304
  696TMC3    H210350   1.252   1.401  13.889  0.3830  0.3841 -0.3367
  696TMC3    C710351   1.313   1.619  13.751  0.0195 -0.5599 -0.0550
  696TMC3    C810352   1.433   1.250  14.006  0.7136  0.0712 -0.3506
  696TMC3    O110353   1.307   1.687  13.647 -0.1414  0.1302  0.3070
  696TMC3    O210354   1.539   1.225  14.066  0.4629  0.2909 -0.0050
  697MPD2     C10355   1.328   2.808  15.614 -0.0835 -0.3075 -0.2464
  697MPD2    C110356   1.265   2.800  15.489  0.4637  0.1657 -0.6435
  697MPD2    C210357   1.264   2.912  15.403  0.6763 -0.2625  0.0646
  697MPD2    C310358   1.315   3.031  15.443  0.0826  0.7036  0.4092
  697MPD2    C410359   1.373   3.030  15.572  0.2556 -0.1215 -0.1522
  697MPD2    C510360   1.384   2.926  15.653 -0.5651  0.5120  0.3213
  697MPD2     H10361   1.216   2.900  15.306  1.3051 -3.5699  0.1740
  697MPD2    H110362   1.423   3.120  15.604 -2.5068  1.4829 -0.3713
  697MPD2    H210363   1.328   2.730  15.689  0.8470 -0.2043 -0.1432
  697MPD2    H310364   1.425   2.933  15.753 -0.2035  3.1637 -0.0127
  697MPD2     N10365   1.307   3.146  15.363 -0.9862  0.0312 -0.0153
  697MPD2    H510366   1.286   3.129  15.265  1.9250  2.3635 -1.0386
  697MPD2    N110367   1.206   2.683  15.442  0.6079  0.0477  0.3549
  697MPD2    H710368   1.155   2.692  15.355  0.5676  0.2563  0.4026
  698TMC3    C110369   1.334   3.375  15.303  0.0541 -0.5422  0.0719
  698TMC3    C210370   1.314   3.504  15.335 -0.9006 -0.1412  0.1415
  698TMC3    C310371   1.354   3.598  15.243  0.0946  0.0352 -0.1879
  698TMC3    C410372   1.379   3.339  15.181 -0.0591  0.2945 -0.4272
  698TMC3    C510373   1.417   3.431  15.094  0.3545 -0.0043 -0.0909
  698TMC3    C610374   1.404   3.563  15.123  0.7043  0.1359 -0.0598
  698TMC3     C10375   1.330   3.271  15.413  0.1398  0.4910 -0.8963
  698TMC3     O10376   1.314   3.306  15.528 -0.3604  0.6730  0.9911
  698TMC3     H10377   1.291   3.543  15.434 -1.7285  3.2175 -1.3837
  698TMC3    H110378   1.410   3.238  15.158 -2.3716 -0.8922  1.7749
  698TMC3    H210379   1.417   3.638  15.046 -0.0430  1.5380  1.1966
  698TMC3    C710380   1.419   3.398  14.958 -0.2618 -0.1883  0.1891
  698TMC3    C810381   1.316   3.730  15.264  0.6944  0.3069  0.2227
  698TMC3    O110382   1.327   3.322  14.914  0.1557  0.1347  0.1665
  698TMC3    O210383   1.211   3.760  15.319 -0.2809 -0.5889 -0.4119
  699TMC3    C110384   1.272   1.522  13.266  0.5103  0.4489  0.3201
  699TMC3    C210385   1.345   1.413  13.304 -0.0085  0.0776 -0.0426
  699TMC3    C310386   1.303   1.336  13.412  0.2240 -0.2425  0.5654
  699TMC3    C410387   1.162   1.562  13.338 -0.3505 -0.4247 -1.0562
  699TMC3    C510388   1.128   1.492  13.450  0.1273 -0.6800  0.4087
  699TMC3    C610389   1.198   1.380  13.492  0.1061  0.6499  0.4347
  699TMC3     C10390   1.320   1.616  13.163 -0.3472 -0.9694 -0.0160
  699TMC3     O10391   1.277   1.733  13.172  0.2558  0.3924  0.2093
  699TMC3     H10392   1.424   1.384  13.236 -0.2008  1.1843 -0.7426
  699TMC3    H110393   1.098   1.642  13.302  0.7371  0.0983 -1.8212
  699TMC3    H210394   1.176   1.321  13.580 -0.6445 -0.4088 -0.4694
  699TMC3    C710395   1.006   1.526  13.527 -0.0683 -1.0017 -0.0690
  699TMC3    C810396   1.384   1.231  13.467  0.1031  0.1917  0.1391
  699TMC3    O110397   0.961   1.444  13.606 -0.3961 -1.0784  0.2319
  699TMC3    O210398   1.328   1.153  13.544 -0.8058 -0.1056  0.3122
  700TMC3    C110399   0.568   3.705  17.436  0.3718  0.4602  0.7881
  700TMC3    C210400   0.669   3.617  17.398  1.0233  0.2628  0.0315
  700TMC3    C310401   0.782   3.613  17.474  0.0694  0.0703  0.2537
  700TMC3    C410402   0.563   3.775  17.547  0.0161  0.7752  0.3370
  700TMC3    C510403   0.674   3.776  17.625  0.2300 -0.5051  0.1659
  700TMC3    C610404   0.783   3.695  17.593 -0.5534 -0.5206  1.0041
  700TMC3     C10405   0.498   3.750  17.318  1.1258 -0.2428 -0.7433
  700TMC3     O10406   0.415   3.676  17.262  0.3604 -0.2189 -0.2877
  700TMC3     H10407   0.676   3.579  17.297  1.6454 -2.3003  1.0448
  700TMC3    H110408   0.485   3.849  17.552 -0.5891  0.0944  0.8044
  700TMC3    H210409   0.879   3.713  17.640 -0.1967  0.1905 -0.0095
  700TMC3    C710410   0.704   3.876   0.001  0.9993 -0.1425  0.4529
  700TMC3    C810411   0.911   3.592  17.400 -0.5951 -0.4306  0.3669
  700TMC3    O110412   0.811   3.863   0.059 -0.0002  0.1886  0.0044
  700TMC3    O210413   0.899   3.579  17.278  0.0414 -0.0233  0.3142
  701TMC3    C110414   0.606   2.577  15.630 -0.4092  0.6696  0.0586
  701TMC3    C210415   0.622   2.526  15.499  0.1225  0.7049  0.0208
  701TMC3    C310416   0.723   2.577  15.420 -0.6491 -0.2517  0.2397
  701TMC3    C410417   0.710   2.653  15.686 -0.5813 -0.5905 -0.1062
  701TMC3    C510418   0.805   2.694  15.606  0.6219 -0.1365 -0.3067
  701TMC3    C610419   0.820   2.658  15.471 -0.1751  0.3962 -0.0639
  701TMC3     C10420   0.511   2.520  15.735  0.4555 -0.1577  0.4999
  701TMC3     O10421   0.521   2.572  15.845  0.4303 -0.8394  0.1610
  701TMC3     H10422   0.546   2.465  15.451  0.9222 -0.7730  0.6485
  701TMC3    H110423   0.704   2.679  15.791  0.5122  1.6716 -0.6199
  701TMC3    H210424   0.913   2.689  15.424 -1.6208  2.6601 -1.4487
  701TMC3    C710425   0.901   2.782  15.669  0.9960 -0.2574 -0.4553
  701TMC3    C810426   0.750   2.528  15.285  0.2948 -0.7686 -0.1688
  701TMC3    O110427   0.955   2.865  15.595 -0.2984 -0.2358  0.5810
  701TMC3    O210428   0.860   2.557  15.239 -0.5224 -0.8973 -0.3597
  702MPD2     C10429   0.051   0.029  10.437 -0.7487  0.1833 -0.0212
  702MPD2    C110430   4.647   0.035  10.438 -0.1305  0.0544 -0.1720
  702MPD2    C210431   4.583   0.039  10.316  0.4588 -0.7304  1.0576
  702MPD2    C310432   4.662   0.056  10.199  0.0289  0.1065  0.3432
  702MPD2    C410433   0.068   0.070  10.201  0.2551  0.1831  0.8728
  702MPD2    C510434   0.126   0.036  10.321  0.3841 -0.9519 -0.4841
  702MPD2     H10435   4.475   0.028  10.318  0.2973  0.5554 -1.0287
  702MPD2    H110436   0.127   0.090  10.113 -2.3527  3.4630 -0.1490
  702MPD2    H210437   0.101   0.016  10.532  1.0607 -0.7275 -1.1034
  702MPD2    H310438   0.232   0.030  10.345  0.1414 -2.1565  0.3353
  702MPD2     N10439   4.607   0.077  10.071 -0.0788  0.2241 -0.3740
  702MPD2    H510440   4.669   0.103   9.996 -0.5035  0.0883 -0.7689
  702MPD2    N110441   4.560   0.035  10.547 -0.2816  0.0994 -0.0458
  702MPD2    H710442   4.460   0.032  10.536 -0.3721  2.8335 -0.0263
  703TMC3    C110443   4.427   0.157   9.935  0.2263 -0.3800  0.2701
  703TMC3    C210444   4.290   0.142   9.934  0.3169 -0.0186  0.2946
  703TMC3    C310445   4.208   0.246   9.980  0.0258  0.2008 -0.4787
  703TMC3    C410446   4.469   0.283   9.964 -0.7645  0.3555 -0.2390
  703TMC3    C510447   4.390   0.391   9.988  0.2196 -0.3737 -0.2969
  703TMC3    C610448   4.261   0.371  10.008  0.0753  0.9031  0.2372
  703TMC3     C10449   4.470   0.069  10.039  0.4253 -0.0144  0.1081
  703TMC3     O10450   4.375   0.025  10.105  0.1371 -0.3107  0.0652
  703TMC3     H10451   4.243   0.050   9.900 -1.7601  1.2624 -0.2631
  703TMC3    H110452   4.576   0.300   9.972 -0.8573  0.5239  0.5894
  703TMC3    H210453   4.197   0.449  10.050  0.6880  0.1903  2.5242
  703TMC3    C710454   4.456   0.509  10.049 -0.6672 -0.0066  0.3734
  703TMC3    C810455   4.091   0.190  10.053  0.5241 -0.4450  0.5740
  703TMC3    O110456   4.572   0.498  10.087 -0.2608 -0.1382  0.4836
  703TMC3    O210457   4.006   0.130   9.993 -0.2622  0.0599  0.7589
  704TMC3    C110458   1.979   3.129  12.570  0.2359 -0.9436  0.0330
  704TMC3    C210459   1.979   3.068  12.447  0.1829 -0.0896  0.0604
  704TMC3    C310460   1.936   2.939  12.430  0.0171  0.0542  0.1336
  704TMC3    C410461   1.930   3.063  12.682  0.6092 -0.4938 -0.3611
  704TMC3    C510462   1.895   2.931  12.671  0.1119  0.1153 -0.2088
  704TMC3    C610463   1.895   2.871  12.544  0.1303 -0.0999 -0.2913
  704TMC3     C10464   1.954   3.275  12.569  0.4009 -0.6194 -0.0748
  704TMC3     O10465   1.882   3.325  12.657 -0.0791  0.2012 -0.0494
  704TMC3     H10466   1.997   3.124  12.356  1.0829 -1.0645 -0.3633
  704TMC3    H110467   1.944   3.107  12.780  1.0205  0.9586 -1.0682
  704TMC3    H210468   1.856   2.772  12.529 -1.3769  0.1892  1.7253
  704TMC3    C710469   1.912   2.830  12.779 -0.1759 -0.2876 -0.2747
  704TMC3    C810470   1.943   2.880  12.297 -0.0418 -0.3781  0.1569
  704TMC3    O110471   1.906   2.711  12.747  0.6888 -0.3722 -0.3346
  704TMC3    O210472   1.978   2.956  12.209  0.2540  0.5492  0.1856
  705MPD2     C10473   1.602   1.165  16.468  0.3650  0.5141 -0.3601
  705MPD2    C110474   1.622   1.284  16.524 -0.1361  0.1996  0.1931
  705MPD2    C210475   1.530   1.339  16.612  0.9983  0.3055 -0.5928
  705MPD2    C310476   1.417   1.268  16.650 -0.4359 -0.3923 -0.5799
  705MPD2    C410477   1.390   1.147  16.591  0.0764 -0.4764 -0.3861
  705MPD2    C510478   1.486   1.098  16.508  0.0997  0.2330  0.4541
  705MPD2     H10479   1.547   1.433  16.664 -1.4348 -0.2384  1.2116
  705MPD2    H110480   1.306   1.095  16.635 -0.2173  0.4756  0.1788
  705MPD2    H210481   1.667   1.107  16.403 -0.7622 -0.6630 -0.4521
  705MPD2    H310482   1.477   1.004  16.455  0.0005  1.7018 -2.1667
  705MPD2     N10483   1.324   1.306  16.748 -0.0483 -0.4476  0.8872
  705MPD2    H510484   1.264   1.229  16.777 -0.3639 -0.3596  0.4728
  705MPD2    N110485   1.742   1.354  16.510  0.7499 -0.7208 -0.0730
  705MPD2    H710486   1.767   1.420  16.584  0.9903 -0.9607  0.0641
  706TMC3    C110487   2.189   1.394  16.411 -0.2945 -0.0741  0.3618
  706TMC3    C210488   2.204   1.516  16.479  0.2296 -0.2736 -0.5576
  706TMC3    C310489   2.091   1.587  16.513 -0.0423 -0.3177  0.5502
  706TMC3    C410490   2.068   1.344  16.379  0.4853  0.3183  0.5354
  706TMC3    C510491   1.955   1.413  16.418 -0.3949  0.5223 -0.2493
  706TMC3    C610492   1.963   1.530  16.487  0.7981 -0.0730 -0.1562
  706TMC3     C10493   2.298   1.331  16.357  0.1391 -0.0538  0.9844
  706TMC3     O10494   2.275   1.277  16.251  0.0223  0.1706  0.2345
  706TMC3     H10495   2.305   1.546  16.503  0.1386 -0.4825  0.0884
  706TMC3    H110496   2.068   1.243  16.340  0.7283  1.2170 -1.8134
  706TMC3    H210497   1.874   1.583  16.520  0.4244 -1.3585  0.8978
  706TMC3    C710498   1.830   1.333  16.406 -0.2273 -0.7292  0.1795
  706TMC3    C810499   2.083   1.733  16.518  0.1045 -0.1477  0.2661
  706TMC3    O110500   1.828   1.249  16.321  0.4161 -0.9140 -0.3086
  706TMC3    O210501   1.979   1.790  16.553  0.5069  0.2016  0.3223
  707TMC3    C110502   4.023   1.012   1.406 -0.6607 -0.0084  0.1499
  707TMC3    C210503   4.151   1.058   1.428  0.3146 -0.4507  0.5136
  707TMC3    C310504   4.160   1.123   1.547 -0.3068  0.6430  0.0543
  707TMC3    C410505   3.917   1.021   1.481  0.7425  0.3546 -0.2978
  707TMC3    C510506   3.936   1.072   1.603  0.2269 -0.0429 -0.5754
  707TMC3    C610507   4.064   1.114   1.641 -0.4712  0.5826  0.0126
  707TMC3     C10508   4.028   0.918   1.297  0.7818 -0.7103 -0.3791
  707TMC3     O10509   4.138   0.915   1.238  0.5520  0.2940  0.2313
  707TMC3     H10510   4.237   1.061   1.362 -1.2294  0.6940 -1.4925
  707TMC3    H110511   3.819   0.985   1.450  1.0717  0.5941 -1.6288
  707TMC3    H210512   4.086   1.153   1.740 -1.3254  0.6140  0.1857
  707TMC3    C710513   3.837   1.068   1.708 -0.4880  0.2337 -0.0475
  707TMC3    C810514   4.295   1.128   1.607 -0.2855 -1.1763  0.4608
  707TMC3    O110515   3.751   0.981   1.693  0.5553 -0.0909  0.4119
  707TMC3    O210516   4.319   1.225   1.676 -0.2364 -0.4552 -0.6979
  708MPD2     C10517   0.368   4.213  14.194 -0.1065  0.9059 -0.4545
  708MPD2    C110518   0.300   4.170  14.301  0.2377  0.2195 -0.9703
  708MPD2    C210519   0.333   4.215  14.426  0.0114 -1.4871 -0.7247
  708MPD2    C310520   0.435   4.304  14.434  0.0680  0.3760  0.0349
  708MPD2    C410521   0.505   4.350  14.327  0.3454  0.0400 -1.0401
  708MPD2    C510522   0.473   4.298  14.203  0.3994 -0.2336  0.0344
  708MPD2     H10523   0.277   4.172  14.509  1.3399 -1.4017  0.2141
  708MPD2    H110524   0.585   4.422  14.333  1.3293 -1.2328  1.0143
  708MPD2    H210525   0.355   4.171  14.095 -0.3506  0.5052 -0.2537
  708MPD2    H310526   0.518   4.334  14.111 -0.0334 -0.3263 -0.2165
  708MPD2     N10527   0.467   4.350  14.561  0.3869 -0.6876  0.1261
  708MPD2    H510528   0.526   4.432  14.562  0.7610 -0.9892  2.4674
  708MPD2    N110529   0.190   4.083  14.291 -0.1092 -0.2099 -0.4154
  708MPD2    H710530   0.139   4.062  14.376  0.9910 -2.5562 -0.3388
  709TMC3    C110531   0.033   3.936  14.207  0.3482  0.5260 -0.3130
  709TMC3    C210532   4.653   3.975  14.142 -0.2755  1.1233 -0.0873
  709TMC3    C310533   4.541   3.996  14.217 -0.2434  0.1087  0.2302
  709TMC3    C410534   0.029   3.899  14.341  0.4640 -0.3283 -0.9653
  709TMC3    C510535   4.647   3.925  14.416 -0.0490  0.2093 -0.2175
  709TMC3    C610536   4.536   3.976  14.353 -0.4944 -0.0467 -0.3865
  709TMC3     C10537   0.149   4.013  14.176  0.0663 -0.3180  0.2099
  709TMC3     O10538   0.159   4.051  14.056  0.6401 -0.2707 -0.6464
  709TMC3     H10539   4.652   4.025  14.046 -0.2162  1.0810 -0.1101
  709TMC3    H110540   0.118   3.856  14.385  0.7624 -0.0233 -1.2656
  709TMC3    H210541   4.454   4.029  14.400  0.3153  1.4514 -0.6686
  709TMC3    C710542   4.691   3.996  14.534 -0.1171  0.4403 -0.7486
  709TMC3    C810543   4.416   4.018  14.149  0.1882 -0.5263 -0.2936
  709TMC3    O110544   0.078   4.011  14.551 -0.3412  0.0300 -0.1116
  709TMC3    O210545   4.319   4.034  14.228 -0.1932 -0.4789 -0.1373
  710TMC3    C110546   1.629   1.396   0.395  0.1123 -0.5992 -0.3651
  710TMC3    C210547   1.685   1.331   0.285  0.6384  0.5803  0.5681
  710TMC3    C310548   1.716   1.202   0.313 -0.1520  0.5374  0.4583
  710TMC3    C410549   1.620   1.335   0.518  0.0702  0.1152  0.7048
  710TMC3    C510550   1.652   1.204   0.528  0.7432 -0.4917 -0.3529
  710TMC3    C610551   1.707   1.133   0.429 -0.3942  0.5052  0.5980
  710TMC3     C10552   1.648   1.541   0.400 -0.4821 -0.2623  0.0430
  710TMC3     O10553   1.726   1.590   0.320  0.2635 -0.2195 -0.7601
  710TMC3     H10554   1.719   1.372   0.191 -2.0167 -0.2051 -0.7507
  710TMC3    H110555   1.602   1.379   0.616  0.4307 -0.9509  1.2498
  710TMC3    H210556   1.738   1.031   0.445 -1.4377 -0.0533 -0.8773
  710TMC3    C710557   1.604   1.122   0.636  1.4829  0.2268  1.2722
  710TMC3    C810558   1.780   1.119   0.207  0.2621  0.2343  0.9460
  710TMC3    O110559   1.661   1.012   0.667 -0.0236  0.1792  0.1931
  710TMC3    O210560   1.823   1.176   0.108 -0.2515 -0.5525  0.3458
  711TMC3    C110561   1.232   1.770  15.126 -0.4747 -0.2028  0.0460
  711TMC3    C210562   1.230   1.869  15.219 -0.7916 -0.2415  0.7500
  711TMC3    C310563   1.327   1.882  15.315 -0.1989  0.0852  0.0559
  711TMC3    C410564   1.318   1.670  15.130  0.3380 -0.9618  0.3361
  711TMC3    C510565   1.411   1.684  15.226 -0.2605 -0.3755  0.0070
  711TMC3    C610566   1.423   1.787  15.318 -0.4392  0.1584  0.0173
  711TMC3     C10567   1.135   1.774  15.020 -0.4887  0.1160 -0.4204
  711TMC3     O10568   1.126   1.669  14.966 -0.5277  0.2052  0.2853
  711TMC3     H10569   1.150   1.940  15.207 -0.2944 -0.0611 -1.4787
  711TMC3    H110570   1.339   1.609  15.043  0.9041 -2.1432  1.2945
  711TMC3    H210571   1.512   1.796  15.379 -0.2151  2.7300 -0.6863
  711TMC3    C710572   1.494   1.569  15.256  0.3588  0.0478  0.8328
  711TMC3    C810573   1.274   1.938  15.439  0.6861 -0.5054 -0.0420
  711TMC3    O110574   1.600   1.599  15.318  0.0155  0.1641 -0.7246
  711TMC3    O210575   1.150   1.940  15.443 -0.4545  0.6391  0.5210
  712MPD2     C10576   2.584   2.658  14.317 -0.3947  0.0011 -0.7424
  712MPD2    C110577   2.477   2.680  14.233  0.4792  0.1223 -0.8309
  712MPD2    C210578   2.467   2.807  14.182  0.0894 -0.5168  0.0858
  712MPD2    C310579   2.573   2.903  14.199  0.0827  0.0003 -0.3083
  712MPD2    C410580   2.689   2.877  14.267 -0.1805  0.2007  0.4808
  712MPD2    C510581   2.683   2.753  14.329 -0.4014  0.0061  0.5775
  712MPD2     H10582   2.377   2.828  14.126  0.6750 -1.0114 -1.0461
  712MPD2    H110583   2.771   2.945  14.286 -0.5529  0.4729  1.1194
  712MPD2    H210584   2.597   2.565  14.370 -1.8480  0.3311  0.1836
  712MPD2    H310585   2.764   2.724  14.395  0.4342  1.3875  0.1537
  712MPD2     N10586   2.563   3.036  14.149  0.5167  0.6370  0.6961
  712MPD2    H510587   2.643   3.097  14.159  1.6527 -0.9805  1.4316
  712MPD2    N110588   2.368   2.588  14.218 -0.6535 -0.8240 -0.9040
  712MPD2    H710589   2.288   2.633  14.174  0.5208  1.0414 -1.1224
  713TMC3    C110590   2.452   3.239  14.070  0.6960  0.3135 -0.3346
  713TMC3    C210591   2.568   3.287  14.023 -0.4338 -0.6492 -0.1955
  713TMC3    C310592   2.567   3.418  13.979  0.5659 -0.2619  0.1209
  713TMC3    C410593   2.336   3.314  14.073 -0.6432  0.0243 -1.1374
  713TMC3    C510594   2.341   3.441  14.025 -0.6021  0.7793  0.3925
  713TMC3    C610595   2.454   3.499  13.975  0.5612 -0.6600  0.1509
  713TMC3     C10596   2.444   3.102  14.123 -0.3402  0.4165  0.1878
  713TMC3     O10597   2.323   3.075  14.145  0.3165  0.3671 -0.1396
  713TMC3     H10598   2.649   3.217  14.008  0.3525  0.1197  0.4823
  713TMC3    H110599   2.247   3.272  14.118 -0.6738  1.9858  0.6388
  713TMC3    H210600   2.450   3.586  13.910  1.2755 -0.7337  0.0055
  713TMC3    C710601   2.224   3.524  14.062 -0.2996 -0.2069 -0.7840
  713TMC3    C810602   2.689   3.483  13.937  0.3284 -0.2185  0.0134
  713TMC3    O110603   2.147   3.488  14.148  0.0058 -0.2817 -0.3691
  713TMC3    O210604   2.674   3.583  13.868 -0.0822 -0.2751 -0.2817
  714MPD2     C10605   0.110   2.279   0.963 -0.6922 -0.2931 -0.8784
  714MPD2    C110606   0.143   2.314   1.091 -0.1535  0.0596 -0.4532
  714MPD2    C210607   0.066   2.412   1.153 -1.3008  0.1144  0.1872
  714MPD2    C310608   4.689   2.472   1.093  0.0800  0.0968 -0.4195
  714MPD2    C410609   4.662   2.438   0.964  0.5435  0.2889  0.4911
  714MPD2    C510610   0.001   2.340   0.899  0.0462 -0.3851 -0.4423
  714MPD2     H10611   0.084   2.449   1.253  1.0427  2.0562 -0.9454
  714MPD2    H110612   4.580   2.483   0.909  1.8938 -0.0404 -1.7829
  714MPD2    H210613   0.173   2.206   0.913  1.1877 -0.0725  1.1516
  714MPD2    H310614   4.714   2.309   0.797 -0.4737 -0.4243 -0.3304
  714MPD2     N10615   4.611   2.558   1.176  0.4999 -0.2034  0.3817
  714MPD2    H510616   4.636   2.570   1.274  1.0718 -1.2915  0.3691
  714MPD2    N110617   0.257   2.255   1.153 -0.0186  0.0257 -0.4614
  714MPD2    H710618   0.315   2.190   1.100  0.6083  0.6314 -0.5186
  715TMC3    C110619   0.443   2.243   1.290 -0.1196 -0.0632  0.2619
  715TMC3    C210620   0.468   2.110   1.282 -0.4083  0.0195 -1.1339
  715TMC3    C310621   0.584   2.056   1.335 -0.4251 -1.0267  0.1782
  715TMC3    C410622   0.520   2.317   1.375 -0.0602  0.7438  0.0079
  715TMC3    C510623   0.624   2.258   1.440  0.2014  0.1123  0.2570
  715TMC3    C610624   0.661   2.128   1.428  0.0628  0.1646  0.1614
  715TMC3     C10625   0.312   2.297   1.267  0.1901 -0.2524 -0.4096
  715TMC3     O10626   0.269   2.378   1.348 -0.6543 -0.1315  0.2612
  715TMC3     H10627   0.401   2.049   1.222 -1.8592  0.4030  0.0745
  715TMC3    H110628   0.503   2.423   1.382  1.5528  0.8891  1.8688
  715TMC3    H210629   0.761   2.100   1.458 -0.2206  3.1649  3.8966
  715TMC3    C710630   0.723   2.351   1.503  0.1002  0.7475  0.1527
  715TMC3    C810631   0.607   1.912   1.320  0.3331  0.8709  0.1021
  715TMC3    O110632   0.839   2.319   1.505  0.5309  0.1877  0.1437
  715TMC3    O210633   0.547   1.868   1.219 -0.4779 -0.0530 -0.1400
  716MPD2     C10634   3.701   0.317   9.711 -0.6162 -0.2350 -0.0474
  716MPD2    C110635   3.581   0.265   9.654  0.4085  0.0315 -0.2492
  716MPD2    C210636   3.571   0.129   9.644 -0.0989 -0.1862 -0.3409
  716MPD2    C310637   3.669   0.042   9.669 -0.3171 -0.5180 -0.3132
  716MPD2    C410638   3.789   0.098   9.713  0.4256 -0.0853  0.3353
  716MPD2    C510639   3.803   0.232   9.735  0.2727  0.3054 -0.0734
  716MPD2     H10640   3.474   0.084   9.624 -0.0073 -0.4817 -0.1223
  716MPD2    H110641   3.875   0.033   9.717 -0.2863 -1.0569 -0.1218
  716MPD2    H210642   3.722   0.423   9.711 -1.2367 -0.1237  1.4889
  716MPD2    H310643   3.893   0.270   9.782  0.1831  3.7661 -2.6875
  716MPD2     N10644   3.635   4.642   9.639 -0.2885  0.1107  0.1075
  716MPD2    H510645   3.539   4.620   9.612  0.0066 -0.8553 -0.1725
  716MPD2    N110646   3.479   0.356   9.617 -0.4691 -0.0624 -0.3601
  716MPD2    H710647   3.485   0.455   9.641 -0.7331 -0.3636  0.9440
  717TMC3    C110648   3.631   4.416   9.664 -0.1794  0.0368  0.5156
  717TMC3    C210649   3.497   4.438   9.699  0.5552  0.5767  0.8075
  717TMC3    C310650   3.399   4.392   9.618  0.0886 -0.2141 -0.5180
  717TMC3    C410651   3.660   4.323   9.561 -0.3842 -0.0943 -0.3808
  717TMC3    C510652   3.557   4.265   9.493  0.2137 -0.1510  0.9194
  717TMC3    C610653   3.427   4.303   9.513  0.2277  0.4766 -0.1075
  717TMC3     C10654   3.710   4.529   9.665  0.2855  0.3440  0.1604
  717TMC3     O10655   3.830   4.519   9.684  0.3604  0.2751 -0.1394
  717TMC3     H10656   3.468   4.510   9.775  1.6126  0.9035  0.9152
  717TMC3    H110657   3.764   4.308   9.534 -0.1234  0.2234  0.4544
  717TMC3    H210658   3.355   4.291   9.432  1.5584 -0.5676 -1.1417
  717TMC3    C710659   3.586   4.175   9.392 -0.2054  0.4789  0.4588
  717TMC3    C810660   3.276   4.464   9.615 -0.6719  0.1603  0.1109
  717TMC3    O110661   3.701   4.164   9.353  0.1116 -0.5604  0.5661
  717TMC3    O210662   3.271   4.582   9.656  0.3767 -0.5457 -0.4266
  718MPD2     C10663   3.875   3.436  13.596 -0.3346  0.4226  0.2345
  718MPD2    C110664   3.807   3.376  13.490 -0.3564 -0.0272  0.2046
  718MPD2    C210665   3.785   3.237  13.491  0.2296  0.0433 -0.3084
  718MPD2    C310666   3.814   3.174  13.606  0.6525 -0.7572  0.1953
  718MPD2    C410667   3.881   3.230  13.714 -0.6969  0.2885 -0.9743
  718MPD2    C510668   3.921   3.367  13.702 -0.0523 -0.2095 -0.0457
  718MPD2     H10669   3.735   3.191  13.407 -0.1879  0.8074 -0.4769
  718MPD2    H110670   3.912   3.177  13.803  1.0540  0.8097 -1.2613
  718MPD2    H210671   3.895   3.542  13.593 -2.8491  0.9390  1.4886
  718MPD2    H310672   3.962   3.423  13.785 -1.3156 -1.6828  1.5507
  718MPD2     N10673   3.767   3.043  13.617 -0.7070 -0.4708 -0.0910
  718MPD2    H510674   3.704   3.018  13.542 -3.2000  0.5142  1.6543
  718MPD2    N110675   3.763   3.454  13.377 -0.1679  0.1778  0.1996
  718MPD2    H710676   3.815   3.540  13.360 -0.6228  0.2760 -0.6935
  719TMC3    C110677   3.653   3.514  13.181 -0.8944  1.1902  0.1853
  719TMC3    C210678   3.547   3.483  13.099  0.0057  1.1028 -0.0426
  719TMC3    C310679   3.559   3.480  12.963  0.0687  0.8043 -0.9792
  719TMC3    C410680   3.779   3.537  13.120 -0.1733  0.3361  0.9988
  719TMC3    C510681   3.786   3.533  12.979  0.1791 -0.3405  0.3459
  719TMC3    C610682   3.674   3.512  12.901  0.0518  0.0778  0.1956
  719TMC3     C10683   3.662   3.424  13.296 -0.8287  0.7282 -0.1719
  719TMC3     O10684   3.584   3.329  13.302 -0.8173 -0.0608 -0.1926
  719TMC3     H10685   3.461   3.441  13.150  0.8849  0.5866  1.0167
  719TMC3    H110686   3.859   3.571  13.184 -0.5022  0.2406  1.4581
  719TMC3    H210687   3.684   3.495  12.794 -3.4800  0.8923 -0.2615
  719TMC3    C710688   3.912   3.551  12.916 -0.7204  0.1041 -0.6632
  719TMC3    C810689   3.520   3.348  12.912  0.1045  0.8296  0.7872
  719TMC3    O110690   3.921   3.578  12.800 -0.3240 -0.8718  0.0831
  719TMC3    O210691   3.496   3.323  12.790  0.2252  0.2550 -0.1739
  720MPD2     C10692   2.670   4.521  13.996  0.4299 -0.5506  0.1081
  720MPD2    C110693   2.652   4.654  14.003 -0.9749  0.2182  0.2767
  720MPD2    C210694   2.728   0.006  14.080  0.2820  0.2203 -0.0888
  720MPD2    C310695   2.829   4.688  14.156 -0.4442  0.0574  0.5912
  720MPD2    C410696   2.854   4.556  14.143 -0.0943  0.1141 -0.6121
  720MPD2    C510697   2.767   4.476  14.076 -0.3626 -0.3178  0.9969
  720MPD2     H10698   2.715   0.113  14.090 -0.2644  0.2871 -1.4668
  720MPD2    H110699   2.927   4.502  14.203 -1.9608  1.0436  2.5312
  720MPD2    H210700   2.611   4.455  13.934 -0.1596 -0.0235  0.1120
  720MPD2    H310701   2.782   4.369  14.078 -0.5629 -0.4024 -1.4858
  720MPD2     N10702   2.913   0.045  14.221 -0.0165  0.1287 -0.3863
  720MPD2    H510703   2.881   0.141  14.219 -0.4427 -0.0022  0.5750
  720MPD2    N110704   2.557   4.723  13.921 -0.4092 -0.5069 -0.0230
  720MPD2    H710705   2.532   0.083  13.955  1.4177  0.8878 -2.4481
  721TMC3    C110706   3.120   0.132  14.305 -0.2795 -0.2109  0.7127
  721TMC3    C210707   3.068   0.223  14.393 -0.3253  0.2716 -0.5423
  721TMC3    C310708   3.161   0.312  14.442 -0.5091  0.8477 -0.7334
  721TMC3    C410709   3.251   0.126  14.262 -0.8719  0.0860  0.8516
  721TMC3    C510710   3.333   0.224  14.313  0.2260  0.7334 -1.0655
  721TMC3    C610711   3.295   0.313  14.411  0.0654  1.3410 -0.0008
  721TMC3     C10712   3.038   0.017  14.268 -0.2146  0.0613 -0.1817
  721TMC3     O10713   3.104   4.644  14.252  0.5348  0.0382 -0.1016
  721TMC3     H10714   2.963   0.230  14.418  0.1235  1.3402  1.0402
  721TMC3    H110715   3.293   0.056  14.190 -1.6959 -0.5193  0.9651
  721TMC3    H210716   3.354   0.398  14.444  1.7617  0.9110 -1.9281
  721TMC3    C710717   3.475   0.214  14.290 -0.1754  0.0044 -0.3499
  721TMC3    C810718   3.113   0.414  14.530  0.0849  0.5068 -0.3328
  721TMC3    O110719   3.514   0.162  14.186 -0.3962 -0.0871  0.6719
  721TMC3    O210720   3.161   0.524  14.534 -0.0885 -0.0501  0.4993
  722MPD2     C10721   1.632   3.701  13.210 -0.5682  0.1392 -0.0025
  722MPD2    C110722   1.626   3.715  13.346 -0.0713  0.1851 -0.2567
  722MPD2    C210723   1.579   3.612  13.418  0.3448 -0.3901 -0.3656
  722MPD2    C310724   1.540   3.494  13.366 -0.9816 -0.1772 -0.4313
  722MPD2    C410725   1.550   3.476  13.233  0.0228 -1.0407  0.2216
  722MPD2    C510726   1.589   3.578  13.155 -0.1234  0.4223  0.1424
  722MPD2     H10727   1.557   3.625  13.524  2.0570 -2.5981  0.2378
  722MPD2    H110728   1.522   3.387  13.177  0.2121 -0.2637 -1.0967
  722MPD2    H210729   1.658   3.784  13.146 -0.4767  0.2131  0.1299
  722MPD2    H310730   1.602   3.554  13.050  0.1072  1.3118 -0.0266
  722MPD2     N10731   1.473   3.408  13.450  0.0153 -0.5770  0.5871
  722MPD2    H510732   1.459   3.436  13.546 -2.3574  0.9131 -0.1916
  722MPD2    N110733   1.668   3.830  13.418  0.1695  0.1459  0.0023
  722MPD2    H710734   1.700   3.828  13.514 -0.3599  1.3037  0.2085
  723TMC3    C110735   1.318   3.227  13.508 -0.0718 -0.3425 -0.1354
  723TMC3    C210736   1.302   3.093  13.475 -0.8689 -0.1027 -0.1200
  723TMC3    C310737   1.171   3.044  13.482  0.1310 -0.5177  0.6789
  723TMC3    C410738   1.221   3.306  13.568  0.2347  0.3157 -0.3520
  723TMC3    C510739   1.095   3.254  13.579  0.7122  0.3742 -0.0438
  723TMC3    C610740   1.071   3.125  13.536 -0.1377  0.0138 -0.4680
  723TMC3     C10741   1.408   3.290  13.413 -0.4083 -0.1257 -0.3706
  723TMC3     O10742   1.428   3.228  13.312 -0.2537 -0.1170  0.9354
  723TMC3     H10743   1.375   3.038  13.417 -0.7349  2.9485 -2.8237
  723TMC3    H110744   1.240   3.412  13.584  0.6796  0.1031  0.5232
  723TMC3    H210745   0.980   3.067  13.549 -0.2141  0.5919  1.6186
  723TMC3    C710746   0.985   3.331  13.636  0.1801 -0.3210  0.4955
  723TMC3    C810747   1.138   2.938  13.394 -0.3205  0.1064 -0.2426
  723TMC3    O110748   0.881   3.283  13.668 -0.0182 -0.5834 -0.4751
  723TMC3    O210749   1.224   2.851  13.375 -0.0840 -0.4076 -0.6850
  724TMC3    C110750   1.942   1.990  10.612 -0.4770 -0.5209 -0.0270
  724TMC3    C210751   1.867   2.077  10.549  0.5795 -0.6922  0.0515
  724TMC3    C310752   1.927   2.185  10.498 -0.5865 -0.4453 -0.3696
  724TMC3    C410753   2.078   1.993  10.625 -1.2575  0.7206 -0.8738
  724TMC3    C510754   2.134   2.110  10.580  0.4562  0.2518 -0.1425
  724TMC3    C610755   2.059   2.208  10.520  0.0453  0.8721  0.0313
  724TMC3     C10756   1.883   1.863  10.633  0.4175 -0.4667 -0.3721
  724TMC3     O10757   1.949   1.761  10.622  0.0888 -0.0907  0.1734
  724TMC3     H10758   1.762   2.060  10.525  0.6640 -0.3222 -0.5928
  724TMC3    H110759   2.134   1.908  10.662 -0.4002  1.8265  0.3685
  724TMC3    H210760   2.105   2.293  10.471  0.3441 -0.5557 -2.1425
  724TMC3    C710761   2.275   2.145  10.611  1.3646  0.0982 -0.2918
  724TMC3    C810762   1.838   2.292  10.451 -0.6338 -0.3749  0.2993
  724TMC3    O110763   2.336   2.221  10.537 -0.7400  0.3944 -0.0329
  724TMC3    O210764   1.732   2.248  10.405 -0.3546 -0.7028  0.1126
  725TMC3    C110765   3.489   0.504  13.130  0.1037 -0.2380 -0.1895
  725TMC3    C210766   3.372   0.558  13.082 -0.0747 -1.0727  0.1624
  725TMC3    C310767   3.311   0.491  12.985 -0.1482  0.4879  0.1112
  725TMC3    C410768   3.555   0.402  13.071  0.1879 -0.3015  0.2415
  725TMC3    C510769   3.494   0.344  12.964 -0.5677 -0.1365 -0.1540
  725TMC3    C610770   3.371   0.384  12.922 -0.1996 -0.3246  0.2581
  725TMC3     C10771   3.545   0.564  13.249  0.4024 -0.2882 -0.8776
  725TMC3     O10772   3.501   0.670  13.283  0.3664 -0.3530  0.4337
  725TMC3     H10773   3.318   0.630  13.142 -1.6320 -0.6964 -1.6796
  725TMC3    H110774   3.649   0.363  13.109  0.1128 -2.0059 -1.3209
  725TMC3    H210775   3.321   0.325  12.846  0.2055 -0.1949 -0.1096
  725TMC3    C710776   3.537   0.218  12.910 -0.1468  0.4515 -0.1428
  725TMC3    C810777   3.176   0.526  12.946  0.0820 -0.1705  0.4674
  725TMC3    O110778   3.517   0.200  12.790  0.0580  0.0116  0.0368
  725TMC3    O210779   3.112   0.428  12.908 -0.3632  0.3851  0.3380
  726MPD2     C10780   0.472   2.822  10.626  0.4241  0.6049 -0.1535
  726MPD2    C110781   0.573   2.812  10.721  0.0290  0.3564  0.1259
  726MPD2    C210782   0.602   2.685  10.777 -0.5260 -0.1552  0.3695
  726MPD2    C310783   0.536   2.576  10.728 -0.0850  0.2967  0.0488
  726MPD2    C410784   0.437   2.590  10.635  0.7702 -0.4300 -0.1666
  726MPD2    C510785   0.404   2.715  10.596  0.7787  0.7738  0.0310
  726MPD2     H10786   0.674   2.680  10.858  0.8002 -2.0097 -0.9221
  726MPD2    H110787   0.382   2.505  10.598  0.2906 -0.1860 -0.0130
  726MPD2    H210788   0.447   2.911  10.570 -1.2052 -1.2693 -2.4115
  726MPD2    H310789   0.324   2.728  10.525  0.4639 -1.3284  0.0226
  726MPD2     N10790   0.564   2.446  10.766 -0.6193  0.4337 -0.8551
  726MPD2    H510791   0.524   2.367  10.715 -0.4314  2.2005 -3.7394
  726MPD2    N110792   0.661   2.923  10.753  0.1468  0.1157 -0.2214
  726MPD2    H710793   0.748   2.903  10.801  0.0826  0.5414  0.0794
  727TMC3    C110794   0.748   3.145  10.715  0.4552  0.7579  0.8937
  727TMC3    C210795   0.850   3.129  10.806 -0.0858 -0.4254 -0.5055
  727TMC3    C310796   0.929   3.235  10.830 -0.1560 -0.1280  0.1339
  727TMC3    C410797   0.727   3.266  10.648  0.5405 -0.3582 -0.2576
  727TMC3    C510798   0.812   3.367  10.679 -0.4972  0.9954 -0.1947
  727TMC3    C610799   0.917   3.354  10.764  0.4355 -0.6434  0.3167
  727TMC3     C10800   0.634   3.054  10.708 -0.4212 -0.7115  0.4765
  727TMC3     O10801   0.524   3.096  10.676  0.1293 -0.2051 -0.3227
  727TMC3     H10802   0.853   3.048  10.878 -0.9926  0.0476  0.0684
  727TMC3    H110803   0.682   3.264  10.549 -0.5758  0.2378  0.2297
  727TMC3    H210804   0.986   3.437  10.776 -0.7073  0.1492  1.3312
  727TMC3    C710805   0.773   3.500  10.640  1.0267 -0.8664 -0.4562
  727TMC3    C810806   1.042   3.216  10.918  0.7391 -0.0414 -0.8056
  727TMC3    O110807   0.837   3.600  10.663  0.0136 -0.2316 -0.2334
  727TMC3    O210808   1.093   3.103  10.921 -0.2036 -0.3318  0.4957
  728TMC3    C110809   0.636   0.953  15.551  0.0153 -0.0891  0.5069
  728TMC3    C210810   0.764   0.929  15.508 -0.3211  0.4774 -0.8283
  728TMC3    C310811   0.774   0.878  15.381  0.5142  0.0781 -0.1958
  728TMC3    C410812   0.530   0.947  15.461 -0.2487  0.1131  0.6215
  728TMC3    C510813   0.554   0.919  15.329 -1.1617 -0.0997  0.2438
  728TMC3    C610814   0.677   0.888  15.287 -0.1230  0.1760  0.0123
  728TMC3     C10815   0.611   0.939  15.694 -0.2809  0.4395  0.0644
  728TMC3     O10816   0.704   0.963  15.764  0.5697 -0.0426 -0.0654
  728TMC3     H10817   0.840   0.911  15.583 -1.7327 -0.8450  0.2938
  728TMC3    H110818   0.430   0.971  15.496 -0.8014  0.1755 -1.0277
  728TMC3    H210819   0.684   0.842  15.189  0.2667  2.9153 -1.2609
  728TMC3    C710820   0.447   0.921  15.238 -0.0947 -0.0539 -0.1852
  728TMC3    C810821   0.903   0.827  15.342  0.8236  0.0514 -0.0635
  728TMC3    O110822   0.341   0.881  15.284  0.3864  0.1995 -0.1517
  728TMC3    O210823   0.920   0.839  15.224 -0.6081  0.5239 -0.3302
  729MPD2     C10824   2.757   1.992   0.090 -0.2171 -0.3200  0.2786
  729MPD2    C110825   2.885   1.986   0.144 -0.0695 -0.5351 -0.3555
  729MPD2    C210826   2.913   2.034   0.270  0.7119 -0.1073 -0.0344
  729MPD2    C310827   2.798   2.077   0.349 -0.3935 -0.7874 -0.2124
  729MPD2    C410828   2.672   2.065   0.296  0.5699 -0.1116 -0.1809
  729MPD2    C510829   2.652   2.021   0.166  0.2084  0.1668 -0.4317
  729MPD2     H10830   3.013   2.037   0.310  1.2317  2.0352 -1.5201
  729MPD2    H110831   2.585   2.086   0.357  0.2620 -1.1223 -0.2790
  729MPD2    H210832   2.738   1.952  17.721 -2.0905 -2.1241  1.3909
  729MPD2    H310833   2.550   2.020   0.130  0.5194 -1.6890 -1.2493
  729MPD2     N10834   2.806   2.148   0.472 -0.0272 -0.8093  0.4949
  729MPD2    H510835   2.724   2.196   0.507  0.6535  0.1752  0.7388
  729MPD2    N110836   2.980   1.944   0.045  0.4336 -0.3622  0.2988
  729MPD2    H710837   2.946   1.937  17.680  2.0747 -1.2862 -0.2115
  730TMC3    C110838   2.921   2.273   0.634 -0.4605  0.8307  0.1276
  730TMC3    C210839   3.036   2.341   0.622 -0.2774 -0.5941 -0.0569
  730TMC3    C310840   3.036   2.476   0.625  0.5073  0.0388 -0.6341
  730TMC3    C410841   2.799   2.340   0.650 -0.4057 -0.1889 -0.7389
  730TMC3    C510842   2.801   2.477   0.668 -0.2068 -1.1470 -0.5510
  730TMC3    C610843   2.919   2.545   0.661  0.0406  0.2407  0.2768
  730TMC3     C10844   2.920   2.162   0.547 -0.2235  0.0209  0.1628
  730TMC3     O10845   3.031   2.107   0.533 -0.0153  0.6146 -0.5692
  730TMC3     H10846   3.130   2.292   0.600  0.7556  1.4277 -0.0788
  730TMC3    H110847   2.708   2.285   0.672  0.1328 -0.1338  1.6772
  730TMC3    H210848   2.922   2.651   0.686  0.3227  0.4857 -0.7697
  730TMC3    C710849   2.694   2.551   0.614 -0.0643 -0.5685  0.2550
  730TMC3    C810850   3.084   2.530   0.494 -0.2408  0.3861 -0.4289
  730TMC3    O110851   2.583   2.521   0.649  0.1785  0.3153  0.2039
  730TMC3    O210852   3.086   2.442   0.407 -0.5388 -0.3659  0.3068
  731MPD2     C10853   2.930   4.509  12.523 -0.4369  0.7124 -0.0427
  731MPD2    C110854   2.922   4.642  12.509 -0.3629  0.2420  0.6038
  731MPD2    C210855   2.883   4.720  12.617  0.5043  0.0624 -0.8434
  731MPD2    C310856   2.873   4.667  12.741 -0.0146  0.1651  0.5980
  731MPD2    C410857   2.878   4.525  12.751 -0.0676  0.4657 -0.3084
  731MPD2    C510858   2.899   4.450  12.641  0.7785  0.1588 -0.5202
  731MPD2     H10859   2.870   0.094  12.608  1.1646  0.0592 -1.8585
  731MPD2    H110860   2.855   4.480  12.847  0.0588 -0.8704 -0.9202
  731MPD2    H210861   2.953   4.441  12.442  0.1640 -1.7608  2.1907
  731MPD2    H310862   2.886   4.342  12.647 -2.4001  0.5692  0.0704
  731MPD2     N10863   2.856   0.026  12.852  0.2485  0.3605 -0.6845
  731MPD2    H510864   2.848   0.123  12.824  1.3478  1.0261  1.2931
  731MPD2    N110865   2.957   4.712  12.388 -0.2720  0.4931 -0.8745
  731MPD2    H710866   2.945   0.079  12.377  0.0293  0.3015 -2.7983
  732TMC3    C110867   3.055   0.011  12.183  0.3508 -0.7032 -0.0396
  732TMC3    C210868   2.985   0.121  12.145  0.4447 -0.2183  0.2221
  732TMC3    C310869   3.014   0.187  12.028 -0.3357  0.1688 -0.5781
  732TMC3    C410870   3.172   4.707  12.113  0.3179 -0.2929  0.2586
  732TMC3    C510871   3.199   0.051  12.001  0.0762 -0.0747  0.5615
  732TMC3    C610872   3.123   0.158  11.964 -0.0476  0.0893 -0.2683
  732TMC3     C10873   3.027   4.656  12.290 -0.4622 -0.4569 -0.1699
  732TMC3     O10874   3.093   4.555  12.290 -0.3949 -0.1049 -0.3180
  732TMC3     H10875   2.885   0.135  12.187  0.9414 -0.0049  1.3346
  732TMC3    H110876   3.227   4.615  12.127 -0.6443 -0.9778 -0.4691
  732TMC3    H210877   3.127   0.197  11.863 -0.2475  4.4437  1.4063
  732TMC3    C710878   3.340   0.061  11.961 -0.0669  0.4870 -0.5142
  732TMC3    C810879   2.937   0.295  11.965  0.0127 -0.0577  0.5776
  732TMC3    O110880   3.363   0.156  11.892 -0.1974  0.1446 -0.1484
  732TMC3    O210881   2.982   0.351  11.862  0.1302 -0.6988  0.2399
  733TMC3    C110882   3.474   2.795  13.666 -0.4279 -0.4740  0.1740
  733TMC3    C210883   3.588   2.803  13.745  0.6035 -0.0977  0.2582
  733TMC3    C310884   3.694   2.836  13.671 -1.3601 -0.4899 -0.1768
  733TMC3    C410885   3.480   2.794  13.530  0.3231  0.0276 -0.3576
  733TMC3    C510886   3.598   2.807  13.463  0.5316  0.2945  0.4522
  733TMC3    C610887   3.710   2.833  13.536  0.4599 -0.1741 -0.5014
  733TMC3     C10888   3.364   2.726  13.730 -0.2112  0.3397  1.2251
  733TMC3     O10889   3.373   2.684  13.841 -0.3113  0.3655 -0.4136
  733TMC3     H10890   3.572   2.821  13.851  0.3030 -0.0943  0.2118
  733TMC3    H110891   3.391   2.794  13.470 -0.3059 -0.9967  0.5661
  733TMC3    H210892   3.807   2.852  13.493  0.4089 -0.2461 -0.6478
  733TMC3    C710893   3.612   2.864  13.334  0.7265 -0.4166 -0.0703
  733TMC3    C810894   3.772   2.947  13.715  0.0475  0.1658  0.3331
  733TMC3    O110895   3.700   2.947  13.334  0.0996 -0.1576 -0.0374
  733TMC3    O210896   3.819   2.958  13.830  0.4652  0.5951  1.0047
  734MPD2     C10897   0.668   0.692  12.964  0.4749  0.2769 -0.0027
  734MPD2    C110898   0.628   0.622  12.857 -0.1619 -0.0775 -0.1866
  734MPD2    C210899   0.679   0.658  12.733  0.4022 -0.0926  0.5546
  734MPD2    C310900   0.770   0.757  12.727  0.0415 -0.0624 -0.2305
  734MPD2    C410901   0.805   0.832  12.835 -0.7406  0.1909  0.0696
  734MPD2    C510902   0.752   0.799  12.956  0.2687  0.5577  0.6620
  734MPD2     H10903   0.651   0.608  12.641  2.0470 -1.3263  0.7183
  734MPD2    H110904   0.872   0.917  12.827  1.6407 -1.5294  1.7640
  734MPD2    H210905   0.627   0.661  13.060  2.7970  1.7985  1.4966
  734MPD2    H310906   0.765   0.859  13.045  0.7524  1.6867 -0.1661
  734MPD2     N10907   0.820   0.781  12.596 -0.1149 -0.0385 -0.4480
  734MPD2    H510908   0.805   0.705  12.531  1.4149 -1.7176  1.1686
  734MPD2    N110909   0.553   0.504  12.875 -0.3065  0.4721  0.9485
  734MPD2    H710910   0.540   0.468  12.969  2.3157  1.2185  1.5910
  735TMC3    C110911   0.425   0.311  12.810 -0.3409  0.2874  0.0737
  735TMC3    C210912   0.355   0.271  12.698 -0.0482  0.4565 -0.1887
  735TMC3    C310913   0.387   0.149  12.639  0.0329  0.2671 -0.2692
  735TMC3    C410914   0.519   0.226  12.869  0.0661  0.0733  0.6245
  735TMC3    C510915   0.537   0.110  12.806  0.3376 -0.3866  0.8570
  735TMC3    C610916   0.474   0.063  12.696 -0.2037  0.5025 -1.0214
  735TMC3     C10917   0.482   0.438  12.775  0.9690 -0.3674 -0.2917
  735TMC3     O10918   0.476   0.458  12.650  0.6182 -0.2260 -0.5078
  735TMC3     H10919   0.277   0.331  12.653 -0.3974 -0.8055 -1.2773
  735TMC3    H110920   0.590   0.253  12.947  0.9223 -1.4341  0.3835
  735TMC3    H210921   0.518   4.708  12.650  2.3350  0.4906  1.4100
  735TMC3    C710922   0.671   0.055  12.827  0.0986  0.0105 -0.4364
  735TMC3    C810923   0.407   0.148  12.497  0.3728  0.7792  0.3645
  735TMC3    O110924   0.690   4.673  12.866  0.1838  0.0188  0.3341
  735TMC3    O210925   0.411   0.041  12.437 -0.1048 -0.3286 -0.2359
  736MPD2     C10926   0.966   0.035  12.864 -0.1169 -0.0035  0.5999
  736MPD2    C110927   0.908   0.138  12.799  0.2059  0.1890  0.3265
  736MPD2    C210928   0.986   0.223  12.727  0.5459  0.0636  0.0048
  736MPD2    C310929   1.120   0.195  12.716 -0.1659 -0.0738  0.3909
  736MPD2    C410930   1.179   0.090  12.785  0.0827  0.4909  0.1787
  736MPD2    C510931   1.098   0.005  12.855  0.1619  0.1796  0.4429
  736MPD2     H10932   0.935   0.293  12.662  0.1324  0.1813  0.4617
  736MPD2    H110933   1.285   0.066  12.782 -0.1751 -0.7949  1.3106
  736MPD2    H210934   0.911   4.696  12.924 -1.9260 -0.1648 -1.2048
  736MPD2    H310935   1.143   4.664  12.921 -0.7559 -0.6411  0.1428
  736MPD2     N10936   1.197   0.263  12.622 -0.0913  0.4589  0.0991
  736MPD2    H510937   1.293   0.232  12.607  0.7464  2.2551  1.6651
  736MPD2    N110938   0.764   0.151  12.789 -0.6814 -0.5895 -0.3270
  736MPD2    H710939   0.730   0.234  12.742 -1.0984 -0.8411 -0.4667
  737TMC3    C110940   1.239   0.436  12.463  0.0523 -0.4516 -0.1925
  737TMC3    C210941   1.218   0.570  12.441  0.3312 -0.0866  0.0852
  737TMC3    C310942   1.280   0.626  12.332 -0.0310 -0.2545  0.3562
  737TMC3    C410943   1.282   0.354  12.357 -1.3256 -0.5377  0.1454
  737TMC3    C510944   1.347   0.422  12.259 -0.5613 -0.0943  0.0715
  737TMC3    C610945   1.350   0.559  12.241 -0.0145 -0.2778 -0.1765
  737TMC3     C10946   1.153   0.381  12.567  0.6231  0.3904  0.2877
  737TMC3     O10947   1.064   0.463  12.601  0.0187  0.0712 -0.1446
  737TMC3     H10948   1.170   0.640  12.508 -0.0013 -1.4778  1.3014
  737TMC3    H110949   1.278   0.246  12.367 -2.8720 -0.3804  1.0872
  737TMC3    H210950   1.394   0.621  12.164 -0.3554  0.1289 -0.0407
  737TMC3    C710951   1.391   0.341  12.143  0.5924 -0.0374 -0.2950
  737TMC3    C810952   1.243   0.767  12.300 -1.0252 -0.1338  0.0228
  737TMC3    O110953   1.336   0.237  12.127  0.1142  0.0374  0.4408
  737TMC3    O210954   1.266   0.859  12.376  0.6733 -0.1038  0.2426
  738MPD2     C10955   1.290   4.011  15.160  0.1326  0.2345  0.4795
  738MPD2    C110956   1.405   3.954  15.197 -1.1946  0.1632  0.2027
  738MPD2    C210957   1.526   4.012  15.182  0.7306 -0.5340 -0.2129
  738MPD2    C310958   1.533   4.139  15.126  0.5906  0.3490 -0.6404
  738MPD2    C410959   1.415   4.198  15.090  0.4722 -0.6759 -0.4614
  738MPD2    C510960   1.297   4.128  15.092 -0.3307  0.2266 -0.4577
  738MPD2     H10961   1.618   3.958  15.203  0.7164  0.2664  1.9328
  738MPD2    H110962   1.415   4.296  15.043 -2.4888 -1.8944 -2.9770
  738MPD2    H210963   1.194   3.961  15.174 -0.2973  0.4602 -1.6616
  738MPD2    H310964   1.208   4.174  15.051  0.4570  1.7849 -0.4196
  738MPD2     N10965   1.657   4.206  15.091 -0.4704  0.2183 -0.2835
  738MPD2    H510966   1.650   4.298  15.050 -0.2796  0.9178  1.2336
  738MPD2    N110967   1.418   3.817  15.230  0.0411 -0.5375  0.3114
  738MPD2    H710968   1.511   3.778  15.219  0.4051 -0.1519  1.9752
  739TMC3    C110969   1.880   4.264  15.090 -0.4745 -0.0952 -0.5391
  739TMC3    C210970   1.878   4.329  14.970  0.2315  0.5907 -0.2254
  739TMC3    C310971   2.000   4.367  14.918 -0.2088  0.6565  0.0377
  739TMC3    C410972   2.001   4.226  15.155 -0.4862 -0.0212 -0.4526
  739TMC3    C510973   2.117   4.258  15.090 -0.5458 -0.5628 -0.3388
  739TMC3    C610974   2.117   4.328  14.973  0.6565 -0.9119  0.0297
  739TMC3     C10975   1.777   4.168  15.135 -0.3372 -0.2086 -0.6834
  739TMC3     O10976   1.823   4.071  15.193  0.0268  0.3382 -0.4809
  739TMC3     H10977   1.785   4.330  14.913 -0.2323  1.9658  0.5715
  739TMC3    H110978   2.008   4.194  15.259  0.3343 -1.5252 -0.9770
  739TMC3    H210979   2.210   4.348  14.921  2.0679  0.4030  3.0207
  739TMC3    C710980   2.238   4.209  15.149  0.7987 -0.3230  0.0474
  739TMC3    C810981   1.992   4.431  14.788  0.2035 -0.1173 -0.9605
  739TMC3    O110982   2.227   4.095  15.198  0.2000 -0.6691 -0.1337
  739TMC3    O210983   1.884   4.448  14.733 -0.0584 -0.9648 -0.2852
  740TMC3    C110984   2.494   0.808  14.356  0.3900 -0.2891  0.3713
  740TMC3    C210985   2.521   0.739  14.471 -0.0131 -0.6645 -0.5551
  740TMC3    C310986   2.644   0.677  14.492  0.0777  0.2043 -0.7430
  740TMC3    C410987   2.590   0.800  14.254 -0.4109 -0.4580 -0.0569
  740TMC3    C510988   2.702   0.722  14.273 -0.1661 -0.0133  0.9209
  740TMC3    C610989   2.741   0.665  14.393  0.5531  0.3611  0.1971
  740TMC3     C10990   2.363   0.847  14.318  0.5406  0.2709  0.0569
  740TMC3     O10991   2.343   0.884  14.201  0.1318 -0.0006  0.1718
  740TMC3     H10992   2.445   0.722  14.547  0.0913  1.3799 -0.0066
  740TMC3    H110993   2.555   0.830  14.156 -0.0093  1.1254  0.2801
  740TMC3    H210994   2.832   0.609  14.406  0.4171  0.1120  0.0705
  740TMC3    C710995   2.726   0.620  14.181 -0.2030 -0.4637  0.7401
  740TMC3    C810996   2.624   0.558  14.570 -0.0232 -0.4654 -0.2612
  740TMC3    O110997   2.690   0.507  14.215 -0.2065  0.5705 -0.1787
  740TMC3    O210998   2.553   0.559  14.668  0.0258 -0.1474 -0.3524
  741TMC3    C110999   1.969   0.164  14.666 -1.1009 -0.1581 -0.5922
  741TMC3    C211000   1.882   0.110  14.579 -0.1473 -0.3011  0.0579
  741TMC3    C311001   1.794   0.017  14.633 -0.2085  0.0445  1.2544
  741TMC3    C411002   1.976   0.130  14.802  0.4857 -0.3540  0.3806
  741TMC3    C511003   1.890   0.037  14.853 -0.6854  0.5900  0.0812
  741TMC3    C611004   1.793   4.719  14.769 -0.1204  0.1397 -0.0096
  741TMC3     C11005   2.082   0.226  14.610 -0.2453 -0.4244  0.4570
  741TMC3     O11006   2.185   0.228  14.681 -0.3457  0.2925  0.1485
  741TMC3     H11007   1.895   0.114  14.471  2.0544  0.3817  0.3593
  741TMC3    H111008   2.048   0.182  14.863 -0.4996 -0.2835  1.4898
  741TMC3    H211009   1.718   4.658  14.819 -1.4316  1.3945 -0.4629
  741TMC3    C711010   1.906   4.711  14.984 -0.5879 -0.6663 -0.3229
  741TMC3    C811011   1.685   4.693  14.552  0.0706  0.0259  0.6861
  741TMC3    O111012   1.815   4.636  15.024 -0.4581  0.0835  0.5210
  741TMC3    O211013   1.622   0.019  14.467  0.5494 -0.1455 -0.0410
  742TMC3    C111014   1.892   3.015  15.650  0.6724 -0.3047 -0.1847
  742TMC3    C211015   1.795   3.034  15.555 -0.0337  0.2612 -0.2894
  742TMC3    C311016   1.834   3.078  15.431  0.3311  0.1923 -0.6729
  742TMC3    C411017   2.019   3.060  15.638 -0.0511  0.4486  0.8001
  742TMC3    C511018   2.051   3.113  15.516  0.0627  0.5928  0.1333
  742TMC3    C611019   1.964   3.108  15.405 -1.1149  0.3620 -0.1074
  742TMC3     C11020   1.840   2.970  15.781  0.4512 -0.2727 -0.1640
  742TMC3     O11021   1.718   2.956  15.782 -0.2550  0.6041  0.3970
  742TMC3     H11022   1.709   2.968  15.557  1.9148 -2.3208 -1.2856
  742TMC3    H111023   2.097   3.049  15.713  0.5950  2.3270  0.4251
  742TMC3    H211024   1.997   3.132  15.305  0.1197 -1.5099 -0.1614
  742TMC3    C711025   2.187   3.125  15.479  0.6107  0.3417  0.2595
  742TMC3    C811026   1.766   3.048  15.313 -0.6793 -0.2326  0.0248
  742TMC3    O111027   2.231   3.079  15.375 -0.0633  0.2274 -0.0305
  742TMC3    O211028   1.700   2.943  15.310 -0.0185 -0.1824 -0.3926
  743MPD2     C11029   0.491   0.521   1.976 -0.2365  0.5553 -0.0173
  743MPD2    C111030   0.498   0.472   1.851  0.0445  0.3288 -0.4832
  743MPD2    C211031   0.620   0.450   1.789  0.3245 -0.4028 -0.2641
  743MPD2    C311032   0.736   0.493   1.857 -0.8611 -0.3572 -0.5702
  743MPD2    C411033   0.730   0.553   1.984 -0.1379 -0.0090  0.7168
  743MPD2    C511034   0.605   0.562   2.046  0.9342 -0.3964  0.0794
  743MPD2     H11035   0.628   0.396   1.695  0.5973  2.1114 -1.6874
  743MPD2    H111036   0.822   0.585   2.031  1.4678  0.0820 -2.5245
  743MPD2    H211037   0.398   0.523   2.032  1.5932 -0.5090  3.0759
  743MPD2    H311038   0.589   0.612   2.141  0.8888  0.1950 -0.2336
  743MPD2     N11039   0.856   0.462   1.786 -0.2363  0.1580  0.1920
  743MPD2    H511040   0.848   0.440   1.687 -1.1552  0.6501  0.1572
  743MPD2    N111041   0.379   0.447   1.782 -0.5876 -0.0539 -0.5373
  743MPD2    H711042   0.291   0.489   1.811 -0.5358 -2.0595  2.6239
  744TMC3    C111043   0.233   0.370   1.614  0.7170 -0.1245  0.5826
  744TMC3    C211044   0.158   0.484   1.624 -0.3856  0.0553  1.5628
  744TMC3    C311045   0.039   0.478   1.558 -0.2941  0.1333 -0.2688
  744TMC3    C411046   0.193   0.265   1.535 -0.0397 -0.2691 -0.7509
  744TMC3    C511047   0.070   0.266   1.468  0.5504 -0.0723 -0.1735
  744TMC3    C611048   4.724   0.375   1.479  0.6052 -0.1431 -0.5606
  744TMC3     C11049   0.365   0.368   1.671  0.7096  0.7719 -0.7023
  744TMC3     O11050   0.445   0.293   1.615  0.6966 -0.3763 -1.0099
  744TMC3     H11051   0.206   0.578   1.651  0.6920 -0.4019  1.2469
  744TMC3    H111052   0.259   0.179   1.528  1.1066  0.7794 -2.8938
  744TMC3    H211053   4.630   0.389   1.427 -0.3219 -1.0065  0.8417
  744TMC3    C711054   0.043   0.160   1.379 -0.0335 -0.7735  0.0661
  744TMC3    C811055   4.685   0.592   1.562  0.1718 -0.4731  0.0518
  744TMC3    O111056   4.681   0.177   1.306  0.0512 -0.8332 -0.2695
  744TMC3    O211057   4.588   0.594   1.489  0.1409 -0.3699  0.3407
  745TMC3    C111058   2.219   2.412  14.249 -0.5749 -0.2528 -0.2344
  745TMC3    C211059   2.146   2.416  14.364 -0.6472  0.6702 -0.4266
  745TMC3    C311060   2.018   2.471  14.358 -0.2706  0.3281  0.0839
  745TMC3    C411061   2.167   2.437  14.130  0.0308  0.1665 -0.5082
  745TMC3    C511062   2.027   2.478  14.120 -0.6252  0.0729  0.4769
  745TMC3    C611063   1.957   2.497  14.237  0.1612  0.0545 -0.1870
  745TMC3     C11064   2.347   2.466  14.282 -0.8507 -0.6665  0.2325
  745TMC3     O11065   2.414   2.405  14.361 -0.0295 -0.0609 -0.0135
  745TMC3     H11066   2.193   2.393  14.459  0.0996 -0.5401 -1.0861
  745TMC3    H111067   2.244   2.438  14.054  0.3841 -1.3912 -0.1730
  745TMC3    H211068   1.853   2.528  14.228 -0.0870 -1.2042 -1.5460
  745TMC3    C711069   2.005   2.573  14.010 -0.0107  0.0437 -0.2936
  745TMC3    C811070   1.993   2.556  14.471 -0.8453 -0.1889  0.0742
  745TMC3    O111071   1.937   2.670  14.037 -0.1255  0.4793 -0.0203
  745TMC3    O211072   2.088   2.573  14.550 -0.2527 -0.0993 -0.2449
  746TMC3    C111073   4.408   0.218  10.948 -0.3266  1.1995  0.4417
  746TMC3    C211074   4.515   0.196  10.856  0.3538  0.2032  0.2934
  746TMC3    C311075   4.498   0.095  10.769  0.0552 -0.0077  0.2658
  746TMC3    C411076   4.292   0.137  10.959 -0.3977  0.4356  0.5620
  746TMC3    C511077   4.287   0.040  10.865  0.3526  0.0995  0.0316
  746TMC3    C611078   4.384   0.018  10.767  0.4525 -0.3252 -0.0654
  746TMC3     C11079   4.401   0.341  11.023 -0.1923 -0.1703  0.0937
  746TMC3     O11080   4.337   0.337  11.128 -0.0464 -0.0645  0.4120
  746TMC3     H11081   4.606   0.255  10.854  1.1444 -0.9424  1.8253
  746TMC3    H111082   4.226   0.144  11.044 -0.5859  1.7530  0.3016
  746TMC3    H211083   4.383   4.667  10.698  0.3214  2.2268 -3.1379
  746TMC3    C711084   4.155   4.703  10.857  0.2307 -0.3507 -0.2949
  746TMC3    C811085   4.606   0.056  10.676  0.5313  0.3220 -0.0091
  746TMC3    O111086   4.070   4.729  10.944  0.9335  0.5417 -0.2197
  746TMC3    O211087   4.715   0.107  10.697  0.7191  0.2933  0.6951
  747TMC3    C111088   2.029   0.675  11.434  0.1285 -0.2270  0.4748
  747TMC3    C211089   1.941   0.628  11.523  0.0670  0.5007  0.2900
  747TMC3    C311090   1.970   0.639  11.654 -0.8615 -0.7980 -0.0897
  747TMC3    C411091   2.134   0.751  11.481 -0.3431 -0.2905  0.6366
  747TMC3    C511092   2.158   0.757  11.614  0.5153  0.4897 -0.5429
  747TMC3    C611093   2.075   0.708  11.709  0.0757  0.2388  0.8124
  747TMC3     C11094   1.984   0.701  11.295  0.4816 -0.5458  0.4492
  747TMC3     O11095   2.010   0.810  11.241  0.2682 -0.2333 -0.3348
  747TMC3     H11096   1.842   0.601  11.488  0.2829 -0.1902  0.2135
  747TMC3    H111097   2.207   0.796  11.414  0.8095 -1.2676  1.2326
  747TMC3    H211098   2.093   0.730  11.814 -0.4481 -0.9850  1.1600
  747TMC3    C711099   2.273   0.836  11.652 -0.5478  0.2958 -1.2385
  747TMC3    C811100   1.874   0.580  11.751  0.0422 -0.2079 -0.7601
  747TMC3    O111101   2.266   0.880  11.765  0.2577  0.4870  0.0302
  747TMC3    O211102   1.883   0.623  11.867 -0.8012 -0.4518 -0.8501
  748MPD2     C11103   4.707   1.967   1.849 -0.1330 -0.1178  0.4620
  748MPD2    C111104   4.693   1.836   1.800 -0.9408  0.1212 -0.1798
  748MPD2    C211105   4.683   1.815   1.664  0.1792  0.2567 -0.2965
  748MPD2    C311106   4.662   1.916   1.576  0.4917 -0.0026  0.3708
  748MPD2    C411107   4.666   2.046   1.625  0.4102  0.3795  0.9220
  748MPD2    C511108   4.694   2.070   1.755  0.1092  0.4934 -0.4911
  748MPD2     H11109   4.688   1.711   1.633  2.3226  0.1170  0.5641
  748MPD2    H111110   4.643   2.134   1.567  1.8782 -0.3183 -0.7077
  748MPD2    H211111   4.717   1.991   1.954  2.4397  1.1643 -0.0986
  748MPD2    H311112   4.687   2.168   1.802 -1.2626 -0.6458  1.7384
  748MPD2     N11113   4.635   1.878   1.446 -0.8477  0.4475  0.5250
  748MPD2    H511114   4.630   1.780   1.421  2.4837  0.2433  0.7127
  748MPD2    N111115   4.699   1.736   1.902 -0.0805 -0.3334  0.0357
  748MPD2    H711116   4.724   1.765   1.996 -1.7035 -0.7686  0.6006
  749TMC3    C111117   4.602   1.895   1.212  0.5121  0.6324  0.4197
  749TMC3    C211118   4.485   1.824   1.188  0.0438  0.2186 -0.9374
  749TMC3    C311119   4.449   1.803   1.055 -0.3489 -0.4333 -0.5757
  749TMC3    C411120   4.686   1.937   1.109  0.1646 -0.1886  0.2751
  749TMC3    C511121   4.639   1.926   0.983 -0.0648 -0.4875  0.4284
  749TMC3    C611122   4.527   1.856   0.952  0.0542 -0.1233 -0.3312
  749TMC3     C11123   4.621   1.964   1.338  0.3905 -0.3753  1.1870
  749TMC3     O11124   4.647   2.083   1.331  0.0702  0.1405 -0.5809
  749TMC3     H11125   4.426   1.777   1.266  0.7438  2.1373  0.7491
  749TMC3    H111126   0.031   2.006   1.142 -0.1697  0.4428 -0.2521
  749TMC3    H211127   4.509   1.830   0.849 -1.5599  0.8422 -0.2863
  749TMC3    C711128   0.006   1.960   0.886 -0.2322 -0.2019  0.1894
  749TMC3    C811129   4.335   1.728   1.016  0.0145 -0.9222  1.0721
  749TMC3    O111130   0.115   1.966   0.933 -0.6337 -0.0606  0.1377
  749TMC3    O211131   4.287   1.751   0.904 -0.4900 -0.4298 -0.4766
  750MPD2     C11132   4.574   2.040  11.586  0.5038 -0.1526 -0.1710
  750MPD2    C111133   4.457   1.964  11.596 -0.1024 -0.5697  0.0804
  750MPD2    C211134   4.440   1.857  11.513  0.5067 -0.3019 -0.4685
  750MPD2    C311135   4.535   1.841  11.408  0.1779 -0.3657 -0.0642
  750MPD2    C411136   4.644   1.920  11.403 -0.6410  0.3464 -0.0746
  750MPD2    C511137   4.664   2.021  11.487 -0.4293 -0.0652 -0.7009
  750MPD2     H11138   4.361   1.785  11.524 -1.4835  1.6688 -1.7318
  750MPD2    H111139   4.728   1.901  11.338 -1.4734 -0.9228 -0.7789
  750MPD2    H211140   4.590   2.132  11.642  1.1956  0.0205 -0.6471
  750MPD2    H311141   0.026   2.073  11.483  0.0896 -0.9221  0.3399
  750MPD2     N11142   4.533   1.728  11.314 -0.7268 -0.2942  0.4304
  750MPD2    H511143   4.616   1.723  11.256 -1.8906  0.0095 -1.2471
  750MPD2    N111144   4.361   2.000  11.699  0.4398  0.0767  0.1923
  750MPD2    H711145   4.374   2.090  11.745  2.0325 -0.5950  1.0574
  751TMC3    C111146   4.472   1.527  11.212  0.6463  0.0504 -0.1829
  751TMC3    C211147   4.373   1.443  11.172  0.5074 -1.0052  0.3734
  751TMC3    C311148   4.403   1.322  11.112  0.3238  0.6548 -0.2076
  751TMC3    C411149   4.606   1.492  11.187  0.2361  0.2948 -0.7434
  751TMC3    C511150   4.628   1.373  11.123  0.1143 -0.5026  0.0193
  751TMC3    C611151   4.534   1.281  11.077  0.9760  0.0065 -0.1715
  751TMC3     C11152   4.435   1.635  11.305  0.2987  0.3108 -0.1374
  751TMC3     O11153   4.320   1.643  11.351  0.3767  0.1849  0.4301
  751TMC3     H11154   4.269   1.470  11.180  1.0030  0.2766  2.3311
  751TMC3    H111155   4.690   1.540  11.235  1.2681 -1.5701 -0.6831
  751TMC3    H211156   4.556   1.200  11.009 -3.4298 -1.8440  0.5618
  751TMC3    C711157   0.031   1.312  11.117 -0.0455  0.0800  0.2690
  751TMC3    C811158   4.298   1.218  11.095  0.5733  0.3577 -0.5371
  751TMC3    O111159   0.128   1.386  11.127  0.3822 -0.2092  0.3847
  751TMC3    O211160   4.325   1.142  11.004 -0.1467 -0.2165 -0.0527
  752TMC3    C111161   3.994   2.254   0.424 -0.6575  0.3384  0.0064
  752TMC3    C211162   4.067   2.244   0.540  0.1810  0.6495 -0.7223
  752TMC3    C311163   4.032   2.335   0.634  0.2191  0.6063  0.6750
  752TMC3    C411164   3.898   2.347   0.399  1.0776 -0.0219 -0.2624
  752TMC3    C511165   3.866   2.439   0.493 -0.1879  0.2699 -0.1400
  752TMC3    C611166   3.925   2.430   0.618 -0.3989 -0.7003  0.1122
  752TMC3     C11167   4.019   2.164   0.312 -0.3565  0.0894 -0.6692
  752TMC3     O11168   4.126   2.109   0.304 -0.1394 -0.3761 -0.3818
  752TMC3     H11169   4.111   2.148   0.564  1.1957  1.1240 -0.6996
  752TMC3    H111170   3.856   2.370   0.302 -0.2582 -1.5838 -0.0487
  752TMC3    H211171   3.913   2.496   0.703 -0.5618  1.2052 -1.3817
  752TMC3    C711172   3.793   2.564   0.453  0.5442 -0.1126  0.4845
  752TMC3    C811173   4.036   2.270   0.763 -0.1281 -0.9531  0.3248
  752TMC3    O111174   3.746   2.568   0.338 -0.4199  0.1105 -0.0969
  752TMC3    O211175   3.937   2.265   0.834 -0.4204  0.2668  0.0023
  753TMC3    C111176   0.575   2.645  13.502 -0.4727  0.2798  0.4519
  753TMC3    C211177   0.697   2.690  13.551  0.4575  0.0687 -1.0930
  753TMC3    C311178   0.779   2.610  13.624 -0.2190 -0.0008  0.0241
  753TMC3    C411179   0.526   2.526  13.544 -0.2174  0.3451 -1.2243
  753TMC3    C511180   0.607   2.450  13.623  0.2173 -0.1222 -0.6729
  753TMC3    C611181   0.738   2.481  13.651  0.1811 -0.6836  0.3749
  753TMC3     C11182   0.487   2.726  13.419 -0.6818  0.3942 -0.5519
  753TMC3     O11183   0.393   2.675  13.364 -0.4641  0.1008 -1.2738
  753TMC3     H11184   0.730   2.791  13.528 -0.1446  1.1331  2.6301
  753TMC3    H111185   0.426   2.494  13.515 -0.5365  1.1142 -0.9694
  753TMC3    H211186   0.794   2.414  13.714 -0.0130 -1.2539 -0.0600
  753TMC3    C711187   0.561   2.318  13.678 -0.1982  0.4007 -0.5601
  753TMC3    C811188   0.913   2.652  13.663 -0.2533  0.3200  0.1556
  753TMC3    O111189   0.494   2.246  13.605  0.9084  0.7462 -0.1348
  753TMC3    O211190   0.976   2.556  13.700  0.3881 -0.8576 -0.5103
  754MPD2     C11191   4.427   1.676  13.411  0.1851  0.2899  0.9216
  754MPD2    C111192   4.454   1.536  13.416  0.1940  0.3410 -0.2130
  754MPD2    C211193   4.342   1.456  13.409  0.3431  0.2233 -0.2041
  754MPD2    C311194   4.218   1.512  13.400  0.2704  0.8326  0.3411
  754MPD2    C411195   4.199   1.645  13.387  0.2095 -0.5518 -0.1742
  754MPD2    C511196   4.303   1.726  13.393  0.1453  0.4362 -0.3681
  754MPD2     H11197   4.352   1.349  13.396 -1.3420 -0.2674  2.5077
  754MPD2    H111198   4.101   1.689  13.371  1.1701  0.8592 -2.1138
  754MPD2    H211199   4.512   1.743  13.405  0.1841  0.0783 -1.4615
  754MPD2    H311200   4.290   1.832  13.372 -0.9804 -0.2434 -3.1233
  754MPD2     N11201   4.103   1.438  13.414 -0.0475 -0.5188 -0.1393
  754MPD2    H511202   4.021   1.498  13.407  0.6745  0.5599  0.6377
  754MPD2    N111203   4.583   1.495  13.454  0.3876  0.0251  0.6350
  754MPD2    H711204   4.653   1.569  13.450  0.6812 -0.3275 -0.9393
  755MPD2     C11205   3.427   1.867  13.594 -0.0292  0.9032 -0.1858
  755MPD2    C111206   3.444   1.779  13.694  0.3352  0.0490  0.2733
  755MPD2    C211207   3.534   1.671  13.688  0.3697  0.0199 -0.0594
  755MPD2    C311208   3.584   1.638  13.568 -0.2343 -0.2097  0.6229
  755MPD2    C411209   3.563   1.722  13.461  0.5350  0.3040 -0.2630
  755MPD2    C511210   3.477   1.834  13.471  0.5370  0.2901  0.3441
  755MPD2     H11211   3.573   1.621  13.776  2.2544  1.0576 -0.2904
  755MPD2    H111212   3.600   1.707  13.361  0.8710  0.7104 -0.2004
  755MPD2    H211213   3.365   1.955  13.610 -0.3829  0.7279 -0.5887
  755MPD2    H311214   3.460   1.905  13.392  1.0307  1.3141  1.1487
  755MPD2     N11215   3.660   1.530  13.554  0.3951  0.0556  0.5586
  755MPD2    H511216   3.712   1.526  13.466  1.5689  1.6458  1.1640
  755MPD2    N111217   3.409   1.821  13.825  0.0016  0.4131  0.3624
  755MPD2    H711218   3.440   1.759  13.899  0.3521  1.6734  1.2817
  756MPD2     C11219   4.586   2.730   9.869 -0.2309  0.1187  0.4177
  756MPD2    C111220   4.486   2.663   9.933 -0.1594  0.1055 -0.4862
  756MPD2    C211221   4.357   2.715   9.925 -0.4361  0.1700 -0.6385
  756MPD2    C311222   4.327   2.838   9.874  0.2169  0.4527  0.2537
  756MPD2    C411223   4.433   2.913   9.825 -0.7867  0.3123  0.5293
  756MPD2    C511224   4.556   2.857   9.818  0.1762  0.0292  0.5041
  756MPD2     H11225   4.279   2.660   9.977  0.0551  1.2902  1.2937
  756MPD2    H111226   4.419   3.019   9.807 -1.7952  0.4457  2.0812
  756MPD2    H211227   4.688   2.694   9.861 -0.1885 -0.2796  2.7082
  756MPD2    H311228   4.635   2.922   9.783 -0.0886 -0.5850 -1.2134
  756MPD2     N11229   4.191   2.873   9.882  0.7924  0.3995  0.3830
  756MPD2    H511230   4.130   2.805   9.927  0.1125 -0.2302 -1.4966
  756MPD2    N111231   4.500   2.540  10.000 -0.4502 -0.0360  0.7487
  756MPD2    H711232   4.410   2.501  10.026  0.5480 -2.2474  0.9035
  757MPD2     C11233   3.534   2.468   9.547  0.6568 -0.2694  0.0377
  757MPD2    C111234   3.530   2.472   9.685 -0.5308  0.0008 -0.2316
  757MPD2    C211235   3.601   2.575   9.746  0.2867  0.2443  0.1916
  757MPD2    C311236   3.665   2.679   9.675  0.0959 -0.3345 -0.8078
  757MPD2    C411237   3.664   2.664   9.539  0.1048  0.1022  0.2470
  757MPD2    C511238   3.600   2.561   9.473 -0.2830 -0.4978 -0.3038
  757MPD2     H11239   3.606   2.592   9.853 -0.8641 -0.5976  0.3768
  757MPD2    H111240   3.704   2.734   9.467 -2.1995  1.3430  0.1460
  757MPD2    H211241   3.463   2.400   9.501  0.1418 -0.8046  1.6142
  757MPD2    H311242   3.610   2.553   9.365 -2.6216 -1.8772 -0.4456
  757MPD2     N11243   3.733   2.789   9.735  0.1354 -0.7752 -0.1096
  757MPD2    H511244   3.796   2.848   9.682  1.1960 -0.1209  1.8900
  757MPD2    N111245   3.455   2.377   9.762 -0.2063 -0.2306  0.1107
  757MPD2    H711246   3.411   2.301   9.711 -1.7797  0.5778  0.2753
  758MPD2     C11247   4.320   1.463  16.220 -0.3288 -0.4241  0.4124
  758MPD2    C111248   4.358   1.338  16.255  0.2320  0.8933  0.0291
  758MPD2    C211249   4.302   1.275  16.364 -0.6063 -0.4344 -0.6458
  758MPD2    C311250   4.212   1.340  16.448 -0.6446  0.0396  0.0106
  758MPD2    C411251   4.170   1.463  16.404 -0.8480 -0.5655 -0.7406
  758MPD2    C511252   4.212   1.520  16.294 -0.2642  0.4739 -0.4987
  758MPD2     H11253   4.346   1.182  16.398  0.8775  0.9584  1.2065
  758MPD2    H111254   4.096   1.511  16.467 -0.3811 -2.2845  1.1314
  758MPD2    H211255   4.364   1.522  16.141 -0.1415 -0.5624  0.4141
  758MPD2    H311256   4.183   1.621  16.271  2.4782  1.4299  0.1489
  758MPD2     N11257   4.179   1.300  16.579  0.3432  0.3839 -0.0130
  758MPD2    H511258   4.109   1.355  16.627 -0.5420 -0.5599 -0.2206
  758MPD2    N111259   4.476   1.291  16.189 -0.1661  0.0800 -0.0735
  758MPD2    H711260   4.526   1.352  16.125 -1.5832  1.6831  0.3498
  759MPD2     C11261   2.922   4.691  10.692 -0.5963  0.3243  0.3601
  759MPD2    C111262   2.802   0.036  10.706 -0.3148  0.2979 -0.2797
  759MPD2    C211263   2.804   0.173  10.686 -0.2529 -0.2701 -0.0130
  759MPD2    C311264   2.927   0.232  10.650 -0.2888 -0.3120  0.7864
  759MPD2    C411265   3.043   0.162  10.625  0.1609  0.3376  0.3224
  759MPD2    C511266   3.035   0.021  10.654 -0.6760  0.2641 -0.2819
  759MPD2     H11267   2.721   0.238  10.712 -0.8245 -0.4737 -1.3655
  759MPD2    H111268   3.138   0.211  10.612 -0.3558  0.2650 -3.6619
  759MPD2    H211269   2.924   4.583  10.705 -1.2199  0.2580 -0.0697
  759MPD2    H311270   3.126   4.696  10.643 -0.7049  0.0220  0.6936
  759MPD2     N11271   2.928   0.376  10.657  0.5656  0.0211  1.1832
  759MPD2    H511272   2.833   0.409  10.673  0.6564  0.8014  0.1498
  759MPD2    N111273   2.673   4.702  10.729 -1.0417 -0.3006  0.6789
  759MPD2    H711274   2.601   0.042  10.737  0.5178  1.3770 -0.4900
  760MPD2     C11275   2.348   1.842  12.598 -0.0683 -0.1021  0.7565
  760MPD2    C111276   2.470   1.868  12.547  0.2275  0.1787 -0.3872
  760MPD2    C211277   2.560   1.767  12.534 -0.4366  0.8427  0.8942
  760MPD2    C311278   2.537   1.637  12.567  0.2346 -0.1831  0.4037
  760MPD2    C411279   2.418   1.614  12.638  0.1418  0.0405 -0.5366
  760MPD2    C511280   2.326   1.714  12.653  0.7853 -0.1009 -0.1400
  760MPD2     H11281   2.655   1.799  12.493 -1.9311  0.4164 -2.8200
  760MPD2    H111282   2.396   1.510  12.662 -1.5707  1.3815  3.6637
  760MPD2    H211283   2.275   1.922  12.604  0.1862  0.3578 -2.2265
  760MPD2    H311284   2.227   1.689  12.688  0.9731 -0.2250  0.3021
  760MPD2     N11285   2.633   1.538  12.556 -1.0431 -0.2999 -0.4836
  760MPD2    H511286   2.614   1.445  12.591  1.3163  0.4009  2.7325
  760MPD2    N111287   2.511   1.999  12.505  0.3356 -0.2388  0.0202
  760MPD2    H711288   2.605   2.008  12.468  0.0600 -1.7982 -1.0384
  761MPD2     C11289   3.944   0.900  11.304  0.2748 -1.0006  0.8168
  761MPD2    C111290   4.039   0.880  11.207 -0.2645 -0.9170  0.5466
  761MPD2    C211291   4.115   0.986  11.156  0.9633  0.4857 -0.5290
  761MPD2    C311292   4.118   1.100  11.226  0.7154 -0.0876 -0.4660
  761MPD2    C411293   4.022   1.123  11.327 -0.3802  0.2475  0.0984
  761MPD2    C511294   3.933   1.029  11.352 -0.0084  0.6136  0.1770
  761MPD2     H11295   4.191   0.969  11.080  1.4871 -1.2772  0.3697
  761MPD2    H111296   4.015   1.220  11.376  0.0305  1.3540 -1.9891
  761MPD2    H211297   3.886   0.819  11.347  1.3118 -1.6367  1.0149
  761MPD2    H311298   3.851   1.046  11.422 -1.4126  2.2696 -1.8707
  761MPD2     N11299   4.204   1.214  11.195  0.0473 -0.7041 -0.2409
  761MPD2    H511300   4.203   1.284  11.269 -2.0113  1.5857 -2.4367
  761MPD2    N111301   4.039   0.756  11.150 -0.2427  0.3265  0.0216
  761MPD2    H711302   3.974   0.688  11.189  0.6518 -0.1698  0.6382
  762MPD2     C11303   3.889   0.094  10.514 -0.1597 -0.0638 -0.3377
  762MPD2    C111304   3.962   0.209  10.538 -0.5114  0.4731  0.9468
  762MPD2    C211305   4.031   0.254  10.423 -0.4055 -0.5409  0.3984
  762MPD2    C311306   4.022   0.187  10.298 -0.2265 -0.1853 -0.5611
  762MPD2    C411307   3.947   0.072  10.279 -0.2542  0.3430 -0.6941
  762MPD2    C511308   3.885   0.025  10.395 -0.2591 -0.2452  0.3059
  762MPD2     H11309   4.092   0.344  10.423 -0.2167 -0.6693  0.4327
  762MPD2    H111310   3.940   0.007  10.192  1.5396 -2.4581  1.2545
  762MPD2    H211311   3.834   0.056  10.599  1.7865  1.1732  1.4824
  762MPD2    H311312   3.838   4.660  10.394 -1.1780  0.2024 -1.1869
  762MPD2     N11313   4.096   0.232  10.187 -0.0818  0.4372 -0.5277
  762MPD2    H511314   4.169   0.293  10.221 -1.4455  1.6127  0.3236
  762MPD2    N111315   3.971   0.262  10.670  0.7386  0.2057 -0.4345
  762MPD2    H711316   3.904   0.228  10.738  0.5181  0.5200 -0.4883
  763MPD2     C11317   1.065   1.183  16.293  0.5625 -0.4257  0.5850
  763MPD2    C111318   1.177   1.208  16.213  0.5444 -0.1878  0.3005
  763MPD2    C211319   1.269   1.299  16.251  0.0349  0.0734  0.2072
  763MPD2    C311320   1.240   1.387  16.356 -0.2429  0.1159  0.3193
  763MPD2    C411321   1.133   1.365  16.436  0.4747 -0.0325 -0.5052
  763MPD2    C511322   1.048   1.256  16.409 -0.2531 -0.7639 -0.2676
  763MPD2     H11323   1.360   1.316  16.196  1.5608 -2.3933  1.9780
  763MPD2    H111324   1.104   1.438  16.511 -0.8445  0.8534 -1.8810
  763MPD2    H211325   0.986   1.111  16.276 -0.7643  1.0271  0.6162
  763MPD2    H311326   0.959   1.248  16.470 -1.0933 -1.6163 -1.6016
  763MPD2     N11327   1.331   1.490  16.384 -0.1524 -0.5265  0.6935
  763MPD2    H511328   1.422   1.486  16.338 -0.6532  3.2439 -0.6241
  763MPD2    N111329   1.213   1.132  16.099  0.0351 -0.0422 -0.0548
  763MPD2    H711330   1.305   1.138  16.059  0.0456 -0.9044 -0.1489
  764MPD2     C11331   4.033   2.789  17.582  0.5324 -0.5166 -0.1815
  764MPD2    C111332   3.923   2.878  17.586 -0.4167 -0.6039 -0.2676
  764MPD2    C211333   3.888   2.947  17.699  0.0991 -0.3334  0.2554
  764MPD2    C311334   3.951   2.926   0.088 -0.4109  0.0611  0.0992
  764MPD2    C411335   4.049   2.825   0.092 -0.7381 -0.1347  0.2613
  764MPD2    C511336   4.089   2.758  17.707  0.2965  0.2746 -0.0528
  764MPD2     H11337   3.802   3.013  17.685  1.5910  1.1430 -1.9180
  764MPD2    H111338   4.100   2.792   0.183  1.8691  0.5124 -0.9597
  764MPD2    H211339   4.079   2.742  17.495  0.7404 -0.3030 -0.1868
  764MPD2    H311340   4.170   2.687  17.720 -1.1536 -1.2932  0.4245
  764MPD2     N11341   3.908   3.008   0.199  0.7168 -0.0071  0.2919
  764MPD2    H511342   3.819   3.054   0.183  1.3549  0.9676 -0.4242
  764MPD2    N111343   3.843   2.904  17.474 -0.3049  0.3614  0.4025
  764MPD2    H711344   3.763   2.965  17.486 -1.6016 -1.2146 -0.2956
  765MPD2     C11345   3.993   0.720  15.876 -0.1173 -0.0591  0.5588
  765MPD2    C111346   4.091   0.806  15.937 -0.1585  0.2600  0.3594
  765MPD2    C211347   4.227   0.767  15.927 -0.6727  0.1830  0.0104
  765MPD2    C311348   4.266   0.651  15.868 -0.9661  0.0519  0.0202
  765MPD2    C411349   4.170   0.574  15.806 -0.5813 -0.2039  0.4183
  765MPD2    C511350   4.036   0.614  15.808 -0.4183 -0.7874  1.3188
  765MPD2     H11351   4.308   0.821  15.974 -2.7252  3.9364 -0.7770
  765MPD2    H111352   4.196   0.483  15.754 -1.4957  0.4330 -1.1424
  765MPD2    H211353   3.887   0.737  15.889 -0.1321  0.1342  0.1797
  765MPD2    H311354   3.956   0.554  15.767 -1.0622  0.2172  1.1040
  765MPD2     N11355   4.398   0.602  15.898  0.0788 -0.6971  1.1784
  765MPD2    H511356   4.460   0.663  15.949 -0.4815 -0.7901  1.9654
  765MPD2    N111357   4.047   0.918  16.012  0.3744  0.1481  0.2764
  765MPD2    H711358   3.947   0.931  16.024  0.3322 -1.2813  1.4081
  766MPD2     C11359   3.407   1.132  15.905 -0.1063 -0.5440 -0.3741
  766MPD2    C111360   3.534   1.088  15.904  0.1543  0.1945 -0.3764
  766MPD2    C211361   3.588   0.998  15.805  0.0062  0.5134 -0.1410
  766MPD2    C311362   3.506   0.959  15.700 -0.3089 -0.4224  0.2605
  766MPD2    C411363   3.376   0.999  15.703 -0.0796 -0.2150 -0.0611
  766MPD2    C511364   3.328   1.076  15.805 -0.4143  0.0859  0.5425
  766MPD2     H11365   3.691   0.963  15.802 -0.4111 -0.7001 -0.2521
  766MPD2    H111366   3.308   0.964  15.627  0.4112  0.9801 -1.0477
  766MPD2    H211367   3.356   1.187  15.984  0.0099 -0.3468 -0.4359
  766MPD2    H311368   3.222   1.098  15.806 -0.5728 -0.5579 -1.0614
  766MPD2     N11369   3.549   0.882  15.589 -0.4915  0.8311 -0.0644
  766MPD2    H511370   3.480   0.869  15.515 -0.2947 -0.4302 -0.0314
  766MPD2    N111371   3.617   1.134  16.014 -0.2873 -0.3378  0.4493
  766MPD2    H711372   3.581   1.203  16.080  1.6742  0.8976  0.2377
  767MPD2     C11373   3.227   1.177  15.301  0.0273 -0.5327  0.4345
  767MPD2    C111374   3.359   1.135  15.303  0.5112 -0.6237 -0.5071
  767MPD2    C211375   3.407   1.066  15.187 -0.1184 -0.4853  0.3429
  767MPD2    C311376   3.322   1.038  15.076  0.1481 -0.1729 -0.9408
  767MPD2    C411377   3.191   1.087  15.087 -0.3821  0.1834  0.5767
  767MPD2    C511378   3.145   1.148  15.199 -0.1799 -0.0470 -0.0403
  767MPD2     H11379   3.515   1.052  15.182 -0.1867 -0.9063  0.0108
  767MPD2    H111380   3.119   1.085  15.006  0.2631 -1.1940  0.0268
  767MPD2    H211381   3.190   1.247  15.375  1.6950 -0.6728  1.3903
  767MPD2    H311382   3.043   1.187  15.200 -0.9438 -2.0368 -1.0637
  767MPD2     N11383   3.375   0.982  14.955 -0.1546  0.6640  0.3184
  767MPD2    H511384   3.476   0.968  14.948  0.0806  2.0746  0.8086
  767MPD2    N111385   3.448   1.187  15.398  0.2143 -0.2221  0.6219
  767MPD2    H711386   3.407   1.237  15.476  2.2800  0.1432  1.4731
  768MPD2     C11387   3.512   4.171  11.425 -0.7977 -0.0992  0.3106
  768MPD2    C111388   3.601   4.256  11.364 -0.2262  0.3851 -0.0262
  768MPD2    C211389   3.737   4.250  11.390  0.1352 -0.0918  0.4651
  768MPD2    C311390   3.783   4.158  11.479 -0.7143  0.5469  0.2808
  768MPD2    C411391   3.698   4.076  11.542  0.5476  0.0112 -0.1828
  768MPD2    C511392   3.562   4.081  11.513 -0.0984  0.9894 -0.0944
  768MPD2     H11393   3.797   4.324  11.339  2.8152 -0.1532  3.5055
  768MPD2    H111394   3.728   4.006  11.619  0.8343  1.4835  1.0308
  768MPD2    H211395   3.404   4.176  11.422 -0.7638  1.2362  1.2552
  768MPD2    H311396   3.499   4.003  11.555  0.9027  0.1665 -0.0980
  768MPD2     N11397   3.916   4.156  11.528  0.1523  0.8443  0.1814
  768MPD2    H511398   3.929   4.104  11.614 -1.7068 -0.2126 -0.2002
  768MPD2    N111399   3.563   4.348  11.266 -0.3671  0.2207  0.3661
  768MPD2    H711400   3.633   4.396  11.211 -0.7511  0.4104  0.0444
  769MPD2     C11401   0.578   2.366  14.827  0.5437  0.3782  0.3878
  769MPD2    C111402   0.472   2.386  14.910 -0.0493  0.4211  0.7702
  769MPD2    C211403   0.497   2.424  15.046 -0.6277 -0.3363  0.1462
  769MPD2    C311404   0.616   2.427  15.100 -0.3701  0.7543  0.2817
  769MPD2    C411405   0.727   2.406  15.016 -0.3516 -0.1236  0.1688
  769MPD2    C511406   0.711   2.374  14.882 -0.2687 -0.4388 -0.5925
  769MPD2     H11407   0.410   2.439  15.109 -0.6138 -0.2625  0.1476
  769MPD2    H111408   0.828   2.416  15.053 -0.9236  0.2615  1.6372
  769MPD2    H211409   0.563   2.360  14.720  1.4595 -2.2311  0.4072
  769MPD2    H311410   0.791   2.355  14.811  1.6520  1.2013  1.1393
  769MPD2     N11411   0.641   2.471  15.231 -0.1011 -0.3839  0.3307
  769MPD2    H511412   0.557   2.487  15.286  1.9312 -2.5681  4.0624
  769MPD2    N111413   0.344   2.367  14.859 -0.3751  0.3620  1.1610
  769MPD2    H711414   0.340   2.312  14.774 -0.0400  3.3010 -0.7549
  770MPD2     C11415   4.468   1.792  15.305  0.6067  0.8817 -0.1094
  770MPD2    C111416   4.542   1.758  15.195 -0.2385 -0.0220 -0.7411
  770MPD2    C211417   4.566   1.846  15.092  0.1034 -1.2327  0.5513
  770MPD2    C311418   4.518   1.977  15.107 -0.5541  0.0266 -0.5018
  770MPD2    C411419   4.427   2.005  15.208 -0.2989  0.9640  0.3882
  770MPD2    C511420   4.409   1.908  15.312  0.5047  0.0848 -0.4326
  770MPD2     H11421   4.629   1.822  15.008  0.2596 -1.1393  0.6408
  770MPD2    H111422   4.371   2.098  15.210 -1.0992  0.4862  0.1625
  770MPD2    H211423   4.461   1.730  15.394 -2.8463 -1.3812 -1.9734
  770MPD2    H311424   4.337   1.924  15.391 -0.8680 -0.6171 -1.5537
  770MPD2     N11425   4.577   2.082  15.027  0.8421 -0.4196  0.2543
  770MPD2    H511426   4.646   2.054  14.958  0.4837  2.8228 -1.4104
  770MPD2    N111427   4.582   1.622  15.193  0.3846 -0.7181 -0.0457
  770MPD2    H711428   4.544   1.566  15.268 -0.5153 -1.7768 -1.3069
  771MPD2     C11429   1.507   0.101  14.051  0.3705  0.2209 -0.0298
  771MPD2    C111430   1.454   0.116  13.925 -0.1262  0.0695 -0.7087
  771MPD2    C211431   1.372   0.015  13.887 -0.3396 -0.4316 -0.1934
  771MPD2    C311432   1.348   4.633  13.957 -0.9535  0.1281 -0.3922
  771MPD2    C411433   1.401   4.624  14.094  0.3510 -0.5296 -0.6673
  771MPD2    C511434   1.485   4.725  14.130 -0.1420 -0.0828  0.3199
  771MPD2     H11435   1.318   0.022  13.793  0.1868  0.8370 -0.4035
  771MPD2    H111436   1.389   4.537  14.157 -0.9207 -0.6656 -1.0946
  771MPD2    H211437   1.558   0.183  14.100 -0.8072  1.2519 -0.5367
  771MPD2    H311438   1.532   4.728  14.228  0.7694  0.7901 -0.1462
  771MPD2     N11439   1.272   4.535  13.891 -0.0434 -0.0656  0.2580
  771MPD2    H511440   1.226   4.574  13.810 -0.0423  0.8214  0.6881
  771MPD2    N111441   1.455   0.230  13.845 -0.1891 -0.9626 -0.1716
  771MPD2    H711442   1.400   0.223  13.760 -0.1899 -0.0450 -0.2468
  772MPD2     C11443   1.005   0.573  13.379 -0.4007  0.3500 -0.1127
  772MPD2    C111444   1.052   0.487  13.475 -0.0712  0.3381  0.8096
  772MPD2    C211445   0.975   0.385  13.522 -0.3136 -0.1290 -0.0779
  772MPD2    C311446   0.838   0.362  13.481 -0.7493 -1.3230 -0.2306
  772MPD2    C411447   0.793   0.457  13.384 -0.5943 -0.4337 -0.3959
  772MPD2    C511448   0.877   0.557  13.334 -0.5595 -0.1065 -0.0445
  772MPD2     H11449   1.026   0.309  13.580 -2.3070 -2.5326 -1.4128
  772MPD2    H111450   0.691   0.456  13.347 -0.8433  0.6914  0.2537
  772MPD2    H211451   1.055   0.657  13.332 -0.7918  0.3655 -0.5021
  772MPD2    H311452   0.839   0.628  13.262 -1.4218 -2.4698 -1.9030
  772MPD2     N11453   0.758   0.254  13.520 -0.0018  0.5066  0.3918
  772MPD2    H511454   0.661   0.259  13.490  0.4240 -0.5502 -1.1263
  772MPD2    N111455   1.187   0.487  13.534 -0.2711  0.1125 -0.0523
  772MPD2    H711456   1.212   0.398  13.576  0.0237  0.5890  0.7941
  773MPD2     C11457   4.252   1.776   0.061  0.2110 -0.7622 -0.1589
  773MPD2    C111458   4.310   1.651   0.034 -0.2259  0.2731 -0.0266
  773MPD2    C211459   4.385   1.580   0.124  0.2292 -0.4778 -0.2523
  773MPD2    C311460   4.423   1.644   0.235  0.2771  0.0597  0.1135
  773MPD2    C411461   4.379   1.769   0.258 -0.1170 -0.0404 -0.2718
  773MPD2    C511462   4.298   1.834   0.172 -0.4045  0.0341  0.4787
  773MPD2     H11463   4.425   1.483   0.098 -2.5020 -1.6941  0.1018
  773MPD2    H111464   4.402   1.822   0.350  1.8266 -2.2423  0.5066
  773MPD2    H211465   4.188   1.825  17.719 -1.4429 -2.5274  0.1150
  773MPD2    H311466   4.273   1.936   0.199 -1.8214 -1.0174  3.0757
  773MPD2     N11467   4.500   1.567   0.322  0.9369 -0.2762 -0.0248
  773MPD2    H511468   4.518   1.473   0.287 -1.5322 -0.9432  0.4384
  773MPD2    N111469   4.290   1.585  17.644 -0.3725 -0.0310 -0.1618
  773MPD2    H711470   4.327   1.492  17.628  3.3978  1.6394 -1.0983
  774MPD2     C11471   4.340   0.411  13.484 -0.2504  0.0490  0.1962
  774MPD2    C111472   4.295   0.466  13.606 -0.0699 -0.0933  0.6692
  774MPD2    C211473   4.318   0.602  13.627 -0.5538 -0.0248  0.2513
  774MPD2    C311474   4.392   0.683  13.539  1.2250 -0.6983 -0.3377
  774MPD2    C411475   4.434   0.621  13.420 -0.2057  0.2488  0.2448
  774MPD2    C511476   4.397   0.491  13.389 -0.3631 -0.0141  0.0633
  774MPD2     H11477   4.294   0.654  13.719 -0.1078  0.2866  0.1953
  774MPD2    H111478   4.495   0.671  13.346 -1.3516 -1.9911 -2.2242
  774MPD2    H211479   4.321   0.308  13.453 -2.0989  0.2171  0.7421
  774MPD2    H311480   4.427   0.449  13.293 -0.7791  0.1589 -0.1392
  774MPD2     N11481   4.419   0.819  13.573  0.0834  0.0143  0.2119
  774MPD2    H511482   4.392   0.855  13.664 -0.8941  0.8588 -0.4140
  774MPD2    N111483   4.221   0.387  13.692 -0.2357 -0.0755 -0.3569
  774MPD2    H711484   4.205   0.293  13.658  1.6924 -0.5697  0.0726
  775MPD2     C11485   0.477   1.935  15.660 -0.9455 -0.2800 -0.0686
  775MPD2    C111486   0.547   2.021  15.741  0.2843  0.2688 -0.5567
  775MPD2    C211487   0.659   2.077  15.690  0.2030  0.2725 -0.2307
  775MPD2    C311488   0.687   2.065  15.557 -0.5266 -0.2030 -0.3915
  775MPD2    C411489   0.617   1.986  15.474  0.4746  0.9571 -0.5578
  775MPD2    C511490   0.505   1.925  15.531  0.1115  0.4134 -0.4580
  775MPD2     H11491   0.720   2.135  15.759  0.1962 -0.6538  0.5693
  775MPD2    H111492   0.645   1.962  15.372  1.4318  1.8763 -0.5084
  775MPD2    H211493   0.390   1.877  15.690  1.5703 -2.4599  2.9424
  775MPD2    H311494   0.446   1.849  15.483  0.5225 -0.7624  0.9110
  775MPD2     N11495   0.802   2.127  15.498 -0.0776  0.3877  0.4364
  775MPD2    H511496   0.817   2.106  15.400  1.4647 -0.6150  0.8882
  775MPD2    N111497   0.510   2.033  15.878  0.3791 -0.0572  0.2198
  775MPD2    H711498   0.414   2.008  15.898  0.0311  0.7454 -0.4681
  776MPD2     C11499   3.666   2.430  11.676 -0.3538  0.0433 -0.5229
  776MPD2    C111500   3.797   2.426  11.718 -0.2066 -0.0561 -0.1174
  776MPD2    C211501   3.880   2.524  11.675  0.0491  0.2477  0.2787
  776MPD2    C311502   3.832   2.637  11.616  0.1489 -0.5172  0.1535
  776MPD2    C411503   3.698   2.657  11.590 -0.0812  0.0436 -0.5777
  776MPD2    C511504   3.621   2.542  11.608  0.3287 -0.4629  0.7337
  776MPD2     H11505   3.985   2.522  11.702  0.8883  0.7035 -2.9783
  776MPD2    H111506   3.657   2.744  11.540 -0.3762  0.1278 -0.1918
  776MPD2    H211507   3.600   2.347  11.698  1.4051 -1.0947  0.4578
  776MPD2    H311508   3.516   2.540  11.580 -0.1981  0.2771  2.6068
  776MPD2     N11509   3.911   2.744  11.569  1.0051  0.1080 -0.0979
  776MPD2    H511510   3.861   2.817  11.520  1.5045  2.1619  2.5156
  776MPD2    N111511   3.833   2.308  11.790 -0.2354  0.2476 -0.3794
  776MPD2    H711512   3.767   2.234  11.810 -0.4698  1.1561  2.1624
  777MPD2     C11513   4.339   0.618   0.745  0.1659 -0.4998 -0.3927
  777MPD2    C111514   4.472   0.636   0.764 -0.7610  0.4022  0.0699
  777MPD2    C211515   4.563   0.538   0.731 -0.4369  1.2252 -0.6295
  777MPD2    C311516   4.520   0.417   0.676 -0.7780  0.3685 -0.7644
  777MPD2    C411517   4.382   0.401   0.655 -0.1901  0.0237 -0.2804
  777MPD2    C511518   4.288   0.501   0.687  0.0096 -0.6050 -0.0829
  777MPD2     H11519   4.666   0.544   0.764 -0.7052 -1.7776  0.8211
  777MPD2    H111520   4.330   0.312   0.619 -2.1961  0.5644  1.2682
  777MPD2    H211521   4.267   0.695   0.772 -0.0006 -0.2543 -1.5172
  777MPD2    H311522   4.183   0.477   0.680 -0.0851 -0.4814  0.9508
  777MPD2     N11523   4.608   0.304   0.645 -0.0346  0.0523 -0.2972
  777MPD2    H511524   4.708   0.316   0.659  0.0733 -0.2047 -0.8595
  777MPD2    N111525   4.505   0.747   0.841  0.5034  0.3299 -0.0645
  777MPD2    H711526   4.437   0.808   0.885  0.1360 -0.9106  1.0755
  778MPD2     C11527   1.224   0.544  14.912  0.7080  0.8461  0.2914
  778MPD2    C111528   1.185   0.433  14.833  0.0210 -0.0501 -0.1597
  778MPD2    C211529   1.212   0.449  14.696 -0.5297 -0.9344  0.5671
  778MPD2    C311530   1.299   0.545  14.653  0.0185 -0.7609 -0.4554
  778MPD2    C411531   1.355   0.640  14.739  0.4912 -0.6066  0.9981
  778MPD2    C511532   1.314   0.635  14.870  0.1057 -0.2260  0.1670
  778MPD2     H11533   1.177   0.367  14.634 -0.2675 -1.8703  1.6515
  778MPD2    H111534   1.428   0.713  14.706  1.4565 -0.5263  3.2975
  778MPD2    H211535   1.185   0.554  15.013 -2.2537 -2.6145 -0.4924
  778MPD2    H311536   1.324   0.728  14.924  0.1657  0.0214 -0.2684
  778MPD2     N11537   1.341   0.544  14.514 -0.0143 -0.3681 -0.4051
  778MPD2    H511538   1.292   0.474  14.459  2.5777 -2.0778 -0.5074
  778MPD2    N111539   1.122   0.320  14.879  0.4371  0.4413  0.1820
  778MPD2    H711540   1.080   0.263  14.807 -2.2329  2.3205  0.2476
  779MPD2     C11541   0.693   3.750  14.238  0.0460  0.1220  0.2902
  779MPD2    C111542   0.828   3.767  14.278  0.3729 -0.6563 -0.1055
  779MPD2    C211543   0.882   3.897  14.271  0.2706  0.2147  0.2463
  779MPD2    C311544   0.807   4.011  14.246 -0.3588  0.5010 -0.5356
  779MPD2    C411545   0.675   3.991  14.223 -0.2472  0.3964 -0.2295
  779MPD2    C511546   0.626   3.860  14.203  0.4757 -0.0500  0.3842
  779MPD2     H11547   0.986   3.915  14.295 -0.3280  1.6316  1.7829
  779MPD2    H111548   0.605   4.066  14.189 -1.5167 -0.6814 -0.0084
  779MPD2    H211549   0.650   3.651  14.226  0.8231 -0.3709  1.5574
  779MPD2    H311550   0.526   3.853  14.162  0.0823  2.3960  0.9566
  779MPD2     N11551   0.868   4.139  14.244  0.2497 -0.1838 -0.4763
  779MPD2    H511552   0.963   4.138  14.279  0.2950 -0.7094 -0.6176
  779MPD2    N111553   0.919   3.660  14.311  0.2804  0.4456 -0.1087
  779MPD2    H711554   1.014   3.683  14.337 -0.8551  2.0783  2.5775
  780MPD2     C11555   4.614   3.774   1.101  0.3126 -0.2751  0.6586
  780MPD2    C111556   4.653   3.681   1.006  0.3997 -0.2449  0.1861
  780MPD2    C211557   0.023   3.719   0.910 -0.0241  0.0136  0.4255
  780MPD2    C311558   0.069   3.847   0.909  0.4237  0.4114  0.1412
  780MPD2    C411559   0.024   3.941   0.998  0.2657  0.0951  0.6515
  780MPD2    C511560   4.660   3.906   1.092 -0.1446  0.0938  0.1924
  780MPD2     H11561   0.052   3.635   0.848  0.7044 -2.0186  3.4801
  780MPD2    H111562   0.044   4.047   0.986  0.9942 -0.1817 -0.5145
  780MPD2    H211563   4.552   3.750   1.187 -1.7374  0.5094 -0.5916
  780MPD2    H311564   4.627   3.976   1.167  1.5724  0.0418  1.0018
  780MPD2     N11565   0.185   3.865   0.831  0.3086  0.0888  0.5591
  780MPD2    H511566   0.217   3.788   0.773  0.5904  0.4385  0.2510
  780MPD2    N111567   4.591   3.558   1.014 -0.7590 -0.1322 -0.4912
  780MPD2    H711568   4.543   3.537   1.101  2.2259 -3.9688  0.2518
  781MPD2     C11569   2.072   1.533  12.450 -0.0819 -0.5557 -0.8611
  781MPD2    C111570   2.133   1.411  12.447 -0.5824 -0.5091 -0.4933
  781MPD2    C211571   2.260   1.396  12.376 -1.0777 -0.1330  0.4494
  781MPD2    C311572   2.323   1.512  12.321  0.5065 -0.2753  0.0308
  781MPD2    C411573   2.253   1.638  12.317 -0.3134 -0.5034 -0.9715
  781MPD2    C511574   2.135   1.639  12.389 -0.1091 -0.6276 -0.5062
  781MPD2     H11575   2.308   1.299  12.384 -0.2132  0.1053 -2.0023
  781MPD2    H111576   2.293   1.727  12.271 -1.5394 -0.6470 -2.3240
  781MPD2    H211577   1.981   1.552  12.505 -0.8302 -0.7471 -2.0376
  781MPD2    H311578   2.092   1.738  12.403  0.5919 -0.3793 -0.1275
  781MPD2     N11579   2.450   1.508  12.249  0.4139  0.0266  0.5660
  781MPD2    H511580   2.485   1.590  12.201 -0.2984  0.5206  0.9083
  781MPD2    N111581   2.074   1.295  12.505 -0.1639 -0.0671 -0.3237
  781MPD2    H711582   2.111   1.203  12.484  0.6506 -0.2430  1.9473
  782MPD2     C11583   0.431   1.481  10.567 -0.1021 -0.4521  0.5448
  782MPD2    C111584   0.551   1.491  10.637 -0.3589 -0.1890  0.0762
  782MPD2    C211585   0.593   1.608  10.687  0.6635  0.3775  0.1786
  782MPD2    C311586   0.519   1.721  10.668 -0.2670  0.2221 -0.5954
  782MPD2    C411587   0.402   1.720  10.600 -0.3905 -0.5404 -0.4290
  782MPD2    C511588   0.361   1.596  10.551 -0.3572  0.1978 -0.5494
  782MPD2     H11589   0.680   1.605  10.752 -0.6116 -1.5146  1.8278
  782MPD2    H111590   0.350   1.814  10.586  1.0573  0.2715 -0.3117
  782MPD2    H211591   0.378   1.393  10.532 -2.2481  0.8464  0.5294
  782MPD2    H311592   0.262   1.592  10.506  1.3765 -2.2565 -4.1200
  782MPD2     N11593   0.565   1.839  10.742  0.4022  0.0807 -0.3067
  782MPD2    H511594   0.631   1.825  10.818  0.1493 -0.7719 -0.2406
  782MPD2    N111595   0.626   1.369  10.660 -0.4238 -0.8078  0.5854
  782MPD2    H711596   0.579   1.286  10.625 -0.0025  0.0101 -1.9499
  783MPD2     C11597   0.131   0.964  11.177 -0.1340 -0.1110  0.4011
  783MPD2    C111598   0.146   1.093  11.134  0.1661 -0.1788  0.5483
  783MPD2    C211599   0.272   1.134  11.095 -0.4980 -0.1535  0.3151
  783MPD2    C311600   0.366   1.041  11.097 -0.5832 -0.1753 -0.3196
  783MPD2    C411601   0.356   0.915  11.151 -0.6095 -0.4630  0.7543
  783MPD2    C511602   0.231   0.875  11.186 -0.4213 -0.6299  0.3789
  783MPD2     H11603   0.290   1.231  11.050 -2.3691  0.4952  0.9813
  783MPD2    H111604   0.435   0.845  11.172  0.7728  1.2384  1.2324
  783MPD2    H211605   0.028   0.933  11.193 -0.8242  1.3108 -1.2637
  783MPD2    H311606   0.217   0.775  11.225 -1.7569 -1.1584 -1.4329
  783MPD2     N11607   0.490   1.086  11.043 -0.3988 -0.6193 -0.0759
  783MPD2    H511608   0.493   1.181  11.006  1.3540  0.1425  1.9898
  783MPD2    N111609   0.034   1.178  11.127 -0.4632 -0.5101  0.3634
  783MPD2    H711610   4.678   1.131  11.145 -1.4854  1.0939 -0.5144
  784MPD2     C11611   2.823   2.035   1.268  0.5397 -0.1022 -0.9160
  784MPD2    C111612   2.840   2.172   1.276  0.2398 -0.1864 -0.1256
  784MPD2    C211613   2.772   2.259   1.199 -0.4585  0.5675 -0.0632
  784MPD2    C311614   2.677   2.201   1.114 -0.4559 -0.0299  0.5486
  784MPD2    C411615   2.656   2.069   1.112  0.9028 -0.3459  0.7472
  784MPD2    C511616   2.729   1.984   1.183  0.0842 -0.1519 -0.2122
  784MPD2     H11617   2.796   2.365   1.201  1.0539  0.2255  0.4881
  784MPD2    H111618   2.575   2.027   1.053  0.1569 -1.4497  2.5310
  784MPD2    H211619   2.862   1.964   1.340 -0.4075  0.2876 -0.0191
  784MPD2    H311620   2.712   1.878   1.174  0.1671 -0.1291 -0.6083
  784MPD2     N11621   2.591   2.294   1.048 -0.1294  0.7497 -0.1519
  784MPD2    H511622   2.583   2.389   1.084  2.8442  0.4173  1.3834
  784MPD2    N111623   2.940   2.232   1.358  0.0841  0.5607 -0.1117
  784MPD2    H711624   2.936   2.332   1.373  2.4942  0.6018  0.4332
  785MPD2     C11625   2.725   0.603  11.061  0.2134 -0.1224 -0.0639
  785MPD2    C111626   2.602   0.659  11.050  0.4493  0.0655  0.0537
  785MPD2    C211627   2.510   0.595  10.972  0.2308  0.0648 -0.2509
  785MPD2    C311628   2.532   0.466  10.928  0.0831 -0.5932 -0.7152
  785MPD2    C411629   2.654   0.407  10.946  0.4273  0.2001 -0.1694
  785MPD2    C511630   2.746   0.479  11.009 -0.0001 -0.0193  0.1419
  785MPD2     H11631   2.420   0.653  10.957 -0.4580 -0.4528  1.8851
  785MPD2    H111632   2.689   0.310  10.912 -1.5698  0.0966 -1.9739
  785MPD2    H211633   2.804   0.646  11.121  1.2281 -1.9150 -0.1200
  785MPD2    H311634   2.845   0.438  11.029  0.5628  1.1199 -0.2666
  785MPD2     N11635   2.423   0.396  10.866 -0.3402  0.3128 -1.3484
  785MPD2    H511636   2.341   0.452  10.845 -1.3945 -0.3385  1.0483
  785MPD2    N111637   2.570   0.784  11.098  0.4158  0.3318  0.0075
  785MPD2    H711638   2.476   0.818  11.077 -0.0629 -0.6071  0.6173
  786MPD2     C11639   1.703   3.117  14.819 -0.2041 -0.7720 -0.2559
  786MPD2    C111640   1.646   3.020  14.899  0.1030  0.8316 -0.6576
  786MPD2    C211641   1.676   3.030  15.038 -0.8178 -0.1007  0.1763
  786MPD2    C311642   1.763   3.127  15.088 -0.2976  0.2810  0.7640
  786MPD2    C411643   1.807   3.226  15.001 -0.4446 -0.6572 -0.2384
  786MPD2    C511644   1.772   3.216  14.875 -0.4654  0.2145 -0.4930
  786MPD2     H11645   1.619   2.969  15.107 -0.2805  0.9742  1.5792
  786MPD2    H111646   1.883   3.296  15.035 -0.8570 -0.2277 -0.1998
  786MPD2    H211647   1.678   3.122  14.714  0.1440  0.4859 -0.2749
  786MPD2    H311648   1.814   3.280  14.799  0.0860 -0.0457 -0.4096
  786MPD2     N11649   1.792   3.144  15.223 -0.5689  0.0353 -0.5066
  786MPD2    H511650   1.840   3.228  15.255 -1.0119  0.3699 -0.7105
  786MPD2    N111651   1.563   2.913  14.853  0.1817  0.1916 -0.8397
  786MPD2    H711652   1.546   2.841  14.922  0.4689  1.3417  0.4343
  787MPD2     C11653   1.472   2.437  15.236  0.4355  0.3377 -0.5059
  787MPD2    C111654   1.492   2.372  15.116  0.1160  0.0243 -0.0668
  787MPD2    C211655   1.562   2.247  15.117 -0.2302 -0.2275 -0.5190
  787MPD2    C311656   1.590   2.184  15.233  0.3398 -0.2139  0.7444
  787MPD2    C411657   1.542   2.243  15.347  0.3108  0.2701 -0.5750
  787MPD2    C511658   1.485   2.366  15.351 -0.2988 -0.1350 -0.3619
  787MPD2     H11659   1.591   2.198  15.025  1.5872  0.7372 -0.4617
  787MPD2    H111660   1.565   2.204  15.446 -0.4951  1.0118 -0.0919
  787MPD2    H211661   1.426   2.535  15.245  0.4113  0.2181  0.6320
  787MPD2    H311662   1.459   2.409  15.447  0.3032  2.5621 -1.4345
  787MPD2     N11663   1.672   2.067  15.233  0.3804 -0.1524 -0.5287
  787MPD2    H511664   1.701   2.037  15.141 -1.7526  1.0691 -1.5990
  787MPD2    N111665   1.447   2.445  15.006  0.6919  0.1278  0.0674
  787MPD2    H711666   1.401   2.535  15.021  1.4930  0.6849 -0.8048
  788MPD2     C11667   3.421   1.655   1.599  0.0777  0.9183 -0.7069
  788MPD2    C111668   3.440   1.624   1.465  0.2532 -0.2614  0.2655
  788MPD2    C211669   3.363   1.673   1.362  0.0356 -0.0631 -0.0363
  788MPD2    C311670   3.275   1.771   1.389  0.5068  0.1819  0.6752
  788MPD2    C411671   3.257   1.810   1.521  0.1259 -0.6983  0.0964
  788MPD2    C511672   3.332   1.755   1.624 -0.6774 -0.0006 -0.5680
  788MPD2     H11673   3.379   1.635   1.262 -0.2572  0.2443 -0.1979
  788MPD2    H111674   3.184   1.883   1.553  0.8384  0.3638 -0.6913
  788MPD2    H211675   3.470   1.607   1.684 -1.5699 -0.4397 -0.5173
  788MPD2    H311676   3.316   1.789   1.726 -2.1541 -0.3026 -0.7058
  788MPD2     N11677   3.204   1.849   1.292  0.2988 -0.5059 -0.0365
  788MPD2    H511678   3.148   1.927   1.325  0.1256 -1.1239  1.1092
  788MPD2    N111679   3.536   1.523   1.420 -0.3200 -0.8152 -0.1837
  788MPD2    H711680   3.522   1.496   1.324 -1.3656  0.2180 -0.3202
  789MPD2     C11681   3.805   0.883  17.070 -0.6834 -0.0117 -0.0530
  789MPD2    C111682   3.731   0.940  16.971 -0.3892  0.2180 -0.4936
  789MPD2    C211683   3.672   1.067  16.984  0.2941  0.1954  0.6252
  789MPD2    C311684   3.664   1.126  17.114 -0.5965 -0.3089  0.1761
  789MPD2    C411685   3.719   1.051  17.223 -0.4321 -0.5033 -0.4112
  789MPD2    C511686   3.788   0.940  17.194  0.1368  0.2795 -0.3851
  789MPD2     H11687   3.627   1.118  16.899  0.7620  0.5263  0.5734
  789MPD2    H111688   3.713   1.081  17.327 -3.4264 -0.2131 -0.6535
  789MPD2    H211689   3.858   0.788  17.059 -0.5622 -0.0490  0.8435
  789MPD2    H311690   3.830   0.879  17.273  1.1667 -0.3258 -1.4028
  789MPD2     N11691   3.586   1.240  17.145 -0.3235  0.0708  0.1320
  789MPD2    H511692   3.582   1.264  17.244 -0.9306  0.3919  0.0258
  789MPD2    N111693   3.700   0.875  16.846  1.0439 -0.2616  0.4563
  789MPD2    H711694   3.623   0.918  16.797  1.2195 -2.1768 -1.5035
  790MPD2     C11695   4.523   3.216  13.282 -0.3902 -0.1727 -0.0817
  790MPD2    C111696   4.605   3.116  13.321 -0.2388 -0.0514 -0.5276
  790MPD2    C211697   4.561   2.984  13.314  0.0166 -0.5441 -0.1326
  790MPD2    C311698   4.435   2.958  13.262 -0.0995  0.6088  0.2712
  790MPD2    C411699   4.351   3.061  13.226 -0.2754 -0.1750  0.4691
  790MPD2    C511700   4.397   3.187  13.233 -0.0189 -0.6554  0.3000
  790MPD2     H11701   4.620   2.897  13.340 -0.5590 -0.7458  0.5136
  790MPD2    H111702   4.250   3.050  13.187 -0.0280  2.0324 -0.8304
  790MPD2    H211703   4.561   3.317  13.273 -1.6128  0.1295 -1.8251
  790MPD2    H311704   4.339   3.265  13.186  0.4834 -0.3805  0.1493
  790MPD2     N11705   4.398   2.820  13.253  0.3182  0.0361  0.6557
  790MPD2    H511706   4.473   2.754  13.269  0.2965 -0.0836  0.2658
  790MPD2    N111707   4.726   3.149  13.383 -0.2805  0.2196  0.3017
  790MPD2    H711708   0.016   3.248  13.381 -1.4495  0.4896  0.4853
  791MPD2     C11709   3.774   2.543  12.993 -1.0510  0.2891 -0.4837
  791MPD2    C111710   3.826   2.444  13.073 -0.0580 -0.3228 -0.1768
  791MPD2    C211711   3.739   2.334  13.107 -0.0523 -0.1026  0.0282
  791MPD2    C311712   3.613   2.321  13.044  0.0011 -0.0079  0.4558
  791MPD2    C411713   3.583   2.424  12.956 -0.1252  1.0889 -0.4178
  791MPD2    C511714   3.658   2.535  12.932 -0.3320  0.5140  0.7907
  791MPD2     H11715   3.771   2.257  13.176 -1.3482  0.5487  1.3535
  791MPD2    H111716   3.494   2.428  12.895 -0.6409  1.3417  0.3559
  791MPD2    H211717   3.838   2.630  12.980 -2.7683  1.0962 -3.5413
  791MPD2    H311718   3.624   2.621  12.875  0.1748 -0.9164 -1.6749
  791MPD2     N11719   3.528   2.210  13.069 -0.6356  0.6435 -0.4812
  791MPD2    H511720   3.565   2.155  13.145  0.2268  0.7616 -0.8180
  791MPD2    N111721   3.955   2.460  13.133  0.7352  0.3885  0.7322
  791MPD2    H711722   4.015   2.537  13.106  0.9766 -0.0412  0.0403
  792MPD2     C11723   0.207   2.537  11.398 -0.7051 -0.0873  0.1081
  792MPD2    C111724   0.114   2.597  11.323  0.5661  0.4824  0.1154
  792MPD2    C211725   0.008   2.523  11.271  0.0450 -0.8019  0.3815
  792MPD2    C311726   0.011   2.383  11.285 -0.8073  0.3277 -0.2504
  792MPD2    C411727   0.117   2.325  11.345  0.8301 -0.1025  0.2394
  792MPD2    C511728   0.210   2.400  11.407  0.0119  0.2287 -0.2331
  792MPD2     H11729   4.664   2.575  11.214  1.7620 -1.0834 -2.1412
  792MPD2    H111730   0.120   2.217  11.352 -2.1617 -0.1210  1.2971
  792MPD2    H211731   0.288   2.594  11.442  0.5480  0.6456 -3.1007
  792MPD2    H311732   0.291   2.353  11.462 -1.3971 -0.4070  1.3034
  792MPD2     N11733   4.642   2.299  11.245 -0.1652 -0.3072  0.1851
  792MPD2    H511734   4.676   2.203  11.251 -0.1405 -0.2404  1.0608
  792MPD2    N111735   0.115   2.735  11.317 -0.7182 -0.1788  0.3280
  792MPD2    H711736   0.194   2.783  11.359 -3.1198  2.3417  1.8852
  793MPD2     C11737   4.114   2.202  10.505 -0.0409  0.3430  0.7922
  793MPD2    C111738   4.240   2.219  10.542 -0.5131  0.1231  0.3404
  793MPD2    C211739   4.267   2.221  10.676 -0.6249 -0.5410 -0.0937
  793MPD2    C311740   4.169   2.189  10.765 -0.3005 -0.9767 -0.7961
  793MPD2    C411741   4.039   2.177  10.722  0.1486 -0.8162  0.2749
  793MPD2    C511742   4.015   2.177  10.589 -0.8255  0.0944 -0.2754
  793MPD2     H11743   4.368   2.254  10.699 -1.2283  2.0301 -1.1335
  793MPD2    H111744   3.960   2.152  10.791 -0.4942 -0.3287 -0.2910
  793MPD2    H211745   4.081   2.205  10.402  0.4617 -1.5202  0.5777
  793MPD2    H311746   3.914   2.183  10.552 -1.9461 -0.0754  2.7771
  793MPD2     N11747   4.207   2.194  10.899  0.2380 -0.3016 -0.3424
  793MPD2    H511748   4.297   2.235  10.921  0.2988 -0.7860  0.3416
  793MPD2    N111749   4.343   2.236  10.445  0.0815  0.0737  0.6534
  793MPD2    H711750   4.431   2.266  10.486  0.5401 -1.3269  0.6913
  794MPD2     C11751   4.329   1.590  16.776  0.8633 -0.6953  0.7423
  794MPD2    C111752   4.261   1.666  16.879 -0.4531 -0.0124 -0.3318
  794MPD2    C211753   4.187   1.777  16.836  0.3438 -0.4179  0.6805
  794MPD2    C311754   4.193   1.811  16.700 -0.1443 -0.5022 -0.4012
  794MPD2    C411755   4.259   1.734  16.608  0.5946  0.0046 -0.5695
  794MPD2    C511756   4.330   1.622  16.644  0.2211  0.7478  0.3014
  794MPD2     H11757   4.136   1.839  16.908 -1.6088 -1.2226 -0.0090
  794MPD2    H111758   4.265   1.772  16.507  2.8944  1.2218  0.0208
  794MPD2    H211759   4.389   1.504  16.803  1.3219 -0.6589 -0.1703
  794MPD2    H311760   4.388   1.558  16.578  0.7625  1.6758 -0.1182
  794MPD2     N11761   4.111   1.910  16.645 -0.2870 -0.4540 -0.1085
  794MPD2    H511762   4.093   1.904  16.546 -0.7063 -1.1226  0.0049
  794MPD2    N111763   4.268   1.622  17.017  0.1405  0.2005  0.2736
  794MPD2    H711764   4.213   1.680  17.080  0.0004  1.1687 -0.7320
  795MPD2     C11765   1.973   3.960  14.000  0.1436 -0.6404 -0.6494
  795MPD2    C111766   2.019   3.929  13.874  0.1290  0.0850 -0.5898
  795MPD2    C211767   2.093   3.813  13.863  0.7684 -0.2891  0.3756
  795MPD2    C311768   2.121   3.727  13.969  0.2035  0.0307 -0.3083
  795MPD2    C411769   2.063   3.759  14.091 -0.3893 -0.1390 -0.0090
  795MPD2    C511770   1.995   3.874  14.103  0.0561  0.3526 -0.2600
  795MPD2     H11771   2.105   3.774  13.763  0.6204  1.8471 -0.4824
  795MPD2    H111772   2.065   3.693  14.178  0.2072  2.1069  1.6733
  795MPD2    H211773   1.910   4.046  14.018  0.5801 -0.6528  0.9210
  795MPD2    H311774   1.950   3.887  14.201 -0.9119  1.8780 -0.9024
  795MPD2     N11775   2.211   3.619  13.964  0.2439 -0.2755  0.4080
  795MPD2    H511776   2.257   3.610  13.874  1.2120  2.1136  0.6804
  795MPD2    N111777   1.977   3.993  13.758 -0.1653  0.1455  0.7582
  795MPD2    H711778   1.990   3.940  13.673 -2.4793  0.6363  0.1126
  796MPD2     C11779   1.937   0.831  15.787  0.2008  0.2347 -0.0187
  796MPD2    C111780   1.943   0.921  15.888 -0.3101  0.3826 -0.0614
  796MPD2    C211781   1.870   1.037  15.877 -0.0451 -0.3568  0.5342
  796MPD2    C311782   1.771   1.051  15.777  0.2602 -0.3881 -0.4139
  796MPD2    C411783   1.760   0.951  15.682 -0.3093  0.1357 -0.5553
  796MPD2    C511784   1.844   0.847  15.685 -0.0598  0.7949  0.3575
  796MPD2     H11785   1.881   1.116  15.951  1.8996 -0.0619 -0.0771
  796MPD2    H111786   1.685   0.952  15.604 -1.7756  0.9458  0.8746
  796MPD2    H211787   2.010   0.751  15.784  1.9202  1.8334 -0.8789
  796MPD2    H311788   1.851   0.773  15.606 -0.7900 -0.2621  1.2853
  796MPD2     N11789   1.688   1.170  15.777 -0.4283  0.5249  0.5098
  796MPD2    H511790   1.714   1.241  15.844 -0.0087  0.4785  0.3936
  796MPD2    N111791   2.032   0.886  15.988 -0.1800  0.1055 -0.0334
  796MPD2    H711792   2.096   0.809  15.970 -0.3969  0.1714 -1.0665
  797MPD2     C11793   3.170   0.445  17.281 -0.5451 -0.3841  0.4650
  797MPD2    C111794   3.138   0.525  17.389  0.0354 -0.0656 -0.0182
  797MPD2    C211795   3.011   0.581  17.386 -0.1045 -0.1696  0.3140
  797MPD2    C311796   2.921   0.573  17.286  0.0736 -0.3140  0.5497
  797MPD2    C411797   2.957   0.482  17.186  0.1181 -0.1156  0.1324
  797MPD2    C511798   3.076   0.421  17.185 -0.0402 -0.6760  0.0431
  797MPD2     H11799   2.985   0.651  17.465 -3.9336 -2.7748  1.3343
  797MPD2    H111800   2.881   0.455  17.114  0.4980 -2.7127  0.7198
  797MPD2    H211801   3.271   0.410  17.263 -1.3193 -2.6649  0.5201
  797MPD2    H311802   3.096   0.372  17.090  0.0249 -0.2324 -0.1758
  797MPD2     N11803   2.806   0.650  17.297  0.1913 -0.6493 -0.0902
  797MPD2    H511804   2.799   0.711  17.377 -1.5194 -3.5743  1.9850
  797MPD2    N111805   3.222   0.571  17.488 -0.0876  0.6202 -0.2018
  797MPD2    H711806   3.178   0.628  17.560 -1.3713  0.7149 -1.0623
  798MPD2     C11807   2.892   1.205  17.664 -0.3117  0.2326 -0.4129
  798MPD2    C111808   2.873   1.072  17.635 -0.7121 -0.2261 -0.1235
  798MPD2    C211809   2.974   0.983  17.641 -0.0631 -0.1032  0.4375
  798MPD2    C311810   3.098   1.020  17.692  0.1333  0.4485 -0.0525
  798MPD2    C411811   3.124   1.154  17.711 -0.2072 -0.0653  0.4875
  798MPD2    C511812   3.019   1.249  17.705 -0.1428 -0.2276  0.4623
  798MPD2     H11813   2.965   0.878  17.617  0.3957  0.1771 -0.9750
  798MPD2    H111814   3.225   1.192  17.723  0.3607 -0.8340 -1.9250
  798MPD2    H211815   2.815   1.280  17.646 -0.8782 -0.1524  0.4246
  798MPD2    H311816   3.041   1.351   0.001 -1.5596 -0.5639  3.0093
  798MPD2     N11817   3.199   0.924  17.707  0.3994  0.0506 -0.4029
  798MPD2    H511818   3.176   0.826  17.689  0.5127 -0.2829  1.2950
  798MPD2    N111819   2.753   1.034  17.583  0.2912 -0.1197  0.1910
  798MPD2    H711820   2.687   1.111  17.577 -1.2994 -1.6896 -2.5033
  799MPD2     C11821   1.871   1.831  14.910  0.4528 -0.6607 -0.0012
  799MPD2    C111822   1.759   1.751  14.923  0.1765 -0.2467  0.3826
  799MPD2    C211823   1.641   1.791  14.870 -0.4437 -0.0739 -0.1771
  799MPD2    C311824   1.639   1.909  14.797  0.4494 -0.3845 -0.2566
  799MPD2    C411825   1.750   1.998  14.801 -1.0515 -0.3053  0.2562
  799MPD2    C511826   1.865   1.952  14.849 -0.7229  0.3416  0.1825
  799MPD2     H11827   1.545   1.740  14.874  1.2601 -3.0538  2.5066
  799MPD2    H111828   1.739   2.100  14.766  0.3318 -0.4699 -0.6736
  799MPD2    H211829   1.970   1.791  14.927  0.2846 -1.1998 -0.2721
  799MPD2    H311830   1.951   2.017  14.838 -1.3208  0.9848 -0.6762
  799MPD2     N11831   1.521   1.953  14.740  0.4105  0.4574 -0.3357
  799MPD2    H511832   1.545   2.041  14.695 -1.3962  0.8941 -0.4431
  799MPD2    N111833   1.759   1.630  14.993  0.3925 -0.4782  0.5091
  799MPD2    H711834   1.672   1.579  14.986  0.8610 -1.0753 -1.0116
  800MPD2     C11835   1.901   3.065  14.510 -0.0275 -0.4610  0.6682
  800MPD2    C111836   2.018   2.995  14.511  0.2140  0.5211 -0.5944
  800MPD2    C211837   2.008   2.855  14.493 -0.4454 -1.0801  0.3642
  800MPD2    C311838   1.885   2.786  14.482 -0.3680 -0.0120 -0.4019
  800MPD2    C411839   1.769   2.859  14.472 -0.6890 -0.3107 -0.4202
  800MPD2    C511840   1.778   2.996  14.495 -0.5224 -0.1311  1.0097
  800MPD2     H11841   2.099   2.795  14.493 -0.2175 -0.7324 -1.0666
  800MPD2    H111842   1.674   2.807  14.474 -0.4674 -0.6443  1.7940
  800MPD2    H211843   1.883   3.172  14.511 -3.2484 -0.9928  2.7606
  800MPD2    H311844   1.690   3.060  14.500 -0.2914  0.1429  1.5095
  800MPD2     N11845   1.883   2.646  14.448  0.1862 -0.1034  0.4887
  800MPD2    H511846   1.799   2.610  14.404 -0.1061 -0.6877  1.5280
  800MPD2    N111847   2.144   3.065  14.516  0.2148 -0.1193 -0.0613
  800MPD2    H711848   2.138   3.166  14.521  1.0454 -0.1167  0.8959
  801MPD2     C11849   2.335   3.741  14.381 -0.1424 -0.2788  0.7949
  801MPD2    C111850   2.303   3.644  14.478  0.4041  0.2079 -0.5277
  801MPD2    C211851   2.237   3.692  14.595 -0.6093 -0.4462 -0.2795
  801MPD2    C311852   2.213   3.823  14.611  0.0550  0.1601 -0.3730
  801MPD2    C411853   2.232   3.912  14.509  0.2688 -0.4567  0.1889
  801MPD2    C511854   2.296   3.869  14.395 -0.1396 -0.0193  0.1253
  801MPD2     H11855   2.217   3.629  14.680 -0.7130  1.7525  1.3271
  801MPD2    H111856   2.203   4.016  14.521  0.7726 -0.1200 -1.4656
  801MPD2    H211857   2.400   3.706  14.301 -1.6945 -0.3548 -0.4348
  801MPD2    H311858   2.324   3.937  14.315 -1.2214  0.4286  0.1271
  801MPD2     N11859   2.148   3.864  14.731  0.1637 -0.5675  0.0079
  801MPD2    H511860   2.118   3.787  14.791  0.0800  1.3172  2.3711
  801MPD2    N111861   2.345   3.509  14.476  0.5645  0.0236  0.2735
  801MPD2    H711862   2.323   3.449  14.555  0.8357 -1.3914 -0.7381
  802MPD2     C11863   1.609   3.411   0.073  0.2385 -0.5470  0.2434
  802MPD2    C111864   1.656   3.538   0.045 -0.0197  0.2170 -0.0023
  802MPD2    C211865   1.715   3.559  17.654  0.0290  0.2585  0.0962
  802MPD2    C311866   1.724   3.456  17.563  0.1553  0.2544  0.0498
  802MPD2    C411867   1.677   3.326  17.587 -0.4417  0.2274 -0.4076
  802MPD2    C511868   1.623   3.311  17.714 -0.4324 -0.7673  0.6508
  802MPD2     H11869   1.751   3.657  17.625  1.5626  0.1210  1.5958
  802MPD2    H111870   1.686   3.236  17.528 -1.5087 -0.6263  0.7218
  802MPD2    H211871   1.579   3.382   0.173  1.5765 -1.7503  0.3061
  802MPD2    H311872   1.601   3.207   0.010  0.3260 -0.4696  2.5178
  802MPD2     N11873   1.793   3.487  17.440  0.4715 -0.5187  1.5817
  802MPD2    H511874   1.827   3.581  17.423  1.9201 -1.3619 -0.1702
  802MPD2    N111875   1.651   3.646   0.133 -0.4997 -0.1291 -0.2106
  802MPD2    H711876   1.691   3.735   0.105 -1.1006 -0.4636 -2.1762
  803MPD2     C11877   1.808   1.750  12.585  0.4896  0.0081 -0.0178
  803MPD2    C111878   1.874   1.870  12.542  0.1271  0.7163  0.7141
  803MPD2    C211879   1.961   1.933  12.628 -0.5282  0.5861 -0.0483
  803MPD2    C311880   1.981   1.886  12.756  0.2778 -0.1876  0.0241
  803MPD2    C411881   1.922   1.768  12.794 -0.2461 -0.9361 -0.7223
  803MPD2    C511882   1.836   1.706  12.710 -0.6370  0.2225 -0.4547
  803MPD2     H11883   1.997   2.031  12.598 -2.3588  1.7586  1.6413
  803MPD2    H111884   1.941   1.729  12.894 -1.0965 -0.7153 -0.4773
  803MPD2    H211885   1.746   1.690  12.519 -0.9868  0.4506  0.9546
  803MPD2    H311886   1.781   1.618  12.743  1.5652 -1.0112 -0.1029
  803MPD2     N11887   2.051   1.950  12.858  0.7621 -0.6233  0.4980
  803MPD2    H511888   2.055   1.908  12.951  0.0632  0.3213  0.9593
  803MPD2    N111889   1.845   1.927  12.411  0.0103  0.3292  0.2401
  803MPD2    H711890   1.897   2.011  12.386  0.7378 -0.6131 -1.3733
  804MPD2     C11891   2.335   3.767  17.203 -0.0029  0.0628 -0.5847
  804MPD2    C111892   2.349   3.744  17.334 -0.0333 -0.6703 -0.1593
  804MPD2    C211893   2.420   3.836  17.413 -0.2297  0.6474  0.1994
  804MPD2    C311894   2.486   3.942  17.357  0.2604  0.3248  0.3097
  804MPD2    C411895   2.474   3.960  17.222 -0.2759 -0.0313 -0.6382
  804MPD2    C511896   2.388   3.881  17.153 -0.0985 -0.2589  0.9856
  804MPD2     H11897   2.428   3.812  17.518 -0.6811 -1.3071 -0.2112
  804MPD2    H111898   2.521   4.041  17.168  0.9874 -0.8260 -0.7132
  804MPD2    H211899   2.281   3.703  17.134 -0.0672  0.0739 -0.5450
  804MPD2    H311900   2.351   3.912  17.056 -1.1372  0.7587  1.6935
  804MPD2     N11901   2.568   4.030  17.431  0.0350  0.4083  0.3978
  804MPD2    H511902   2.615   4.104  17.380  0.7658 -0.4342 -0.1641
  804MPD2    N111903   2.295   3.636  17.405 -0.2874 -0.3765 -0.3503
  804MPD2    H711904   2.314   3.643  17.504 -2.9758 -2.1408  0.3020
  805MPD2     C11905   1.214   2.081  15.687  0.3221  0.4273  0.0737
  805MPD2    C111906   1.340   2.075  15.630 -0.2955  0.4478 -0.0761
  805MPD2    C211907   1.439   2.147  15.694  0.1552  0.3821  0.0829
  805MPD2    C311908   1.419   2.214  15.810 -0.3076  0.7531 -0.4402
  805MPD2    C411909   1.289   2.236  15.844  0.3481 -0.2500  0.2119
  805MPD2    C511910   1.190   2.167  15.787  0.2776  0.8942 -0.3839
  805MPD2     H11911   1.539   2.132  15.655  0.2532  1.0916  0.0521
  805MPD2    H111912   1.261   2.285  15.936  0.8218  0.0881  0.1754
  805MPD2    H211913   1.122   2.036  15.650  0.2649 -0.0527  0.8076
  805MPD2    H311914   1.090   2.177  15.828 -0.5397 -0.7896 -1.9361
  805MPD2     N11915   1.527   2.276  15.876 -0.0746  0.3292  0.3859
  805MPD2    H511916   1.611   2.297  15.823 -0.0486 -0.8256 -0.0231
  805MPD2    N111917   1.369   2.000  15.519 -0.0299 -0.0873  0.0806
  805MPD2    H711918   1.468   1.989  15.499 -0.4565  0.7414 -2.5631
  806MPD2     C11919   1.913   1.271   1.747  0.1931  0.7130  0.1189
  806MPD2    C111920   1.984   1.322   1.640 -0.1688 -0.3157 -0.1154
  806MPD2    C211921   1.980   1.250   1.523  0.8720  0.4468  0.3879
  806MPD2    C311922   1.886   1.143   1.504  0.6553  0.1042  0.4500
  806MPD2    C411923   1.827   1.096   1.611  0.2148  0.0746 -0.2068
  806MPD2    C511924   1.835   1.163   1.726 -0.2085  0.2786 -0.1988
  806MPD2     H11925   2.035   1.284   1.436  0.7886 -1.6683 -0.5090
  806MPD2    H111926   1.770   1.004   1.600 -1.3487  1.0604 -0.3389
  806MPD2    H211927   1.930   1.309   1.846  2.2853  0.0635  0.0215
  806MPD2    H311928   1.775   1.121   1.806  0.3798 -0.6600 -0.2383
  806MPD2     N11929   1.869   1.090   1.375  0.4077 -0.5284 -0.1799
  806MPD2    H511930   1.926   1.148   1.314 -3.4401  1.6782 -1.6610
  806MPD2    N111931   2.054   1.447   1.662 -0.2805 -0.0620 -0.0726
  806MPD2    H711932   2.033   1.501   1.746 -0.5992  1.0796 -0.8786
  807MPD2     C11933   1.953   2.080   1.949 -0.4003 -0.2930  0.6732
  807MPD2    C111934   1.901   1.991   1.850  0.7625  0.9015 -0.9884
  807MPD2    C211935   1.766   1.965   1.846 -0.3070 -0.0914  0.4865
  807MPD2    C311936   1.673   2.026   1.929  0.3815 -0.6347 -0.2714
  807MPD2    C411937   1.726   2.117   2.019  1.1261  0.1317  0.1183
  807MPD2    C511938   1.856   2.147   2.029 -0.4670 -0.4560 -0.5052
  807MPD2     H11939   1.726   1.906   1.764 -0.7903 -0.9948  1.3686
  807MPD2    H111940   1.665   2.171   2.091  0.4234 -1.0657  0.4168
  807MPD2    H211941   2.058   2.091   1.976  0.0222  0.0552 -1.1591
  807MPD2    H311942   1.887   2.211   2.112  0.3315 -2.8251  1.0282
  807MPD2     N11943   1.538   1.992   1.895 -0.0617 -0.5093 -0.0334
  807MPD2    H511944   1.522   1.920   1.825  1.7113  0.8118 -1.7997
  807MPD2    N111945   1.983   1.922   1.757 -0.1219  0.1507 -0.5716
  807MPD2    H711946   1.936   1.847   1.707 -0.6079  0.7824 -1.0547
  808MPD2     C11947   1.661   3.479   9.862  0.1971 -0.2491  0.5002
  808MPD2    C111948   1.733   3.532   9.972 -0.7196 -0.4758  0.5371
  808MPD2    C211949   1.769   3.666   9.975  0.2274  0.8971 -0.3895
  808MPD2    C311950   1.734   3.759   9.875  0.7567 -0.7327  0.4041
  808MPD2    C411951   1.660   3.703   9.776  0.0799  0.3290  0.6903
  808MPD2    C511952   1.627   3.571   9.764 -0.5195  0.6259 -0.1488
  808MPD2     H11953   1.840   3.698  10.050  0.7151  0.6723 -0.7529
  808MPD2    H111954   1.628   3.769   9.696  0.6156 -0.5567 -0.2565
  808MPD2    H211955   1.639   3.374   9.853  0.7614 -0.3017 -0.2333
  808MPD2    H311956   1.567   3.530   9.684 -1.1070  0.1893  0.5172
  808MPD2     N11957   1.772   3.898   9.882 -0.3223 -0.1326  1.1580
  808MPD2    H511958   1.730   3.964   9.817  1.4567 -0.4351 -0.2907
  808MPD2    N111959   1.782   3.449  10.081 -0.3831  0.0389  0.2021
  808MPD2    H711960   1.839   3.502  10.146 -2.5302 -0.9972  2.9017
  809MPD2     C11961   2.392   4.483   9.452 -0.1364  0.1721 -0.2522
  809MPD2    C111962   2.353   4.354   9.476 -0.4580 -0.0937 -0.3385
  809MPD2    C211963   2.244   4.332   9.556  0.3299  0.1178 -0.1931
  809MPD2    C311964   2.173   4.440   9.609 -0.5062  0.5020  0.5937
  809MPD2    C411965   2.223   4.566   9.598  0.6009  0.2038 -0.3796
  809MPD2    C511966   2.326   4.591   9.510  0.2006  0.2132 -0.1198
  809MPD2     H11967   2.227   4.228   9.579 -1.5299  0.8017  1.5759
  809MPD2    H111968   2.174   4.655   9.632  3.7270  2.2346 -1.1705
  809MPD2    H211969   2.462   4.513   9.375  1.3194 -1.6573  0.3545
  809MPD2    H311970   2.359   4.690   9.481  0.7443  0.0855  0.0703
  809MPD2     N11971   2.057   4.423   9.690  0.0892 -0.2456 -0.4395
  809MPD2    H511972   2.016   4.495   9.747  2.2658 -0.9719  2.0172
  809MPD2    N111973   2.425   4.239   9.434  0.6352 -0.7050 -0.6368
  809MPD2    H711974   2.390   4.150   9.468 -1.4522  1.2916  2.4538
  810MPD2     C11975   1.871   2.379  10.789 -0.8069  0.5405  0.0521
  810MPD2    C111976   1.752   2.445  10.797  0.0451  0.7100  0.1609
  810MPD2    C211977   1.763   2.578  10.839  0.1438  0.6585 -0.1744
  810MPD2    C311978   1.876   2.640  10.861 -0.8263  0.0162 -1.2218
  810MPD2    C411979   1.999   2.573  10.841 -0.0976 -1.1714 -0.0606
  810MPD2    C511980   1.989   2.445  10.805  0.0122  0.3692  0.0166
  810MPD2     H11981   1.669   2.631  10.837 -0.7293 -0.8829  0.2266
  810MPD2    H111982   2.096   2.619  10.857 -1.1206 -0.3953  3.8012
  810MPD2    H211983   1.865   2.276  10.757 -0.4189  0.7688 -0.7683
  810MPD2    H311984   2.075   2.380  10.794 -0.5187 -0.4162  0.4858
  810MPD2     N11985   1.888   2.778  10.889  0.2399 -0.2133  0.2057
  810MPD2    H511986   1.981   2.818  10.901  0.1720  0.1666 -0.4813
  810MPD2    N111987   1.621   2.395  10.772  0.2511 -0.0978 -0.1620
  810MPD2    H711988   1.545   2.462  10.779 -0.2671 -0.5816 -1.1499
  811MPD2     C11989   0.879   2.656  10.533 -0.1301  0.2558  0.5084
  811MPD2    C111990   1.005   2.679  10.580 -0.0581 -0.5285  0.8740
  811MPD2    C211991   1.062   2.804  10.572 -0.0394  0.2706 -0.3576
  811MPD2    C311992   0.988   2.910  10.520 -0.0481  0.1837  0.7032
  811MPD2    C411993   0.860   2.886  10.468 -0.4751 -0.0709  0.0205
  811MPD2    C511994   0.807   2.757  10.471 -0.1438  0.2865  0.0783
  811MPD2     H11995   1.161   2.821  10.613 -0.3673  1.1092  0.0936
  811MPD2    H111996   0.788   2.959  10.433  1.6701  0.7048 -2.8440
  811MPD2    H211997   0.836   2.557  10.533 -1.7795  0.9698 -0.3294
  811MPD2    H311998   0.703   2.744  10.443  0.0411  1.6279 -1.2505
  811MPD2     N11999   1.052   3.033  10.512  0.4184  0.1697 -0.3858
  811MPD2    H512000   1.126   3.050  10.579  1.5208 -1.7873 -1.0928
  811MPD2    N112001   1.075   2.563  10.632 -0.0896 -0.6651  0.2508
  811MPD2    H712002   1.019   2.479  10.640 -0.1165 -0.7494 -0.8921
  812MPD2     C12003   0.388   2.379  12.106 -0.2367  0.3192  0.1533
  812MPD2    C112004   0.391   2.481  12.198 -0.0631  0.5137 -0.5323
  812MPD2    C212005   0.410   2.448  12.330 -0.1125 -0.7280  0.0248
  812MPD2    C312006   0.450   2.320  12.368  0.3928 -0.4417 -0.3013
  812MPD2    C412007   0.474   2.234  12.264  0.2642 -0.0433  0.0142
  812MPD2    C512008   0.446   2.261  12.133 -0.0082 -0.8865  0.5399
  812MPD2     H12009   0.395   2.527  12.403  0.7956 -0.4762 -0.0551
  812MPD2    H112010   0.524   2.139  12.282 -0.9420 -1.1140 -2.2815
  812MPD2    H212011   0.362   2.399  12.003  2.8927 -0.3654 -0.7774
  812MPD2    H312012   0.487   2.193  12.059 -2.3154 -1.9394  0.2369
  812MPD2     N12013   0.460   2.289  12.505  0.2570 -0.3083  0.7798
  812MPD2    H512014   0.438   2.367  12.567 -2.3100  1.5398 -2.4381
  812MPD2    N112015   0.345   2.616  12.157  0.4614 -0.2292 -0.6784
  812MPD2    H712016   0.301   2.626  12.065  3.3893 -0.2946 -2.0899
  813MPD2     C12017   3.712   4.168  13.066  0.1352  0.7966  0.4763
  813MPD2    C112018   3.788   4.149  13.179 -0.8265  0.0022  0.0175
  813MPD2    C212019   3.735   4.197  13.304  0.2819 -0.7758 -0.9657
  813MPD2    C312020   3.624   4.281  13.308 -0.4104  0.3456  0.4105
  813MPD2    C412021   3.555   4.310  13.194 -0.1449 -0.1710 -0.6935
  813MPD2    C512022   3.597   4.248  13.081  0.0331  0.5053 -0.7292
  813MPD2     H12023   3.789   4.168  13.394 -1.0457  0.6712  0.2899
  813MPD2    H112024   3.474   4.382  13.199  2.5716  2.7531  0.8375
  813MPD2    H212025   3.748   4.135  12.969  1.3431 -1.0974  1.5765
  813MPD2    H312026   3.544   4.279  12.991  0.8863 -0.1616 -1.4705
  813MPD2     N12027   3.591   4.341  13.431 -0.2324 -0.2321  0.1995
  813MPD2    H512028   3.650   4.312  13.508 -0.2237  0.9094  0.6355
  813MPD2    N112029   3.911   4.074  13.166 -0.3228  0.1694 -0.5076
  813MPD2    H712030   3.948   4.045  13.075 -1.1787 -0.6012 -0.6062
  814MPD2     C12031   0.131   0.581  12.814 -0.0067  0.2493  0.1510
  814MPD2    C112032   0.170   0.641  12.691  0.3653  1.0946  0.5450
  814MPD2    C212033   0.254   0.755  12.692 -0.0111 -0.2502 -0.4961
  814MPD2    C312034   0.305   0.802  12.816 -0.4148  0.2029  0.6182
  814MPD2    C412035   0.276   0.740  12.935  0.0347 -0.0150 -0.3631
  814MPD2    C512036   0.195   0.626  12.927 -0.1845 -0.0427 -0.0182
  814MPD2     H12037   0.274   0.813  12.603  1.2649  0.9348  0.5536
  814MPD2    H112038   0.317   0.784  13.026  1.6968 -0.1998 -1.0241
  814MPD2    H212039   0.065   0.496  12.805  1.8110 -1.0262 -1.1023
  814MPD2    H312040   0.174   0.568  13.017  1.7642 -0.5101  0.1273
  814MPD2     N12041   0.394   0.912  12.824  0.8039  0.0498 -0.6808
  814MPD2    H512042   0.422   0.931  12.920 -0.2802 -1.9586  0.0420
  814MPD2    N112043   0.151   0.590  12.561  0.8620  0.4401  0.1846
  814MPD2    H712044   0.184   0.642  12.480 -1.0506 -2.0780 -2.2034
  815MPD2     C12045   0.458   4.083  12.288 -0.9438  0.2206  0.4009
  815MPD2    C112046   0.348   4.018  12.234 -0.0018  0.1246 -0.4573
  815MPD2    C212047   0.233   4.008  12.307  0.1299 -0.0724 -0.6279
  815MPD2    C312048   0.219   4.064  12.430  0.6406  0.4327  0.2114
  815MPD2    C412049   0.327   4.143  12.477  0.1913 -0.5164 -0.3755
  815MPD2    C512050   0.448   4.148  12.407  0.1615  0.3963 -0.2560
  815MPD2     H12051   0.142   3.958  12.275 -1.4045  1.7414  0.9264
  815MPD2    H112052   0.329   4.198  12.570 -1.1277 -0.4899 -0.3657
  815MPD2    H212053   0.549   4.095  12.232 -2.1200  0.8929 -1.3569
  815MPD2    H312054   0.530   4.203  12.452  0.0951  1.3593 -1.3204
  815MPD2     N12055   0.092   4.062  12.485 -0.2305  0.7252  0.1911
  815MPD2    H512056   0.015   4.019  12.435  0.4044  0.0453 -0.1959
  815MPD2    N112057   0.363   3.960  12.105  0.0464 -1.2717 -0.2147
  815MPD2    H712058   0.445   3.990  12.053 -0.5613  1.3214  0.2882
  816MPD2     C12059   1.261   3.617  17.519  0.0761  0.1848 -0.0088
  816MPD2    C112060   1.162   3.592  17.425 -0.1903  0.1679 -0.0770
  816MPD2    C212061   1.190   3.558  17.292 -0.2530  0.5808  0.5358
  816MPD2    C312062   1.318   3.563  17.248  0.1691 -0.1158 -0.2472
  816MPD2    C412063   1.424   3.583  17.341  0.2040 -0.1938 -0.2083
  816MPD2    C512064   1.397   3.616  17.471 -0.3855  0.3633  0.6973
  816MPD2     H12065   1.111   3.530  17.224 -1.0724  1.2759  1.1987
  816MPD2    H112066   1.530   3.563  17.328 -0.2006 -1.1927 -1.8910
  816MPD2    H212067   1.247   3.624  17.626  0.7523 -2.4073  0.2571
  816MPD2    H312068   1.471   3.627  17.549 -0.3225 -0.2843  0.7246
  816MPD2     N12069   1.346   3.524  17.116  0.9864 -0.3652 -0.1472
  816MPD2    H512070   1.267   3.494  17.059  0.6251  1.8819 -0.7932
  816MPD2    N112071   1.029   3.597  17.476 -0.1209 -0.0827  0.2493
  816MPD2    H712072   1.024   3.616  17.576 -1.9156  2.4933 -0.3193
  817MPD2     C12073   4.420   4.730   9.605 -0.1347  0.4746 -0.3432
  817MPD2    C112074   4.328   4.626   9.572 -0.1285  0.0758  0.4308
  817MPD2    C212075   4.211   4.658   9.519 -0.5014 -0.6951  0.3149
  817MPD2    C312076   4.169   0.062   9.506 -0.3230  0.2973 -0.4416
  817MPD2    C412077   4.253   0.160   9.553  0.6683 -0.3735  0.1430
  817MPD2    C512078   4.381   0.130   9.597  0.0564  0.5938 -0.4084
  817MPD2     H12079   4.134   4.596   9.474 -0.0714  0.9592 -2.6644
  817MPD2    H112080   4.224   0.264   9.555  0.2051 -0.4887 -0.8352
  817MPD2    H212081   4.518   4.706   9.645  0.5278  0.1827 -2.1745
  817MPD2    H312082   4.442   0.212   9.634  1.8991 -0.0510 -2.0823
  817MPD2     N12083   4.038   0.085   9.443  0.3850 -0.2429  0.6187
  817MPD2    H512084   3.992   0.001   9.412 -1.1927  1.0851 -0.6342
  817MPD2    N112085   4.349   4.493   9.608  0.9912  0.0247  0.1803
  817MPD2    H712086   4.274   4.428   9.585  0.7382 -0.2233  1.7487
  818MPD2     C12087   3.303   0.669  10.060 -0.0405 -0.1795 -0.2681
  818MPD2    C112088   3.385   0.586  10.140  0.0965  0.2032 -0.6894
  818MPD2    C212089   3.410   0.461  10.093 -0.2521  0.7427  0.5758
  818MPD2    C312090   3.353   0.410   9.978 -0.0724  0.3272  0.5153
  818MPD2    C412091   3.266   0.484   9.909 -0.2135 -0.4086  0.1638
  818MPD2    C512092   3.245   0.612   9.952  0.8296  0.7627  0.6319
  818MPD2     H12093   3.459   0.393  10.162 -0.3888  0.9233  0.8545
  818MPD2    H112094   3.215   0.442   9.824  0.6357 -1.6937  0.2924
  818MPD2    H212095   3.262   0.762  10.098  1.0665 -0.3196  1.2966
  818MPD2    H312096   3.174   0.670   9.895  0.4655  0.0899  0.4017
  818MPD2     N12097   3.376   0.274   9.941  0.1175 -0.2311  0.3839
  818MPD2    H512098   3.310   0.237   9.873  1.5443 -2.9690  0.4755
  818MPD2    N112099   3.423   0.623  10.270  0.0523 -0.2609  0.4799
  818MPD2    H712100   3.470   0.554  10.327  0.8732  0.8862  1.1875
  819MPD2     C12101   2.105   1.637  15.939  0.2594  0.4580  0.2632
  819MPD2    C112102   2.182   1.524  15.923  0.7229 -0.3722 -0.5798
  819MPD2    C212103   2.296   1.508  15.995 -1.5018  0.3290 -0.3439
  819MPD2    C312104   2.338   1.601  16.092  0.2388 -0.0020  0.1557
  819MPD2    C412105   2.259   1.715  16.103 -0.0050 -0.8220  0.6679
  819MPD2    C512106   2.139   1.731  16.033  0.6516 -0.0651 -0.6160
  819MPD2     H12107   2.357   1.423  15.966 -0.2142  1.2518 -0.3560
  819MPD2    H112108   2.284   1.778  16.188  0.1809 -1.7368  1.2943
  819MPD2    H212109   2.017   1.650  15.876  0.2704 -0.4331  0.0615
  819MPD2    H312110   2.080   1.817  16.061  0.8238  0.6099 -2.3290
  819MPD2     N12111   2.468   1.576  16.150 -0.0895  0.1458  0.0226
  819MPD2    H512112   2.516   1.493  16.116  2.2010  1.4158  0.1436
  819MPD2    N112113   2.150   1.436  15.815  0.1833 -1.2062 -0.0651
  819MPD2    H712114   2.075   1.471  15.756  0.0565  1.3999  1.6206
  820MPD2     C12115   1.405   1.225  15.213  0.1106  0.1338  0.4707
  820MPD2    C112116   1.487   1.331  15.235 -0.5072 -0.5256  0.0953
  820MPD2    C212117   1.609   1.307  15.297  0.4732 -0.4978 -0.3559
  820MPD2    C312118   1.649   1.182  15.336 -0.1307 -0.2214  0.9118
  820MPD2    C412119   1.564   1.075  15.303 -0.3977 -0.1279  0.5534
  820MPD2    C512120   1.440   1.105  15.260 -0.8264 -0.5398 -0.6469
  820MPD2     H12121   1.678   1.389  15.311  1.4593 -1.3782 -0.0078
  820MPD2    H112122   1.586   0.976  15.343 -1.3098 -1.0917 -1.3583
  820MPD2    H212123   1.307   1.252  15.175  0.3351 -1.7981 -1.4577
  820MPD2    H312124   1.369   1.024  15.247  0.7863 -1.9689 -0.5763
  820MPD2     N12125   1.766   1.164  15.412 -0.5167 -0.5044 -0.5512
  820MPD2    H512126   1.784   1.066  15.432 -0.3582  0.1732  2.6640
  820MPD2    N112127   1.438   1.458  15.208  0.1968 -0.5228  0.1568
  820MPD2    H712128   1.349   1.465  15.161  0.2867 -0.6880 -0.0409
  821MPD2     C12129   2.076   2.793  13.812  0.6096 -0.6871  0.1426
  821MPD2    C112130   2.102   2.659  13.795 -0.1748 -0.5728 -0.1316
  821MPD2    C212131   2.176   2.629  13.683  0.0261  0.4212 -0.1088
  821MPD2    C312132   2.200   2.726  13.580  0.5131  1.0535 -0.0234
  821MPD2    C412133   2.165   2.852  13.600  0.7681  0.2649  0.3882
  821MPD2    C512134   2.105   2.886  13.720  0.3425  0.1419  0.4800
  821MPD2     H12135   2.195   2.522  13.681  0.9131  0.5418  1.4727
  821MPD2    H112136   2.182   2.921  13.519 -1.4654  1.8288  1.2564
  821MPD2    H212137   2.035   2.830  13.906  1.4500  1.3982 -0.3162
  821MPD2    H312138   2.083   2.991  13.741 -0.4098 -0.0034  0.4163
  821MPD2     N12139   2.277   2.700  13.471  0.4151 -0.3346 -0.3108
  821MPD2    H512140   2.301   2.781  13.416  1.8914 -0.9732 -0.6152
  821MPD2    N112141   2.080   2.551  13.897 -0.0850  0.1000 -0.0700
  821MPD2    H712142   2.109   2.455  13.880 -3.3208 -1.3615  2.8283
  822MPD2     C12143   2.974   3.034  16.159 -0.0220  0.0837  0.5278
  822MPD2    C112144   2.965   3.019  16.296 -0.3946  0.3489  0.5186
  822MPD2    C212145   2.886   3.102  16.368  0.2236 -1.1677  0.5851
  822MPD2    C312146   2.813   3.205  16.312 -0.3992 -0.2603 -0.1673
  822MPD2    C412147   2.826   3.221  16.173 -0.0710 -0.1188  0.0440
  822MPD2    C512148   2.904   3.138  16.098  0.5341 -0.6784 -0.4774
  822MPD2     H12149   2.878   3.094  16.476 -1.1545 -2.1739  0.4064
  822MPD2    H112150   2.781   3.297  16.110  2.5218  1.1461 -0.2479
  822MPD2    H212151   3.022   2.957  16.101 -0.0349 -0.2938  1.0172
  822MPD2    H312152   2.917   3.148  15.991 -0.2864  2.2825 -0.3023
  822MPD2     N12153   2.742   3.295  16.397 -0.1084 -0.0218  0.3559
  822MPD2    H512154   2.731   3.267  16.494 -0.7045  0.1952  0.3462
  822MPD2    N112155   3.016   2.910  16.366 -0.3735 -0.0653  0.5426
  822MPD2    H712156   2.996   2.900  16.465  0.2713 -0.0246  0.6720
  823MPD2     C12157   2.620   3.562  17.181  0.4218 -0.6043  0.4960
  823MPD2    C112158   2.642   3.461  17.084  0.4758  0.7469  0.1053
  823MPD2    C212159   2.672   3.334  17.125 -0.5015 -0.5281 -0.1541
  823MPD2    C312160   2.689   3.312  17.258  0.5458 -0.3907 -0.7018
  823MPD2    C412161   2.660   3.406  17.355 -0.4871 -0.3175 -0.0580
  823MPD2    C512162   2.627   3.537  17.320  0.1183  0.0567 -0.8626
  823MPD2     H12163   2.676   3.256  17.050 -4.1372 -0.0596 -0.8276
  823MPD2    H112164   2.651   3.385  17.461  0.4335  0.2038  0.1198
  823MPD2    H212165   2.599   3.662  17.144 -1.0773 -1.6585 -1.4724
  823MPD2    H312166   2.611   3.607  17.401 -1.4290  0.6386 -1.6717
  823MPD2     N12167   2.727   3.187  17.310  0.0107 -0.2485  0.0696
  823MPD2    H512168   2.739   3.184  17.411  0.4749  0.4840  0.0392
  823MPD2    N112169   2.635   3.500  16.941 -0.3443 -0.2274  0.0372
  823MPD2    H712170   2.620   3.596  16.912  0.9016  1.0488  3.6632
  824MPD2     C12171   3.383   2.133  16.356 -0.2764 -0.1476  0.5201
  824MPD2    C112172   3.395   2.259  16.304  0.3108  0.1330  0.4687
  824MPD2    C212173   3.483   2.273  16.202  0.3959  0.3408 -0.6025
  824MPD2    C312174   3.553   2.171  16.151 -1.0150 -0.3754  0.2387
  824MPD2    C412175   3.526   2.045  16.200  0.2409 -0.2103 -0.0740
  824MPD2    C512176   3.453   2.027  16.311  0.2809 -0.4858  0.5072
  824MPD2     H12177   3.502   2.375  16.169  0.5439  1.2300  2.1761
  824MPD2    H112178   3.582   1.961  16.160  0.3186  0.0877 -0.5913
  824MPD2    H212179   3.324   2.110  16.443 -0.6025  1.0832  0.6307
  824MPD2    H312180   3.443   1.929  16.357 -2.5020  0.4105  1.8169
  824MPD2     N12181   3.636   2.189  16.040  0.3453  1.2512  0.4595
  824MPD2    H512182   3.644   2.283  16.002 -0.6384  0.8768 -0.6879
  824MPD2    N112183   3.317   2.367  16.351  0.5453  0.1000  0.2214
  824MPD2    H712184   3.330   2.457  16.306 -1.8245 -0.2332 -1.1296
  825MPD2     C12185   4.003   2.636  15.425  0.4822 -0.2573 -0.2067
  825MPD2    C112186   3.961   2.621  15.555 -0.2233 -0.1735  0.1023
  825MPD2    C212187   3.943   2.731  15.628  0.3713  0.1568 -0.5473
  825MPD2    C312188   3.960   2.856  15.572  0.1121 -0.1862 -0.1462
  825MPD2    C412189   3.983   2.873  15.439  0.2906 -0.2057  0.8999
  825MPD2    C512190   4.016   2.760  15.365  0.7356  0.1776 -0.8330
  825MPD2     H12191   3.915   2.730  15.733 -1.9013  1.1615 -1.1267
  825MPD2    H112192   3.996   2.968  15.388 -0.0992 -1.1639 -0.9863
  825MPD2    H212193   4.024   2.553  15.359  1.6683  0.8369 -1.1878
  825MPD2    H312194   4.050   2.770  15.263  0.5733  1.1127 -0.8002
  825MPD2     N12195   3.947   2.976  15.642  0.1264  0.0711  0.0809
  825MPD2    H512196   3.947   3.068  15.599 -0.6165 -0.4068 -0.9221
  825MPD2    N112197   3.927   2.490  15.598 -0.1385  0.3280 -0.1506
  825MPD2    H712198   3.923   2.415  15.530 -1.2697 -0.1508  0.4520
  826MPD2     C12199   3.755   2.160  14.194 -0.1966 -0.1010 -0.0664
  826MPD2    C112200   3.667   2.160  14.082 -0.2982  0.2803 -0.0080
  826MPD2    C212201   3.531   2.191  14.098  0.2627  1.4045  0.2603
  826MPD2    C312202   3.481   2.231  14.216 -0.5104  0.1478 -0.0697
  826MPD2    C412203   3.568   2.223  14.322 -0.0070  1.3839  0.3203
  826MPD2    C512204   3.698   2.198  14.318  0.2787 -0.5480 -0.4385
  826MPD2     H12205   3.465   2.178  14.013 -1.1103 -4.5668  2.2855
  826MPD2    H112206   3.534   2.263  14.417  1.0168 -0.6900  1.5843
  826MPD2    H212207   3.860   2.135  14.188 -0.3653 -0.8561  0.0659
  826MPD2    H312208   3.763   2.209  14.404 -1.3203 -0.0146  0.7155
  826MPD2     N12209   3.353   2.282  14.236 -0.1977  0.4262 -0.4041
  826MPD2    H512210   3.323   2.279  14.333 -3.0027 -3.0731 -1.3820
  826MPD2    N112211   3.734   2.117  13.962 -0.2243  0.2592 -0.3520
  826MPD2    H712212   3.824   2.074  13.977 -1.0098 -1.1982  0.2051
  827MPD2     C12213   4.414   3.710  10.428 -0.0904  0.0243  0.5536
  827MPD2    C112214   4.311   3.717  10.515 -0.0134  0.1824  0.0677
  827MPD2    C212215   4.183   3.742  10.461 -0.5724 -0.5689 -0.0805
  827MPD2    C312216   4.164   3.773  10.328  0.8515 -0.1376  0.2933
  827MPD2    C412217   4.276   3.792  10.252 -0.2616 -0.1624  0.6423
  827MPD2    C512218   4.402   3.743  10.301  0.4940  0.3295  0.3197
  827MPD2     H12219   4.097   3.729  10.527  0.2870 -2.2371  0.7038
  827MPD2    H112220   4.267   3.829  10.151  2.1131 -1.3598 -0.0081
  827MPD2    H212221   4.508   3.667  10.461  1.4476  0.3884 -3.3581
  827MPD2    H312222   4.498   3.752  10.251 -0.1175 -0.8286 -1.0971
  827MPD2     N12223   4.034   3.793  10.277  0.5439  0.8061 -0.4145
  827MPD2    H512224   3.958   3.781  10.343 -0.1260 -2.4595 -1.7638
  827MPD2    N112225   4.336   3.699  10.652  0.2023 -0.0354 -0.2509
  827MPD2    H712226   4.435   3.701  10.677 -0.0477  0.3067  0.7295
  828MPD2     C12227   2.262   2.734  12.387 -0.2265 -0.6086 -0.0170
  828MPD2    C112228   2.348   2.846  12.401 -0.0810 -0.5309 -0.2189
  828MPD2    C212229   2.425   2.880  12.296  0.4176  0.2031 -0.4617
  828MPD2    C312230   2.430   2.803  12.180 -0.3040  0.2751  0.9335
  828MPD2    C412231   2.342   2.698  12.171  0.8049 -0.1577  0.0866
  828MPD2    C512232   2.261   2.668  12.269 -0.0963  0.1322  0.4185
  828MPD2     H12233   2.493   2.963  12.310 -1.8110  2.2237 -1.4697
  828MPD2    H112234   2.347   2.637  12.081 -3.2231  2.6637 -2.0636
  828MPD2    H212235   2.187   2.711  12.461 -0.0534 -0.9690  0.0484
  828MPD2    H312236   2.177   2.599  12.267 -0.6954  0.9107 -1.2929
  828MPD2     N12237   2.523   2.828  12.077 -1.1630 -0.6688 -0.1935
  828MPD2    H512238   2.526   2.769  11.994  0.9346 -0.0376 -0.5554
  828MPD2    N112239   2.346   2.932  12.511  0.0418  0.4002  0.6449
  828MPD2    H712240   2.384   3.025  12.493  2.7201 -1.3729 -2.9095
  829MPD2     C12241   2.311   3.724  12.326 -0.1462 -0.0284 -0.0018
  829MPD2    C112242   2.248   3.715  12.446  0.1170  0.2167 -0.1868
  829MPD2    C212243   2.278   3.598  12.526 -0.2066 -0.4207 -1.0696
  829MPD2    C312244   2.369   3.506  12.483  0.1452  0.2074  0.3424
  829MPD2    C412245   2.434   3.526  12.364  0.2210  0.4989 -0.5826
  829MPD2    C512246   2.402   3.634  12.285 -0.3178 -0.2791 -0.1325
  829MPD2     H12247   2.225   3.579  12.619  0.2904 -0.0778 -0.7126
  829MPD2    H112248   2.502   3.447  12.331  1.1126  1.1352 -0.2455
  829MPD2    H212249   2.306   3.815  12.268  2.7756  0.3157  0.2764
  829MPD2    H312250   2.452   3.653  12.191 -0.5569 -2.6462 -0.7404
  829MPD2     N12251   2.395   3.390  12.565  0.0493  0.3008 -0.3421
  829MPD2    H512252   2.437   3.311  12.517 -1.2649  0.6625 -2.0837
  829MPD2    N112253   2.153   3.813  12.484  0.3924  0.1250 -0.2846
  829MPD2    H712254   2.148   3.895  12.424  0.3220  0.7501  0.5833
  830MPD2     C12255   3.314   1.434  16.148  0.0545  0.3154  0.0099
  830MPD2    C112256   3.199   1.484  16.092  0.0378 -0.3570 -0.6996
  830MPD2    C212257   3.202   1.554  15.976 -0.4354  0.3053 -0.6187
  830MPD2    C312258   3.321   1.572  15.910 -0.0683 -0.5132 -0.0524
  830MPD2    C412259   3.443   1.525  15.970  0.4910 -0.2050  0.0686
  830MPD2    C512260   3.435   1.457  16.091 -0.2994 -0.4883  0.1295
  830MPD2     H12261   3.115   1.615  15.951 -1.5600 -1.1111 -0.1781
  830MPD2    H112262   3.540   1.542  15.925  0.6916 -0.8945  0.2414
  830MPD2    H212263   3.319   1.377  16.240 -0.1889  1.0805  0.5015
  830MPD2    H312264   3.525   1.417  16.137 -1.6010  0.2828  3.3492
  830MPD2     N12265   3.326   1.643  15.787 -0.5618  0.4544 -0.2329
  830MPD2    H512266   3.419   1.653  15.748 -0.5827  4.4651  0.7753
  830MPD2    N112267   3.087   1.473  16.175  0.0979 -0.4908 -0.2538
  830MPD2    H712268   3.109   1.454  16.272 -0.2394  0.1465 -0.0525
  831MPD2     C12269   3.029   3.385  16.698 -0.4353 -0.0725  0.4587
  831MPD2    C112270   3.076   3.279  16.632  0.3247  0.8036 -0.2004
  831MPD2    C212271   3.045   3.153  16.677  0.1458  0.9281  0.3800
  831MPD2    C312272   2.972   3.129  16.794 -0.2569 -0.1739 -0.2234
  831MPD2    C412273   2.939   3.240  16.859 -0.0806 -0.3806  0.4486
  831MPD2    C512274   2.968   3.363  16.817 -0.6845  0.0474 -0.2054
  831MPD2     H12275   3.087   3.069  16.623  1.6164  1.0050  1.4038
  831MPD2    H112276   2.887   3.230  16.954  1.5884 -1.5877  1.2274
  831MPD2    H212277   3.057   3.487  16.675 -0.8300 -0.2800 -0.9309
  831MPD2    H312278   2.943   3.449  16.878 -1.8947  0.8666 -1.8569
  831MPD2     N12279   2.914   3.005  16.833  0.0909  0.6849 -0.6276
  831MPD2    H512280   2.869   3.007  16.924  1.0546  0.6914 -0.1493
  831MPD2    N112281   3.140   3.296  16.508  0.0564  0.0247 -0.2911
  831MPD2    H712282   3.127   3.391  16.477 -2.2499 -0.1781  0.0741
  832MPD2     C12283   1.566   4.213  17.206 -0.1928  0.0439  0.1522
  832MPD2    C112284   1.540   4.344  17.237  0.0782  0.8362 -0.6360
  832MPD2    C212285   1.431   4.410  17.181  0.1226  0.0597 -0.1976
  832MPD2    C312286   1.331   4.337  17.115  0.4027  0.8445 -0.3605
  832MPD2    C412287   1.352   4.202  17.096 -0.8312 -0.2704  1.1233
  832MPD2    C512288   1.466   4.137  17.137  0.4166 -0.4613  0.1736
  832MPD2     H12289   1.426   4.516  17.201 -1.5239 -0.6465  3.1596
  832MPD2    H112290   1.280   4.144  17.040 -0.9886  1.0483 -0.0384
  832MPD2    H212291   1.662   4.167  17.227 -1.3237 -2.8470 -0.8950
  832MPD2    H312292   1.491   4.036  17.109  1.2153 -0.0799 -0.4866
  832MPD2     N12293   1.204   4.389  17.076 -0.1549  0.0716 -0.6903
  832MPD2    H512294   1.143   4.319  17.037 -1.9403  0.9853  0.5053
  832MPD2    N112295   1.635   4.417  17.314 -0.0447  0.3377  0.1744
  832MPD2    H712296   1.719   4.366  17.336 -1.8206 -1.3247  3.1423
  833MPD2     C12297   3.649   1.045  13.116 -0.1527  0.0477 -0.6960
  833MPD2    C112298   3.643   1.118  13.002 -0.1980  0.0371  0.2748
  833MPD2    C212299   3.716   1.079  12.891  0.1658  0.3429 -0.7784
  833MPD2    C312300   3.802   0.968  12.897 -0.8598 -0.4958  0.2095
  833MPD2    C412301   3.812   0.905  13.018 -0.2311  0.0759  0.3047
  833MPD2    C512302   3.733   0.937  13.123  0.0021 -0.7240  0.3891
  833MPD2     H12303   3.691   1.118  12.793 -2.1026 -0.9430 -0.7353
  833MPD2    H112304   3.879   0.820  13.026  1.1341  1.1521  0.4726
  833MPD2    H212305   3.595   1.075  13.205  2.9944 -2.0349  1.9159
  833MPD2    H312306   3.743   0.877  13.212 -1.8086 -1.7707 -0.1076
  833MPD2     N12307   3.877   0.912  12.783  0.2930  0.0772  0.7892
  833MPD2    H512308   3.914   0.819  12.799  0.0464 -0.0157  0.8179
  833MPD2    N112309   3.558   1.238  13.000 -0.1877  0.1352  0.6359
  833MPD2    H712310   3.491   1.258  13.074 -1.5717  0.7055 -0.7954
  834MPD2     C12311   3.635   0.311  12.007  0.0905  0.4252 -0.2363
  834MPD2    C112312   3.609   0.444  11.970  0.1488 -0.1130  0.7642
  834MPD2    C212313   3.664   0.547  12.043 -0.2256 -0.3656 -0.0145
  834MPD2    C312314   3.739   0.522  12.155 -0.4826  0.0473  0.6060
  834MPD2    C412315   3.752   0.392  12.197  0.0711 -0.3562  0.2428
  834MPD2    C512316   3.699   0.286  12.127 -0.1656  0.0029 -0.5479
  834MPD2     H12317   3.647   0.652  12.022 -0.6392  0.0271  2.2659
  834MPD2    H112318   3.811   0.360  12.282 -0.4217  0.9870  1.0833
  834MPD2    H212319   3.591   0.227  11.955  1.7107  0.0610 -1.0039
  834MPD2    H312320   3.705   0.182  12.156 -1.7338  0.2130  0.5298
  834MPD2     N12321   3.798   0.639  12.222  0.1563  0.7564 -0.3484
  834MPD2    H512322   3.781   0.735  12.194  3.0645  1.0988 -1.0138
  834MPD2    N112323   3.524   0.468  11.859  0.6991  0.2743 -0.0218
  834MPD2    H712324   3.495   0.385  11.809 -0.3864  0.9540 -0.5073
  835MPD2     C12325   3.430   3.979  11.158  0.1737 -0.5129  0.3688
  835MPD2    C112326   3.306   3.953  11.213  0.0997 -0.2501  0.1535
  835MPD2    C212327   3.299   3.845  11.302  0.0742  0.0007  0.4640
  835MPD2    C312328   3.415   3.777  11.344  1.1685 -0.0355 -0.6294
  835MPD2    C412329   3.532   3.813  11.287  0.5077 -0.1608 -0.5796
  835MPD2    C512330   3.538   3.908  11.190 -0.7597  0.2352  0.6112
  835MPD2     H12331   3.204   3.833  11.352 -0.5148 -4.1151 -1.6633
  835MPD2    H112332   3.621   3.758  11.314  0.2291 -0.2733  0.1098
  835MPD2    H212333   3.435   4.055  11.081 -2.3307 -0.7010  0.0294
  835MPD2    H312334   3.634   3.933  11.146 -1.5482 -1.5674 -2.0897
  835MPD2     N12335   3.421   3.682  11.449  0.9203  0.1081 -0.1058
  835MPD2    H512336   3.514   3.667  11.487  0.2048  0.0606  1.6235
  835MPD2    N112337   3.193   4.031  11.183 -0.5162  0.1809  0.7492
  835MPD2    H712338   3.104   4.000  11.221  0.1160 -0.9075  1.3624
  836MPD2     C12339   2.845   3.598  12.000 -0.6216  0.6497 -0.2447
  836MPD2    C112340   2.969   3.548  12.034 -0.2495 -0.3260 -0.4052
  836MPD2    C212341   3.010   3.536  12.166  0.5506 -0.0973  0.4007
  836MPD2    C312342   2.922   3.570  12.265 -0.1861  0.0020 -1.2491
  836MPD2    C412343   2.802   3.620  12.227  0.1154 -0.5999 -0.1359
  836MPD2    C512344   2.762   3.636  12.098 -0.4280  0.3869 -0.2187
  836MPD2     H12345   3.115   3.518  12.185  0.3405 -2.8769 -1.1480
  836MPD2    H112346   2.725   3.633  12.303 -0.3400  1.3647 -0.9400
  836MPD2    H212347   2.829   3.621  11.896  1.6304  0.8013 -0.5512
  836MPD2    H312348   2.664   3.679  12.081 -1.0640 -0.8846  0.2344
  836MPD2     N12349   2.945   3.539  12.397  0.2664 -0.4063 -0.7243
  836MPD2    H512350   2.875   3.550  12.469  2.7448  0.5756  1.5463
  836MPD2    N112351   3.062   3.530  11.927 -0.2702  0.2668 -0.5273
  836MPD2    H712352   3.037   3.555  11.832 -0.1058 -1.7664 -1.1012
  837MPD2     C12353   1.522   3.582  10.840 -0.0278  0.2573 -0.0661
  837MPD2    C112354   1.508   3.607  10.701 -0.1250 -0.3113 -0.0886
  837MPD2    C212355   1.549   3.726  10.654  0.3669 -0.3940  1.0307
  837MPD2    C312356   1.587   3.825  10.745 -0.7633 -0.3826  0.4055
  837MPD2    C412357   1.590   3.802  10.883 -0.7929  0.4410  0.4343
  837MPD2    C512358   1.564   3.679  10.933  0.4706 -0.4716  0.0531
  837MPD2     H12359   1.541   3.749  10.548 -2.5582 -1.1789  1.0683
  837MPD2    H112360   1.598   3.886  10.951 -2.9407  1.1355 -0.1922
  837MPD2    H212361   1.498   3.481  10.872 -1.5965  0.8331  0.6036
  837MPD2    H312362   1.570   3.656  11.038  1.4290 -1.9060 -0.3185
  837MPD2     N12363   1.592   3.955  10.687  0.2421 -0.0632 -0.0525
  837MPD2    H512364   1.588   3.971  10.587 -2.0915 -0.7417 -0.0626
  837MPD2    N112365   1.434   3.537  10.611  0.1551 -0.2466 -0.0523
  837MPD2    H712366   1.431   3.597  10.529  0.8864  0.2738  0.3041
  838MPD2     C12367   0.168   1.897  12.342  0.0149  0.4611 -0.1140
  838MPD2    C112368   0.114   1.787  12.284  0.4928  0.6426 -0.1131
  838MPD2    C212369   0.062   1.686  12.366  0.0747  0.5142 -0.4311
  838MPD2    C312370   0.042   1.702  12.505 -0.3368 -0.7902 -0.6846
  838MPD2    C412371   0.093   1.823  12.560 -0.3192  0.8825  0.2703
  838MPD2    C512372   0.153   1.918  12.475 -0.7901 -0.2707  0.5328
  838MPD2     H12373   0.023   1.596  12.321  1.9171 -0.6227  0.2676
  838MPD2    H112374   0.078   1.846  12.665 -1.6481  1.3214 -0.0201
  838MPD2    H212375   0.196   1.985  12.285  0.9629  0.2370 -0.0056
  838MPD2    H312376   0.184   2.011  12.522 -1.8453  0.8024 -0.8730
  838MPD2     N12377   4.689   1.617  12.579 -0.0047  0.4099  0.2140
  838MPD2    H512378   4.653   1.643  12.670  0.9994 -0.0458  0.7373
  838MPD2    N112379   0.116   1.758  12.150  0.1003  0.6282  0.2416
  838MPD2    H712380   0.092   1.662  12.128 -1.1452  1.7868 -3.3677
  839MPD2     C12381   4.189   1.384  11.886 -0.6308  0.3473  0.2981
  839MPD2    C112382   4.278   1.347  11.787 -0.2632  0.3666  0.5259
  839MPD2    C212383   4.387   1.433  11.774  0.8120 -0.4851  0.1174
  839MPD2    C312384   4.405   1.553  11.842  1.0212 -0.7868 -0.5252
  839MPD2    C412385   4.312   1.580  11.944 -0.2515 -0.6321  0.3392
  839MPD2    C512386   4.210   1.493  11.966  0.0238 -0.3147  0.3656
  839MPD2     H12387   4.450   1.414  11.688  1.7737  0.8286  0.5384
  839MPD2    H112388   4.326   1.661  12.015 -1.3739  0.0527 -0.2219
  839MPD2    H212389   4.096   1.333  11.908 -0.0941 -0.9397 -0.4306
  839MPD2    H312390   4.151   1.506  12.056  0.5155 -0.8831  0.7713
  839MPD2     N12391   4.528   1.622  11.840  0.3896 -0.2267 -0.0777
  839MPD2    H512392   4.533   1.699  11.905 -2.5963  0.7395 -1.0071
  839MPD2    N112393   4.270   1.230  11.709 -0.5483  0.2252  0.4375
  839MPD2    H712394   4.353   1.192  11.665  0.3781  0.1206  2.2584
  840MPD2     C12395   0.074   4.045  10.741  0.8767  0.0516 -0.5018
  840MPD2    C112396   0.030   4.032  10.872 -0.2569 -1.0856  0.7447
  840MPD2    C212397   0.105   4.102  10.968  0.4893 -0.0735 -0.5166
  840MPD2    C312398   0.226   4.168  10.941  0.4846  0.3492  0.2816
  840MPD2    C412399   0.270   4.159  10.806 -0.3688 -0.5142 -0.3870
  840MPD2    C512400   0.192   4.108  10.714 -0.1085 -0.4191 -0.5856
  840MPD2     H12401   0.070   4.100  11.070 -0.8400 -0.0237 -0.9659
  840MPD2    H112402   0.363   4.196  10.764 -0.7644  0.6318 -0.2593
  840MPD2    H212403   0.018   4.001  10.660 -1.2871 -1.4222  1.8012
  840MPD2    H312404   0.221   4.106  10.609 -0.1605 -0.5702 -0.5972
  840MPD2     N12405   0.304   4.223  11.037  0.1057 -0.3122 -0.6895
  840MPD2    H512406   0.392   4.261  11.003 -0.2709  0.6128 -0.6556
  840MPD2    N112407   4.645   3.955  10.892  0.4490 -0.1863 -0.4214
  840MPD2    H712408   4.590   3.934  10.809  0.1126  1.7256 -0.6803
  841MPD2     C12409   0.213   3.562  14.267  0.5079  0.0681  0.9028
  841MPD2    C112410   0.179   3.507  14.383  0.0792  0.4494  0.7618
  841MPD2    C212411   0.246   3.543  14.502  0.5895 -0.4842 -0.1477
  841MPD2    C312412   0.340   3.647  14.500 -0.2521  0.5722  0.1007
  841MPD2    C412413   0.371   3.705  14.383  1.0924 -0.3524 -0.0623
  841MPD2    C512414   0.308   3.666  14.268 -1.0723 -0.4135  0.0780
  841MPD2     H12415   0.230   3.487  14.594  0.9556 -0.9014 -0.3385
  841MPD2    H112416   0.437   3.790  14.379 -0.2156  0.7586  2.4636
  841MPD2    H212417   0.164   3.544  14.172 -0.7059 -0.3630  1.6147
  841MPD2    H312418   0.321   3.736  14.187  1.6745 -0.3404  0.6011
  841MPD2     N12419   0.406   3.689  14.613 -0.4200  0.3530 -0.2871
  841MPD2    H512420   0.471   3.766  14.607 -0.1720 -0.0208 -2.5226
  841MPD2    N112421   0.083   3.400  14.389 -0.4123 -0.3856  0.9405
  841MPD2    H712422   0.050   3.374  14.481  0.4369  0.5710  1.5265
  842MPD2     C12423   0.025   4.706  17.035 -0.0007  0.6418  0.1390
  842MPD2    C112424   0.151   0.016  17.003  0.2168  0.3380  0.1248
  842MPD2    C212425   0.259   4.683  17.056 -0.2648 -0.3761 -0.1081
  842MPD2    C312426   0.244   4.577  17.144 -0.2363  0.1022 -0.1514
  842MPD2    C412427   0.117   4.535  17.163  0.0863 -0.3061 -0.4196
  842MPD2    C512428   0.006   4.595  17.113  0.1616 -0.4011 -0.7580
  842MPD2     H12429   0.356   4.695  17.010  0.4565 -0.6851  1.3230
  842MPD2    H112430   0.106   4.447  17.224 -0.2153 -1.2650 -1.8744
  842MPD2    H212431   4.663   0.018  17.007 -0.1694 -0.2295 -0.7098
  842MPD2    H312432   4.641   4.557  17.142  1.3709 -2.3316  0.8114
  842MPD2     N12433   0.353   4.512  17.215  0.5829 -0.0824 -0.4643
  842MPD2    H512434   0.321   4.432  17.270 -0.7313  1.5240  1.1391
  842MPD2    N112435   0.155   0.139  16.927 -0.2000 -0.5379 -0.6789
  842MPD2    H712436   0.067   0.189  16.915  0.5530  0.8097 -0.5347
  843MPD2     C12437   2.517   0.556   0.355 -0.1303  0.4741 -0.3470
  843MPD2    C112438   2.651   0.537   0.386 -0.0729 -0.3492  0.3669
  843MPD2    C212439   2.733   0.653   0.385 -0.0122  0.0631 -0.7774
  843MPD2    C312440   2.685   0.780   0.364  0.3164 -0.7871 -0.4000
  843MPD2    C412441   2.546   0.799   0.343 -0.4532 -0.0872 -0.3758
  843MPD2    C512442   2.468   0.685   0.330  0.0259 -0.4502 -0.2415
  843MPD2     H12443   2.836   0.636   0.416 -0.2124 -1.5784 -0.9964
  843MPD2    H112444   2.493   0.894   0.338 -0.9080 -0.4071 -1.6756
  843MPD2    H212445   2.446   0.474   0.351  2.4081 -1.9444  4.2254
  843MPD2    H312446   2.365   0.688   0.299  0.3668 -2.7347 -1.5841
  843MPD2     N12447   2.765   0.899   0.355  0.0003 -0.3772  0.4581
  843MPD2    H512448   2.706   0.981   0.346 -0.3802 -0.7182 -0.2045
  843MPD2    N112449   2.700   0.401   0.394 -0.0693 -0.2178 -0.7040
  843MPD2    H712450   2.632   0.327   0.380  0.7136 -0.5678 -2.6124
  844MPD2     C12451   0.948   4.452  16.513  0.3179 -0.3663 -0.0505
  844MPD2    C112452   1.045   4.354  16.500 -0.5088 -0.6681 -0.1007
  844MPD2    C212453   1.160   4.359  16.574  0.4661  0.0505 -0.4751
  844MPD2    C312454   1.185   4.465  16.662 -0.1709 -0.2590  0.2025
  844MPD2    C412455   1.092   4.568  16.660  0.3583  0.3001 -0.4193
  844MPD2    C512456   0.974   4.558  16.588 -1.7598 -0.1144 -0.4524
  844MPD2     H12457   1.236   4.285  16.551  0.6275 -0.0979  0.5223
  844MPD2    H112458   1.098   4.655  16.725  0.7996  0.3992 -0.5908
  844MPD2    H212459   0.853   4.449  16.461  0.3182 -0.2882 -0.0547
  844MPD2    H312460   0.894   4.632  16.596 -0.6746  1.1320 -1.0325
  844MPD2     N12461   1.301   4.478  16.740  0.4586 -0.2761 -0.1778
  844MPD2    H512462   1.303   4.561  16.798  0.5310  1.4798 -2.6605
  844MPD2    N112463   1.020   4.246  16.408 -0.3344  0.1104 -0.4451
  844MPD2    H712464   1.109   4.199  16.392 -0.7467  0.0246 -2.5120
  845MPD2     C12465   1.701   0.476  16.994 -0.8453 -0.0917 -0.2604
  845MPD2    C112466   1.689   0.392  17.102 -1.2105 -0.8472  0.2972
  845MPD2    C212467   1.687   0.256  17.084 -0.6050  0.6171 -0.0719
  845MPD2    C312468   1.689   0.206  16.954  1.1801  0.4549  0.1102
  845MPD2    C412469   1.701   0.292  16.852  0.6887  0.3189  0.3638
  845MPD2    C512470   1.706   0.425  16.873 -0.5048  0.2063  0.1216
  845MPD2     H12471   1.667   0.182  17.161  2.4737 -0.1371  0.0034
  845MPD2    H112472   1.702   0.255  16.750 -2.0017  2.3145 -0.3951
  845MPD2    H212473   1.711   0.583  17.010 -0.2131  0.2000 -2.5572
  845MPD2    H312474   1.726   0.495  16.793 -0.0093 -2.9864 -2.5817
  845MPD2     N12475   1.660   0.068  16.928 -0.4753  0.4311 -0.9095
  845MPD2    H512476   1.620   0.049  16.837  0.3933 -4.9387 -0.1423
  845MPD2    N112477   1.682   0.453  17.228  0.1504  0.3772  0.1963
  845MPD2    H712478   1.687   0.555  17.229 -0.2889  0.4144 -0.9605
  846MPD2     C12479   2.721   0.502  13.679 -0.3767  0.0802  0.3640
  846MPD2    C112480   2.766   0.634  13.697  0.1393 -0.6689  0.0799
  846MPD2    C212481   2.788   0.687  13.827 -0.1700 -0.3156  0.3496
  846MPD2    C312482   2.753   0.613  13.933 -0.6552  0.9474 -0.9337
  846MPD2    C412483   2.698   0.489  13.917  0.6286  0.6875  0.6135
  846MPD2    C512484   2.686   0.434  13.790 -0.1540  0.4079  0.2145
  846MPD2     H12485   2.820   0.790  13.840 -1.8731  0.2715 -0.1108
  846MPD2    H112486   2.683   0.416  13.996 -1.4637  0.9797  0.4638
  846MPD2    H212487   2.713   0.452  13.583 -2.6094 -1.7802  1.5176
  846MPD2    H312488   2.656   0.330  13.781 -2.0241  1.0455 -0.8889
  846MPD2     N12489   2.764   0.674  14.057 -0.1421  0.2022  0.9828
  846MPD2    H512490   2.813   0.762  14.065  0.7995 -0.0844 -1.6076
  846MPD2    N112491   2.803   0.712  13.587  0.0322  0.4208  0.0362
  846MPD2    H712492   2.850   0.801  13.602  1.1132  0.3864 -3.0231
  847MPD2     C12493   3.055   1.364  14.807  0.0167 -0.1705 -0.3677
  847MPD2    C112494   3.125   1.479  14.816 -0.2425  0.0808 -0.3813
  847MPD2    C212495   3.259   1.481  14.797  0.4436  0.1051  0.3567
  847MPD2    C312496   3.327   1.372  14.759 -0.3081  0.6136  0.1721
  847MPD2    C412497   3.256   1.255  14.747  0.3507 -0.2068  0.7956
  847MPD2    C512498   3.120   1.250  14.766  0.3587  0.5171 -0.5474
  847MPD2     H12499   3.320   1.567  14.822  0.1710  0.5250 -0.3886
  847MPD2    H112500   3.303   1.168  14.703 -3.3139 -2.1414  0.7354
  847MPD2    H212501   2.947   1.365  14.816  0.0517 -0.5848  0.1192
  847MPD2    H312502   3.060   1.166  14.734  1.4835 -1.1230  1.6465
  847MPD2     N12503   3.468   1.380  14.733 -0.3252  0.1648  0.1033
  847MPD2    H512504   3.497   1.477  14.729 -1.1216  0.3710 -0.4820
  847MPD2    N112505   3.064   1.594  14.867 -0.5525 -0.3900  0.0119
  847MPD2    H712506   3.125   1.675  14.871  0.5125 -1.2179  0.4030
  848MPD2     C12507   0.765   0.199  16.660  0.0799  0.1143  0.7412
  848MPD2    C112508   0.875   0.196  16.741 -0.2139 -0.0140 -1.1831
  848MPD2    C212509   0.969   0.296  16.740  0.1321 -1.4532 -0.8386
  848MPD2    C312510   0.968   0.393  16.635 -0.3155 -0.5286 -0.3773
  848MPD2    C412511   0.873   0.385  16.543 -0.2569 -0.6889  0.4012
  848MPD2    C512512   0.776   0.288  16.554  0.1009  0.6335 -0.0247
  848MPD2     H12513   1.053   0.292  16.808  0.5777  1.9158 -1.1630
  848MPD2    H112514   0.872   0.458  16.463 -0.9440 -1.1893 -0.0468
  848MPD2    H212515   0.678   0.135  16.665 -1.4692  2.2089  0.5613
  848MPD2    H312516   0.696   0.276  16.481  0.0689 -1.0907  0.3071
  848MPD2     N12517   1.057   0.500  16.617  0.3969  0.2342 -0.2711
  848MPD2    H512518   1.042   0.554  16.532  1.0296  1.0273  0.1223
  848MPD2    N112519   0.889   0.097  16.835  0.1256  0.7313  0.1521
  848MPD2    H712520   0.964   0.111  16.902  0.0003 -1.0152  0.6663
  849MPD2     C12521   4.506   4.172  14.803  0.3834 -0.3931 -0.0705
  849MPD2    C112522   4.612   4.125  14.729  0.6316  0.6978  0.1091
  849MPD2    C212523   0.002   4.175  14.764  0.3034 -0.3095  0.4453
  849MPD2    C312524   0.017   4.268  14.861 -0.6219  0.2232 -0.5547
  849MPD2    C412525   4.637   4.301  14.931  0.2956  1.0831 -0.0119
  849MPD2    C512526   4.514   4.265  14.900 -0.4914 -0.0609  0.2976
  849MPD2     H12527   0.092   4.137  14.715  0.1147  1.4850 -1.2973
  849MPD2    H112528   4.638   4.379  15.006 -1.5594  1.0245  0.0705
  849MPD2    H212529   4.407   4.137  14.776  0.3348  2.1772 -3.1514
  849MPD2    H312530   4.424   4.292  14.954 -0.7056 -1.0072  0.4262
  849MPD2     N12531   0.145   4.313  14.901  0.3915 -0.5242 -0.4932
  849MPD2    H512532   0.219   4.293  14.834  1.2702  1.0296  0.0048
  849MPD2    N112533   4.590   4.053  14.610  0.3211  0.1634 -0.7987
  849MPD2    H712534   4.496   4.024  14.586  0.5565 -0.4918 -0.9134
  850MPD2     C12535   2.951   2.486  14.948 -0.2447 -0.2799 -0.3819
  850MPD2    C112536   2.932   2.601  15.015 -0.3392 -0.0696  0.0927
  850MPD2    C212537   3.051   2.666  15.041 -0.1171  0.5278 -1.0497
  850MPD2    C312538   3.174   2.610  15.028 -0.6547  0.4550 -0.0329
  850MPD2    C412539   3.185   2.481  14.969  0.0173  0.3883 -0.0797
  850MPD2    C512540   3.071   2.420  14.923 -0.0450 -0.2564  0.7439
  850MPD2     H12541   3.058   2.766  15.082 -0.7306 -0.0705  0.5107
  850MPD2    H112542   3.284   2.436  14.966 -0.7241 -1.3361  1.1200
  850MPD2    H212543   2.862   2.433  14.914 -0.4875  0.8246 -1.4167
  850MPD2    H312544   3.083   2.321  14.881 -2.5129  0.1427 -0.8478
  850MPD2     N12545   3.295   2.668  15.064 -0.3612  0.4665  0.2769
  850MPD2    H512546   3.377   2.617  15.031  0.0379  2.0767 -1.1987
  850MPD2    N112547   2.799   2.655  15.034  0.4606 -0.4248 -0.5233
  850MPD2    H712548   2.729   2.605  14.980 -0.7375  0.4566  0.2248
  851MPD2     C12549   3.313   2.572  15.691  0.1613  0.6238 -0.7687
  851MPD2    C112550   3.227   2.536  15.599  0.4136 -0.0015 -0.5057
  851MPD2    C212551   3.212   2.400  15.585 -0.5595 -0.3398 -0.2259
  851MPD2    C312552   3.301   2.315  15.639  0.9012  0.2530 -0.1442
  851MPD2    C412553   3.394   2.357  15.736 -0.0733 -0.2851 -0.2659
  851MPD2    C512554   3.392   2.491  15.765 -0.3838 -0.0218  0.5405
  851MPD2     H12555   3.121   2.362  15.539  0.1549 -1.9149 -0.3589
  851MPD2    H112556   3.461   2.294  15.793 -0.4255  1.2980  1.8813
  851MPD2    H212557   3.326   2.677  15.718  1.1526 -0.6210  3.6957
  851MPD2    H312558   3.460   2.527  15.842  1.3884 -0.1618 -0.9616
  851MPD2     N12559   3.293   2.178  15.600 -0.3406 -0.2327 -0.3996
  851MPD2    H512560   3.214   2.153  15.542 -1.0963  0.2626  0.4155
  851MPD2    N112561   3.143   2.632  15.540  0.5060  0.3098  0.5787
  851MPD2    H712562   3.146   2.729  15.571 -2.1911 -0.2613  2.6417
  852MPD2     C12563   2.439   0.469  10.091  0.5505 -0.0759  0.4077
  852MPD2    C112564   2.398   0.552  10.195 -0.1179  0.2888 -0.3824
  852MPD2    C212565   2.435   0.684  10.186  0.3805 -0.1105 -0.0372
  852MPD2    C312566   2.505   0.737  10.081  0.3549 -0.0489 -0.4030
  852MPD2    C412567   2.536   0.656   9.972  0.1424  0.2901  0.0041
  852MPD2    C512568   2.503   0.526   9.981  0.3332 -0.7321 -0.4782
  852MPD2     H12569   2.411   0.753  10.267 -0.9078 -1.1455  0.4597
  852MPD2    H112570   2.589   0.700   9.889  0.6215  3.0629  1.7828
  852MPD2    H212571   2.425   0.362  10.081 -0.0551  0.2630 -2.4746
  852MPD2    H312572   2.522   0.468   9.891 -0.3747 -1.8987  0.1251
  852MPD2     N12573   2.538   0.872  10.086 -0.3067 -0.6382 -0.2325
  852MPD2    H512574   2.529   0.912  10.179 -0.0608 -0.3499 -0.3320
  852MPD2    N112575   2.331   0.512  10.307 -0.0513  0.1432  0.2673
  852MPD2    H712576   2.281   0.578  10.365 -1.2010  0.4778 -1.1013
  853MPD2     C12577   4.312   4.538  12.588  0.1855 -0.4262  0.4651
  853MPD2    C112578   4.268   4.662  12.543 -0.3519 -0.0537  0.6976
  853MPD2    C212579   4.315   4.714  12.424 -0.3787 -0.1338  0.1435
  853MPD2    C312580   4.409   4.647  12.345  0.4715  0.0926 -0.1443
  853MPD2    C412581   4.459   4.532  12.399 -0.1113  0.4581 -0.1901
  853MPD2    C512582   4.414   4.473  12.521  0.1580 -0.2834 -0.0762
  853MPD2     H12583   4.278   0.075  12.382 -2.4587 -1.3016 -0.6445
  853MPD2    H112584   4.537   4.487  12.338  0.1677 -0.0518  0.5416
  853MPD2    H212585   4.268   4.499  12.678  0.9727  0.0834  1.0722
  853MPD2    H312586   4.470   4.384  12.549  0.9742  0.6369  1.2150
  853MPD2     N12587   4.456   4.689  12.217 -0.3100 -0.3076  0.1112
  853MPD2    H512588   4.536   4.642  12.175 -0.6463  0.5311 -1.4518
  853MPD2    N112589   4.174   4.722  12.619  0.4559  0.8104  0.0354
  853MPD2    H712590   4.143   4.676  12.704 -1.1081  0.9537 -0.4486
  854MPD2     C12591   1.340   0.555  12.840  0.3206  0.4415 -0.1863
  854MPD2    C112592   1.456   0.634  12.839  0.8144 -0.3698  0.4186
  854MPD2    C212593   1.580   0.579  12.878  0.0609  0.0700  0.1970
  854MPD2    C312594   1.587   0.442  12.903 -0.4536  0.1921  0.0227
  854MPD2    C412595   1.468   0.366  12.905  0.4078  0.4289 -0.5925
  854MPD2    C512596   1.343   0.425  12.877  1.0996 -0.3154  0.0817
  854MPD2     H12597   1.671   0.637  12.882  0.3504 -0.4489  1.2054
  854MPD2    H112598   1.463   0.260  12.930  2.6533  0.3180 -0.5885
  854MPD2    H212599   1.242   0.596  12.819  0.0820 -0.7133 -1.3181
  854MPD2    H312600   1.251   0.370  12.884  0.6251  0.4166 -0.3489
  854MPD2     N12601   1.700   0.376  12.951  0.0451  0.2504  0.0869
  854MPD2    H512602   1.694   0.277  12.971  1.3439  0.3034  0.7232
  854MPD2    N112603   1.437   0.772  12.800  0.6002  0.0668  0.3864
  854MPD2    H712604   1.347   0.794  12.758 -0.3645 -1.2046  1.7974
  855MPD2     C12605   1.959   0.301  13.802  0.4827  0.7420  0.0679
  855MPD2    C112606   1.946   0.171  13.756  0.4714 -0.1533 -0.1446
  855MPD2    C212607   1.963   0.159  13.617 -0.0520 -0.2006  0.3363
  855MPD2    C312608   1.988   0.269  13.534 -0.1126 -0.0229 -0.2737
  855MPD2    C412609   2.012   0.390  13.586 -0.0988 -0.5455  0.0940
  855MPD2    C512610   1.994   0.407  13.723 -0.2712 -0.8309  0.0397
  855MPD2     H12611   1.968   0.064  13.566  1.1675 -0.4102  0.8559
  855MPD2    H112612   2.035   0.468  13.515 -0.1589 -0.7067 -0.1020
  855MPD2    H212613   1.947   0.314  13.909  0.3578  0.1191  0.1319
  855MPD2    H312614   1.995   0.505  13.769  1.1122 -0.6646 -0.3242
  855MPD2     N12615   1.988   0.260  13.391 -0.8031 -0.1933 -0.8248
  855MPD2    H512616   2.014   0.343  13.340 -0.7813 -0.2801 -0.9551
  855MPD2    N112617   1.914   0.058  13.841  0.2750 -0.1351  0.3910
  855MPD2    H712618   1.919   0.065  13.942 -0.4414 -0.4089  0.4436
  856MPD2     C12619   3.738   0.744  14.002 -0.3999  0.2333  0.0035
  856MPD2    C112620   3.702   0.788  14.130 -0.0103  0.1149  0.0973
  856MPD2    C212621   3.596   0.869  14.150 -0.5646 -0.4640  0.2607
  856MPD2    C312622   3.529   0.940  14.049 -0.6989  0.6906 -0.1242
  856MPD2    C412623   3.552   0.889  13.922 -0.0275  0.4734 -0.6072
  856MPD2    C512624   3.652   0.791  13.907  0.2305  0.2717  0.5223
  856MPD2     H12625   3.570   0.894  14.253 -2.6125 -0.2551 -0.3062
  856MPD2    H112626   3.498   0.932  13.838  0.4932 -1.0385 -1.7299
  856MPD2    H212627   3.821   0.682  13.969 -0.1265  0.2561  0.6390
  856MPD2    H312628   3.678   0.752  13.809 -0.7691 -1.8182  1.0931
  856MPD2     N12629   3.440   1.052  14.071  0.1116  0.0152  0.5333
  856MPD2    H512630   3.386   1.086  13.991  1.7459  0.5567 -0.3450
  856MPD2    N112631   3.770   0.747  14.250  0.2878 -0.2586  0.3616
  856MPD2    H712632   3.751   0.798  14.336  1.2456 -1.0963  1.0878
  857MPD2     C12633   0.779   2.656  13.161 -0.0415  0.3131  1.0654
  857MPD2    C112634   0.749   2.786  13.137  0.0922 -0.2763  0.0605
  857MPD2    C212635   0.839   2.890  13.172  0.2444 -0.7365 -0.1740
  857MPD2    C312636   0.948   2.856  13.258  0.1457 -0.7749  0.0405
  857MPD2    C412637   0.968   2.723  13.293  0.3653 -0.6034  0.3904
  857MPD2    C512638   0.887   2.624  13.244  0.1036  0.2542  0.2608
  857MPD2     H12639   0.819   2.993  13.145 -0.7588 -1.1058 -0.8135
  857MPD2    H112640   1.048   2.692  13.359  1.2672  0.8357 -0.0240
  857MPD2    H212641   0.706   2.583  13.129  1.0931 -0.2739 -0.2155
  857MPD2    H312642   0.901   2.522  13.279  1.5545  0.0304 -0.9389
  857MPD2     N12643   1.019   2.954  13.329  0.0107 -0.1367 -0.2765
  857MPD2    H512644   0.978   3.047  13.332 -1.7434 -1.0374  3.1971
  857MPD2    N112645   0.630   2.811  13.070 -0.0421  0.1450 -0.2535
  857MPD2    H712646   0.571   2.731  13.048  0.9970 -0.9579  0.9772
  858MPD2     C12647   1.152   2.222  16.561  0.1023 -0.2052 -0.7902
  858MPD2    C112648   1.287   2.200  16.587 -0.3408 -0.0157 -0.1081
  858MPD2    C212649   1.349   2.292  16.668  0.1274  0.3788 -0.3312
  858MPD2    C312650   1.273   2.401  16.725  0.5541 -0.1365 -0.7674
  858MPD2    C412651   1.148   2.423  16.682 -0.4736  0.4295  0.8043
  858MPD2    C512652   1.085   2.331  16.610 -0.7945  0.2113  0.2076
  858MPD2     H12653   1.453   2.269  16.689  0.3433  1.4754 -0.2317
  858MPD2    H112654   1.087   2.505  16.719 -1.8293  0.4074 -1.3744
  858MPD2    H212655   1.109   2.141  16.504 -2.2157  0.5514 -0.0838
  858MPD2    H312656   0.983   2.348  16.578  0.0698  1.1933 -1.9873
  858MPD2     N12657   1.312   2.488  16.826  0.1603 -0.2760 -0.2710
  858MPD2    H512658   1.247   2.559  16.856  0.1263 -0.4381  0.0363
  858MPD2    N112659   1.348   2.090  16.526 -0.4340 -0.0909  0.0520
  858MPD2    H712660   1.289   2.022  16.480  1.8229 -0.2534 -2.5973
  859MPD2     C12661   4.703   4.135  16.010  0.2490  0.3353  0.6040
  859MPD2    C112662   0.085   4.147  15.934  0.2272 -0.4291 -0.6173
  859MPD2    C212663   0.183   4.048  15.940 -0.7286  0.3368 -0.3427
  859MPD2    C312664   0.156   3.927  16.000  0.3333 -0.4277  0.6007
  859MPD2    C412665   0.037   3.903  16.067 -0.4126 -0.3390 -0.2854
  859MPD2    C512666   4.681   4.010  16.068  1.1856 -0.1812 -0.0155
  859MPD2     H12667   0.282   4.064  15.898 -1.2275 -0.7139 -1.8894
  859MPD2    H112668   0.009   3.804  16.100  1.8748 -1.0829 -0.6303
  859MPD2    H212669   4.639   4.220  16.034 -1.4361 -0.6233 -0.4886
  859MPD2    H312670   4.593   3.991  16.128  0.5484 -0.4503 -1.0435
  859MPD2     N12671   0.244   3.820  15.998  0.1607  0.5666 -0.3053
  859MPD2    H512672   0.217   3.738  16.052  3.1034 -0.7506 -0.8421
  859MPD2    N112673   0.096   4.279  15.877  0.1202  0.3371  0.6699
  859MPD2    H712674   0.021   4.347  15.887  0.9658  1.4162 -0.4637
  860MPD2     C12675   2.704   0.473  11.867  0.3883 -0.3960 -1.0273
  860MPD2    C112676   2.694   0.362  11.951  0.0753 -0.1360  0.2685
  860MPD2    C212677   2.571   0.328  11.993  0.3159 -0.4072  0.4562
  860MPD2    C312678   2.459   0.387  11.943 -0.5810  0.6093  0.0443
  860MPD2    C412679   2.472   0.494  11.855 -0.4019 -0.4934 -0.4815
  860MPD2    C512680   2.591   0.533  11.816  0.6031 -0.4478 -0.9439
  860MPD2     H12681   2.562   0.244  12.061  3.3525 -0.3673  0.9040
  860MPD2    H112682   2.389   0.554  11.818 -0.3033 -1.0562 -1.6244
  860MPD2    H212683   2.803   0.512  11.843  0.2956  1.0882  1.0124
  860MPD2    H312684   2.611   0.614  11.746  1.1431 -0.7594 -1.1584
  860MPD2     N12685   2.340   0.320  11.979 -1.0475 -0.3454 -0.0102
  860MPD2    H512686   2.356   0.234  12.031  0.8798 -0.1013 -0.1857
  860MPD2    N112687   2.807   0.287  12.008  0.0421 -0.3948  0.7386
  860MPD2    H712688   2.782   0.210  12.070 -1.2537 -1.3046 -0.9192
  861MPD2     C12689   0.827   3.033  11.217 -0.2255  0.0768 -0.0760
  861MPD2    C112690   0.862   3.167  11.219 -0.6980 -0.2428  0.6348
  861MPD2    C212691   0.778   3.256  11.152  0.2347  0.0697 -0.3226
  861MPD2    C312692   0.668   3.212  11.078 -0.0964  0.2568  0.3023
  861MPD2    C412693   0.644   3.075  11.075  0.2124 -0.1508 -0.3203
  861MPD2    C512694   0.720   2.987  11.147  0.3020  0.5519  0.0650
  861MPD2     H12695   0.812   3.358  11.141 -0.9748  0.5511  0.3885
  861MPD2    H112696   0.564   3.023  11.023  1.6403 -0.6239 -2.0440
  861MPD2    H212697   0.890   2.960  11.266 -1.7964 -0.9667  0.4191
  861MPD2    H312698   0.716   2.878  11.141  0.4447  0.5948 -0.8342
  861MPD2     N12699   0.570   3.296  11.014 -0.4576  0.3565  1.0824
  861MPD2    H512700   0.478   3.260  10.989  1.2773 -2.0766 -1.7836
  861MPD2    N112701   0.979   3.218  11.284 -0.6657 -0.2305  0.1371
  861MPD2    H712702   0.993   3.318  11.290 -0.4425 -0.2033 -0.7973
  862MPD2     C12703   4.724   3.151  10.749  0.1018 -0.1077 -0.0842
  862MPD2    C112704   0.123   3.158  10.795 -0.2356 -0.7401 -0.8120
  862MPD2    C212705   0.176   3.030  10.822 -0.2439 -0.5629 -0.1078
  862MPD2    C312706   0.115   2.910  10.814  0.3619 -0.1731 -0.5207
  862MPD2    C412707   4.713   2.910  10.776  0.0563 -0.5665  0.1225
  862MPD2    C512708   4.654   3.034  10.739  0.3145 -0.6899 -0.2111
  862MPD2     H12709   0.283   3.026  10.833 -0.3348 -1.5487  0.4781
  862MPD2    H112710   4.657   2.817  10.775 -0.5124 -0.2371  1.5417
  862MPD2    H212711   4.673   3.239  10.712 -0.1092 -0.7687 -1.3730
  862MPD2    H312712   4.550   3.048  10.714 -0.0764  1.2435  2.5452
  862MPD2     N12713   0.174   2.790  10.863  0.2680 -0.1983  0.3677
  862MPD2    H512714   0.147   2.698  10.830 -0.8135  0.1261  0.3622
  862MPD2    N112715   0.208   3.267  10.791  0.0683 -0.0753  0.6532
  862MPD2    H712716   0.301   3.254  10.830 -0.1088  3.2101  2.2048
  863MPD2     C12717   4.402   0.734  17.195  0.2327  0.4539 -0.3201
  863MPD2    C112718   4.437   0.854  17.146  0.3509  0.6577 -0.3754
  863MPD2    C212719   4.572   0.900  17.167 -0.2637  0.6127 -0.9546
  863MPD2    C312720   4.651   0.826  17.262 -0.3230 -0.3559 -0.1483
  863MPD2    C412721   4.609   0.708  17.319  0.3088 -1.0257 -0.7349
  863MPD2    C512722   4.486   0.661  17.278 -0.0358 -0.4162  0.3528
  863MPD2     H12723   4.601   0.992  17.117  1.9892  0.1570 -0.5249
  863MPD2    H112724   4.657   0.651  17.397  0.9350 -0.7393 -0.9159
  863MPD2    H212725   4.306   0.690  17.173  0.6532 -0.9840  0.7360
  863MPD2    H312726   4.466   0.567  17.328  0.6829 -0.8220 -0.1383
  863MPD2     N12727   0.049   0.869  17.298  0.0104  0.5031 -0.1386
  863MPD2    H512728   0.091   0.828  17.381  0.5845 -0.2525 -0.8128
  863MPD2    N112729   4.350   0.937  17.065 -0.1852 -0.9816  1.0057
  863MPD2    H712730   4.396   1.013  17.016 -1.2015 -0.6552  0.5555
  864MPD2     C12731   0.132   2.303  17.423 -0.3186  0.1294  0.8618
  864MPD2    C112732   0.185   2.215  17.331 -0.4172 -0.8536  0.8670
  864MPD2    C212733   0.300   2.252  17.276 -1.0789  0.5217  0.6337
  864MPD2    C312734   0.365   2.368  17.308  0.3544 -0.0393  1.6703
  864MPD2    C412735   0.307   2.455  17.394 -0.4112  0.0419  0.2463
  864MPD2    C512736   0.188   2.426  17.454 -0.5392 -0.1611 -0.0979
  864MPD2     H12737   0.354   2.189  17.206 -0.1379  2.2067 -0.1709
  864MPD2    H112738   0.349   2.554  17.411  0.6488 -0.2238 -0.8206
  864MPD2    H212739   0.039   2.290  17.477 -0.7010 -1.3540 -0.1324
  864MPD2    H312740   0.145   2.491  17.529 -1.6962  0.3053 -1.1636
  864MPD2     N12741   0.484   2.402  17.254 -0.4860  1.2869 -0.6825
  864MPD2    H512742   0.509   2.501  17.263  1.1261  0.9325 -1.1551
  864MPD2    N112743   0.115   2.099  17.303 -0.4788  0.1641 -0.5030
  864MPD2    H712744   0.032   2.094  17.362 -1.4311 -2.0793 -2.0257
  865MPD2     C12745   0.788   2.572  16.359  0.0697  0.2653 -0.2390
  865MPD2    C112746   0.706   2.490  16.437 -0.3459 -0.3610  0.4088
  865MPD2    C212747   0.704   2.507  16.575 -0.0873 -0.0946  0.6184
  865MPD2    C312748   0.796   2.584  16.642  0.2111 -0.0324 -0.2912
  865MPD2    C412749   0.880   2.660  16.564 -0.3978  0.1723  0.8145
  865MPD2    C512750   0.882   2.645  16.426  0.3101  0.6380  0.7926
  865MPD2     H12751   0.631   2.448  16.630 -0.6100 -0.4215 -0.4280
  865MPD2    H112752   0.956   2.725  16.606 -0.5511  1.4054 -0.8173
  865MPD2    H212753   0.785   2.570  16.250 -1.0364  3.6125 -0.2663
  865MPD2    H312754   0.942   2.720  16.375  4.1439 -2.4075  0.8633
  865MPD2     N12755   0.820   2.577  16.778  0.0707  0.0451 -0.4922
  865MPD2    H512756   0.912   2.612  16.804 -0.1248  0.2690 -0.0884
  865MPD2    N112757   0.633   2.391  16.370 -0.3035 -0.3511 -0.6810
  865MPD2    H712758   0.650   2.380  16.270 -0.9260 -1.6970 -0.6382
  866MPD2     C12759   1.569   3.921  11.631 -0.2864 -0.5944 -0.5816
  866MPD2    C112760   1.573   3.918  11.492 -0.0399  0.3800  0.3920
  866MPD2    C212761   1.458   3.911  11.425  0.3925  0.3167  0.4819
  866MPD2    C312762   1.339   3.892  11.490 -0.6456  0.3604 -1.0491
  866MPD2    C412763   1.334   3.891  11.628  0.1242 -0.4722  0.6823
  866MPD2    C512764   1.449   3.908  11.695  0.0240  0.1365  0.1333
  866MPD2     H12765   1.460   3.913  11.317  1.1525 -1.1522  0.4642
  866MPD2    H112766   1.247   3.876  11.691 -0.6918  3.0917  0.3890
  866MPD2    H212767   1.663   3.918  11.684  0.1892 -0.8503 -1.4564
  866MPD2    H312768   1.444   3.905  11.804  0.6743  1.8508  0.2011
  866MPD2     N12769   1.219   3.863  11.414 -0.0743 -0.2487  0.4801
  866MPD2    H512770   1.136   3.850  11.471  0.0277 -0.0815  0.6636
  866MPD2    N112771   1.696   3.922  11.426 -0.3144 -0.2277  0.7793
  866MPD2    H712772   1.781   3.936  11.480  0.3968  0.4725 -0.5438
  867MPD2     C12773   3.563   2.605  16.461 -0.6252 -0.3660 -0.3814
  867MPD2    C112774   3.586   2.534  16.574  0.3610 -1.1163 -0.9242
  867MPD2    C212775   3.569   2.593  16.697 -0.5824 -0.3824 -0.1906
  867MPD2    C312776   3.544   2.732  16.711 -0.5070  0.2093  0.1969
  867MPD2    C412777   3.510   2.797  16.595  0.1884  0.0427  0.2001
  867MPD2    C512778   3.516   2.731  16.480  0.2166  0.3959  0.1167
  867MPD2     H12779   3.566   2.533  16.787 -1.0991  0.3185  0.2573
  867MPD2    H112780   3.487   2.903  16.587  1.3817  0.2966  0.0596
  867MPD2    H212781   3.582   2.554  16.367 -0.7684 -2.3925  0.7019
  867MPD2    H312782   3.499   2.787  16.389 -0.6710  0.3281  0.2417
  867MPD2     N12783   3.550   2.801  16.838 -0.4149  0.1971  0.5785
  867MPD2    H512784   3.517   2.896  16.827 -0.1118  0.4534  1.9851
  867MPD2    N112785   3.632   2.396  16.555  0.2853 -0.1259 -0.2953
  867MPD2    H712786   3.641   2.374  16.457 -1.2527 -0.7322 -0.2896
  868MPD2     C12787   0.796   1.828  13.528  0.4478 -0.4549  0.5094
  868MPD2    C112788   0.828   1.694  13.549 -0.1423  0.0209  0.5174
  868MPD2    C212789   0.737   1.625  13.622 -0.0086 -0.2125 -0.3692
  868MPD2    C312790   0.620   1.684  13.668 -0.2724 -0.0266  0.9880
  868MPD2    C412791   0.591   1.817  13.639  0.4645  0.1584 -0.5285
  868MPD2    C512792   0.686   1.890  13.570  0.1717 -0.2268 -0.8661
  868MPD2     H12793   0.753   1.519  13.636 -0.5077 -0.1101  0.9716
  868MPD2    H112794   0.509   1.877  13.676  1.6890  2.4406 -1.5639
  868MPD2    H212795   0.863   1.895  13.474 -2.5146  1.3710 -0.9644
  868MPD2    H312796   0.675   1.995  13.548 -1.3123  0.0310  1.1376
  868MPD2     N12797   0.536   1.598  13.745 -0.7351  0.3068  0.4916
  868MPD2    H512798   0.570   1.509  13.780  0.9496  0.6147 -0.3833
  868MPD2    N112799   0.952   1.650  13.500  0.2530  0.0466 -0.5261
  868MPD2    H712800   1.010   1.724  13.462  1.6488 -1.7488 -1.9048
  869MPD2     C12801   1.813   3.988   0.606 -0.5115 -0.5015  0.0624
  869MPD2    C112802   1.749   4.016   0.724  0.2305 -0.4685 -0.4880
  869MPD2    C212803   1.789   4.128   0.790  0.0379 -0.0387  0.6533
  869MPD2    C312804   1.905   4.201   0.757 -0.0221  0.2044  0.2577
  869MPD2    C412805   1.968   4.167   0.641 -0.2099 -0.1968  0.4338
  869MPD2    C512806   1.924   4.061   0.570  0.4740 -0.4511  0.1055
  869MPD2     H12807   1.739   4.150   0.883 -0.7556 -0.4694  0.3295
  869MPD2    H112808   2.061   4.218   0.618 -0.8087  0.8892  0.4101
  869MPD2    H212809   1.776   3.906   0.545  0.2626 -0.1216 -0.9312
  869MPD2    H312810   1.994   4.033   0.492  0.1371 -0.0648 -0.3411
  869MPD2     N12811   1.964   4.309   0.821  0.0063  0.5855  0.9908
  869MPD2    H512812   2.053   4.350   0.794 -0.8596  1.7073 -0.1643
  869MPD2    N112813   1.639   3.934   0.772  0.1603  0.4903  0.4039
  869MPD2    H712814   1.589   3.964   0.854 -0.5611 -0.5739  0.3592
  870MPD2     C12815   2.608   4.063   1.764 -0.3017 -0.2030  0.0435
  870MPD2    C112816   2.578   3.944   1.712  1.0511 -0.2900 -0.2792
  870MPD2    C212817   2.445   3.924   1.663  0.6799  0.6892 -0.4430
  870MPD2    C312818   2.356   4.032   1.655 -0.1916 -0.5218  0.7292
  870MPD2    C412819   2.397   4.151   1.701 -0.9510  0.0112  0.0980
  870MPD2    C512820   2.526   4.171   1.751  0.0651  0.6061 -0.4602
  870MPD2     H12821   2.419   3.827   1.624 -0.3141  1.0656 -0.7021
  870MPD2    H112822   2.347   4.247   1.701 -3.0420 -1.0748  1.2316
  870MPD2    H212823   2.699   4.091   1.815  0.5972  1.1400 -2.2619
  870MPD2    H312824   2.564   4.270   1.776  1.1503 -0.0885  0.6334
  870MPD2     N12825   2.230   4.008   1.602 -0.2273 -0.1553 -0.1399
  870MPD2    H512826   2.222   3.919   1.555 -1.6950 -0.4148  0.6132
  870MPD2    N112827   2.674   3.841   1.722  0.0004 -0.2538 -0.4325
  870MPD2    H712828   2.765   3.876   1.746  0.1304 -0.4118 -0.6904
  871MPD2     C12829   3.001   2.457  17.102  0.0411  0.3658 -0.0178
  871MPD2    C112830   3.018   2.485  17.238  0.2799  0.5139 -0.5286
  871MPD2    C212831   3.068   2.386  17.317  0.9770  0.0825 -0.3766
  871MPD2    C312832   3.102   2.259  17.271 -0.0481  0.5616  0.3919
  871MPD2    C412833   3.085   2.229  17.137  0.7333  0.3880  0.6097
  871MPD2    C512834   3.039   2.329  17.055  0.1360  0.9980  0.4857
  871MPD2     H12835   3.088   2.401  17.422  2.0105 -0.4848 -0.4998
  871MPD2    H112836   3.111   2.136  17.087 -1.7202 -0.3408  0.6678
  871MPD2    H212837   2.965   2.533  17.033  0.1152  0.2419 -0.1918
  871MPD2    H312838   3.027   2.302  16.951  1.7764  1.0480  0.2943
  871MPD2     N12839   3.148   2.156  17.358  0.1647 -0.7870  0.4607
  871MPD2    H512840   3.151   2.183  17.456 -0.3985  2.4866 -0.4015
  871MPD2    N112841   2.968   2.610  17.286  0.1807  0.0038 -0.2912
  871MPD2    H712842   2.929   2.671  17.215 -0.1789  1.7542  1.4244
  872MPD2     C12843   3.942   0.286  14.510  0.2534 -0.3099 -0.2447
  872MPD2    C112844   3.908   0.276  14.375 -0.8004 -0.5246 -0.1003
  872MPD2    C212845   3.771   0.257  14.342 -0.1202 -0.4313  0.7047
  872MPD2    C312846   3.677   0.240  14.440 -0.9130 -0.2493  0.2898
  872MPD2    C412847   3.710   0.254  14.573  0.2063 -0.0116  0.2919
  872MPD2    C512848   3.843   0.281  14.607 -0.5919  0.0219 -0.1202
  872MPD2     H12849   3.748   0.247  14.236 -0.7229  1.3683  0.6573
  872MPD2    H112850   3.633   0.260  14.649  0.1853 -1.8519  0.3981
  872MPD2    H212851   4.041   0.318  14.539  0.0206  1.7270 -1.6474
  872MPD2    H312852   3.869   0.285  14.712 -0.1465  2.0082 -0.2955
  872MPD2     N12853   3.533   0.236  14.410  0.6512 -0.1596  0.0927
  872MPD2    H512854   3.469   0.228  14.489  0.2334 -1.9363 -0.4266
  872MPD2    N112855   3.998   0.280  14.270 -0.2916  0.0726  0.4150
  872MPD2    H712856   3.963   0.270  14.176 -2.6043  1.3802  1.1301
  873MPD2     C12857   0.311   0.990   1.117  1.0291  0.2266 -0.9331
  873MPD2    C112858   0.442   0.991   1.159  0.1656  0.0957 -0.0652
  873MPD2    C212859   0.545   0.954   1.069 -0.2143  0.3285 -0.2754
  873MPD2    C312860   0.516   0.909   0.942 -0.0554 -0.0137  0.2320
  873MPD2    C412861   0.387   0.908   0.899  0.1971  0.7608  0.6061
  873MPD2    C512862   0.284   0.948   0.986  0.1455 -0.3078  0.1778
  873MPD2     H12863   0.645   0.971   1.106 -0.8624  1.6411  0.9044
  873MPD2    H112864   0.365   0.876   0.798  1.1613  2.1228 -0.0474
  873MPD2    H212865   0.226   1.025   1.173  0.8540 -2.6481  0.5945
  873MPD2    H312866   0.179   0.943   0.959  0.0858 -0.6707  0.4632
  873MPD2     N12867   0.608   0.860   0.849  0.5185 -0.1443  0.0790
  873MPD2    H512868   0.576   0.822   0.761  0.5679  2.1586 -0.9185
  873MPD2    N112869   0.477   1.043   1.287 -0.3742  0.7481 -0.5323
  873MPD2    H712870   0.397   1.081   1.337 -1.7248 -2.6304 -0.0632
  874MPD2     C12871   0.583   0.613  16.324  0.5426  0.8558 -0.1012
  874MPD2    C112872   0.579   0.630  16.462 -0.5164  0.1103  0.1126
  874MPD2    C212873   0.685   0.696  16.519 -0.0775 -0.1695 -0.0897
  874MPD2    C312874   0.796   0.735  16.447  0.0748  0.0762 -0.0982
  874MPD2    C412875   0.796   0.721  16.307  0.0549  0.5038 -0.2753
  874MPD2    C512876   0.690   0.660  16.249 -0.4408  0.1942 -0.0862
  874MPD2     H12877   0.671   0.732  16.620  0.6781 -1.1882  0.3692
  874MPD2    H112878   0.881   0.741  16.244 -1.9086  2.7360 -2.2570
  874MPD2    H212879   0.494   0.577  16.274 -0.4228  1.9048  0.8624
  874MPD2    H312880   0.681   0.637  16.143 -1.4287  3.1129 -0.6364
  874MPD2     N12881   0.911   0.791  16.512 -0.2587  0.2358  0.0551
  874MPD2    H512882   0.912   0.799  16.613  0.8805  0.5831  0.0187
  874MPD2    N112883   0.468   0.585  16.530  0.4573 -0.4009 -0.1812
  874MPD2    H712884   0.387   0.557  16.476  0.4052 -1.6389  0.5204
  875MPD2     C12885   1.585   3.472  14.477  0.0150  0.1492  0.3374
  875MPD2    C112886   1.462   3.449  14.526 -0.2419 -0.3877  0.1462
  875MPD2    C212887   1.438   3.449  14.660  0.3427  0.3313  0.0888
  875MPD2    C312888   1.537   3.456  14.752 -0.0643 -0.0708  0.0121
  875MPD2    C412889   1.667   3.479  14.708  0.1140 -0.3481 -0.2625
  875MPD2    C512890   1.688   3.481  14.571 -0.0747  0.0649  0.0306
  875MPD2     H12891   1.338   3.421  14.691  0.5565  0.4445  0.8760
  875MPD2    H112892   1.741   3.507  14.782 -2.3448  0.7352  1.7910
  875MPD2    H212893   1.611   3.468  14.372 -2.0539  1.5212 -0.2095
  875MPD2    H312894   1.790   3.488  14.533  0.0990  0.9231  0.6611
  875MPD2     N12895   1.521   3.452  14.894  0.3842  0.3141 -0.4441
  875MPD2    H512896   1.602   3.482  14.948  1.0210 -0.9166 -0.7150
  875MPD2    N112897   1.351   3.424  14.438 -0.2127  1.4972  0.2986
  875MPD2    H712898   1.263   3.397  14.478 -0.1766 -1.6822 -1.8202
  876MPD2     C12899   0.286   4.542  16.186 -0.2351 -0.7267  0.3196
  876MPD2    C112900   0.415   4.560  16.231  0.3801  0.2729  0.6003
  876MPD2    C212901   0.491   4.445  16.260 -1.1905  0.2179  0.2358
  876MPD2    C312902   0.430   4.322  16.267  0.5889  0.0832 -0.7439
  876MPD2    C412903   0.301   4.310  16.223 -0.3038 -0.3401  0.3419
  876MPD2    C512904   0.234   4.422  16.180  0.1935  0.4982  0.0426
  876MPD2     H12905   0.590   4.447  16.305 -0.8750 -0.5595 -0.4199
  876MPD2    H112906   0.261   4.209  16.217  0.5043 -0.6485  0.0964
  876MPD2    H212907   0.226   4.627  16.155  2.6582  1.0975 -0.3112
  876MPD2    H312908   0.129   4.413  16.155  0.5540  0.7935 -1.5441
  876MPD2     N12909   0.506   4.212  16.325  0.6023  0.5513 -0.3942
  876MPD2    H512910   0.605   4.226  16.344  0.4842 -1.1471  1.5398
  876MPD2    N112911   0.467   4.690  16.231  0.7505 -0.0246 -0.7044
  876MPD2    H712912   0.406   0.038  16.223 -0.3014 -0.7106  0.2600
  877MPD2     C12913   0.193   0.359  15.826 -0.2652  0.2897  0.6131
  877MPD2    C112914   0.325   0.395  15.823  0.7385 -0.3224 -0.2983
  877MPD2    C212915   0.378   0.438  15.706  0.1055 -0.0454 -0.6937
  877MPD2    C312916   0.311   0.445  15.586 -0.2091 -0.6064 -0.5068
  877MPD2    C412917   0.181   0.391  15.588 -0.7338 -0.5863  0.4266
  877MPD2    C512918   0.128   0.354  15.709 -0.1143 -0.1831 -0.2894
  877MPD2     H12919   0.481   0.474  15.707 -0.7407  2.4145 -1.4248
  877MPD2    H112920   0.128   0.386  15.494  0.9410  1.8470 -0.6470
  877MPD2    H212921   0.143   0.326  15.916 -0.8682  1.0075  0.5393
  877MPD2    H312922   0.027   0.316  15.697 -0.3133  0.6195 -1.1556
  877MPD2     N12923   0.369   0.479  15.463  0.3031 -0.2607 -0.3874
  877MPD2    H512924   0.323   0.457  15.375  0.5395  0.4796 -0.7007
  877MPD2    N112925   0.407   0.389  15.933  0.0779 -0.4877 -0.1580
  877MPD2    H712926   0.506   0.406  15.926 -0.1077  1.2881  1.7898
  878MPD2     C12927   4.104   4.059  13.738  0.4985 -0.3677 -1.0542
  878MPD2    C112928   4.232   4.037  13.692 -0.3160 -0.0182 -0.3133
  878MPD2    C212929   4.338   4.030  13.778  0.9281 -0.4120 -0.0943
  878MPD2    C312930   4.318   4.042  13.915  0.3973 -0.5597 -0.0820
  878MPD2    C412931   4.186   4.068  13.959  0.1851  0.5284 -0.7754
  878MPD2    C512932   4.081   4.084  13.873  0.1909  0.4784  0.1129
  878MPD2     H12933   4.440   4.017  13.742  0.0608 -0.5286 -2.4872
  878MPD2    H112934   4.169   4.085  14.065  2.9138  0.8499 -0.3778
  878MPD2    H212935   4.024   4.046  13.666 -0.7040 -0.3340  0.2977
  878MPD2    H312936   3.987   4.106  13.922  0.1431 -2.2268  1.2480
  878MPD2     N12937   4.423   4.017  14.012  0.4497  0.5647 -0.1053
  878MPD2    H512938   4.509   3.976  13.977  0.5400 -0.2216  1.0476
  878MPD2    N112939   4.246   4.019  13.548  0.3497 -0.1244 -0.2615
  878MPD2    H712940   4.153   4.024  13.508  0.4605  2.0186 -0.2613
  879MPD2     C12941   0.963   1.377  17.342  0.0517 -0.3163 -0.4433
  879MPD2    C112942   0.841   1.337  17.395 -0.2689  0.5675 -0.8442
  879MPD2    C212943   0.783   1.221  17.348  0.5516 -0.0708  0.5429
  879MPD2    C312944   0.844   1.145  17.244  0.3712  0.2776 -0.5540
  879MPD2    C412945   0.959   1.196  17.187 -0.2835  0.0045  0.0052
  879MPD2    C512946   1.017   1.309  17.240 -0.3467 -0.1711  0.3687
  879MPD2     H12947   0.682   1.192  17.377  0.1668  0.7809  0.0551
  879MPD2    H112948   1.004   1.147  17.101  1.4626 -0.2642  1.0722
  879MPD2    H212949   1.010   1.467  17.379  0.2485  0.0551 -1.6066
  879MPD2    H312950   1.105   1.345  17.190 -0.4793  0.5278  0.6354
  879MPD2     N12951   0.775   1.038  17.183  0.1122  0.8171 -0.2387
  879MPD2    H512952   0.812   1.004  17.095 -1.8611  0.8105 -1.0782
  879MPD2    N112953   0.789   1.422  17.495  0.2046 -0.6180  0.0687
  879MPD2    H712954   0.849   1.502  17.514 -1.6646  0.6759  0.4973
  880MPD2     C12955   1.732   2.717   0.481  0.2222  0.7687  0.6787
  880MPD2    C112956   1.769   2.786   0.593  0.4702  0.0132  0.3579
  880MPD2    C212957   1.878   2.741   0.674  0.2104 -0.3325  0.1083
  880MPD2    C312958   1.957   2.636   0.630 -0.1770  0.0811  0.6136
  880MPD2    C412959   1.920   2.571   0.511 -0.2091  0.1538 -0.6126
  880MPD2    C512960   1.813   2.610   0.443  0.2071 -0.6309 -0.2527
  880MPD2     H12961   1.908   2.786   0.769  1.0615  0.5149 -0.5509
  880MPD2    H112962   1.973   2.484   0.474  1.6022  0.6891  0.7325
  880MPD2    H212963   1.661   2.750   0.406  0.1858 -0.3149  0.2302
  880MPD2    H312964   1.786   2.556   0.352  0.0551 -0.3390 -0.3800
  880MPD2     N12965   2.078   2.610   0.705 -0.2691  0.0993 -0.2383
  880MPD2    H512966   2.110   2.672   0.778  1.1968  0.7656 -1.4363
  880MPD2    N112967   1.701   2.908   0.624  0.0228 -0.0615 -0.2513
  880MPD2    H712968   1.640   2.946   0.553 -0.3241  0.7454  0.4804
  881MPD2     C12969   2.018   3.702   0.192  0.3773 -0.2325 -0.1863
  881MPD2    C112970   2.006   3.565   0.178 -0.0679 -0.2703 -0.4047
  881MPD2    C212971   1.918   3.506   0.270 -0.8734  0.0909 -0.1475
  881MPD2    C312972   1.879   3.562   0.389 -0.4521  0.2004  0.3067
  881MPD2    C412973   1.918   3.693   0.413  0.4831  0.0712  0.2358
  881MPD2    C512974   1.974   3.761   0.311  0.0738 -0.0099  0.2203
  881MPD2     H12975   1.891   3.402   0.257  2.0758 -0.6403 -0.4180
  881MPD2    H112976   1.898   3.746   0.506  1.9782 -0.3532  0.7962
  881MPD2    H212977   2.080   3.768   0.134 -0.6537  0.0656 -0.9367
  881MPD2    H312978   2.010   3.861   0.329 -2.6749  1.4345 -2.3064
  881MPD2     N12979   1.802   3.495   0.483 -0.1345  0.2679  0.6451
  881MPD2    H512980   1.788   3.548   0.568  1.9076 -0.6314  1.5414
  881MPD2    N112981   2.041   3.508   0.056 -0.2503  0.2810 -0.7638
  881MPD2    H712982   2.101   3.565  17.727  1.0644  0.1468  0.4226
  882MPD2     C12983   0.415   0.350  14.682 -0.2089 -0.0578  0.1186
  882MPD2    C112984   0.351   0.380  14.798  0.8161 -0.0607  0.2058
  882MPD2    C212985   0.245   0.306  14.841 -0.4242 -0.1629  0.0391
  882MPD2    C312986   0.201   0.204  14.760  0.0835 -0.1771  0.0901
  882MPD2    C412987   0.265   0.171  14.642 -0.0117 -0.2932  0.5238
  882MPD2    C512988   0.375   0.244  14.601 -0.3254  0.1470 -0.3923
  882MPD2     H12989   0.209   0.322  14.942 -0.9678 -2.3892  0.2015
  882MPD2    H112990   0.232   0.086  14.584 -0.8871  0.2324  0.2456
  882MPD2    H212991   0.510   0.399  14.662 -0.4459 -0.0983 -1.0675
  882MPD2    H312992   0.432   0.218  14.513  2.5707  1.5322  1.0947
  882MPD2     N12993   0.101   0.115  14.798  0.0629 -0.2478 -0.4116
  882MPD2    H512994   0.051   0.063  14.727 -1.0535 -0.6885  0.7076
  882MPD2    N112995   0.403   0.485  14.878  0.2749 -0.5449  0.5234
  882MPD2    H712996   0.495   0.516  14.849 -0.3012  0.3576 -0.3111
  883MPD2     C12997   2.431   4.579  15.999 -0.0117 -0.2257 -0.2674
  883MPD2    C112998   2.359   4.697  16.020 -0.1730 -0.3647  0.1360
  883MPD2    C212999   2.373   0.043  16.135 -0.1491 -0.2240 -0.2479
  883MPD2    C313000   2.462   0.005  16.233 -0.4863 -0.9775  0.7047
  883MPD2    C413001   2.538   4.622  16.210 -0.0320 -1.0461  0.0909
  883MPD2    C513002   2.525   4.551  16.095  0.5235 -0.3099 -0.1267
  883MPD2     H13003   2.315   0.133  16.153 -3.6600 -2.1984 -1.7429
  883MPD2    H113004   2.610   4.584  16.282  0.1679 -2.1078 -0.6770
  883MPD2    H213005   2.401   4.522  15.912 -1.7603  2.1799 -1.2265
  883MPD2    H313006   2.583   4.461  16.079 -0.2694 -0.8689  0.1247
  883MPD2     N13007   2.463   0.084  16.355  0.4758  0.0448  0.4090
  883MPD2    H513008   2.389   0.150  16.375  0.4359 -0.0082  0.4357
  883MPD2    N113009   2.252   0.014  15.933  0.1846 -0.5015  0.1114
  883MPD2    H713010   2.209   0.098  15.969  3.1738  0.9890  0.2740
  884MPD2     C13011   4.435   1.162  15.627 -0.4248  0.5494 -0.2656
  884MPD2    C113012   4.379   1.195  15.505 -0.1351  0.0499  0.1405
  884MPD2    C213013   4.241   1.202  15.503 -0.1697 -0.1185 -0.1624
  884MPD2    C313014   4.169   1.199  15.619 -0.1310 -0.2566  0.1913
  884MPD2    C413015   4.229   1.161  15.739  0.1374 -0.2364  0.2215
  884MPD2    C513016   4.360   1.151  15.746 -0.0542  1.1988 -0.0387
  884MPD2     H13017   4.182   1.216  15.413 -0.9555  0.9911  0.5252
  884MPD2    H113018   4.172   1.145  15.830 -2.0338  0.6616 -0.9946
  884MPD2    H213019   4.541   1.139  15.635 -0.3289  1.2382  0.4718
  884MPD2    H313020   4.415   1.120  15.834 -1.3410 -1.2693 -0.0988
  884MPD2     N13021   4.031   1.230  15.618 -0.6035  0.0265  0.0752
  884MPD2    H513022   3.993   1.271  15.533  0.7670 -0.3778 -0.7219
  884MPD2    N113023   4.448   1.197  15.378  0.0140  0.5654  0.1077
  884MPD2    H713024   4.389   1.203  15.295  1.6391  0.2364 -1.0596
  885MPD2     C13025   2.386   1.503   0.703 -0.5843 -0.3588 -0.4227
  885MPD2    C113026   2.480   1.430   0.642 -0.6791 -0.4240  0.6600
  885MPD2    C213027   2.490   1.433   0.501 -0.1045 -0.3235 -0.2294
  885MPD2    C313028   2.399   1.497   0.424  0.0484 -0.1346  0.2954
  885MPD2    C413029   2.310   1.581   0.492  0.2757 -0.4211  0.2211
  885MPD2    C513030   2.309   1.579   0.627  0.1049  0.0722  0.2788
  885MPD2     H13031   2.572   1.381   0.452  0.5284 -0.2164  0.7266
  885MPD2    H113032   2.243   1.657   0.454  2.2559  1.9977  1.5173
  885MPD2    H213033   2.389   1.529   0.809  0.6128 -0.4212 -0.4324
  885MPD2    H313034   2.242   1.647   0.680  0.5315 -0.6855  1.7934
  885MPD2     N13035   2.415   1.508   0.282 -0.4441 -0.0976  0.2247
  885MPD2    H513036   2.496   1.471   0.233  0.7309  0.9469  1.3689
  885MPD2    N113037   2.582   1.387   0.720 -0.2691 -0.3208  0.1091
  885MPD2    H713038   2.573   1.407   0.819  0.9472  2.6278 -0.3883
  886MPD2     C13039   3.918   4.393  15.379  0.0959  0.7519  0.1994
  886MPD2    C113040   3.982   4.449  15.486  0.3306  0.4650 -0.4840
  886MPD2    C213041   3.944   4.576  15.524  0.8332  0.3598 -0.1813
  886MPD2    C313042   3.844   4.647  15.458 -0.6899 -0.2459 -0.7171
  886MPD2    C413043   3.792   4.590  15.342  0.4655 -0.2237 -0.2807
  886MPD2    C513044   3.836   4.470  15.303 -0.6000 -0.0424 -0.0979
  886MPD2     H13045   4.002   4.623  15.603  1.8288 -0.4077 -0.4598
  886MPD2    H113046   3.716   4.637  15.280  1.1619 -0.2421 -1.1433
  886MPD2    H213047   3.937   4.295  15.337 -1.1718  0.0796  1.1863
  886MPD2    H313048   3.801   4.427  15.210 -1.9372 -0.0885  0.4222
  886MPD2     N13049   3.801   0.042  15.483 -0.8868  0.3716  0.4425
  886MPD2    H513050   3.770   0.098  15.405 -0.3525 -0.5176 -0.4045
  886MPD2    N113051   4.080   4.380  15.559  0.7292  0.4980 -0.6885
  886MPD2    H713052   4.116   4.427  15.641 -1.2069  0.9475 -0.1087
  887MPD2     C13053   4.499   4.387  16.161  0.1437  0.1020 -0.1398
  887MPD2    C113054   4.461   4.448  16.044 -0.2485 -0.4182  0.1469
  887MPD2    C213055   4.499   4.577  16.011 -0.0270  0.0196 -0.1451
  887MPD2    C313056   4.564   4.658  16.103  0.0761  0.8717  0.5611
  887MPD2    C413057   4.597   4.601  16.226  0.1171  0.2391 -0.7999
  887MPD2    C513058   4.567   4.467  16.255 -0.1022  0.4424  0.4018
  887MPD2     H13059   4.466   4.622  15.918  0.3727  1.3201  0.3342
  887MPD2    H113060   4.644   4.661  16.304  0.2635  1.1459 -1.5880
  887MPD2    H213061   4.467   4.287  16.187 -0.6863  0.6054  0.7843
  887MPD2    H313062   4.580   4.430  16.356 -0.6172 -1.9671 -0.4146
  887MPD2     N13063   4.594   0.058  16.070  1.1130  0.1972 -0.2120
  887MPD2    H513064   4.563   0.089  15.978 -0.0973 -0.3540  0.0150
  887MPD2    N113065   4.394   4.381  15.939 -0.1840  0.4862  0.8445
  887MPD2    H713066   4.377   4.436  15.856  1.7074  0.0787  0.1963
  888MPD2     C13067   1.349   4.623  14.890 -0.3402  0.4848  0.0113
  888MPD2    C113068   1.339   4.697  15.007 -0.0059 -0.1315  0.4587
  888MPD2    C213069   1.393   0.094  15.013  0.3150 -0.4289  0.1216
  888MPD2    C313070   1.456   0.143  14.899  0.5694  0.2568  0.4360
  888MPD2    C413071   1.439   0.075  14.776  0.6395  0.7043  0.3337
  888MPD2    C513072   1.389   4.683  14.775  0.0964 -0.1336  0.1724
  888MPD2     H13073   1.399   0.155  15.102 -0.4586 -0.9603  0.5420
  888MPD2    H113074   1.471   0.119  14.682 -1.1783 -0.2903 -0.7545
  888MPD2    H213075   1.307   4.524  14.879 -1.3435  0.8986  0.0885
  888MPD2    H313076   1.365   4.640  14.679  0.9912  1.3298 -0.7046
  888MPD2     N13077   1.535   0.260  14.915 -0.2595 -0.1712  0.2702
  888MPD2    H513078   1.522   0.316  14.999 -1.9280 -0.5743  0.2825
  888MPD2    N113079   1.255   4.646  15.106 -0.1119 -0.4735 -0.0102
  888MPD2    H713080   1.261   4.704  15.189 -1.5730  0.4923 -0.6003
  889MPD2     C13081   0.886   3.516  13.834  0.4599 -0.0249 -0.3092
  889MPD2    C113082   0.945   3.551  13.715 -0.0124  0.4219 -0.2158
  889MPD2    C213083   0.969   3.683  13.697  0.3052 -0.2650  0.0176
  889MPD2    C313084   0.951   3.777  13.798  0.3285  0.4048 -0.1065
  889MPD2    C413085   0.878   3.746  13.910  0.7128  0.1106 -0.2477
  889MPD2    C513086   0.843   3.616  13.927 -0.2860  0.1161  0.5311
  889MPD2     H13087   1.016   3.714  13.604  1.5019  0.2947  0.8042
  889MPD2    H113088   0.852   3.819  13.985 -2.9082 -1.3883 -0.0125
  889MPD2    H213089   0.876   3.413  13.866 -0.7969 -0.0129 -0.6496
  889MPD2    H313090   0.806   3.583  14.024  0.1793 -0.8150  0.3912
  889MPD2     N13091   0.990   3.908  13.767 -0.4148 -0.1684  0.9801
  889MPD2    H513092   1.029   3.932  13.676 -1.3851 -0.0486  0.5951
  889MPD2    N113093   1.015   3.465  13.631 -0.1566  0.0736  0.2753
  889MPD2    H713094   1.084   3.492  13.562 -0.4038 -1.1828 -0.4506
  890MPD2     C13095   0.239   1.114  14.815  0.6851 -0.0321 -0.0711
  890MPD2    C113096   0.373   1.145  14.811  0.8630 -0.2648  0.8864
  890MPD2    C213097   0.454   1.089  14.910  0.1085  0.4783  0.6050
  890MPD2    C313098   0.395   1.023  15.020 -0.1586  0.3610  0.1197
  890MPD2    C413099   0.263   0.996  15.025  0.2605 -0.2423  1.0720
  890MPD2    C513100   0.189   1.044  14.923  0.0883  0.2391  0.1184
  890MPD2     H13101   0.558   1.118  14.906 -0.4744  2.2146 -1.3696
  890MPD2    H113102   0.211   0.951  15.109 -1.0885  2.0262  1.4604
  890MPD2    H213103   0.160   1.151  14.749 -0.2475 -0.6167  0.7189
  890MPD2    H313104   0.085   1.019  14.940 -0.5224  0.2654 -3.6775
  890MPD2     N13105   0.487   0.985  15.122  0.0362  0.0064  0.8137
  890MPD2    H513106   0.584   1.015  15.124 -0.6930  2.2674  2.4273
  890MPD2    N113107   0.427   1.221  14.710 -0.0710 -0.1904 -0.1637
  890MPD2    H713108   0.366   1.263  14.640  1.0697  0.7168 -0.6141
  891MPD2     C13109   3.390   4.291  16.670  0.0644  1.0899 -0.0315
  891MPD2    C113110   3.292   4.259  16.769  0.5956 -0.6196 -0.6047
  891MPD2    C213111   3.331   4.201  16.885 -0.6660  0.0755  0.0023
  891MPD2    C313112   3.461   4.144  16.887  0.2563 -0.7305  0.5021
  891MPD2    C413113   3.560   4.177  16.792 -0.3804 -0.0566  0.2251
  891MPD2    C513114   3.521   4.256  16.688  0.2553 -0.1034  0.0039
  891MPD2     H13115   3.262   4.186  16.967 -1.4588 -2.6100 -1.1626
  891MPD2    H113116   3.663   4.145  16.794 -0.1241  0.6019 -1.9172
  891MPD2    H213117   3.362   4.340  16.577 -1.5147  0.2044 -0.0316
  891MPD2    H313118   3.588   4.292  16.611 -0.8997 -0.9987 -1.3998
  891MPD2     N13119   3.500   4.071  17.008  0.4758  0.1617  0.4292
  891MPD2    H513120   3.438   4.057  17.087 -2.6483 -3.2568 -2.6382
  891MPD2    N113121   3.156   4.292  16.739  0.5093 -0.6056 -0.9036
  891MPD2    H713122   3.144   4.351  16.657  1.9988  2.6527  1.1999
  892MPD2     C13123   4.279   0.544  15.456 -0.7100 -0.9209 -0.1222
  892MPD2    C113124   4.221   0.525  15.335 -0.3116 -0.7752 -0.2690
  892MPD2    C213125   4.286   0.460  15.235 -0.0171  0.1563  0.5811
  892MPD2    C313126   4.413   0.414  15.257 -0.2943 -0.0248  0.2070
  892MPD2    C413127   4.477   0.440  15.375  0.5267  0.5918  0.0175
  892MPD2    C513128   4.407   0.500  15.475 -0.1898 -0.1750 -0.3218
  892MPD2     H13129   4.225   0.450  15.146 -0.2921  0.3950  0.7413
  892MPD2    H113130   4.567   0.382  15.392 -0.1670  0.2261  2.5073
  892MPD2    H213131   4.235   0.595  15.541 -2.9163  0.9443 -2.3533
  892MPD2    H313132   4.452   0.519  15.571  1.5421 -0.2782 -1.1209
  892MPD2     N13133   4.463   0.315  15.172 -0.2815  0.7398 -0.0734
  892MPD2    H513134   4.553   0.275  15.197 -0.8501  0.2142  1.1525
  892MPD2    N113135   4.084   0.544  15.308 -0.4327  0.2721 -0.4165
  892MPD2    H713136   4.054   0.516  15.216  0.4987  1.1472 -0.9946
  893MPD2     C13137   0.928   0.238   1.311 -0.5063 -0.2465 -0.1163
  893MPD2    C113138   0.984   0.171   1.421  0.0559 -0.8503  0.1040
  893MPD2    C213139   0.917   0.157   1.542  0.1140  0.9312  0.3341
  893MPD2    C313140   0.781   0.187   1.535  0.2146 -0.3891  0.3015
  893MPD2    C413141   0.725   0.247   1.423 -0.0727  0.0867 -0.2808
  893MPD2    C513142   0.800   0.267   1.311  0.9533 -0.8131  0.0130
  893MPD2     H13143   0.957   0.106   1.629 -0.7933 -0.7031 -0.2085
  893MPD2    H113144   0.619   0.269   1.424 -0.2986 -1.0033 -0.8069
  893MPD2    H213145   0.985   0.264   1.223 -1.6054 -2.0342 -1.3463
  893MPD2    H313146   0.753   0.310   1.223  1.4348 -0.0787  0.1089
  893MPD2     N13147   0.688   0.154   1.632  0.4744  0.3471 -0.0300
  893MPD2    H513148   0.593   0.187   1.618  0.2130 -0.3388  0.1450
  893MPD2    N113149   1.117   0.124   1.404 -0.2973  0.0571 -0.4738
  893MPD2    H713150   1.167   0.126   1.316  1.0191  0.8464  0.2971
  894MPD2     C13151   4.414   2.365   1.985 -0.3838  0.5246 -0.3048
  894MPD2    C113152   4.366   2.303   1.872  0.1063  0.2386 -0.5545
  894MPD2    C213153   4.369   2.371   1.751  0.1966 -0.6812  0.5769
  894MPD2    C313154   4.417   2.502   1.743 -0.0027  0.7923 -0.2089
  894MPD2    C413155   4.477   2.560   1.861 -0.2574 -0.4813 -0.3713
  894MPD2    C513156   4.463   2.496   1.980  0.1194  0.3009 -0.3987
  894MPD2     H13157   4.331   2.321   1.662 -2.1319  0.0725  1.1657
  894MPD2    H113158   4.492   2.666   1.876 -1.8540 -0.3879  0.5215
  894MPD2    H213159   4.414   2.322   2.084 -2.3062  0.4940 -0.3184
  894MPD2    H313160   4.494   2.556   2.066  3.0323 -2.2575  0.3347
  894MPD2     N13161   4.413   2.572   1.620 -0.3420 -0.1933 -0.2378
  894MPD2    H513162   4.370   2.520   1.543 -0.0156  0.8943 -1.1462
  894MPD2    N113163   4.316   2.171   1.865 -0.0988  0.0074  0.5686
  894MPD2    H713164   4.272   2.160   1.775  0.5345 -0.4785  0.3279
  895MPD2     C13165   3.314   0.061  13.730  0.2105 -0.0593  0.1220
  895MPD2    C113166   3.355   0.060  13.859  0.0304 -0.5006 -0.4644
  895MPD2    C213167   3.325   4.673  13.932 -0.1026  0.1754  0.2187
  895MPD2    C313168   3.264   4.560  13.872 -0.7605  0.6902 -0.4209
  895MPD2    C413169   3.222   4.572  13.744 -0.2608 -0.2161  0.2913
  895MPD2    C513170   3.248   4.688  13.675  0.5479  0.3963 -0.8007
  895MPD2     H13171   3.364   4.669  14.033 -0.2167 -0.4593  0.2396
  895MPD2    H113172   3.167   4.494  13.693  0.9807 -2.1620  1.9453
  895MPD2    H213173   3.320   0.152  13.672  2.7675 -0.2293  0.1213
  895MPD2    H313174   3.207   4.698  13.576 -2.0660  0.0379  0.2596
  895MPD2     N13175   3.249   4.440  13.949  0.3618  0.3606  0.0136
  895MPD2    H513176   3.263   4.449  14.049  1.9431 -0.3598 -0.1362
  895MPD2    N113177   3.419   0.173  13.922  0.1440  0.4470  0.6623
  895MPD2    H713178   3.430   0.171  14.023  0.8967  1.3617  0.6030
  896MPD2     C13179   1.754   2.977   1.704  0.5636 -0.5564  0.8137
  896MPD2    C113180   1.755   2.919   1.581  0.5426  0.9532  0.5042
  896MPD2    C213181   1.642   2.866   1.528 -0.5176  0.6797 -0.1140
  896MPD2    C313182   1.525   2.869   1.595  1.1856 -0.9467 -0.1254
  896MPD2    C413183   1.524   2.926   1.720  0.0824 -1.0348  1.0356
  896MPD2    C513184   1.637   2.981   1.768 -0.2819  0.8556 -0.1172
  896MPD2     H13185   1.637   2.816   1.432  1.1153  0.3022  0.0036
  896MPD2    H113186   1.429   2.932   1.772  0.2383 -2.9199  1.5212
  896MPD2    H213187   1.841   3.021   1.750 -0.8547  2.8731  0.2186
  896MPD2    H313188   1.633   3.038   1.860  0.5074 -0.5557  0.7820
  896MPD2     N13189   1.420   2.797   1.535 -0.4192 -0.0104 -0.2634
  896MPD2    H513190   1.442   2.753   1.446 -1.9493 -2.3112  0.5170
  896MPD2    N113191   1.886   2.922   1.513 -0.1138  0.2367 -0.0296
  896MPD2    H713192   1.961   2.955   1.573 -1.4821  1.0195  1.2494
  897MPD2     C13193   2.051   4.534  11.215 -0.0949 -0.2170  0.0401
  897MPD2    C113194   1.938   4.516  11.137 -0.3400 -0.0809  0.1005
  897MPD2    C213195   1.833   4.433  11.182 -0.0214 -0.1670  0.2780
  897MPD2    C313196   1.836   4.380  11.309  0.7322 -0.1386  0.6642
  897MPD2    C413197   1.950   4.398  11.384 -0.1240 -0.3819  0.3702
  897MPD2    C513198   2.061   4.467  11.334 -0.4319  0.3146 -0.1132
  897MPD2     H13199   1.739   4.426  11.129  0.7884  0.5518 -1.2435
  897MPD2    H113200   1.969   4.355  11.482  0.5020  0.2435  0.5177
  897MPD2    H213201   2.132   4.597  11.180 -0.8416  0.3377 -0.6841
  897MPD2    H313202   2.152   4.461  11.393 -0.9197 -2.5989  0.3251
  897MPD2     N13203   1.716   4.327  11.362  0.3292 -0.4039 -0.0374
  897MPD2    H513204   1.634   4.338  11.304  0.8266  0.2404 -0.6194
  897MPD2    N113205   1.933   4.574  11.008 -0.2246  0.6690  0.1340
  897MPD2    H713206   2.000   4.647  10.986 -0.3929  0.8323  0.1576
  898MPD2     C13207   3.812   4.134   0.158  0.3394  0.2873 -0.3157
  898MPD2    C113208   3.902   4.232   0.185 -0.6720  0.1906 -0.7919
  898MPD2    C213209   3.880   4.361   0.138  0.6768 -0.5728 -0.0214
  898MPD2    C313210   3.775   4.390   0.054 -0.2717 -0.3609  0.0443
  898MPD2    C413211   3.678   4.289   0.039 -0.1261 -0.3070 -0.0569
  898MPD2    C513212   3.689   4.165   0.105  0.1115  0.6770 -0.5134
  898MPD2     H13213   3.954   4.436   0.164  1.8494 -3.0375  3.6935
  898MPD2    H113214   3.584   4.309  17.718  1.1644  0.0588 -2.2964
  898MPD2    H213215   3.819   4.029   0.186 -0.5140  0.8931  2.1865
  898MPD2    H313216   3.614   4.090   0.084 -0.2790  0.7117  0.7892
  898MPD2     N13217   3.762   4.518   0.001 -0.1243 -0.5949 -0.3855
  898MPD2    H513218   3.832   4.587   0.024  0.6806 -0.9411 -1.8045
  898MPD2    N113219   4.023   4.207   0.256  0.1363 -0.1201  0.1620
  898MPD2    H713220   4.079   4.286   0.287  1.1733 -0.5566 -0.6043
  899MPD2     C13221   0.237   0.522  17.686  0.3767 -1.0208  0.3608
  899MPD2    C113222   0.240   0.644   0.016 -0.7254 -0.2276 -0.3275
  899MPD2    C213223   0.160   0.671   0.121 -0.1435  0.4567 -0.1129
  899MPD2    C313224   0.071   0.572   0.163 -0.0792  0.2196  0.3184
  899MPD2    C413225   0.050   0.460   0.092 -0.0069  0.1693  0.0175
  899MPD2    C513226   0.142   0.436  17.725 -1.0558 -0.1287  0.6370
  899MPD2     H13227   0.159   0.768   0.170 -0.8212 -0.2853  1.3335
  899MPD2    H113228   4.700   0.392   0.110 -1.1185  1.6970  0.5483
  899MPD2    H213229   0.288   0.496  17.594 -1.2898  1.1814 -1.1816
  899MPD2    H313230   0.120   0.346  17.668  1.0041 -0.4782  0.4137
  899MPD2     N13231   4.712   0.595   0.262 -0.7171 -0.0431 -0.3193
  899MPD2    H513232   4.628   0.544   0.284 -2.3490  2.7196 -0.0977
  899MPD2    N113233   0.307   0.745  17.668  0.2273 -0.0536 -0.1021
  899MPD2    H713234   0.376   0.717  17.599  1.6925  0.8498  1.0147
  900MPD2     C13235   4.333   1.952  12.959  0.4869 -0.2636 -0.6092
  900MPD2    C113236   4.236   1.850  12.948  0.5794  0.4821  0.3976
  900MPD2    C213237   4.104   1.886  12.913 -0.1570 -0.3689 -0.4636
  900MPD2    C313238   4.069   2.019  12.880 -0.3264 -0.0611  0.6878
  900MPD2    C413239   4.171   2.113  12.883 -0.3079 -0.2755  0.7053
  900MPD2    C513240   4.294   2.080  12.929 -0.2692  0.3438 -0.3027
  900MPD2     H13241   4.030   1.808  12.903 -1.3693  0.7698 -0.3183
  900MPD2    H113242   4.159   2.216  12.852  4.4870 -0.0957 -0.4496
  900MPD2    H213243   4.430   1.934  13.005 -0.1863 -0.7593  0.6287
  900MPD2    H313244   4.369   2.157  12.939  2.3869 -1.9946 -2.1445
  900MPD2     N13245   3.940   2.052  12.844  0.5548  0.5270 -0.2549
  900MPD2    H513246   3.886   1.966  12.846  1.5148 -0.0715 -0.5132
  900MPD2    N113247   4.279   1.717  12.981  0.4814  0.0714 -0.7065
  900MPD2    H713248   4.374   1.707  13.015  0.3165 -0.9558 -0.5534
  901MPD2     C13249   4.117   0.650  13.227  0.5266 -0.3453  0.1300
  901MPD2    C113250   4.225   0.673  13.143 -0.4418 -0.7383  0.2148
  901MPD2    C213251   4.257   0.806  13.114 -0.2676 -0.4950 -0.0133
  901MPD2    C313252   4.180   0.911  13.163  0.2756  0.1873  0.2757
  901MPD2    C413253   4.074   0.887  13.244  0.1387 -0.3540  0.6505
  901MPD2    C513254   4.050   0.755  13.284 -0.0538  0.3516 -0.5056
  901MPD2     H13255   4.347   0.823  13.054  0.1545 -0.8516  0.5198
  901MPD2    H113256   4.017   0.974  13.274  0.7870 -0.0329  0.9555
  901MPD2    H213257   4.073   0.553  13.251  1.2396 -0.9203 -0.8674
  901MPD2    H313258   3.962   0.738  13.345 -0.3193  0.3445 -0.8922
  901MPD2     N13259   4.224   1.045  13.134  1.0088  0.5244  0.2989
  901MPD2    H513260   4.304   1.052  13.072  0.6263 -1.7589 -0.4323
  901MPD2    N113261   4.290   0.576  13.070  0.1752  0.4352 -0.8880
  901MPD2    H713262   4.363   0.613  13.010  0.5264  3.0609  1.1723
  902MPD2     C13263   3.678   4.673  13.097 -0.1884  0.0776  0.2921
  902MPD2    C113264   3.664   0.018  12.986  0.4630  0.3741 -0.2214
  902MPD2    C213265   3.702   4.705  12.863  0.0537 -0.4459  0.6192
  902MPD2    C313266   3.775   4.584  12.856 -0.8011 -0.0940 -0.1149
  902MPD2    C413267   3.795   4.507  12.972 -0.2201 -0.4349 -0.8533
  902MPD2    C513268   3.747   4.556  13.092 -1.0439 -0.3704 -0.0967
  902MPD2     H13269   3.667   0.017  12.771 -3.8074 -1.8955  1.3857
  902MPD2    H113270   3.849   4.413  12.978  2.1534  0.7986 -2.5927
  902MPD2    H213271   3.643   4.702  13.196 -0.3985 -0.3315  0.3421
  902MPD2    H313272   3.758   4.505  13.188 -0.2446  1.0881  0.5875
  902MPD2     N13273   3.828   4.526  12.733 -0.1538  0.0144 -0.3253
  902MPD2    H513274   3.883   4.441  12.741 -0.2233  0.0005  0.0084
  902MPD2    N113275   3.602   0.144  13.005 -0.2105 -1.0139 -0.0495
  902MPD2    H713276   3.597   0.170  13.103 -0.2249  1.4339 -0.7103
  903MPD2     C13277   3.827   4.668  11.939  0.6599 -0.1925 -0.0487
  903MPD2    C113278   3.782   4.633  12.068 -0.3778  0.3488  0.0352
  903MPD2    C213279   3.647   4.643  12.098  0.1123 -0.0530 -0.4534
  903MPD2    C313280   3.556   4.697  12.004  0.5206  0.3770 -0.4453
  903MPD2    C413281   3.600   4.723  11.874 -0.0450  0.8860 -0.1000
  903MPD2    C513282   3.731   4.699  11.843  0.1903  0.7049 -0.6355
  903MPD2     H13283   3.610   4.613  12.196 -0.7804 -2.0803 -1.4008
  903MPD2    H113284   3.533   0.025  11.797 -3.7722 -0.3590  2.5809
  903MPD2    H213285   3.932   4.663  11.914  0.3941  1.4916 -1.5000
  903MPD2    H313286   3.765   4.720  11.743  1.0347  0.4511 -0.4028
  903MPD2     N13287   3.422   4.717  12.036  0.5561  0.0275  0.1289
  903MPD2    H513288   3.385   4.685  12.125 -2.5033 -0.1358 -1.1856
  903MPD2    N113289   3.869   4.594  12.177 -0.5522 -0.2910  0.6525
  903MPD2    H713290   3.822   4.580  12.266 -1.4590 -0.1469  0.2055
  904MPD2     C13291   2.789   3.730  14.374 -0.1814  0.1427  0.6445
  904MPD2    C113292   2.873   3.822  14.444  0.3161  0.1219  0.2650
  904MPD2    C213293   3.005   3.808  14.431 -0.6422 -0.7054  0.2882
  904MPD2    C313294   3.068   3.704  14.372 -0.0277  0.2468 -0.1645
  904MPD2    C413295   2.987   3.613  14.300 -0.0531  1.4093 -0.6797
  904MPD2    C513296   2.850   3.626  14.301 -1.0298  0.5264  0.2600
  904MPD2     H13297   3.069   3.869  14.494 -0.0913 -0.4172 -0.5442
  904MPD2    H113298   3.035   3.537  14.239 -0.7566  1.6253 -1.5199
  904MPD2    H213299   2.682   3.748  14.371  0.1191  1.6816 -0.9585
  904MPD2    H313300   2.774   3.564  14.254  0.4008 -0.2876 -0.9882
  904MPD2     N13301   3.211   3.702  14.369 -0.4320  0.5102 -0.3992
  904MPD2    H513302   3.253   3.778  14.422 -0.7694  0.0136  0.5932
  904MPD2    N113303   2.831   3.935  14.515  0.0297  0.0857 -0.0916
  904MPD2    H713304   2.905   3.996  14.548 -1.9609  1.3272  2.1337
  905MPD2     C13305   2.414   4.094  14.140 -0.1200 -0.2841  0.0899
  905MPD2    C113306   2.482   4.189  14.208 -0.0489  0.7621  0.3935
  905MPD2    C213307   2.623   4.180  14.208 -0.1930 -0.2596  0.2049
  905MPD2    C313308   2.685   4.078  14.138  0.6720 -0.6062 -0.6847
  905MPD2    C413309   2.614   3.987  14.069  0.2286  0.6201 -0.8556
  905MPD2    C513310   2.479   3.995  14.070  0.0165 -0.5211  0.2261
  905MPD2     H13311   2.678   4.263  14.250  1.1179 -1.6017  1.1561
  905MPD2    H113312   2.665   3.902  14.026  0.8704  1.6028 -2.0282
  905MPD2    H213313   2.307   4.089  14.151 -0.0445 -0.0879  0.8796
  905MPD2    H313314   2.418   3.920  14.021  1.2731 -0.8139 -0.9121
  905MPD2     N13315   2.829   4.072  14.127  0.2868 -0.7880  0.3918
  905MPD2    H513316   2.855   4.008  14.053 -0.2393 -0.3540 -0.1680
  905MPD2    N113317   2.416   4.287  14.288 -0.1642  0.8501  0.3491
  905MPD2    H713318   2.318   4.306  14.268  0.2734  0.8039 -1.8731
  906MPD2     C13319   0.383   4.355  11.866 -0.0938 -0.0102 -0.0730
  906MPD2    C113320   0.284   4.356  11.771  0.1932  0.2005 -0.2300
  906MPD2    C213321   0.166   4.291  11.807  0.1418  0.4464 -0.4232
  906MPD2    C313322   0.144   4.249  11.942 -0.5442 -0.2327  0.2937
  906MPD2    C413323   0.236   4.284  12.035 -0.9307 -0.1304  0.0146
  906MPD2    C513324   0.354   4.325  11.994  0.2395 -0.6021  0.2053
  906MPD2     H13325   0.085   4.278  11.737 -0.1600  0.7804 -0.1378
  906MPD2    H113326   0.213   4.255  12.136 -1.6319 -0.6599 -0.2961
  906MPD2    H213327   0.485   4.383  11.844 -0.4800  1.0517 -0.5048
  906MPD2    H313328   0.426   4.340  12.073 -0.2966  1.9521  0.2203
  906MPD2     N13329   0.022   4.184  11.988 -0.4298 -0.0842  0.2674
  906MPD2    H513330   0.007   4.182  12.088  1.5639  0.6902  0.5969
  906MPD2    N113331   0.296   4.396  11.638  0.5303  0.5290 -0.3957
  906MPD2    H713332   0.215   4.377  11.579  1.9709  0.0677 -2.2208
  907MPD2     C13333   3.963   3.303  16.430 -0.2369 -0.5377  0.5205
  907MPD2    C113334   4.047   3.241  16.335 -0.5805 -0.1029 -0.6094
  907MPD2    C213335   4.151   3.170  16.390 -0.4300  0.4034 -0.2466
  907MPD2    C313336   4.168   3.152  16.525 -0.0981 -0.4925 -0.4768
  907MPD2    C413337   4.084   3.220  16.618 -0.2002  0.3928  0.3935
  907MPD2    C513338   3.984   3.294  16.565  0.9825 -0.4030  0.3579
  907MPD2     H13339   4.224   3.120  16.327 -1.0706  1.3889 -1.7756
  907MPD2    H113340   4.095   3.210  16.725  4.3257 -0.5302 -0.1231
  907MPD2    H213341   3.879   3.365  16.400 -1.0244 -1.2596  1.2233
  907MPD2    H313342   3.931   3.348  16.643 -1.0448 -0.4181 -1.0097
  907MPD2     N13343   4.270   3.056  16.570  0.0948 -0.0608  0.4989
  907MPD2    H513344   4.325   3.012  16.497 -0.5415 -0.0940  0.0382
  907MPD2    N113345   4.041   3.243  16.197  0.1004  0.3475  0.0516
  907MPD2    H713346   4.107   3.192  16.140  0.2704 -0.4575  0.9640
  908MPD2     C13347   1.526   4.432  10.036 -0.0802  0.0063  0.1086
  908MPD2    C113348   1.551   4.343  10.139 -0.8237 -0.2927  0.1191
  908MPD2    C213349   1.616   4.375  10.257 -0.4983 -0.3964 -0.6823
  908MPD2    C313350   1.663   4.501  10.273  0.2166  0.4283 -0.0641
  908MPD2    C413351   1.650   4.593  10.171 -0.6435 -0.0985 -0.8167
  908MPD2    C513352   1.583   4.558  10.055 -0.0131 -0.2781  0.2982
  908MPD2     H13353   1.623   4.314  10.346 -1.2637  0.6699  0.1063
  908MPD2    H113354   1.692   4.693  10.177 -0.6588 -0.1283 -0.1279
  908MPD2    H213355   1.469   4.405   9.948 -1.8606  1.3269  0.8300
  908MPD2    H313356   1.581   4.626   9.970 -2.9522 -0.6578  0.0845
  908MPD2     N13357   1.722   4.537  10.395 -0.2337  0.3043  0.6819
  908MPD2    H513358   1.740   4.462  10.460 -0.4042 -0.5100 -0.2137
  908MPD2    N113359   1.491   4.215  10.119 -0.4455  0.1186 -0.0510
  908MPD2    H713360   1.417   4.201  10.051  0.8279 -2.1179 -0.9804
  909MPD2     C13361   1.654   2.146  11.505  0.0554  0.3512  0.0366
  909MPD2    C113362   1.686   2.273  11.545  0.2821 -0.9379  0.0548
  909MPD2    C213363   1.645   2.327  11.665 -0.2632  0.4886  0.3624
  909MPD2    C313364   1.572   2.244  11.748  0.2857 -0.1775 -0.1131
  909MPD2    C413365   1.540   2.113  11.706  0.3924 -0.2173 -0.3540
  909MPD2    C513366   1.584   2.060  11.588 -0.1518  0.4474  0.5105
  909MPD2     H13367   1.691   2.420  11.696  0.0017  0.6264 -0.4252
  909MPD2    H113368   1.475   2.051  11.767 -0.3339 -1.3620 -2.2921
  909MPD2    H213369   1.679   2.102  11.410  1.7040 -1.1332  1.1629
  909MPD2    H313370   1.553   1.962  11.556  1.4499  0.1600 -0.1801
  909MPD2     N13371   1.530   2.303  11.870 -0.1775 -0.2629 -0.0640
  909MPD2    H513372   1.558   2.398  11.888 -2.3972  0.3725  0.1220
  909MPD2    N113373   1.770   2.353  11.469  0.1293  0.6525  0.1334
  909MPD2    H713374   1.787   2.448  11.500 -1.1382  0.4452  1.4872
  910MPD2     C13375   3.704   3.844  16.595  0.4839  0.1056  0.2752
  910MPD2    C113376   3.661   3.718  16.554 -0.6750 -0.2406 -0.3368
  910MPD2    C213377   3.585   3.713  16.439 -0.1561  0.8021  0.3746
  910MPD2    C313378   3.560   3.822  16.358 -0.3280 -0.1760 -0.0679
  910MPD2    C413379   3.616   3.942  16.400 -0.3762  0.0849 -0.6470
  910MPD2    C513380   3.689   3.951  16.519  0.0606 -0.2873  0.2923
  910MPD2     H13381   3.543   3.620  16.401  1.1448 -0.1745  1.3267
  910MPD2    H113382   3.598   4.030  16.339 -0.0135  1.0655  0.6472
  910MPD2    H213383   3.753   3.856  16.691  1.2289  1.3332 -0.2639
  910MPD2    H313384   3.729   4.043  16.558 -1.3540  0.8773 -1.0291
  910MPD2     N13385   3.467   3.833  16.258  0.3920  0.1421 -0.4122
  910MPD2    H513386   3.475   3.908  16.191  1.3104 -0.2810 -0.7828
  910MPD2    N113387   3.682   3.598  16.632  0.0744  0.2707 -0.2307
  910MPD2    H713388   3.641   3.509  16.603  1.4691 -0.5154  0.1949
  911MPD2     C13389   1.750   4.373  16.452  0.2026  0.1610  0.2137
  911MPD2    C113390   1.779   4.484  16.531  0.1794 -0.0849 -0.3563
  911MPD2    C213391   1.687   4.591  16.549  0.7163  0.1533 -0.4240
  911MPD2    C313392   1.575   4.589  16.470 -0.3590  0.2534  0.0124
  911MPD2    C413393   1.551   4.476  16.387 -0.0122  0.3011 -0.5552
  911MPD2    C513394   1.634   4.365  16.382 -0.1657 -0.2217 -0.0045
  911MPD2     H13395   1.709   4.669  16.621  1.3190 -0.4356  0.0254
  911MPD2    H113396   1.466   4.466  16.321 -0.6716 -1.2534  0.5234
  911MPD2    H213397   1.816   4.286  16.447 -0.3059 -0.2318  0.3471
  911MPD2    H313398   1.615   4.285  16.312  1.7664 -0.7321  0.0653
  911MPD2     N13399   1.472   4.689  16.471  0.0566  0.4855 -0.7552
  911MPD2    H513400   1.391   4.668  16.414 -0.5843 -0.4484  0.4994
  911MPD2    N113401   1.885   4.468  16.622 -0.4716  0.3380 -0.2394
  911MPD2    H713402   1.933   4.379  16.611 -2.1875 -0.5807 -0.3415
  912MPD2     C13403   1.056   0.050  15.905 -0.7392 -0.5033  0.4216
  912MPD2    C113404   1.098   4.732  16.026 -0.3240 -0.3759  0.4352
  912MPD2    C213405   1.090   4.594  16.046 -0.5494  0.7102  0.0439
  912MPD2    C313406   1.045   4.515  15.945 -0.0493  0.4347  0.1023
  912MPD2    C413407   0.999   4.568  15.828  0.0318  0.0532 -0.3654
  912MPD2    C513408   1.013   4.699  15.811  0.2302 -0.2896  0.1491
  912MPD2     H13409   1.109   4.548  16.142 -1.0187 -2.4533 -1.3795
  912MPD2    H113410   0.974   4.515  15.737  0.7958  0.4534 -0.8081
  912MPD2    H213411   1.058   0.157  15.885 -0.5784 -0.2654  1.6939
  912MPD2    H313412   1.002   0.009  15.712 -1.6380 -2.1599 -0.4535
  912MPD2     N13413   1.035   4.374  15.975 -0.0842 -0.2195 -0.4278
  912MPD2    H513414   1.068   4.352  16.068 -1.7526 -2.2496 -0.3264
  912MPD2    N113415   1.140   0.092  16.125  0.3050  0.1914  0.4528
  912MPD2    H713416   1.117   0.189  16.111  1.2060  0.7853  3.1000
  913MPD2     C13417   1.501   0.954  10.560  0.0617  0.3066  0.2599
  913MPD2    C113418   1.563   1.058  10.625  0.2348 -0.0693  0.1271
  913MPD2    C213419   1.605   1.165  10.555  0.7281 -0.5518  0.3063
  913MPD2    C313420   1.567   1.183  10.425  0.9408 -0.2439  0.3728
  913MPD2    C413421   1.482   1.086  10.366 -1.5208  0.1146  0.3544
  913MPD2    C513422   1.463   0.964  10.432 -0.1055 -0.1812 -0.2320
  913MPD2     H13423   1.664   1.240  10.606 -1.4378  1.0261  0.4933
  913MPD2    H113424   1.444   1.097  10.265 -1.4720  1.4885  0.4798
  913MPD2    H213425   1.477   0.859  10.606 -1.1328 -0.8449 -2.7685
  913MPD2    H313426   1.407   0.893  10.371 -0.4799 -0.2989  0.2510
  913MPD2     N13427   1.606   1.298  10.356  0.3220 -0.0012 -0.1412
  913MPD2    H513428   1.552   1.313  10.272 -0.8335  1.2449  0.8235
  913MPD2    N113429   1.592   1.056  10.762  0.0938 -0.1575  0.1337
  913MPD2    H713430   1.654   1.134  10.781 -0.6380  0.3323  0.5172
  914MPD2     C13431   4.259   0.878  12.357 -0.3375  0.7725 -0.5372
  914MPD2    C113432   4.336   0.909  12.470  0.9361  0.7123  0.2985
  914MPD2    C213433   4.385   0.815  12.557  0.2325  1.0271  0.0268
  914MPD2    C313434   4.373   0.682  12.521 -0.7954 -0.9641 -0.0792
  914MPD2    C413435   4.300   0.656  12.411  0.5595 -0.5163 -0.0157
  914MPD2    C513436   4.245   0.749  12.333 -0.0742  0.0527  0.0362
  914MPD2     H13437   4.439   0.839  12.648  0.5791  2.6239 -0.5930
  914MPD2    H113438   4.267   0.558  12.379 -2.3426  1.3804 -2.8556
  914MPD2    H213439   4.229   0.954  12.287  3.2788  1.7923 -0.9774
  914MPD2    H313440   4.189   0.735  12.241  1.0217 -0.5507 -0.5456
  914MPD2     N13441   4.416   0.576  12.607  0.1458  0.0409  0.3624
  914MPD2    H513442   4.447   0.611  12.698 -1.6347 -0.0465  1.0071
  914MPD2    N113443   4.344   1.044  12.505  0.1812  0.2291 -0.4833
  914MPD2    H713444   4.312   1.117  12.441 -1.0504 -0.4787 -0.6841
  915MPD2     C13445   2.778   1.169  16.345  0.7532 -0.5286  0.0133
  915MPD2    C113446   2.687   1.205  16.242 -0.1883 -0.1903  0.3515
  915MPD2    C213447   2.559   1.247  16.280  0.6795  0.3959  0.5042
  915MPD2    C313448   2.528   1.268  16.410  0.3038  0.5535  0.5316
  915MPD2    C413449   2.623   1.246  16.505  0.1279 -0.1352  0.0158
  915MPD2    C513450   2.745   1.190  16.473  0.2892 -0.0350  0.6810
  915MPD2     H13451   2.489   1.262  16.199 -0.3944 -2.1505  0.9293
  915MPD2    H113452   2.586   1.266  16.604  0.4912 -0.8906  0.3064
  915MPD2    H213453   2.875   1.129  16.318  0.6270  0.1879 -1.4761
  915MPD2    H313454   2.819   1.174  16.551  1.5995 -0.0714 -0.5646
  915MPD2     N13455   2.404   1.327  16.445  0.3518 -0.6037  0.4393
  915MPD2    H513456   2.371   1.343  16.540  0.1078  0.2337  0.2155
  915MPD2    N113457   2.717   1.182  16.109  0.2081 -0.1387 -0.7730
  915MPD2    H713458   2.789   1.111  16.098 -0.4722 -0.8158 -0.8940
  916MPD2     C13459   0.807   3.842  15.902  0.4780  0.4324 -0.5198
  916MPD2    C113460   0.862   3.804  16.021 -0.2044 -0.3491 -0.5001
  916MPD2    C213461   0.971   3.718  16.020 -0.0941 -0.1696  0.1640
  916MPD2    C313462   1.038   3.680  15.904 -0.1272 -0.5157 -0.5438
  916MPD2    C413463   0.985   3.726  15.788 -0.1833 -0.7549 -0.6829
  916MPD2    C513464   0.875   3.809  15.790  0.1834 -0.4538 -0.4738
  916MPD2     H13465   0.999   3.664  16.109 -1.3227  1.2510  1.4168
  916MPD2    H113466   1.019   3.687  15.693  0.3415 -1.7360 -0.0970
  916MPD2    H213467   0.723   3.908  15.885  1.4672  1.7866 -0.1951
  916MPD2    H313468   0.834   3.835  15.693  0.6144  0.2059 -0.4759
  916MPD2     N13469   1.139   3.579  15.916  0.6799 -0.2174  0.6310
  916MPD2    H513470   1.142   3.537  16.008 -1.8302 -0.4193  0.6204
  916MPD2    N113471   0.789   3.843  16.140 -0.0858 -0.2404  0.3786
  916MPD2    H713472   0.710   3.902  16.115  1.3441  1.7682  0.5709
  917MPD2     C13473   0.502   1.548  11.652  0.2428 -0.1901  0.0482
  917MPD2    C113474   0.493   1.596  11.782  0.5725  0.2098  0.0450
  917MPD2    C213475   0.527   1.730  11.793  0.3621 -0.2667  0.2276
  917MPD2    C313476   0.579   1.808  11.694  0.4277 -0.1007  1.0574
  917MPD2    C413477   0.586   1.755  11.569  0.3228  0.2825 -0.3586
  917MPD2    C513478   0.536   1.629  11.551  0.6946 -0.3395  0.5328
  917MPD2     H13479   0.520   1.777  11.890 -0.3062 -0.3918  0.2397
  917MPD2    H113480   0.630   1.819  11.493  0.9717 -0.0366 -0.2439
  917MPD2    H213481   0.466   1.448  11.630  1.3408 -0.5337 -0.2031
  917MPD2    H313482   0.530   1.598  11.448  0.8039  1.4512 -0.0240
  917MPD2     N13483   0.647   1.934  11.719 -0.4447  0.1015  0.0908
  917MPD2    H513484   0.693   1.982  11.642 -0.6640  1.9437  1.1144
  917MPD2    N113485   0.434   1.519  11.882  0.1929 -0.5025 -0.6657
  917MPD2    H713486   0.390   1.431  11.857 -0.5579 -0.7455  1.5938
  918MPD2     C13487   0.668   1.776  12.806  0.2378 -0.6288 -0.4499
  918MPD2    C113488   0.689   1.831  12.683  0.7846 -0.3167 -0.2316
  918MPD2    C213489   0.625   1.774  12.572  0.2738 -0.4968 -0.1532
  918MPD2    C313490   0.542   1.668  12.587  0.1759  0.7734  0.1009
  918MPD2    C413491   0.522   1.614  12.712  0.0470  0.7742  0.0873
  918MPD2    C513492   0.590   1.661  12.818 -0.8583  0.1346  0.0697
  918MPD2     H13493   0.655   1.808  12.474  0.2164 -1.1430 -0.3989
  918MPD2    H113494   0.457   1.529  12.731  0.4643  0.4886  0.2520
  918MPD2    H213495   0.714   1.800  12.902 -0.8067 -0.2305 -0.0470
  918MPD2    H313496   0.582   1.614  12.915 -1.8439  0.2462  0.0389
  918MPD2     N13497   0.505   1.588  12.474  0.1126 -0.2735 -0.3017
  918MPD2    H513498   0.525   1.627  12.382 -1.0070 -1.6891 -1.1421
  918MPD2    N113499   0.787   1.929  12.654 -0.1047 -0.3108 -0.4348
  918MPD2    H713500   0.801   1.955  12.556  0.8557 -1.3360 -0.5751
  919MPD2     C13501   1.234   1.019  12.140 -0.0215  0.1822 -0.2897
  919MPD2    C113502   1.181   0.898  12.093 -0.1097 -0.2907 -0.2268
  919MPD2    C213503   1.106   0.890  11.978 -0.5975 -0.0514  0.5600
  919MPD2    C313504   1.091   0.998  11.896  0.0142 -0.4029  0.7492
  919MPD2    C413505   1.132   1.121  11.944 -1.0606 -0.2573 -0.0013
  919MPD2    C513506   1.202   1.128  12.064 -0.3059  0.1531  0.1588
  919MPD2     H13507   1.072   0.791  11.952 -0.4681  0.3643 -1.1814
  919MPD2    H113508   1.123   1.216  11.891 -1.6394  0.2916  1.0894
  919MPD2    H213509   1.294   1.035  12.229 -1.0925 -0.0048  0.4617
  919MPD2    H313510   1.229   1.227  12.098 -1.1424  0.0908  0.9924
  919MPD2     N13511   1.008   1.000  11.781 -0.3332 -0.3885 -0.5535
  919MPD2    H513512   0.983   1.091  11.742  0.8719 -0.2581 -1.0543
  919MPD2    N113513   1.201   0.776  12.165  0.8762  0.2672 -0.3423
  919MPD2    H713514   1.185   0.688  12.118 -0.8114 -0.8967  2.4275
  920MPD2     C13515   0.402   0.435  11.033 -0.2084  0.1610 -0.0807
  920MPD2    C113516   0.411   0.567  11.005 -0.0184  0.4572 -0.2180
  920MPD2    C213517   0.505   0.637  11.068  0.1336 -0.4021 -0.4656
  920MPD2    C313518   0.587   0.600  11.173 -1.2164  0.5137 -0.0906
  920MPD2    C413519   0.581   0.467  11.199  0.3614 -0.0620  0.6988
  920MPD2    C513520   0.496   0.389  11.123 -0.1192  0.3650 -0.6345
  920MPD2     H13521   0.512   0.739  11.033  0.9451 -0.6644 -1.0682
  920MPD2    H113522   0.649   0.425  11.273 -0.2588 -1.2857  0.5810
  920MPD2    H213523   0.350   0.369  10.964 -1.1764 -0.3600  1.1275
  920MPD2    H313524   0.498   0.282  11.135 -0.1684  0.6831  2.0818
  920MPD2     N13525   0.664   0.690  11.246  0.5564  0.2409  0.0564
  920MPD2    H513526   0.661   0.783  11.206 -1.4633 -0.0972 -0.6007
  920MPD2    N113527   0.330   0.643  10.908  0.0258 -0.2002 -0.3946
  920MPD2    H713528   0.363   0.737  10.888  0.5219 -0.0151  1.3120
  921MPD2     C13529   2.678   4.723  17.084  0.2222 -0.3625 -0.1651
  921MPD2    C113530   2.608   4.636  16.994  0.2416 -0.1734  1.0658
  921MPD2    C213531   2.470   4.618  17.009 -0.7260 -0.4315  0.0849
  921MPD2    C313532   2.413   4.683  17.116  0.3587  0.9417 -0.3776
  921MPD2    C413533   2.484   0.031  17.203  0.2810 -1.4624 -0.5077
  921MPD2    C513534   2.612   0.055  17.176 -0.1876 -0.6291  0.6004
  921MPD2     H13535   2.415   4.543  16.955 -0.0213 -0.7150 -0.2345
  921MPD2    H113536   2.440   0.091  17.282 -1.3692 -1.0034 -1.7660
  921MPD2    H213537   2.783   0.014  17.070  0.0520 -1.4370 -3.1770
  921MPD2    H313538   2.677   0.116  17.237  2.6215 -0.5998 -2.4548
  921MPD2     N13539   2.281   4.645  17.165 -0.1780  0.7461 -0.3825
  921MPD2    H513540   2.263   4.699  17.249  3.5068 -0.8777  1.4465
  921MPD2    N113541   2.679   4.561  16.901 -0.2697  0.4349  0.5820
  921MPD2    H713542   2.780   4.563  16.913 -0.2302  0.0264  0.3224
  922MPD2     C13543   3.072   2.883   0.136  0.2287  0.5308  0.9578
  922MPD2    C113544   3.028   2.948   0.253 -0.0047 -0.2113  0.5958
  922MPD2    C213545   3.039   2.879   0.373  0.2734 -0.4377  0.1907
  922MPD2    C313546   3.079   2.744   0.365 -0.2405  0.0204  0.2230
  922MPD2    C413547   3.127   2.691   0.247  0.3920 -0.2024  0.0888
  922MPD2    C513548   3.128   2.763   0.131 -0.1370 -0.7274  0.0693
  922MPD2     H13549   3.017   2.923   0.470  1.4470  0.1344  0.1979
  922MPD2    H113550   3.168   2.591   0.245 -0.5278 -0.5341 -1.7011
  922MPD2    H213551   3.059   2.940   0.045  2.4498 -0.0595  0.2756
  922MPD2    H313552   3.164   2.709   0.044  1.7828  0.3456  0.2034
  922MPD2     N13553   3.069   2.666   0.483 -0.6346 -0.1548  0.2039
  922MPD2    H513554   3.069   2.711   0.574  0.6047 -0.3164  0.2855
  922MPD2    N113555   2.994   3.085   0.255  0.4796 -0.0245  0.2135
  922MPD2    H713556   2.955   3.119   0.342 -1.4550 -1.0218 -0.2755
  923MPD2     C13557   2.764   4.487   9.539  0.2366  0.0792 -0.3803
  923MPD2    C113558   2.849   4.584   9.585  0.1340 -0.0412 -0.1528
  923MPD2    C213559   2.986   4.555   9.590  0.2252  0.3708  0.4802
  923MPD2    C313560   3.038   4.430   9.554  0.2523 -0.3661 -0.1244
  923MPD2    C413561   2.948   4.337   9.509  0.0620  0.2821  0.0593
  923MPD2    C513562   2.813   4.365   9.510  0.5053 -0.5155  0.3414
  923MPD2     H13563   3.058   4.624   9.632  3.2235 -2.6704  0.3375
  923MPD2    H113564   2.986   4.249   9.460  1.4953  0.9954 -0.1017
  923MPD2    H213565   2.659   4.515   9.539  0.3375  0.4870  1.3575
  923MPD2    H313566   2.745   4.289   9.471  1.4924 -2.4495  2.3638
  923MPD2     N13567   3.169   4.385   9.570 -0.0504 -0.4332  1.2638
  923MPD2    H513568   3.185   4.299   9.519 -0.3057  2.0446 -3.1049
  923MPD2    N113569   2.792   4.706   9.619  0.5567 -0.0089  0.1797
  923MPD2    H713570   2.691   4.715   9.633  0.6795  4.7991 -2.2961
  924MPD2     C13571   4.490   2.347  16.139  0.5966  0.7141  0.3059
  924MPD2    C113572   4.465   2.305  16.267  0.4185  0.0713  0.6079
  924MPD2    C213573   4.490   2.397  16.365  0.1014  0.7217  0.3758
  924MPD2    C313574   4.536   2.531  16.335 -0.0540 -0.3722 -0.8942
  924MPD2    C413575   4.567   2.561  16.206 -0.4037  0.4076 -0.0379
  924MPD2    C513576   4.550   2.467  16.108  0.4226  0.2342  0.2074
  924MPD2     H13577   4.467   2.365  16.466  0.6335  0.0599  0.2878
  924MPD2    H113578   4.610   2.657  16.180  2.9059 -0.7612  1.1117
  924MPD2    H213579   4.467   2.286  16.052 -0.6565 -0.5537  1.5226
  924MPD2    H313580   4.565   2.487  16.003  0.2340 -1.0169 -0.0634
  924MPD2     N13581   4.536   2.630  16.433  0.5169 -0.1322 -0.2957
  924MPD2    H513582   4.549   2.726  16.400  2.0841 -0.4157 -0.5062
  924MPD2    N113583   4.395   2.182  16.284 -0.4261  0.5763 -0.5794
  924MPD2    H713584   4.408   2.121  16.204 -2.2356 -0.0427 -0.4070
  925MPD2     C13585   2.925   0.577  14.713 -0.4279 -0.2244 -1.1990
  925MPD2    C113586   2.938   0.440  14.714 -0.5309  0.2964  0.5382
  925MPD2    C213587   2.903   0.373  14.832  0.1739  0.0438  0.3727
  925MPD2    C313588   2.833   0.433  14.933  0.5188 -0.5872  0.1208
  925MPD2    C413589   2.818   0.570  14.930  0.1704  0.0834 -0.1445
  925MPD2    C513590   2.876   0.635  14.824  0.1608  0.4975 -1.0026
  925MPD2     H13591   2.939   0.270  14.831 -0.1146 -0.0105 -2.7095
  925MPD2    H113592   2.777   0.635  15.007 -2.2021 -0.3185 -1.0513
  925MPD2    H213593   2.950   0.640  14.629 -0.7213  0.3899 -0.8263
  925MPD2    H313594   2.866   0.743  14.823  3.1869  0.7824  0.3393
  925MPD2     N13595   2.793   0.367  15.048  0.6566 -0.2612 -0.1954
  925MPD2    H513596   2.766   0.428  15.124 -1.4221 -2.6622  0.9898
  925MPD2    N113597   3.008   0.369  14.610  0.1611  0.6703  0.8832
  925MPD2    H713598   3.006   0.268  14.610  1.5360  0.6481  0.0682
  926MPD2     C13599   1.876   3.419  13.910 -0.2081  0.1397 -0.1594
  926MPD2    C113600   1.829   3.523  13.844  0.4300  0.3944  0.7897
  926MPD2    C213601   1.884   3.560  13.727 -0.2105 -0.0046 -0.0629
  926MPD2    C313602   1.990   3.493  13.672  0.4333  0.7511 -0.6866
  926MPD2    C413603   2.039   3.388  13.738  0.1679 -0.6072 -0.4142
  926MPD2    C513604   1.987   3.355  13.862 -0.4052  0.4856 -0.2387
  926MPD2     H13605   1.841   3.647  13.679  0.1629 -0.1891 -0.7259
  926MPD2    H113606   2.107   3.312  13.700  0.7172  0.0142 -0.6859
  926MPD2    H213607   1.847   3.399  14.012 -1.8987  1.3901 -0.3918
  926MPD2    H313608   2.038   3.279  13.920 -0.2119  1.6821  1.1708
  926MPD2     N13609   2.043   3.539  13.551 -0.4994  0.4976 -0.2342
  926MPD2    H513610   2.103   3.481  13.492  0.6107 -0.0923  1.4703
  926MPD2    N113611   1.713   3.588  13.887 -0.3762 -0.4822  0.1029
  926MPD2    H713612   1.669   3.653  13.822 -0.1272  0.1580  0.5667
  927MPD2     C13613   1.754   0.747   0.133 -0.7060 -0.1925 -0.6050
  927MPD2    C113614   1.791   0.881   0.122  0.1139  0.1226  0.3852
  927MPD2    C213615   1.882   0.916   0.018 -0.7293  0.2038  0.1726
  927MPD2    C313616   1.930   0.817  17.663 -0.2278 -0.0231  0.0292
  927MPD2    C413617   1.891   0.686  17.684 -0.5065  0.2132  0.0784
  927MPD2    C513618   1.799   0.661   0.045  0.2243 -0.6840  0.3434
  927MPD2     H13619   1.903   1.021  17.730  0.5017 -0.2897 -1.2428
  927MPD2    H113620   1.941   0.599  17.642  0.0214 -0.0030  1.1593
  927MPD2    H213621   1.673   0.715   0.197  1.1681 -0.8391  1.4199
  927MPD2    H313622   1.778   0.557   0.067 -0.5628 -0.3604  1.1402
  927MPD2     N13623   2.023   0.856  17.561  0.3364  0.0876 -0.0397
  927MPD2    H513624   2.042   0.955  17.553  0.1786  0.1941  0.9389
  927MPD2    N113625   1.746   0.986   0.214 -0.1900  0.1996 -0.2979
  927MPD2    H713626   1.681   0.954   0.285  0.6392 -2.8847 -0.9297
  928MPD2     C13627   0.180   4.550   1.363  0.2032  0.1699  0.2585
  928MPD2    C113628   0.122   4.665   1.320  0.6381  0.6962  0.3014
  928MPD2    C213629   0.111   4.674   1.183 -0.1807 -0.2494  0.6880
  928MPD2    C313630   0.141   4.569   1.098 -0.0248  0.2075 -0.2094
  928MPD2    C413631   0.183   4.447   1.149 -1.1162 -0.6018 -0.2435
  928MPD2    C513632   0.202   4.443   1.284 -0.8090  0.0362  0.1938
  928MPD2     H13633   0.070   0.036   1.148  1.4346 -0.2518 -1.2505
  928MPD2    H113634   0.205   4.360   1.088  2.5943 -1.0003  1.6385
  928MPD2    H213635   0.209   4.531   1.466 -1.4920  2.9657  1.2425
  928MPD2    H313636   0.251   4.358   1.330 -0.5559  0.5851  0.9408
  928MPD2     N13637   0.131   4.578   0.958  0.7372  0.2520 -0.1026
  928MPD2    H513638   0.147   4.498   0.898  1.9782 -0.1723  0.7993
  928MPD2    N113639   0.108   0.040   1.408 -0.6508 -0.6942  0.4966
  928MPD2    H713640   0.153   0.032   1.499  0.7633 -0.3885 -0.1771
  929MPD2     C13641   4.188   4.434  10.019  0.0950 -0.0540 -0.0586
  929MPD2    C113642   4.103   4.368  10.104 -0.1667  0.5090  0.1430
  929MPD2    C213643   3.971   4.416  10.100  0.1726 -0.4716  0.5739
  929MPD2    C313644   3.925   4.517  10.015 -0.6586  0.3398  0.0835
  929MPD2    C413645   4.021   4.569   9.926  0.2004 -0.6218  0.5650
  929MPD2    C513646   4.153   4.534   9.931  0.3824 -0.5697 -0.2705
  929MPD2     H13647   3.899   4.390  10.178  0.9820 -0.6442  1.2656
  929MPD2    H113648   3.998   4.651   9.860 -0.3085 -2.8923 -2.0516
  929MPD2    H213649   4.293   4.415  10.038 -0.2868 -0.7046  1.4238
  929MPD2    H313650   4.229   4.579   9.868  1.6165  1.5400  2.7558
  929MPD2     N13651   3.802   4.578  10.024  0.4125  0.7864 -0.3004
  929MPD2    H513652   3.802   4.664   9.971  0.1961  0.8658 -0.1724
  929MPD2    N113653   4.152   4.267  10.193 -0.0345 -0.0182 -0.1042
  929MPD2    H713654   4.251   4.247  10.184 -0.4957 -2.2838 -0.2278
  930MPD2     C13655   1.207   1.310  14.458 -0.5110  0.2730  1.1461
  930MPD2    C113656   1.332   1.356  14.414 -0.0570  0.1173 -0.4916
  930MPD2    C213657   1.361   1.328  14.280 -0.2864 -0.6480 -1.0856
  930MPD2    C313658   1.274   1.255  14.201  0.6353 -0.4376  0.0191
  930MPD2    C413659   1.160   1.205  14.248  0.6118 -0.1811  0.2375
  930MPD2    C513660   1.120   1.237  14.380 -0.4772 -0.5999 -0.8050
  930MPD2     H13661   1.450   1.366  14.231  0.5461  0.7116  1.5409
  930MPD2    H113662   1.099   1.144  14.183  0.0387 -0.2168  0.8089
  930MPD2    H213663   1.168   1.340  14.555  0.0602 -1.1635  1.8247
  930MPD2    H313664   1.030   1.200  14.428 -1.4523  0.2536 -1.9761
  930MPD2     N13665   1.306   1.244  14.061  0.8034 -0.5832  0.2437
  930MPD2    H513666   1.232   1.246  13.992  2.0944 -0.9753 -1.1638
  930MPD2    N113667   1.415   1.435  14.495 -0.0346  0.3631  0.4341
  930MPD2    H713668   1.390   1.455  14.591 -0.9683  1.9653 -0.1380
  931MPD2     C13669   1.262   1.126   0.780 -0.7404 -0.9313  0.2013
  931MPD2    C113670   1.394   1.093   0.779  0.3738 -0.3053 -0.4611
  931MPD2    C213671   1.450   1.014   0.879  0.0528  0.3867  0.0430
  931MPD2    C313672   1.370   0.958   0.976  0.7530 -0.6043 -0.7318
  931MPD2    C413673   1.240   1.005   0.978  0.2135  0.1691 -0.4451
  931MPD2    C513674   1.184   1.086   0.885  0.3345 -0.3897  0.2926
  931MPD2     H13675   1.557   1.018   0.888  0.0833  0.1062 -0.1678
  931MPD2    H113676   1.177   0.977   1.062  1.3156 -3.3378 -0.7846
  931MPD2    H213677   1.221   1.193   0.705  1.9137 -0.5479 -0.9009
  931MPD2    H313678   1.079   1.112   0.887  0.7449  1.3712 -1.0607
  931MPD2     N13679   1.415   0.878   1.083 -1.2532 -0.6625  0.0805
  931MPD2    H513680   1.343   0.856   1.151 -0.5967  1.9416  1.6327
  931MPD2    N113681   1.474   1.159   0.679  0.7114  0.1087  0.5360
  931MPD2    H713682   1.428   1.225   0.617  0.5256 -1.4765 -0.9974
  932MPD2     C13683   2.976   0.106  11.559  0.3372  0.1429 -0.1558
  932MPD2    C113684   3.097   0.113  11.615 -0.2167  0.4983  0.2288
  932MPD2    C213685   3.150   4.731  11.678 -0.6591  0.5977  0.3017
  932MPD2    C313686   3.084   4.609  11.665  0.0011  0.5311  0.7279
  932MPD2    C413687   2.968   4.607  11.592  0.1831 -0.4668  0.1422
  932MPD2    C513688   2.912   4.718  11.541  0.2679  0.1741  0.1917
  932MPD2     H13689   3.246   0.009  11.727  1.3937 -1.3869 -3.2257
  932MPD2    H113690   2.912   4.516  11.577 -1.0068  0.0117  1.6694
  932MPD2    H213691   2.924   0.194  11.522  2.1432  1.9405  1.5754
  932MPD2    H313692   2.817   4.707  11.490  0.3078 -1.8023  0.5450
  932MPD2     N13693   3.135   4.489  11.709  0.1654  0.3452 -0.5950
  932MPD2    H513694   3.075   4.407  11.706 -0.1545  0.4864  1.9858
  932MPD2    N113695   3.178   0.232  11.622 -0.1353 -0.0108 -0.0730
  932MPD2    H713696   3.261   0.232  11.680  0.9207  0.6317 -1.5561
  933MPD2     C13697   0.013   0.904   1.745  0.4300  0.0098 -0.3367
  933MPD2    C113698   4.674   0.817   1.662 -0.3544 -0.0235  0.1120
  933MPD2    C213699   4.552   0.857   1.614  0.1160 -0.3213 -0.3601
  933MPD2    C313700   4.499   0.983   1.635 -0.5394  0.6216 -0.8109
  933MPD2    C413701   4.571   1.071   1.719 -0.0561 -0.6307  0.0659
  933MPD2    C513702   4.696   1.028   1.775 -0.1838 -0.3681  0.0402
  933MPD2     H13703   4.496   0.784   1.556  1.8377 -1.6695 -0.3581
  933MPD2    H113704   4.536   1.171   1.745 -1.9352 -1.1167 -0.6056
  933MPD2    H213705   0.110   0.878   1.788 -1.0211 -1.5979  1.9800
  933MPD2    H313706   0.014   1.092   1.847  1.2210 -1.0292 -0.3568
  933MPD2     N13707   4.370   1.016   1.585  0.5289 -0.1082  0.0807
  933MPD2    H513708   4.324   0.942   1.534 -1.2678  2.1153 -1.5348
  933MPD2    N113709   0.001   0.689   1.648 -0.0052  0.2566 -0.1513
  933MPD2    H713710   0.075   0.663   1.713 -0.8226  1.0177  1.1053
  934MPD2     C13711   0.779   2.700   1.884  0.0108 -0.5829  0.2951
  934MPD2    C113712   0.878   2.636   1.821  0.8113 -0.0404 -0.3713
  934MPD2    C213713   0.844   2.544   1.711 -0.1297  0.0848 -0.9330
  934MPD2    C313714   0.714   2.539   1.666  0.1052 -1.2378  0.9600
  934MPD2    C413715   0.624   2.620   1.728 -0.0341  0.0251 -0.3652
  934MPD2    C513716   0.653   2.701   1.835 -0.4824  0.6824 -0.1154
  934MPD2     H13717   0.918   2.484   1.658  1.7878  0.6604  1.1225
  934MPD2    H113718   0.525   2.623   1.683  0.3796  1.9919 -1.1494
  934MPD2    H213719   0.787   2.752   1.979  1.1682  2.7713 -1.6436
  934MPD2    H313720   0.566   2.741   1.884 -1.1280 -0.7307 -0.1037
  934MPD2     N13721   0.656   2.450   1.573  0.5021 -0.4921  0.4862
  934MPD2    H513722   0.554   2.453   1.570  0.5634 -0.3787 -1.5874
  934MPD2    N113723   1.011   2.637   1.865 -0.1611 -0.2076  0.5890
  934MPD2    H713724   1.072   2.564   1.831 -0.9440 -1.3582  1.6274
  935MPD2     C13725   0.831   1.457   1.387  0.4165  0.5556 -0.3111
  935MPD2    C113726   0.731   1.498   1.297 -0.3760 -0.4855 -0.1392
  935MPD2    C213727   0.686   1.626   1.309 -0.3538 -0.0288  0.1589
  935MPD2    C313728   0.741   1.721   1.395 -0.4588 -0.1166 -0.1814
  935MPD2    C413729   0.840   1.676   1.481  0.4476  0.8363  0.3355
  935MPD2    C513730   0.877   1.545   1.478 -0.3651 -0.4042 -0.6570
  935MPD2     H13731   0.613   1.660   1.237  1.0700  3.1914  0.2153
  935MPD2    H113732   0.900   1.743   1.542  1.7438 -1.0983  1.2059
  935MPD2    H213733   0.867   1.355   1.392 -1.5673 -0.1976 -1.6571
  935MPD2    H313734   0.964   1.515   1.536  1.1204 -1.0157 -3.2020
  935MPD2     N13735   0.707   1.856   1.397 -0.3956  0.1631 -0.1869
  935MPD2    H513736   0.733   1.907   1.481  0.7022 -1.1698  0.2949
  935MPD2    N113737   0.680   1.420   1.190  0.1742 -0.4366  0.2154
  935MPD2    H713738   0.607   1.463   1.135  0.5107  0.1267  0.2124
  936MPD2     C13739   3.385   2.879  13.041  0.0050 -0.2263  0.1652
  936MPD2    C113740   3.478   2.925  13.128  0.3552 -0.4640  0.4302
  936MPD2    C213741   3.536   3.044  13.115 -0.3242 -0.3270 -0.4334
  936MPD2    C313742   3.489   3.131  13.013  0.1070 -0.3855  0.0411
  936MPD2    C413743   3.386   3.086  12.929 -0.0943 -0.5830  0.4185
  936MPD2    C513744   3.337   2.957  12.940  0.0541 -0.1790  0.4095
  936MPD2     H13745   3.601   3.085  13.191 -1.1136  0.8357 -0.3939
  936MPD2    H113746   3.346   3.157  12.857  0.1773  0.2386  1.0707
  936MPD2    H213747   3.333   2.786  13.061  3.1734 -2.5763 -2.5209
  936MPD2    H313748   3.258   2.922  12.875  1.9395 -0.9615 -1.4386
  936MPD2     N13749   3.534   3.260  13.012 -0.1876  0.8526 -0.6771
  936MPD2    H513750   3.585   3.291  13.094 -0.5529 -3.4808  1.1574
  936MPD2    N113751   3.503   2.846  13.248  0.0188 -0.0360 -0.1371
  936MPD2    H713752   3.442   2.768  13.270  1.0009 -0.5757  0.6521
  937MPD2     C13753   1.510   0.245  11.891  0.4811 -0.1297  0.2048
  937MPD2    C113754   1.535   0.370  11.945  0.0131  0.3056 -0.3565
  937MPD2    C213755   1.636   0.448  11.885 -0.5281 -0.4110  0.3443
  937MPD2    C313756   1.696   0.407  11.767 -0.1469 -0.0352 -0.6892
  937MPD2    C413757   1.662   0.287  11.707  0.0480 -0.0480 -0.5370
  937MPD2    C513758   1.573   0.209  11.781 -0.2757 -0.7610  0.1257
  937MPD2     H13759   1.675   0.539  11.929  2.2265 -1.5997  0.3532
  937MPD2    H113760   1.698   0.258  11.609  1.1820 -0.0980 -0.1073
  937MPD2    H213761   1.438   0.175  11.931 -0.0597  0.8270  0.8946
  937MPD2    H313762   1.549   0.111  11.741 -0.6324 -0.6198 -0.0046
  937MPD2     N13763   1.788   0.485  11.695 -0.5901  0.3438 -0.2791
  937MPD2    H513764   1.808   0.443  11.605 -2.5665 -0.0782 -0.5262
  937MPD2    N113765   1.486   0.408  12.070  0.2973  0.2483 -0.3208
  937MPD2    H713766   1.523   0.492  12.113  0.8000  0.4963 -1.2325
  938MPD2     C13767   0.192   1.930   0.412  0.0752 -0.5394 -0.2153
  938MPD2    C113768   0.262   1.941   0.531  0.0171  0.5095  0.1757
  938MPD2    C213769   0.180   1.949   0.649 -0.2179  0.0607 -0.0860
  938MPD2    C313770   0.043   1.962   0.641  0.1264  0.1903  0.6471
  938MPD2    C413771   4.716   1.970   0.520  0.1047  0.6802  0.4566
  938MPD2    C513772   0.060   1.956   0.404  0.2776  0.0927  0.2292
  938MPD2     H13773   0.234   1.939   0.742  0.4364 -0.0742 -0.4777
  938MPD2    H113774   4.611   1.991   0.505  0.5294  1.7093 -1.0920
  938MPD2    H213775   0.244   1.908   0.320  2.4291  1.3991  0.6388
  938MPD2    H313776   0.003   1.957   0.312  4.9770 -1.8043 -2.7109
  938MPD2     N13777   4.693   1.967   0.754  0.4444  0.9702  0.3887
  938MPD2    H513778   4.592   1.966   0.747  0.5838 -0.9499 -1.2688
  938MPD2    N113779   0.401   1.934   0.530  0.4129  0.2277 -0.1054
  938MPD2    H713780   0.453   1.933   0.443  1.8115 -1.1209  0.7512
  939MPD2     C13781   1.059   3.127   0.719  0.1495 -0.5767 -0.1350
  939MPD2    C113782   1.011   3.008   0.770 -0.0237  0.4746  0.2998
  939MPD2    C213783   1.030   2.892   0.705 -0.0250 -0.2556  0.2432
  939MPD2    C313784   1.101   2.885   0.590 -0.5125 -0.2309  0.2197
  939MPD2    C413785   1.143   3.005   0.536  0.0331 -0.5595 -0.1788
  939MPD2    C513786   1.110   3.128   0.591 -0.3583 -0.1895  0.1116
  939MPD2     H13787   1.007   2.799   0.756  0.1108 -1.1430 -1.3157
  939MPD2    H113788   1.181   3.001   0.434 -1.5666  0.0619 -0.8083
  939MPD2    H213789   1.042   3.223   0.768  2.2013 -0.0933 -0.3952
  939MPD2    H313790   1.132   3.223   0.542  0.0248 -0.7707 -0.8432
  939MPD2     N13791   1.146   2.755   0.546 -0.0042 -0.7614 -0.3684
  939MPD2    H513792   1.117   2.678   0.605 -0.9432  0.6705  1.0622
  939MPD2    N113793   0.962   3.016   0.904 -0.4411 -0.2410  0.5799
  939MPD2    H713794   0.986   3.096   0.961 -1.2501  0.6644 -0.3480
  940MPD2     C13795   3.880   3.163  12.921 -0.3943  0.2787 -0.2026
  940MPD2    C113796   3.927   3.062  13.003 -0.3312 -0.0022 -0.0292
  940MPD2    C213797   3.939   2.929  12.961 -0.1101  0.5669  0.3112
  940MPD2    C313798   3.928   2.900  12.827 -0.6581 -0.5716  0.2500
  940MPD2    C413799   3.871   2.999  12.748 -0.1961 -1.1683  0.6631
  940MPD2    C513800   3.841   3.125  12.796  0.0318 -0.2358 -0.2695
  940MPD2     H13801   3.988   2.862  13.032  0.6347 -0.5508 -1.2665
  940MPD2    H113802   3.844   2.977  12.646 -2.5391  0.1415  1.0020
  940MPD2    H213803   3.867   3.266  12.952  2.3585  1.1180 -1.8163
  940MPD2    H313804   3.789   3.200  12.737 -3.6811 -2.4676  0.1698
  940MPD2     N13805   3.985   2.789  12.771 -0.2887 -0.4984  0.5437
  940MPD2    H513806   3.993   2.781  12.670 -0.2224  1.0411  0.4263
  940MPD2    N113807   3.971   3.085  13.137 -0.0734  0.2919 -0.2163
  940MPD2    H713808   3.983   3.000  13.192 -0.4534  1.4821  1.6962
  941MPD2     C13809   3.226   2.557  11.111 -0.1985 -0.0018 -0.0837
  941MPD2    C113810   3.329   2.647  11.118 -0.7183 -1.3079 -0.2236
  941MPD2    C213811   3.454   2.592  11.148 -0.2972 -0.3908 -0.1708
  941MPD2    C313812   3.475   2.460  11.177 -0.1673 -0.5883 -0.6162
  941MPD2    C413813   3.367   2.376  11.168  0.3294 -0.1639  0.7658
  941MPD2    C513814   3.238   2.426  11.136  0.0925  0.0068 -0.0651
  941MPD2     H13815   3.532   2.664  11.170  1.1322 -2.1239  0.4004
  941MPD2    H113816   3.376   2.271  11.195  2.3477 -0.1572  0.1297
  941MPD2    H213817   3.123   2.584  11.088 -0.3159 -0.9953 -0.7585
  941MPD2    H313818   3.151   2.363  11.152  1.2480 -1.0375  2.1329
  941MPD2     N13819   3.595   2.417  11.236 -0.4010  0.0703 -0.6522
  941MPD2    H513820   3.603   2.321  11.268 -1.4256 -0.7636 -2.8768
  941MPD2    N113821   3.320   2.790  11.097  0.1624  0.0185 -0.6015
  941MPD2    H713822   3.407   2.841  11.086  0.3066 -0.1067 -0.0751
  942MPD2     C13823   3.460   4.172   9.955  0.3015 -0.5041  0.6465
  942MPD2    C113824   3.376   4.102   9.869 -0.6272 -0.4459 -0.2017
  942MPD2    C213825   3.430   4.008   9.793  0.4171  0.0921 -0.3652
  942MPD2    C313826   3.564   3.987   9.776  0.2875 -0.0837 -0.6515
  942MPD2    C413827   3.646   4.066   9.854 -0.2090  0.8112  0.2397
  942MPD2    C513828   3.589   4.152   9.951 -0.2367  0.1852 -0.1162
  942MPD2     H13829   3.363   3.952   9.729  0.5264  0.5814 -0.9031
  942MPD2    H113830   3.754   4.069   9.845 -0.3404 -0.2402 -1.5341
  942MPD2    H213831   3.425   4.239  10.032 -1.0040 -1.3095  0.7499
  942MPD2    H313832   3.654   4.218  10.007 -0.5693  1.2660 -1.0101
  942MPD2     N13833   3.627   3.895   9.686  0.5166 -0.4816  0.6290
  942MPD2    H513834   3.728   3.891   9.694  0.6774 -1.1669 -1.4947
  942MPD2    N113835   3.246   4.140   9.851  0.0656  0.2919  0.3427
  942MPD2    H713836   3.197   4.086   9.780  1.1092 -1.2829  0.8209
  943MPD2     C13837   2.983   2.455   9.871 -0.0591 -0.4583  0.3436
  943MPD2    C113838   2.930   2.347   9.937 -0.0246  0.3030  0.5418
  943MPD2    C213839   2.985   2.319  10.062 -0.9546 -0.3490 -0.3142
  943MPD2    C313840   3.075   2.398  10.130  0.4896  0.8247 -0.1669
  943MPD2    C413841   3.124   2.509  10.064 -0.4878  0.0670  0.3868
  943MPD2    C513842   3.071   2.532   9.943 -0.1765  0.0979  0.7042
  943MPD2     H13843   2.956   2.225  10.110 -4.3410  1.0822  0.4257
  943MPD2    H113844   3.209   2.572  10.088  0.8403 -1.9510  0.9002
  943MPD2    H213845   2.941   2.476   9.774  0.8144 -1.5452 -0.2675
  943MPD2    H313846   3.107   2.617   9.885  0.6680 -1.6117 -1.2848
  943MPD2     N13847   3.110   2.369  10.272 -0.2758 -0.3820 -0.0679
  943MPD2    H513848   3.177   2.435  10.312  0.6370 -1.2351 -0.1952
  943MPD2    N113849   2.833   2.280   9.873 -0.6923  0.2731 -0.7730
  943MPD2    H713850   2.796   2.329   9.793 -0.9147 -0.0790 -0.8865
  944MPD2     C13851   1.582   2.231  11.095  0.8111 -0.1225  1.4067
  944MPD2    C113852   1.488   2.142  11.143 -0.5440 -0.5305 -0.1205
  944MPD2    C213853   1.395   2.185  11.239  0.0052 -0.3512 -0.5153
  944MPD2    C313854   1.405   2.317  11.284  0.1350 -0.1200  0.2021
  944MPD2    C413855   1.495   2.409  11.222 -0.3474 -0.0780  0.3173
  944MPD2    C513856   1.582   2.357  11.131 -0.4428  0.1144  0.1192
  944MPD2     H13857   1.329   2.116  11.290 -0.0568 -0.4520 -0.7362
  944MPD2    H113858   1.512   2.510  11.258 -1.1778  0.4011 -0.6450
  944MPD2    H213859   1.668   2.205  11.034 -0.6653 -0.0069 -0.7457
  944MPD2    H313860   1.650   2.423  11.078 -1.7061  0.5416 -0.9631
  944MPD2     N13861   1.318   2.356  11.386 -0.3099 -0.2002  0.1003
  944MPD2    H513862   1.268   2.284  11.438 -0.3728  0.3653  0.8272
  944MPD2    N113863   1.511   2.000  11.113 -0.1934  0.4365  0.3123
  944MPD2    H713864   1.586   1.976  11.050  1.6230  2.3612  1.7129
    1TMC1    C113865   0.080   3.001  13.940 -0.2546 -0.5389  0.0059
    1TMC1    C213866   4.730   3.050  13.841 -0.6149  0.3663 -0.2068
    1TMC1    C313867   4.634   2.978  13.786  0.3466  0.3712  0.5501
    1TMC1    C413868   0.052   2.880  13.988 -0.4445 -0.6620 -0.1757
    1TMC1    C513869   4.686   2.804  13.929 -0.5399  0.4686 -0.6785
    1TMC1    C613870   4.614   2.848  13.822  0.3078  0.6227 -0.2011
    1TMC1     C13871   0.195   3.068  14.006 -0.0298  0.4677  0.5158
    1TMC1     O13872   0.246   3.002  14.097  0.1544 -0.6904 -0.5638
    1TMC1     H13873   0.005   3.153  13.809 -2.5255 -0.0970 -2.1757
    1TMC1    H113874   0.110   2.838  14.070 -0.6965 -1.0723 -0.2065
    1TMC1    H213875   4.531   2.789  13.786  2.0103 -0.7417 -1.8724
    1TMC1    C713876   4.656   2.679  13.991 -0.4926 -0.4885 -0.4294
    1TMC1    C813877   4.533   3.050  13.699  0.1486  0.3277 -0.5180
    1TMC1    O113878   4.603   2.675  14.102 -0.2319  0.2663  0.0067
    1TMC1    O213879   4.500   3.165  13.724 -0.0489 -0.0507  0.9924
    1TMC1    O313880   4.613   2.603  13.889 -0.2046 -0.9866  0.3022
    1TMC1    H313881   4.668   2.610  13.809  1.0549  0.9673  1.3361
    1TMC1    O513882   4.477   2.957  13.617 -0.4398 -0.0952 -0.1813
    1TMC1    H513883   4.533   2.878  13.602  0.3461  1.0459 -3.0720
    2MPD2     C13884   0.582   3.402  14.025 -0.6856  0.5655  0.4431
    2MPD2    C113885   0.486   3.458  13.937  0.4756 -0.4228  1.2533
    2MPD2    C213886   0.365   3.395  13.925 -0.2047  0.1895 -0.0524
    2MPD2    C313887   0.337   3.277  13.993 -0.3662  0.1031 -0.3058
    2MPD2    C413888   0.429   3.233  14.085 -0.1919  0.8715  0.3657
    2MPD2    C513889   0.551   3.286  14.094  0.5248  0.0296  0.2602
    2MPD2     H13890   0.297   3.437  13.853  0.2827 -0.5072 -0.9137
    2MPD2    H113891   0.418   3.149  14.152  0.0996 -0.0674 -0.7620
    2MPD2    H213892   0.682   3.437  14.046 -0.9958  1.3243  0.6510
    2MPD2    H313893   0.623   3.255  14.169 -0.5101 -0.1593  1.1690
    2MPD2     N13894   0.225   3.193  13.952  0.7412 -0.1614 -0.1925
    2MPD2    H513895   0.155   3.231  13.888  2.0107  0.2391 -1.3425
    2MPD2    N113896   0.528   3.565  13.850  0.9575 -0.4214 -0.2524
    2MPD2    H713897   0.627   3.586  13.851  0.3120  2.5863 -1.3399
    3TMC2    C113898   0.525   3.713  13.668 -0.0136 -0.5260 -1.0753
    3TMC2    C213899   0.632   3.646  13.611 -0.3223  0.4702  0.1824
    3TMC2    C313900   0.667   3.691  13.484  0.4456  0.6519 -0.4974
    3TMC2    C413901   0.451   3.811  13.603  0.1379  0.2029  0.1133
    3TMC2    C513902   0.484   3.838  13.471  0.0813 -0.2240 -0.0765
    3TMC2    C613903   0.598   3.790  13.415 -0.7253  0.5668 -0.2396
    3TMC2     C13904   0.447   3.637  13.764 -0.1378 -0.1135  0.7368
    3TMC2     O13905   0.326   3.642  13.758 -0.0489 -0.4534  0.4752
    3TMC2     H13906   0.703   3.579  13.659  0.0495 -1.5522 -3.1373
    3TMC2    H113907   0.354   3.833  13.645 -0.8516 -0.5079 -1.8084
    3TMC2    H213908   0.611   3.816  13.311  0.6680 -0.6578 -0.3758
    3TMC2    C713909   0.369   3.846  13.382 -0.3834  0.4655 -0.0207
    3TMC2    C813910   0.773   3.627  13.406  0.0326  0.0575  0.9634
    3TMC2    O113911   0.396   3.861  13.261 -0.3886  0.2826  0.4250
    3TMC2    O213912   0.825   3.691  13.312 -0.8670  0.4661 -0.6612
    3TMC2    O513913   0.752   3.498  13.404 -0.0910  0.3534  0.0388
    3TMC2    H513914   0.673   3.473  13.456  1.0264  0.7931  1.9641
    4TMC2    C113915   4.177   3.676  13.763 -0.4826  0.1471 -0.3004
    4TMC2    C213916   4.181   3.639  13.896  0.2327  1.0493  0.1696
    4TMC2    C313917   4.303   3.624  13.945 -0.2221 -0.0167  0.3487
    4TMC2    C413918   4.282   3.682  13.682  0.3795  0.4054  0.2537
    4TMC2    C513919   4.401   3.647  13.733  0.1091  0.5248 -0.2155
    4TMC2    C613920   4.422   3.622  13.865  0.3833  0.2085  0.2118
    4TMC2     C13921   4.054   3.725  13.708 -1.0746 -0.6237 -0.1133
    4TMC2     O13922   4.042   3.741  13.588  0.1104  0.2162  0.0194
    4TMC2     H13923   4.093   3.628  13.960 -0.8315  1.3480 -1.2484
    4TMC2    H113924   4.274   3.742  13.593  0.5677 -0.9335 -0.6574
    4TMC2    H213925   4.521   3.611  13.908  0.2617  1.0865  0.7139
    4TMC2    C713926   4.529   3.660  13.656 -0.2149  0.4381 -0.3416
    4TMC2    C813927   4.308   3.601  14.085 -0.0376 -0.0460 -0.1686
    4TMC2    O113928   4.637   3.643  13.714 -0.0374  0.1105 -0.5983
    4TMC2    O213929   4.208   3.619  14.158  0.4260  0.3246 -0.0990
    4TMC2    O513930   4.402   3.506  14.091  0.1203  0.0248 -0.1184
    4TMC2    H513931   4.458   3.502  14.010  1.0438  2.1023  0.4233
    5MPD2     C13932   3.603   3.969  13.736  0.4443 -0.2960 -0.4818
    5MPD2    C113933   3.660   3.906  13.626  0.0297 -0.8229 -0.6715
    5MPD2    C213934   3.778   3.839  13.648 -0.7659  0.3908 -0.2043
    5MPD2    C313935   3.839   3.833  13.780  0.6422  0.3041  0.0535
    5MPD2    C413936   3.767   3.891  13.889  1.0386 -0.4371 -0.5220
    5MPD2    C513937   3.656   3.956  13.863  0.0335  0.0276 -0.0831
    5MPD2     H13938   3.820   3.791  13.561  1.6202  0.5940  0.8433
    5MPD2    H113939   3.814   3.908  13.985 -0.1946  1.4415 -0.2549
    5MPD2    H213940   3.506   4.018  13.728 -0.0351 -1.5202 -2.1144
    5MPD2    H313941   3.614   4.002  13.951  0.6087  2.3032 -0.9888
    5MPD2     N13942   3.966   3.770  13.806 -0.2341  0.3748 -0.4602
    5MPD2    H513943   4.001   3.776  13.901 -0.6967 -0.6389 -0.2166
    5MPD2    N113944   3.591   3.915  13.502 -0.6644  0.4925 -0.1220
    5MPD2    H713945   3.503   3.964  13.491 -1.4882 -1.5385 -2.5309
    6MPD1     C13946   3.160   0.489  12.122 -0.1727  0.7352 -0.0098
    6MPD1    C113947   3.067   0.475  12.217  0.3778  0.3726  0.4549
    6MPD1    C213948   3.093   0.382  12.319  0.3344 -0.4235  0.2379
    6MPD1    C313949   3.207   0.302  12.320  0.0420  0.0398 -0.0397
    6MPD1    C413950   3.303   0.322  12.220  0.2957  0.2943  0.3065
    6MPD1    C513951   3.270   0.412  12.122 -0.2406  0.2737  0.6334
    6MPD1     H13952   3.011   0.371  12.389  0.1431 -2.2652 -0.2811
    6MPD1    H113953   3.396   0.268  12.206 -0.0064 -0.5904  1.6999
    6MPD1    H213954   3.148   0.566  12.047  0.2612  1.0763  0.2731
    6MPD1    H313955   3.336   0.433  12.038  0.0674 -2.3383  0.2277
    6MPD1     N13956   3.240   0.203  12.421 -0.2671  0.3369  0.5968
    6MPD1    H513957   3.327   0.154  12.403 -0.4816 -0.4871  1.7701
    6MPD1    N113958   2.963   0.568  12.224 -0.5444 -0.1000  0.4086
    6MPD1    H613959   2.922   0.598  12.136  1.6848 -0.6744 -0.8341
    6MPD1    H713960   2.887   0.521  12.272  0.0299 -0.7798  0.6605
    7MPD2     C13961   3.122   4.569  13.242  0.0230 -0.6508 -0.3088
    7MPD2    C113962   3.162   4.499  13.135 -0.4310 -0.0193  0.2535
    7MPD2    C213963   3.195   4.368  13.134 -0.4178 -0.0030 -0.1060
    7MPD2    C313964   3.188   4.294  13.251 -0.6169 -0.4884  0.4234
    7MPD2    C413965   3.148   4.365  13.361 -0.6368  0.7590  0.7072
    7MPD2    C513966   3.102   4.494  13.352  1.1102  0.5559  0.2037
    7MPD2     H13967   3.223   4.332  13.036  1.4518  0.3425  0.2920
    7MPD2    H113968   3.134   4.319  13.458 -0.1253 -0.7432  0.0542
    7MPD2    H213969   3.090   4.673  13.246  1.9626 -0.1352  1.9257
    7MPD2    H313970   3.063   4.535  13.445  0.4598 -1.2443  0.7051
    7MPD2     N13971   3.243   4.168  13.266  0.5110 -0.4584 -0.1327
    7MPD2    H513972   3.244   4.125  13.358 -2.1658  0.6948  0.4378
    7MPD2    N113973   3.161   4.555  13.001  0.3692  0.0250  0.2667
    7MPD2    H713974   3.180   4.494  12.922 -0.3273  1.7020 -1.1864
    8TMC3    C113975   3.340   3.959  13.184 -0.4796  0.0231 -0.5758
    8TMC3    C213976   3.429   3.959  13.288  0.9065  0.5281  0.0073
    8TMC3    C313977   3.553   3.905  13.278 -0.3917  0.7028 -1.0315
    8TMC3    C413978   3.382   3.897  13.066  0.5619  0.3099  0.2755
    8TMC3    C513979   3.513   3.855  13.048  0.5455  0.0200  0.4123
    8TMC3    C613980   3.595   3.861  13.153  0.9256  1.0287  0.0032
    8TMC3     C13981   3.279   4.088  13.153  0.0132 -0.2814  0.3310
    8TMC3     O13982   3.264   4.109  13.033 -0.1308  0.8635 -0.0540
    8TMC3     H13983   3.396   3.993  13.385  1.4794 -0.1100  0.4321
    8TMC3    H113984   3.303   3.884  12.992  2.0727  2.6845 -1.7464
    8TMC3    H213985   3.698   3.836  13.134  0.7482  0.9109 -0.8148
    8TMC3    C713986   3.565   3.881  12.919  0.5279 -0.8079 -0.2396
    8TMC3    C813987   3.634   3.854  13.386  0.4626  0.3413  0.1515
    8TMC3    O113988   3.673   3.838  12.875  0.3496  0.1405 -0.1150
    8TMC3    O213989   3.729   3.778  13.364 -0.9045 -0.0113 -0.0350
    9TMC3    C113990   3.227   0.083  12.633  0.4739 -0.2808  1.1650
    9TMC3    C213991   3.304   4.717  12.577  0.1729 -0.5986 -0.0102
    9TMC3    C313992   3.351   4.616  12.662  0.1073 -0.7602  0.2295
    9TMC3    C413993   3.187   0.081  12.765  0.0778 -0.4731  0.2024
    9TMC3    C513994   3.221   4.703  12.837 -0.1261  0.6581 -0.5691
    9TMC3    C613995   3.319   4.613  12.795  0.1269 -0.5033  0.0529
    9TMC3     C13996   3.169   0.178  12.535  0.5349  0.3821 -0.9188
    9TMC3     O13997   3.077   0.245  12.569  0.1588 -0.0813 -0.1240
    9TMC3     H13998   3.311   4.716  12.469 -0.2684  2.4160 -0.0771
    9TMC3    H113999   3.110   0.152  12.795  0.7205  0.0685  0.5742
    9TMC3    H214000   3.367   4.539  12.858 -1.0752 -0.9833  0.3997
    9TMC3    C714001   3.157   4.687  12.964  0.0552  0.4272 -0.2752
    9TMC3    C814002   3.442   4.518  12.609 -0.2494 -0.0324 -0.1199
    9TMC3    O114003   3.130   0.051  13.034  0.0421 -0.1032  0.0005
    9TMC3    O214004   3.508   4.553  12.511 -0.6285 -0.0910  0.1397
   10MPD2     C14005   3.643   4.059  12.683  0.1425 -0.6678 -0.2681
   10MPD2    C114006   3.528   4.071  12.756 -0.4162  0.8187 -0.3911
   10MPD2    C214007   3.448   4.179  12.734 -0.6595 -0.1962 -0.5013
   10MPD2    C314008   3.487   4.275  12.652 -0.5590  0.0084  0.7079
   10MPD2    C414009   3.602   4.261  12.582 -0.0781 -0.5491 -0.6296
   10MPD2    C514010   3.678   4.152  12.592 -0.9578  0.4848 -0.1243
   10MPD2     H14011   3.363   4.192  12.801  0.3006  0.6256  0.5690
   10MPD2    H114012   3.625   4.333  12.504 -0.0978 -0.2409 -0.3475
   10MPD2    H214013   3.722   3.985  12.695  1.9481  1.3716  0.4865
   10MPD2    H314014   3.766   4.135  12.530 -0.6906 -3.5392  1.3643
   10MPD2     N14015   3.409   4.389  12.658 -0.2168  0.4801  0.5962
   10MPD2    H514016   3.326   4.386  12.717  1.1513  1.6217  2.5781
   10MPD2    N114017   3.494   3.984  12.860 -0.0288 -0.4303 -0.1886
   10MPD2    H714018   3.409   4.015  12.908 -0.3120 -0.4569 -0.6770
   11MPD2     C14019   0.105   3.781  13.257 -0.5325  0.2392 -0.4422
   11MPD2    C114020   0.130   3.778  13.394  0.5486  0.5833 -0.7175
   11MPD2    C214021   0.027   3.743  13.479  0.0182 -0.0938  0.1054
   11MPD2    C314022   4.631   3.721  13.435 -0.3162 -0.6234 -1.1038
   11MPD2    C414023   4.611   3.729  13.303  1.0695  0.2948  0.2202
   11MPD2    C514024   4.714   3.757  13.217  0.0819  0.1735 -0.1956
   11MPD2     H14025   0.051   3.732  13.585 -1.9696  1.5849  0.7217
   11MPD2    H114026   4.515   3.704  13.257  1.9904 -1.1457 -0.9274
   11MPD2    H214027   0.184   3.799  13.185 -1.0616  0.2850 -1.0106
   11MPD2    H314028   4.689   3.742  13.112 -3.2053 -0.3452  0.6684
   11MPD2     N14029   4.524   3.685  13.522 -0.0272 -0.0798 -0.3430
   11MPD2    H514030   4.435   3.682  13.475 -0.4483 -1.7390  0.5493
   11MPD2    N114031   0.253   3.795  13.446 -0.7957  0.2651 -0.5160
   11MPD2    H714032   0.252   3.776  13.546 -1.4425  0.0326 -0.5716
    1MPD1     C14033   3.217   0.174  16.356 -0.2643 -0.0612 -0.4676
    1MPD1    C114034   3.198   0.152  16.489  0.8278  0.1583 -0.4619
    1MPD1    C214035   3.293   0.082  16.563 -0.1974 -0.0548 -0.2646
    1MPD1    C314036   3.398   0.016  16.494  0.0539 -0.0407  0.3608
    1MPD1    C414037   3.412   0.041  16.366  0.1374 -0.9150 -0.5535
    1MPD1    C514038   3.330   0.123  16.297 -0.4525  0.1867  1.0047
    1MPD1     H14039   3.281   0.069  16.670 -1.5930 -1.7760 -0.6286
    1MPD1    H114040   3.495   4.729  16.312  0.6110 -0.1765 -0.4465
    1MPD1    H214041   3.157   0.238  16.293  0.6664  1.2914  0.0363
    1MPD1    H314042   3.338   0.145  16.192  0.2704  0.9875  1.2312
    1MPD1     N14043   3.501   4.675  16.561 -0.1978  0.4607  0.4567
    1MPD1    H514044   3.563   4.618  16.504 -0.7010  0.5975 -0.2307
    1MPD1    N114045   3.102   0.229  16.556 -0.2653  0.1011 -0.2370
    1MPD1    H614046   3.071   0.185  16.643  2.2361 -4.0505 -1.4714
    1MPD1    H714047   3.023   0.238  16.492 -0.6860  2.1514  0.5493
    2MPD1     C14048   3.918   4.192  17.451  0.2051  0.0086 -0.2535
    2MPD1    C114049   3.966   4.124  17.346 -1.0029 -0.1039 -0.4868
    2MPD1    C214050   3.942   4.167  17.221 -0.0502  0.1795  0.0698
    2MPD1    C314051   3.851   4.277  17.202  0.2931  0.0956  0.2522
    2MPD1    C414052   3.812   4.346  17.310 -0.0655 -0.0892 -0.1512
    2MPD1    C514053   3.836   4.302  17.434  0.2570  0.6925 -0.3735
    2MPD1     H14054   3.988   4.124  17.133 -0.1456 -0.8809  0.5323
    2MPD1    H114055   3.761   4.442  17.318  1.7525  0.8417  0.3099
    2MPD1    H214056   3.929   4.163  17.555 -1.1238 -2.3275 -0.7728
    2MPD1    H314057   3.791   4.357  17.516 -0.2290  0.3147 -0.3915
    2MPD1     N14058   3.813   4.319  17.074  0.5957  0.0775  0.5819
    2MPD1    H514059   3.845   4.262  16.996 -0.6887  2.1910 -1.5056
    2MPD1    N114060   4.080   4.043  17.364 -0.5158 -0.6351 -0.1512
    2MPD1    H614061   4.098   3.977  17.289 -0.3544  0.7616 -1.3532
    2MPD1    H714062   4.074   3.987  17.449  0.8688  1.5625  1.4261
    3TMC3    C114063   3.706   4.438  16.899  0.2046 -0.3185  0.1822
    3TMC3    C214064   3.816   4.416  16.817  0.2191 -0.0167 -0.5834
    3TMC3    C314065   3.824   4.479  16.696 -0.0829 -0.2350 -0.0217
    3TMC3    C414066   3.606   4.526  16.863 -0.0090 -0.3206  0.1693
    3TMC3    C514067   3.613   4.581  16.741 -0.2245  0.1625  0.0053
    3TMC3    C614068   3.726   4.562  16.653  0.2616  0.1400  0.1245
    3TMC3     C14069   3.718   4.415  17.040  0.8432 -0.4932 -0.3094
    3TMC3     O14070   3.655   4.488  17.116  0.0243 -0.1817 -0.2008
    3TMC3     H14071   3.907   4.371  16.854  0.8468  0.2935 -1.7622
    3TMC3    H114072   3.528   4.549  16.934  0.5971  0.5348  0.5519
    3TMC3    H214073   3.741   4.608  16.555 -0.1780  0.2893  0.1264
    3TMC3    C714074   3.514   4.670  16.693  0.0792 -0.3702  0.4358
    3TMC3    C814075   3.931   4.448  16.599 -0.3057  0.0279 -0.3249
    3TMC3    O114076   3.450   4.725  16.778 -0.1232 -0.2436 -0.3417
    3TMC3    O214077   3.964   4.543  16.530  0.1092 -0.7160 -0.9786
    4MPD1     C14078   4.276   4.144  16.377  0.3941  0.0079  0.3025
    4MPD1    C114079   4.212   4.076  16.478  0.3980  0.4283 -0.0261
    4MPD1    C214080   4.108   4.135  16.550  0.9061  0.5091 -0.1569
    4MPD1    C314081   4.069   4.262  16.519 -0.1458  0.4165 -0.5378
    4MPD1    C414082   4.126   4.326  16.412 -0.1197 -0.0365  0.0993
    4MPD1    C514083   4.226   4.266  16.345  0.2342  0.4664  0.4782
    4MPD1     H14084   4.052   4.086  16.628 -0.3492 -1.9817 -2.6192
    4MPD1    H114085   4.088   4.424  16.387  1.2811 -0.0976 -2.3264
    4MPD1    H214086   4.358   4.107  16.317 -1.1548 -1.2533 -1.0673
    4MPD1    H314087   4.261   4.315  16.255  0.8351 -1.3273 -0.2457
    4MPD1     N14088   3.970   4.316  16.599 -0.7526  0.0421 -0.2174
    4MPD1    H514089   3.952   4.258  16.679 -2.0809 -0.3427 -0.7856
    4MPD1    N114090   4.263   3.948  16.516 -0.1521  0.2759  0.2692
    4MPD1    H614091   4.202   3.890  16.574 -2.4759  0.6980 -1.7599
    4MPD1    H714092   4.302   3.893  16.439  0.5300 -0.1399  0.9086
    1TCq1    O114093   3.460   0.117  11.555  0.0530 -0.0113  0.2435
    1TCq1    C114094   3.505   0.230  11.495  0.4692 -0.0519 -0.1989
    1TCq1    O214095   3.522   0.343  11.543 -0.9523  0.6454 -0.3817
    1TCq1    C214096   3.483   0.199  11.354  0.2118  0.1744 -0.5668
    1TCq1    C314097   3.533   0.077  11.307  0.2682 -0.8810  0.0729
    1TCq1    C414098   3.574   0.067  11.177 -0.5456 -0.5885 -0.3738
    1TCq1    C514099   3.587   0.180  11.097  0.6957 -0.4439  0.1397
    1TCq1    C614100   3.530   0.295  11.144  0.1084 -0.4238  0.7551
    1TCq1    C714101   3.468   0.304  11.268  0.0175  0.7229  0.0160
    1TCq1    C814102   3.587   0.420  11.095  0.7146 -0.1597 -0.4892
    1TCq1    O414103   3.590   0.513  11.176 -0.3713  0.2937 -0.6143
    1TCq1    C914104   3.661   4.692  11.136 -0.3624  0.0551 -0.6426
    1TCq1    O514105   3.722   4.629  11.222  0.1602 -0.8330  0.1342
    1TCq1    O614106   3.714   4.694  11.025 -0.5484  0.4007  0.5426
    1TCq1    H114107   3.427   0.051  11.490 -1.5090  2.3224 -1.3707
    1TCq1    H214108   3.574   0.010  11.382  1.9495  2.2097  1.9178
    1TCq1    H314109   3.654   0.175  11.012  1.4842  1.1836  0.6739
    1TCq1    H414110   3.432   0.401  11.302  1.0432  1.2621 -0.4157
    2MPD1     C14111   3.791   0.718  10.731 -0.3400  0.3674 -0.7388
    2MPD1    C114112   3.771   0.734  10.869  0.7215 -0.3056  0.0001
    2MPD1    C214113   3.719   0.640  10.950 -0.0102 -0.4327  0.0881
    2MPD1    C314114   3.689   0.512  10.894  0.1729  0.0802  0.2506
    2MPD1    C414115   3.713   0.492  10.761  0.7859 -0.0813 -0.1506
    2MPD1    C514116   3.775   0.590  10.684 -0.4638  0.6645  0.0049
    2MPD1     H14117   3.703   0.667  11.053  0.9782  0.8674 -0.0958
    2MPD1    H114118   3.689   0.395  10.719  1.2766 -1.4550  2.7459
    2MPD1    H214119   3.833   0.789  10.661 -0.4715  0.0156 -1.1719
    2MPD1    H314120   3.802   0.563  10.582 -1.6186 -0.7014  0.0761
    2MPD1     N14121   3.631   0.410  10.968 -0.0669  0.0821 -0.3474
    2MPD1    H514122   3.606   0.327  10.915 -0.8566 -0.8892  1.5137
    2MPD1    N114123   3.793   0.868  10.912 -0.0523  0.0093  0.6411
    2MPD1    H614124   3.799   0.879  11.013 -2.3746 -2.4391  1.0309
    2MPD1    H714125   3.714   0.925  10.882 -0.6752  0.6553  3.5001
    1TMC1    C114126   1.712   1.495   1.472 -0.0515 -0.8144  0.4705
    1TMC1    C214127   1.612   1.405   1.440  0.3314  0.3501  0.2923
    1TMC1    C314128   1.624   1.340   1.320 -0.8394  0.1410  0.0072
    1TMC1    C414129   1.812   1.525   1.392 -0.1347  0.1289  0.3573
    1TMC1    C514130   1.810   1.466   1.267 -0.4991 -0.3451  1.0528
    1TMC1    C614131   1.729   1.366   1.236 -0.6281  0.9602 -0.9549
    1TMC1     C14132   1.702   1.565   1.601 -0.2627 -0.3530 -0.0251
    1TMC1     O14133   1.757   1.673   1.619 -0.0843 -0.0848 -0.2125
    1TMC1     H14134   1.520   1.395   1.496 -0.1818 -0.3742 -0.6646
    1TMC1    H114135   1.887   1.600   1.417 -0.3044  0.0494  1.1139
    1TMC1    H214136   1.741   1.308   1.145  0.1335  2.4859 -1.8164
    1TMC1    C714137   1.947   1.450   1.211  0.6222 -0.1502  0.2420
    1TMC1    C814138   1.557   1.224   1.306  0.1195 -0.2345 -0.4883
    1TMC1    O114139   2.012   1.344   1.203  0.6136 -0.1440 -0.5868
    1TMC1    O214140   1.528   1.152   1.401 -0.1338  1.2506  0.1420
    1TMC1    O314141   2.007   1.571   1.212  0.2464 -0.1023 -0.1870
    1TMC1    H314142   1.942   1.644   1.209  1.6503  1.1066 -1.2935
    1TMC1    O514143   1.526   1.196   1.176 -0.6496 -0.1003 -0.0477
    1TMC1    H514144   1.540   1.276   1.122  3.0395 -1.0867 -0.5419
    2MPD1     C14145   1.676   1.543   2.128 -0.4581 -0.1066  0.2757
    2MPD1    C114146   1.630   1.426   2.077  0.2995 -0.2077 -0.0520
    2MPD1    C214147   1.621   1.407   1.937 -0.5001  0.6716 -0.3968
    2MPD1    C314148   1.656   1.499   1.842 -0.1842 -0.8770 -0.5371
    2MPD1    C414149   1.697   1.617   1.906 -0.4129 -0.1276 -0.2272
    2MPD1    C514150   1.708   1.636   2.037  0.4954  0.0312  0.6241
    2MPD1     H14151   1.586   1.308   1.910  0.1657  0.4418 -0.4193
    2MPD1    H114152   1.723   1.700   1.841 -2.8501  0.5112 -0.3936
    2MPD1    H214153   1.690   1.562   2.234  3.5336 -1.8951  0.0595
    2MPD1    H314154   1.753   1.726   2.078 -1.6557  1.1976  0.4025
    2MPD1     N14155   1.659   1.480   1.697 -0.8131  0.0170 -0.0444
    2MPD1    H514156   1.630   1.389   1.662 -0.5148 -1.1580  2.8060
    2MPD1    N114157   1.563   1.341   2.167 -0.1825  0.3337  0.1724
    2MPD1    H614158   1.582   1.245   2.139 -1.5169  0.0756  0.1167
    2MPD1    H714159   1.597   1.341   2.263  1.0602 -0.4261 -0.2747
    1MPD1     C14160   1.284   4.339  13.104  0.4328  0.4565  0.3282
    1MPD1    C114161   1.161   4.341  13.059  0.2363  0.5330  0.6940
    1MPD1    C214162   1.138   4.372  12.927  0.4232 -0.6528 -0.2969
    1MPD1    C314163   1.240   4.414  12.842 -0.3692 -0.4667 -0.2086
    1MPD1    C414164   1.362   4.433  12.901 -0.6951  0.4033 -0.4694
    1MPD1    C514165   1.388   4.384  13.028 -0.2752  0.1608  0.5861
    1MPD1     H14166   1.041   4.354  12.883  1.2715  0.2618 -2.5359
    1MPD1    H114167   1.447   4.463  12.841  0.3648  1.5422  1.6040
    1MPD1    H214168   1.308   4.315  13.207  0.4646 -1.9857 -0.2471
    1MPD1    H314169   1.492   4.392  13.056 -0.4780  0.8860  1.1239
    1MPD1     N14170   1.208   4.421  12.714 -0.4477 -0.3054 -0.0474
    1MPD1    H514171   1.114   4.396  12.685 -0.4457 -2.2280  1.5941
    1MPD1    N114172   1.063   4.281  13.138 -0.1126  0.2446 -0.8209
    1MPD1    H614173   1.080   4.304  13.236  1.9045  0.4816 -1.2157
    1MPD1    H714174   0.965   4.297  13.118  0.1101  3.1153  0.3556
    2MPD1     C14175   4.412   4.433  10.588  0.0568 -0.8290  0.0488
    2MPD1    C114176   4.497   4.435  10.482  0.0686 -0.0503  0.0044
    2MPD1    C214177   4.630   4.428  10.507 -0.6684  0.3940 -0.3343
    2MPD1    C314178   4.678   4.429  10.634 -0.0720  0.3274 -0.2126
    2MPD1    C414179   4.598   4.414  10.741  0.8901 -0.4677 -0.3497
    2MPD1    C514180   4.463   4.428  10.714 -0.2442  0.3562 -0.7804
    2MPD1     H14181   4.689   4.440  10.417 -0.1080  0.7716  0.0893
    2MPD1    H114182   4.623   4.412  10.846 -0.7819  0.0954  0.0581
    2MPD1    H214183   4.305   4.419  10.571 -0.0465  1.2109 -0.9935
    2MPD1    H314184   4.396   4.416  10.797  2.6036  1.4943  1.6833
    2MPD1     N14185   0.083   4.446  10.668  0.6206  0.1565  0.2822
    2MPD1    H514186   0.112   4.451  10.765 -0.0300 -0.3592  0.4997
    2MPD1    N114187   4.445   4.421  10.348  0.3406  0.2836  0.1945
    2MPD1    H614188   4.513   4.457  10.281  1.6616 -0.7895  0.9530
    2MPD1    H714189   4.356   4.468  10.333 -0.3002 -1.4335 -1.3632
    3MPD1     C14190   0.910   4.404  10.094  1.0173  0.5387 -0.4999
    3MPD1    C114191   0.780   4.403  10.056  0.0196 -0.0992 -0.0084
    3MPD1    C214192   0.689   4.432  10.151 -0.3863  0.2681 -0.1423
    3MPD1    C314193   0.729   4.443  10.286  0.3133  0.0238  0.2670
    3MPD1    C414194   0.865   4.442  10.321 -0.4653  0.1078  0.1387
    3MPD1    C514195   0.952   4.425  10.224  0.7473  0.1131 -0.2577
    3MPD1     H14196   0.589   4.466  10.127 -1.7131 -1.8617  2.4422
    3MPD1    H114197   0.907   4.452  10.420  1.8605  0.2507 -0.8742
    3MPD1    H214198   0.989   4.394  10.020  1.4341 -3.4236  0.4426
    3MPD1    H314199   1.054   4.403  10.256  0.1813  0.0116  1.4699
    3MPD1     N14200   0.631   4.464  10.385  0.5404 -0.0239 -1.1030
    3MPD1    H514201   0.534   4.450  10.359  0.3998  0.8589 -1.0801
    3MPD1    N114202   0.745   4.403   9.920 -0.4552  0.7040  0.0052
    3MPD1    H614203   0.658   4.352   9.910  0.1968  0.2729 -3.4142
    3MPD1    H714204   0.813   4.350   9.866  0.2840  2.4930 -0.8488
    4MPD2     C14205   0.659   4.628  12.240  0.9573  0.5346 -0.1855
    4MPD2    C114206   0.788   4.628  12.194 -0.5547 -0.7219 -0.2701
    4MPD2    C214207   0.811   4.611  12.055  0.2615 -0.5110  0.0753
    4MPD2    C314208   0.709   4.589  11.963  0.8604 -0.6920  0.0069
    4MPD2    C414209   0.583   4.606  12.018 -0.5610 -0.3586 -0.7703
    4MPD2    C514210   0.559   4.620  12.150  0.5170  0.0046  0.2420
    4MPD2     H14211   0.911   4.619  12.014  0.3267 -0.0657  0.3178
    4MPD2    H114212   0.496   4.600  11.954 -0.8987 -2.4731 -0.1385
    4MPD2    H214213   0.652   4.642  12.347 -0.6001  0.3107 -0.2616
    4MPD2    H314214   0.456   4.622  12.183  1.1230 -1.2853  2.1929
    4MPD2     N14215   0.724   4.566  11.829  0.4387 -0.2660  0.0881
    4MPD2    H514216   0.642   4.560  11.770 -1.5111  0.5497  2.7543
    4MPD2    N114217   0.899   4.654  12.276  0.5074 -0.3852  0.1205
    4MPD2    H714218   0.988   4.650  12.228  0.5489  0.8054  0.0981
    5TMC3    C114219   1.051   4.702  12.444 -0.3133  0.2943 -0.0816
    5TMC3    C214220   1.092   4.602  12.531  0.2428 -0.5942 -0.7830
    5TMC3    C314221   1.214   4.544  12.502 -0.3851 -0.1465 -0.1546
    5TMC3    C414222   1.128   0.014  12.347  0.4334  0.2334 -0.2972
    5TMC3    C514223   1.250   4.687  12.319 -0.0581  0.4912 -0.1166
    5TMC3    C614224   1.295   4.590  12.396  0.3774  0.5439  0.2242
    5TMC3     C14225   0.916   4.684  12.413  0.9479  0.9081 -0.3884
    5TMC3     O14226   0.833   4.680  12.501 -0.3636  0.1826  0.3460
    5TMC3     H14227   1.021   4.564  12.604 -0.2426  2.1414  0.1745
    5TMC3    H114228   1.100   0.094  12.281 -2.1597  0.1681  0.7339
    5TMC3    H214229   1.392   4.544  12.383  1.1032  1.9847  0.5490
    5TMC3    C714230   1.239   4.659  12.178  0.1533  0.6942  0.1460
    5TMC3    C814231   1.288   4.481  12.615  0.7331  0.0435  0.3217
    5TMC3    O114232   1.130   4.678  12.132 -0.4274 -0.2149  0.1409
    5TMC3    O214233   1.410   4.498  12.621 -0.4724  0.1983 -0.3537
    6TMC3    C114234   0.308   4.495  10.630  0.6999 -0.2629  0.0006
    6TMC3    C214235   0.416   4.482  10.543  0.5639 -0.3406 -0.2295
    6TMC3    C314236   0.539   4.514  10.602 -0.3373  0.1019  0.2284
    6TMC3    C414237   0.323   4.531  10.766 -0.5084  0.3489  0.1147
    6TMC3    C514238   0.448   4.552  10.816  0.2348  0.3495 -0.4215
    6TMC3    C614239   0.560   4.537  10.733 -0.0008  1.0754 -0.1716
    6TMC3     C14240   0.183   4.455  10.574 -0.1711 -0.2048  0.3126
    6TMC3     O14241   0.174   4.419  10.456 -0.1551 -0.1254 -0.2066
    6TMC3     H14242   0.398   4.427  10.451  1.6692  0.3109 -0.8259
    6TMC3    H114243   0.235   4.539  10.829 -0.2590  0.5883  0.4280
    6TMC3    H214244   0.659   4.545  10.776  0.6035 -2.1935 -0.9146
    6TMC3    C714245   0.474   4.602  10.950  0.2247 -0.2074 -0.0314
    6TMC3    C814246   0.660   4.502  10.519 -0.3364  0.0884 -0.4447
    6TMC3    O114247   0.589   4.571  10.985 -0.6366  0.5445 -0.3692
    6TMC3    O214248   0.770   4.540  10.569 -0.3471 -0.4383 -0.1623
    7MPD2     C14249   1.416   4.603  11.705  0.0706 -0.1768 -0.2956
    7MPD2    C114250   1.285   4.597  11.752  0.3810  0.0776  0.8546
    7MPD2    C214251   1.269   4.597  11.894 -0.0198  0.3926  0.1889
    7MPD2    C314252   1.375   4.617  11.981 -0.1950 -0.2723 -0.2383
    7MPD2    C414253   1.505   4.609  11.934  0.8779  0.3983 -0.1553
    7MPD2    C514254   1.524   4.606  11.795  0.6864 -0.0900 -0.0772
    7MPD2     H14255   1.166   4.582  11.927  0.3033  3.3238  2.5259
    7MPD2    H114256   1.593   4.623  11.996  0.7238  0.3103  0.0847
    7MPD2    H214257   1.437   4.617  11.600  1.5528 -0.8748 -0.1018
    7MPD2    H314258   1.622   4.621  11.753 -0.8766  3.4490 -2.5194
    7MPD2     N14259   1.356   4.631  12.116 -0.0990 -0.3682  0.0741
    7MPD2    H514260   1.438   4.611  12.172 -0.2843 -1.9829 -0.2390
    7MPD2    N114261   1.177   4.574  11.669  0.3858 -0.3004  0.0724
    7MPD2    H714262   1.083   4.572  11.708 -0.9745  0.4962 -3.1560
    8TMC3    C114263   1.027   4.564  11.495  0.1465 -0.2731 -0.2473
    8TMC3    C214264   0.967   4.665  11.423 -0.2304  0.8744  0.0328
    8TMC3    C314265   0.849   4.712  11.468 -0.3124 -0.0220 -0.9221
    8TMC3    C414266   0.964   4.495  11.590 -0.7434  0.4300 -1.2373
    8TMC3    C514267   0.840   4.540  11.628  0.0917  0.3000 -0.3815
    8TMC3    C614268   0.789   4.651  11.574  0.2221 -0.0431 -0.3721
    8TMC3     C14269   1.166   4.575  11.531 -0.8520  0.2470 -0.1549
    8TMC3     O14270   1.248   4.605  11.445  0.1902  0.2533  0.8142
    8TMC3     H14271   1.017   4.705  11.335  2.2462 -0.9687  0.5960
    8TMC3    H114272   1.017   4.408  11.628  0.2362  1.4789 -0.1876
    8TMC3    H214273   0.690   4.674  11.610 -0.7104 -1.4818 -1.9933
    8TMC3    C714274   0.838   4.534  11.768  0.0751  0.2025 -0.0373
    8TMC3    C814275   0.764   0.035  11.363 -0.4468  0.2533  0.3292
    8TMC3    O114276   0.940   4.488  11.819  0.1809 -0.1991 -0.2027
    8TMC3    O214277   0.803   0.017  11.246 -0.3514 -0.1941  0.0950
    9MPD2     C14278   0.410   0.142  11.375 -0.4532 -0.0315 -0.4849
    9MPD2    C114279   0.526   0.090  11.321 -0.1712 -0.9557  0.1324
    9MPD2    C214280   0.510   0.019  11.205 -0.4092  0.2848  0.3663
    9MPD2    C314281   0.386   0.018  11.129  0.2069 -0.4674  0.1046
    9MPD2    C414282   0.282   0.092  11.181  0.0531  0.3633 -0.1271
    9MPD2    C514283   0.289   0.131  11.310 -0.3799 -0.3919  0.9149
    9MPD2     H14284   0.593   4.695  11.164 -2.1923 -2.4830  0.6062
    9MPD2    H114285   0.187   0.091  11.127  1.1581 -3.1001 -2.0619
    9MPD2    H214286   0.409   0.198  11.468  2.4915  0.1082 -0.5296
    9MPD2    H314287   0.211   0.181  11.367  0.4898  1.2827  0.6551
    9MPD2     N14288   0.370   4.674  11.008  0.2543  0.0399 -0.1191
    9MPD2    H514289   0.297   4.703  10.942 -0.1015  1.2371  0.7921
    9MPD2    N114290   0.641   0.077  11.408  0.1433 -0.0522  0.2469
    9MPD2    H714291   0.637   0.103  11.507  1.6696  1.0506  0.0378
    1MPD1     C14292   1.035   3.269  17.116 -0.7395  0.1539  0.5622
    1MPD1    C114293   0.917   3.280  17.052 -0.5804 -0.2267 -0.2123
    1MPD1    C214294   0.903   3.226  16.927  0.0469 -0.5230 -0.5069
    1MPD1    C314295   1.011   3.161  16.868 -0.1840  0.8216  0.0594
    1MPD1    C414296   1.123   3.135  16.944 -0.3979  0.4590 -0.6417
    1MPD1    C514297   1.133   3.187  17.069 -0.3024 -0.2014 -0.6066
    1MPD1     H14298   0.810   3.233  16.871  0.4809 -0.8229 -1.2529
    1MPD1    H114299   1.194   3.063  16.905  2.2485  3.0047 -0.4471
    1MPD1    H214300   1.055   3.294  17.220 -0.1239  0.5167  0.3595
    1MPD1    H314301   1.222   3.169  17.127 -1.2487  1.1772  1.2533
    1MPD1     N14302   1.012   3.114  16.736 -0.0378 -0.2812  0.2012
    1MPD1    H514303   1.087   3.048  16.719  1.0403  0.5318  1.7807
    1MPD1    N114304   0.809   3.343  17.122 -0.1227 -0.3840  0.4373
    1MPD1    H614305   0.841   3.407  17.194  1.0060  0.1994 -0.5812
    1MPD1    H714306   0.749   3.385  17.052 -2.6383 -0.9375  2.2676
    2TMC2    C114307   0.902   3.103  16.287  1.0584 -0.1657  0.8444
    2TMC2    C214308   1.026   3.134  16.249 -0.5801  0.2215 -0.1960
    2TMC2    C314309   1.123   3.154  16.345 -0.2878 -0.5076 -0.0652
    2TMC2    C414310   0.869   3.093  16.415 -0.6514  0.2303  0.1331
    2TMC2    C514311   0.971   3.111  16.513  0.5771 -0.9488 -0.4181
    2TMC2    C614312   1.098   3.140  16.476  0.0349  0.0616 -0.3226
    2TMC2     C14313   0.797   3.072  16.192  0.1236 -0.1096 -0.4318
    2TMC2     O14314   0.696   3.019  16.243 -0.0785  0.3678 -0.3613
    2TMC2     H14315   1.053   3.152  16.145  0.9502  2.2071  0.5452
    2TMC2    H114316   0.763   3.096  16.440 -0.6576 -1.3716  0.3193
    2TMC2    H214317   1.174   3.159  16.550  1.0572  0.5356 -1.4851
    2TMC2    C714318   0.932   3.164  16.639 -0.2868 -0.1542 -0.0625
    2TMC2    C814319   1.230   3.251  16.317 -0.2988  0.0221  0.3235
    2TMC2    O114320   0.836   3.237  16.628 -0.1926  0.2626  0.5347
    2TMC2    O214321   1.200   3.360  16.269  0.2003 -0.0245 -0.0545
    2TMC2    O514322   1.341   3.207  16.384 -0.3480 -0.0099 -0.6254
    2TMC2    H514323   1.338   3.109  16.387 -0.0841  0.0348  1.5388
    3MPD1     C14324   0.554   2.981  15.751 -0.8510  1.0273  0.0975
    3MPD1    C114325   0.663   3.063  15.728  0.3090 -0.1693 -0.6670
    3MPD1    C214326   0.753   3.090  15.828  0.5167 -0.0182  0.2788
    3MPD1    C314327   0.724   3.058  15.957 -0.3814  0.0596  0.5945
    3MPD1    C414328   0.612   2.978  15.984 -0.2685 -0.2622 -0.3960
    3MPD1    C514329   0.536   2.940  15.880  0.0744  0.8861  1.1561
    3MPD1     H14330   0.837   3.154  15.804  0.7383  0.0203  1.1613
    3MPD1    H114331   0.582   2.939  16.081  0.4555  1.8907  0.6900
    3MPD1    H214332   0.486   2.950  15.672 -2.9210  1.5310  1.7091
    3MPD1    H314333   0.448   2.879  15.896  0.0369  0.8472  0.8208
    3MPD1     N14334   0.815   3.097  16.056 -0.8953 -0.0819 -0.9310
    3MPD1    H514335   0.886   3.155  16.012  0.9597  0.3413  2.6067
    3MPD1    N114336   0.677   3.129  15.613 -0.4702 -0.0037 -0.5362
    3MPD1    H614337   0.655   3.054  15.548  0.3696  0.1217 -0.9616
    3MPD1    H714338   0.772   3.155  15.588 -0.3511 -0.4012 -0.4983
    1TMC1    C114339   3.234   2.411  13.312 -0.1019  0.5834  0.6155
    1TMC1    C214340   3.213   2.295  13.382  0.8424 -0.2125  0.0687
    1TMC1    C314341   3.088   2.233  13.377 -0.5254 -0.4739  0.6009
    1TMC1    C414342   3.143   2.473  13.237  0.3247  0.3595 -0.0432
    1TMC1    C514343   3.025   2.401  13.217  0.6778 -0.3978 -0.3425
    1TMC1    C614344   2.993   2.287  13.289 -0.7403  0.5673 -0.2757
    1TMC1     C14345   3.357   2.488  13.337  0.2685  0.5895  0.2127
    1TMC1     O14346   3.372   2.594  13.273  0.2911  0.5076 -0.5213
    1TMC1     H14347   3.288   2.237  13.434  2.7281  0.5289 -1.8172
    1TMC1    H114348   3.159   2.563  13.178  0.5415 -0.4202 -1.1830
    1TMC1    H214349   2.909   2.230  13.249  1.2808 -2.5691 -0.0667
    1TMC1    C714350   2.918   2.447  13.125  0.2515  0.3247 -0.6735
    1TMC1    C814351   3.077   2.095  13.412 -0.2660 -0.7216 -0.3005
    1TMC1    O114352   2.803   2.418  13.144 -0.6761 -0.3501 -0.2622
    1TMC1    O214353   3.174   2.014  13.405  0.1885  0.5603 -0.6072
    1TMC1    O314354   2.969   2.545  13.048 -0.9359 -0.3736 -0.1782
    1TMC1    H314355   3.061   2.529  13.021 -0.4587  1.0303  0.6288
    1TMC1    O514356   2.948   2.055  13.429 -0.2034 -0.1332  0.1496
    1TMC1    H514357   2.878   2.124  13.431 -0.9174 -0.8348 -0.3936
    2MPD2     C14358   3.641   2.522  13.389  0.2068  0.1292 -0.5891
    2MPD2    C114359   3.554   2.476  13.485 -0.1312  0.1529 -0.3918
    2MPD2    C214360   3.589   2.462  13.619  0.1649  0.5395 -0.0808
    2MPD2    C314361   3.724   2.481  13.648 -0.0139  0.1077  0.5837
    2MPD2    C414362   3.817   2.510  13.554 -0.0495 -0.2488  0.2749
    2MPD2    C514363   3.776   2.529  13.425  1.0551 -0.3363  0.6639
    2MPD2     H14364   3.524   2.437  13.701  1.6060 -0.0269  0.8817
    2MPD2    H114365   3.923   2.517  13.576 -0.3039 -1.3294  1.8644
    2MPD2    H214366   3.606   2.559  13.294 -0.7179 -0.0050 -0.2961
    2MPD2    H314367   3.845   2.566  13.350 -1.5100  0.6359 -1.2358
    2MPD2     N14368   3.754   2.467  13.783 -0.1693 -0.2326  0.0313
    2MPD2    H514369   3.676   2.457  13.847 -0.1575 -0.8332 -0.0477
    2MPD2    N114370   3.417   2.441  13.453 -0.6345 -0.2071  0.1490
    2MPD2    H714371   3.358   2.396  13.523 -0.9175  3.1147  2.0542
    3TCq1    O114372   3.654   2.606  14.220  0.0305 -0.0010 -0.8709
    3TCq1    C114373   3.767   2.565  14.271 -0.2943 -0.0771 -0.9810
    3TCq1    O214374   3.813   2.606  14.377  0.1107 -0.1692 -0.6173
    3TCq1    C214375   3.851   2.497  14.176 -0.2743 -0.1328  0.7652
    3TCq1    C314376   3.945   2.422  14.231  0.4133 -0.3230 -0.3625
    3TCq1    C414377   4.022   2.344  14.151 -0.1394  0.1845 -1.1409
    3TCq1    C514378   3.993   2.336  14.016 -0.6102 -0.4362  0.0374
    3TCq1    C614379   3.893   2.417  13.967 -0.2322 -0.0172 -0.2416
    3TCq1    C714380   3.824   2.500  14.043 -0.4784 -0.1244 -0.3174
    3TCq1    C814381   3.882   2.425  13.824 -0.2011  0.3312  0.2601
    3TCq1    O414382   3.969   2.388  13.750 -0.1370 -0.4425 -0.3125
    3TCq1    C914383   4.139   2.285  14.205  0.4268  0.7166 -0.6637
    3TCq1    O514384   4.200   2.199  14.129 -0.2674  0.3653  0.1750
    3TCq1    O614385   4.173   2.319  14.322 -0.5610 -0.2237  0.0033
    3TCq1    H114386   3.635   2.568  14.132 -0.6819 -1.8358  0.0642
    3TCq1    H214387   3.958   2.429  14.338  0.6826  0.8968 -0.4846
    3TCq1    H314388   4.050   2.272  13.951  0.6279  2.9455 -2.1813
    3TCq1    H414389   3.748   2.568  14.005 -0.9030 -0.6194 -0.3422
    1MPD2     C14390   2.898   3.791  15.555 -0.3225  0.7676  0.1633
    1MPD2    C114391   2.877   3.683  15.473  0.7237  0.9632 -0.3201
    1MPD2    C214392   2.982   3.595  15.449 -0.0043 -0.3885 -0.2601
    1MPD2    C314393   3.089   3.593  15.526  0.3991  0.2374  0.2461
    1MPD2    C414394   3.109   3.702  15.613 -0.8912 -0.0037 -0.3067
    1MPD2    C514395   3.012   3.801  15.625  0.3893  0.1624  0.4752
    1MPD2     H14396   2.974   3.507  15.387  1.2143  1.2191 -2.6893
    1MPD2    H114397   3.194   3.704  15.680  0.8271  1.0157 -2.5180
    1MPD2    H214398   2.825   3.867  15.583  2.2624  3.8105 -1.3686
    1MPD2    H314399   3.017   3.890  15.687  2.3467 -0.3541  1.0717
    1MPD2     N14400   3.173   3.484  15.519 -0.7882 -0.1305  0.1595
    1MPD2    H514401   3.137   3.419  15.449 -0.6647 -0.4770  0.4157
    1MPD2    N114402   2.756   3.676  15.408 -0.2895  0.0240 -0.1795
    1MPD2    H714403   2.686   3.742  15.438  0.7903  0.1908  1.9162
    2TMC3    C114404   2.593   3.580  15.253 -0.6884 -0.2393 -0.4934
    2TMC3    C214405   2.566   3.456  15.197 -0.4161 -0.3251  0.1005
    2TMC3    C314406   2.525   3.437  15.065 -0.1805 -0.1076  0.1830
    2TMC3    C414407   2.558   3.690  15.173  0.2239  0.2623 -0.2973
    2TMC3    C514408   2.497   3.671  15.047 -0.1058  0.1975  0.4762
    2TMC3    C614409   2.483   3.548  14.989 -0.2050  0.2823 -0.1876
    2TMC3     C14410   2.718   3.582  15.316  0.2735 -0.3707 -0.4963
    2TMC3     O14411   2.785   3.496  15.266  0.4177 -0.0386  0.1513
    2TMC3     H14412   2.585   3.363  15.251  1.9174 -0.1009 -0.3366
    2TMC3    H114413   2.570   3.787  15.220 -1.1676 -0.1203  0.8706
    2TMC3    H214414   2.439   3.540  14.890 -0.2461 -1.1756 -0.0530
    2TMC3    C714415   2.458   3.786  14.963  0.7290 -0.5789  0.6202
    2TMC3    C814416   2.600   3.334  14.996 -0.0223 -0.5618  0.5290
    2TMC3    O114417   2.377   3.754  14.873 -0.2235  0.3852  0.0691
    2TMC3    O214418   2.568   3.286  14.889 -0.0602 -0.3084  0.4301
    3TCq1    O114419   2.987   0.020  14.593 -0.0848 -0.0678 -0.3737
    3TCq1    C114420   3.032   0.048  14.715 -0.7101  0.1579  0.6181
    3TCq1    O214421   3.114   0.133  14.741 -0.5625  0.6422 -0.3535
    3TCq1    C214422   3.013   4.678  14.813 -0.7416  0.8223 -0.2235
    3TCq1    C314423   3.119   4.632  14.883 -0.4096 -0.0129 -0.1712
    3TCq1    C414424   3.087   4.543  14.983 -0.5257 -0.0204  0.4414
    3TCq1    C514425   2.963   4.481  14.993 -0.6385 -0.3616 -0.1767
    3TCq1    C614426   2.860   4.529  14.909  0.3563 -0.1705 -0.2471
    3TCq1    C714427   2.889   4.630  14.818  0.7118  0.1181  0.3766
    3TCq1    C814428   2.726   4.470  14.903  0.2147 -0.0641 -0.1560
    3TCq1    O414429   2.637   4.542  14.857  0.4056  0.0597 -0.5672
    3TCq1    C914430   3.189   4.507  15.080 -0.1963  0.6250 -0.3996
    3TCq1    O514431   3.164   4.404  15.150 -0.0750  0.0707  1.2004
    3TCq1    O614432   3.289   4.582  15.081 -0.0345 -0.2009  0.5372
    3TCq1    H114433   2.937   4.669  14.580  1.5218 -0.8982 -1.2791
    3TCq1    H214434   3.215   4.682  14.876 -0.4703  0.1981  0.5169
    3TCq1    H314435   2.944   4.411  15.073 -2.1739  2.3092  1.8041
    3TCq1    H414436   2.808   4.670  14.759  0.6640  0.5525  0.7321
    4MPD2     C14437   2.504   4.281  14.821 -0.1320 -0.1726 -0.4209
    4MPD2    C114438   2.617   4.249  14.896 -0.0221 -0.8112 -0.2255
    4MPD2    C214439   2.635   4.118  14.946 -0.1592  0.4136  0.5495
    4MPD2    C314440   2.538   4.022  14.922  0.7720  0.0277  0.1341
    4MPD2    C414441   2.434   4.056  14.840  0.3260  0.1979  0.0850
    4MPD2    C514442   2.410   4.183  14.792  0.2892 -0.9777  0.3913
    4MPD2     H14443   2.721   4.091  15.007 -0.3273  0.0756  0.6349
    4MPD2    H114444   2.360   3.978  14.820  2.4327 -2.0136  0.9548
    4MPD2    H214445   2.498   4.372  14.762  0.9177 -0.8849 -1.6314
    4MPD2    H314446   2.319   4.201  14.736  1.1100 -2.8097 -1.5286
    4MPD2     N14447   2.537   3.897  14.991 -0.8833 -0.1815  0.7294
    4MPD2    H514448   2.613   3.869  15.051  0.0131 -1.1962 -0.8747
    4MPD2    N114449   2.723   4.340  14.925 -0.0662 -0.2055 -0.0428
    4MPD2    H714450   2.806   4.304  14.972  0.7371  2.5173  0.6240
    5TMC2    C114451   3.276   3.189  15.371 -0.4485 -0.6496  0.3184
    5TMC2    C214452   3.240   3.090  15.453 -0.0134 -0.2527  0.5787
    5TMC2    C314453   3.260   3.102  15.586 -0.7184 -0.2211 -0.0521
    5TMC2    C414454   3.324   3.301  15.424 -0.4519 -0.7958 -0.8764
    5TMC2    C514455   3.339   3.325  15.557  0.3006  0.1595  0.1691
    5TMC2    C614456   3.302   3.223  15.641 -0.1322 -0.5955  0.1316
    5TMC2     C14457   3.179   3.228  15.268  0.5780 -0.5359  0.0909
    5TMC2     O14458   3.142   3.344  15.275  0.0694  0.2838 -0.0161
    5TMC2     H14459   3.211   2.998  15.402  3.8025 -0.9695 -0.3144
    5TMC2    H114460   3.353   3.383  15.358 -0.1531  0.2135  0.5043
    5TMC2    H214461   3.331   3.246  15.742 -0.3901 -0.0020  0.0732
    5TMC2    C714462   3.283   3.453  15.596  0.3745 -0.7163  0.1893
    5TMC2    C814463   3.216   2.999  15.674  0.2140  0.1165  0.8662
    5TMC2    O114464   3.307   3.501  15.706  0.0855  0.1646 -0.3818
    5TMC2    O214465   3.226   2.880  15.644  0.1083  0.0463  0.2255
    5TMC2    O514466   3.214   3.041  15.801  0.1531 -0.3948 -0.4059
    5TMC2    H514467   3.187   3.135  15.810 -0.9446 -0.5954 -1.4923
    6MPD2     C14468   2.809   3.115  14.949 -0.0140  0.1021 -0.5815
    6MPD2    C114469   2.819   3.222  15.042  0.0683  0.6147  0.5327
    6MPD2    C214470   2.937   3.229  15.115  0.7724 -0.7754 -0.4037
    6MPD2    C314471   3.027   3.127  15.108  1.6314 -0.2418  0.5009
    6MPD2    C414472   3.023   3.035  15.012 -0.0163  0.0115 -0.5576
    6MPD2    C514473   2.911   3.031  14.931  0.0374  0.3581  0.4519
    6MPD2     H14474   2.944   3.308  15.190 -2.0276 -0.4197 -0.5152
    6MPD2    H114475   3.105   2.967  14.993  1.7068  1.6730  0.9365
    6MPD2    H214476   2.715   3.099  14.898  0.2254 -1.8221 -0.4143
    6MPD2    H314477   2.905   2.957  14.851 -0.4022 -0.1610  0.9651
    6MPD2     N14478   3.141   3.124  15.185 -0.3993  0.1999  0.4410
    6MPD2    H514479   3.190   3.035  15.184  0.5511  0.7205  0.5946
    6MPD2    N114480   2.721   3.317  15.066 -0.7108 -0.2983  0.3899
    6MPD2    H714481   2.730   3.374  15.150 -1.3148 -1.2802  1.1237
  945NH3     N114482   3.207   3.787  10.863  0.3919  0.1202 -0.1439
  945NH3     H214483   3.262   3.861  10.906 -0.9796  1.7953 -1.2465
  945NH3     H314484   3.142   3.771  10.939  0.1544 -2.0674 -0.8111
  945NH3     H414485   3.149   3.841  10.799 -0.3749 -1.1357 -0.5065
  946SOD     NA14486   1.104   0.202  10.945  0.4084  0.1900 -0.5751
  947SOD     NA14487   3.917   4.658  11.124  0.5894 -0.3635  0.5942
  948SOD     NA14488   3.125   4.317   6.375 -0.0341  0.4358  0.0655
  949SOD     NA14489   0.558   1.159   8.253 -0.2054 -0.4095 -0.0016
  950SOD     NA14490   2.918   1.816  12.336 -0.0693  0.2984  0.1371
  951SOD     NA14491   4.505   0.714  16.907 -0.2888 -0.0623  0.2375
  952SOD     NA14492   0.285   3.141  16.994 -0.0134 -0.1139  0.4581
  953SOD     NA14493   4.310   2.392   0.150 -0.5023  0.2435  0.3474
  954SOL     OW14494   2.627   0.501  12.312  0.1558  0.0369 -0.1117
  954SOL    HW114495   2.575   0.546  12.246 -0.0745  1.6512  1.1702
  954SOL    HW214496   2.649   0.573  12.371  1.2178 -0.6682  0.3531
  955SOL     OW14497   0.443   3.399   3.826  0.2032  0.1686  0.0603
  955SOL    HW114498   0.436   3.395   3.730  2.5458  0.0293 -0.1179
  955SOL    HW214499   0.463   3.309   3.851  0.8125  0.7752  1.7462
  956SOL     OW14500   1.867   3.698  15.766  0.4488  0.8020 -0.2552
  956SOL    HW114501   1.803   3.759  15.803 -1.0602 -0.8307 -0.1843
  956SOL    HW214502   1.915   3.764  15.716 -0.4016 -0.3846 -2.6382
  957SOL     OW14503   0.302   2.545   7.925  0.0806 -0.0035 -1.3800
  957SOL    HW114504   0.378   2.495   7.897 -0.7254 -3.0238  1.8054
  957SOL    HW214505   0.315   2.544   8.020  2.5036  0.2874 -1.7066
  958SOL     OW14506   3.912   4.625   7.112  0.7800  0.1659  0.3877
  958SOL    HW114507   3.959   4.700   7.148 -0.3262  0.0210  2.1172
  958SOL    HW214508   3.886   4.579   7.192 -0.7132  0.9658  0.3636
  959SOL     OW14509   4.283   1.618   5.775  0.4008 -0.3283 -0.5354
  959SOL    HW114510   4.355   1.628   5.712  0.8763 -0.2620  0.0204
  959SOL    HW214511   4.218   1.613   5.705  0.5058 -1.7029 -0.5266
  960SOL     OW14512   4.676   4.310   8.351  0.0872  0.0143 -0.5061
  960SOL    HW114513   4.583   4.289   8.348  0.4100 -1.4474 -0.2322
  960SOL    HW214514   4.698   4.368   8.278  2.2367  3.5124  2.9102
  961SOL     OW14515   0.707   0.843  10.133 -0.2759 -0.1150  0.6759
  961SOL    HW114516   0.695   0.896  10.054 -1.2325 -1.1734  0.1084
  961SOL    HW214517   0.621   0.849  10.173 -0.9831 -0.4557 -0.7777
  962SOL     OW14518   2.341   1.156   1.495 -0.2362 -1.0123 -0.1893
  962SOL    HW114519   2.370   1.137   1.584  0.3646 -0.2054 -0.2153
  962SOL    HW214520   2.273   1.221   1.512 -0.4322 -0.8085 -1.7080
  963SOL     OW14521   2.193   2.500  16.766  0.5052  0.4031 -0.0944
  963SOL    HW114522   2.135   2.471  16.836 -1.1461  1.8759 -0.8498
  963SOL    HW214523   2.250   2.432  16.729  0.2664 -0.4987  1.1931
  964SOL     OW14524   3.396   4.265  10.305 -0.4513 -0.1093  0.3263
  964SOL    HW114525   3.376   4.318  10.382 -0.2767  2.3052 -1.2879
  964SOL    HW214526   3.489   4.249  10.317 -0.4070  0.1409  0.3127
  965SOL     OW14527   1.366   2.474   9.059 -0.6174  0.4571 -0.3747
  965SOL    HW114528   1.419   2.551   9.039 -0.2214  0.3833  0.3789
  965SOL    HW214529   1.306   2.471   8.985 -0.3434 -1.2770 -0.5203
  966SOL     OW14530   3.581   3.268   7.296 -0.3002 -0.1644  0.1587
  966SOL    HW114531   3.619   3.241   7.213  0.5273 -2.2672  1.2254
  966SOL    HW214532   3.595   3.185   7.342 -0.5463 -0.4805 -0.3408
  967SOL     OW14533   2.198   3.199  12.233 -0.2904  0.3305 -0.2559
  967SOL    HW114534   2.272   3.259  12.226  0.3060 -0.6749 -2.4260
  967SOL    HW214535   2.197   3.152  12.150 -0.6115 -0.2161  0.0553
  968SOL     OW14536   0.324   3.947   8.828 -0.1679 -0.2804  0.0724
  968SOL    HW114537   0.235   3.920   8.848 -0.8658  0.6311 -1.8054
  968SOL    HW214538   0.305   3.982   8.741 -1.1688  0.8520  0.7372
  969SOL     OW14539   1.983   4.175  14.449  0.2440 -1.0931 -0.2959
  969SOL    HW114540   1.910   4.114  14.457 -1.1488  0.3382 -2.0836
  969SOL    HW214541   2.036   4.151  14.525  0.3390 -2.2616 -0.7351
  970SOL     OW14542   3.436   4.169   8.140  0.0121  0.0356  0.3485
  970SOL    HW114543   3.387   4.091   8.166  0.6962 -0.4547  0.1563
  970SOL    HW214544   3.417   4.173   8.046 -1.5564 -0.2656  0.6407
  971SOL     OW14545   2.739   1.071   7.336 -0.0709  0.0497 -0.2990
  971SOL    HW114546   2.645   1.057   7.325 -0.2811  0.7212  0.6619
  971SOL    HW214547   2.777   1.079   7.248 -0.7271  3.0736 -0.3006
  972SOL     OW14548   0.530   1.394  11.016 -0.3281  0.1736 -0.5462
  972SOL    HW114549   0.470   1.424  11.084 -1.7570 -3.5047 -0.1637
  972SOL    HW214550   0.616   1.381  11.055 -1.1776 -0.7998  1.0566
  973SOL     OW14551   0.118   4.724   6.598 -0.0681  0.3597 -0.4810
  973SOL    HW114552   0.026   4.700   6.613 -0.2738  0.6413 -1.2655
  973SOL    HW214553   0.151   4.647   6.551  0.0387 -0.4430  0.9028
  974SOL     OW14554   0.074   1.320   4.175 -0.2538  0.4322 -0.1551
  974SOL    HW114555   0.068   1.408   4.210  0.6252  0.4211  0.0178
  974SOL    HW214556   0.002   1.291   4.231 -1.1255  0.7649 -1.1025
  975SOL     OW14557   3.862   4.466   2.627 -0.9629 -0.0641 -0.2749
  975SOL    HW114558   3.915   4.491   2.552  0.6549  1.6942  1.4454
  975SOL    HW214559   3.861   4.543   2.684  1.0263  0.8911 -1.5700
  976SOL     OW14560   0.099   0.288   5.236 -0.6049 -0.2196  0.1906
  976SOL    HW114561   0.101   0.349   5.310 -0.2143  1.6266 -1.3630
  976SOL    HW214562   0.007   0.282   5.208 -0.6139 -2.5396  0.6824
  977SOL     OW14563   2.490   1.341   2.249 -0.0536 -0.1294  0.1407
  977SOL    HW114564   2.425   1.336   2.179  1.3824 -3.7228 -0.9209
  977SOL    HW214565   2.530   1.427   2.236  2.0953 -1.3399 -1.0966
  978SOL     OW14566   1.091   0.063   3.015  0.1012 -0.7500 -1.0908
  978SOL    HW114567   1.123   0.017   3.092  2.4679 -0.4531 -1.9056
  978SOL    HW214568   1.097   4.723   2.953  1.7059  0.5059 -2.3968
  979SOL     OW14569   3.974   3.240  15.492 -0.0152  0.1329  0.1661
  979SOL    HW114570   3.989   3.223  15.399  0.7345  1.6906  0.0022
  979SOL    HW214571   4.061   3.271  15.516 -0.9716  2.3465  0.7240
  980SOL     OW14572   3.340   0.904   3.210 -0.7819 -0.1870  0.4881
  980SOL    HW114573   3.251   0.913   3.243 -0.9148 -0.7651  0.2808
  980SOL    HW214574   3.328   0.918   3.116 -1.1386  1.3388  0.7563
  981SOL     OW14575   3.937   2.126   8.366 -0.7456  0.3499  0.4715
  981SOL    HW114576   3.888   2.051   8.399  2.9416 -2.9703 -1.5853
  981SOL    HW214577   3.887   2.157   8.291  0.3559 -0.8183 -0.7357
  982SOL     OW14578   0.559   0.580   7.798  0.2483 -0.3130 -0.5952
  982SOL    HW114579   0.569   0.488   7.771  1.1744  0.1290 -1.7255
  982SOL    HW214580   0.609   0.582   7.880 -0.1882  1.8677 -0.3967
  983SOL     OW14581   0.597   4.174  10.626  0.1793 -0.1928  0.1460
  983SOL    HW114582   0.564   4.099  10.676  0.9688  0.1726  1.2343
  983SOL    HW214583   0.687   4.143  10.611 -0.5075 -2.2109  0.1086
  984SOL     OW14584   3.754   3.740   7.659 -0.0767 -0.2483  0.1568
  984SOL    HW114585   3.719   3.690   7.733 -0.6470 -0.7796 -0.4639
  984SOL    HW214586   3.757   3.828   7.695 -2.9977 -0.0613 -0.0968
  985SOL     OW14587   4.166   3.503   6.263 -0.1663  0.5280 -0.0249
  985SOL    HW114588   4.232   3.563   6.226  2.1096 -1.9370  0.0582
  985SOL    HW214589   4.082   3.543   6.243 -0.3702 -0.1638 -0.5303
  986SOL     OW14590   3.786   1.743   2.795  0.0307 -0.2559  0.0579
  986SOL    HW114591   3.702   1.764   2.754 -0.0132  2.4147  1.5577
  986SOL    HW214592   3.794   1.649   2.774 -1.1800 -0.0858 -1.2036
  987SOL     OW14593   0.445   4.668  14.045  0.4695  0.0143 -0.4964
  987SOL    HW114594   0.382   4.687  14.114  2.1177  0.0626  1.0101
  987SOL    HW214595   0.525   4.650  14.094 -0.9461  1.3743  2.3011
  988SOL     OW14596   0.168   1.411   4.786  0.3025  0.0881  0.0945
  988SOL    HW114597   0.243   1.455   4.826 -0.2392 -0.3276  1.5877
  988SOL    HW214598   0.105   1.413   4.858  0.6731  1.9511  0.3883
  989SOL     OW14599   1.466   2.677  12.955 -0.1242  0.0172 -1.1276
  989SOL    HW114600   1.387   2.681  13.009 -1.1779 -3.6793 -2.4651
  989SOL    HW214601   1.434   2.693  12.867  0.7884  2.1889 -1.0719
  990SOL     OW14602   0.283   0.112   0.177 -0.2018 -0.0785 -0.2424
  990SOL    HW114603   0.334   0.038   0.209 -0.5439 -0.5480 -0.7801
  990SOL    HW214604   0.236   0.126   0.260 -1.4906  1.9006 -1.2949
  991SOL     OW14605   2.788   2.658   8.204 -0.1675  0.5121  0.0185
  991SOL    HW114606   2.748   2.601   8.270  1.6389 -1.1151 -0.2861
  991SOL    HW214607   2.755   2.614   8.125  0.6236 -1.5241  0.8237
  992SOL     OW14608   3.206   1.761   0.753  0.1076 -0.2602  0.2046
  992SOL    HW114609   3.177   1.792   0.667 -1.6407  0.6553  1.1296
  992SOL    HW214610   3.295   1.797   0.757 -0.3267  0.7265  1.1707
  993SOL     OW14611   0.477   1.281   8.430  0.1217 -0.4362  0.0806
  993SOL    HW114612   0.459   1.230   8.509 -0.2076 -0.7378 -0.1926
  993SOL    HW214613   0.507   1.358   8.479 -2.4269  1.7826 -1.8923
  994SOL     OW14614   2.792   3.502   3.800  0.3817 -0.3412 -0.0099
  994SOL    HW114615   2.786   3.587   3.845 -1.4058  1.1053 -2.9800
  994SOL    HW214616   2.802   3.445   3.876  0.2621 -0.3339  0.0103
  995SOL     OW14617   2.885   2.529   0.047 -0.4194 -0.0190  0.1758
  995SOL    HW114618   2.913   2.491  17.694 -1.5292 -0.2902 -0.0771
  995SOL    HW214619   2.836   2.456   0.085 -0.5363  0.7739  1.5281
  996SOL     OW14620   3.696   4.019  14.608  0.0675 -0.1919  0.1237
  996SOL    HW114621   3.626   3.956  14.621 -0.9373  0.3705 -2.5831
  996SOL    HW214622   3.760   3.950  14.591  0.4679 -0.0631  1.0752
  997SOL     OW14623   1.821   0.861   7.258  0.0274  0.2763  0.3281
  997SOL    HW114624   1.840   0.805   7.182 -1.9635 -0.3789  0.3239
  997SOL    HW214625   1.741   0.909   7.238  0.4013  0.5784 -0.4395
  998SOL     OW14626   2.045   4.484   5.129 -1.3566  0.9210 -0.0936
  998SOL    HW114627   1.979   4.544   5.094 -2.6163 -0.0969  0.5253
  998SOL    HW214628   2.066   4.522   5.214 -1.5493  1.9237 -0.4880
  999SOL     OW14629   4.560   1.879   5.055 -0.2346  0.2207  0.2896
  999SOL    HW114630   4.615   1.887   4.977 -0.8501 -3.9414 -0.5849
  999SOL    HW214631   4.609   1.818   5.110 -0.8342 -0.6744 -0.1705
 1000SOL     OW14632   2.804   2.025   3.313  0.1601  0.2823  0.2697
 1000SOL    HW114633   2.836   2.008   3.225  1.4639 -2.3756  1.2707
 1000SOL    HW214634   2.876   2.070   3.357  1.0048  0.4516 -1.2921
 1001SOL     OW14635   1.335   1.407   7.822  0.1108  0.3524  0.3128
 1001SOL    HW114636   1.317   1.479   7.761 -0.4693  1.1421  1.4266
 1001SOL    HW214637   1.359   1.337   7.761 -1.8593 -1.0985  1.2110
 1002SOL     OW14638   3.750   0.313   1.996 -0.0428  0.3878  0.6336
 1002SOL    HW114639   3.734   0.222   1.973 -1.0374  0.2650  1.8358
 1002SOL    HW214640   3.684   0.361   1.946 -1.2202 -0.0838  1.7306
 1003SOL     OW14641   4.338   2.832   2.200  0.9534  0.5184  0.1715
 1003SOL    HW114642   4.375   2.774   2.267  2.4638  2.2446  0.8307
 1003SOL    HW214643   4.416   2.849   2.146  1.8339 -0.0591  1.2538
 1004SOL     OW14644   0.518   2.942   2.564  0.2385 -0.0741 -0.5515
 1004SOL    HW114645   0.488   2.989   2.642 -0.6368 -1.1451 -0.2337
 1004SOL    HW214646   0.590   2.994   2.528  0.5074 -0.5518 -0.7011
 1005SOL     OW14647   4.172   3.655   2.336 -0.1783 -0.8582 -0.2393
 1005SOL    HW114648   4.185   3.591   2.266  0.9936  0.5728 -1.3520
 1005SOL    HW214649   4.108   3.714   2.295 -0.1993 -0.6864  0.0413
 1006SOL     OW14650   0.579   0.820   8.617  0.0876  0.0159  0.3869
 1006SOL    HW114651   0.580   0.762   8.692  2.0354 -1.2564 -0.6457
 1006SOL    HW214652   0.560   0.899   8.667 -0.1862  1.2309 -1.6023
 1007SOL     OW14653   0.471   3.169   2.319  0.6861  0.0336 -0.1794
 1007SOL    HW114654   0.526   3.248   2.322  1.2276 -0.3256 -0.7921
 1007SOL    HW214655   0.521   3.120   2.383 -0.2563 -0.8550 -0.1284
 1008SOL     OW14656   4.574   3.462   2.307  0.0150  0.4693 -0.3086
 1008SOL    HW114657   4.489   3.438   2.269  1.5639 -2.6095 -1.8797
 1008SOL    HW214658   4.554   3.496   2.394  1.2465  0.2146  0.0747
 1009SOL     OW14659   4.527   0.839   7.043 -0.3047 -0.3697 -0.3520
 1009SOL    HW114660   4.546   0.918   7.094 -0.9974  0.6765 -1.6994
 1009SOL    HW214661   4.501   0.890   6.966  0.4599 -1.1999 -1.1727
 1010SOL     OW14662   3.422   2.376   4.637 -0.0316  0.1530  0.2747
 1010SOL    HW114663   3.365   2.314   4.682  0.1772 -0.0557  0.2482
 1010SOL    HW214664   3.360   2.426   4.583  0.4143  0.2486 -0.1460
 1011SOL     OW14665   3.381   0.404   4.595 -0.0788  0.2183  0.1722
 1011SOL    HW114666   3.355   0.318   4.563 -0.5587 -0.1817  1.6553
 1011SOL    HW214667   3.384   0.379   4.688  2.0762 -0.1276  0.0111
 1012SOL     OW14668   3.684   1.853   3.830  1.3474  0.0196 -0.1039
 1012SOL    HW114669   3.735   1.930   3.804  0.8447 -0.1143 -1.4518
 1012SOL    HW214670   3.606   1.893   3.868  1.5110 -0.8370  1.1191
 1013SOL     OW14671   3.008   1.159   9.150  0.1225  0.0833  0.3853
 1013SOL    HW114672   3.096   1.141   9.185 -0.8301 -2.9884  1.2680
 1013SOL    HW214673   2.959   1.133   9.228 -2.7525  1.0820 -1.1161
 1014SOL     OW14674   1.804   2.828   0.099 -0.9685  0.0342  0.4482
 1014SOL    HW114675   1.820   2.916   0.133  0.8518  0.2654 -0.9981
 1014SOL    HW214676   1.885   2.777   0.109 -1.0458 -0.5299 -1.7493
 1015SOL     OW14677   3.576   1.593  16.734 -0.2496 -0.3675 -0.0322
 1015SOL    HW114678   3.600   1.517  16.681 -0.9342 -1.2960  1.0164
 1015SOL    HW214679   3.661   1.610  16.775 -0.3420  1.9979 -0.8230
 1016SOL     OW14680   3.287   2.342   8.141 -0.0562 -0.1875  0.4566
 1016SOL    HW114681   3.258   2.335   8.050  1.4266 -1.1070  0.0409
 1016SOL    HW214682   3.219   2.395   8.181 -0.0395 -0.9271  1.4570
 1017SOL     OW14683   2.207   1.071   2.097  0.1090 -0.4687 -0.0620
 1017SOL    HW114684   2.166   1.048   2.014 -1.1014  0.8532  0.1813
 1017SOL    HW214685   2.230   0.981   2.122 -0.8157 -0.3813  1.0852
 1018SOL     OW14686   4.447   4.071   9.075 -0.0604 -0.5212  0.1142
 1018SOL    HW114687   4.402   4.134   9.130  0.6712 -1.9363  2.3380
 1018SOL    HW214688   4.419   3.985   9.105  0.1993 -0.1189  1.5385
 1019SOL     OW14689   3.373   0.975   2.631  0.4808  0.0686 -0.5478
 1019SOL    HW114690   3.419   0.891   2.634 -1.3895 -0.8690  1.3596
 1019SOL    HW214691   3.448   1.032   2.611 -0.2831  0.7952 -1.3365
 1020SOL     OW14692   1.398   3.633   9.169 -0.0956 -0.9261 -0.0504
 1020SOL    HW114693   1.408   3.583   9.250 -0.7230 -0.8575  0.0707
 1020SOL    HW214694   1.472   3.693   9.176 -0.2478 -0.5975 -1.3994
 1021SOL     OW14695   2.271   4.058   9.885  0.6892 -0.0417  0.0522
 1021SOL    HW114696   2.219   4.029   9.810  0.3666  2.0169 -0.5269
 1021SOL    HW214697   2.206   4.070   9.954 -0.2166 -1.0275 -0.6231
 1022SOL     OW14698   2.508   3.733  16.815  0.0295 -0.0086 -0.8997
 1022SOL    HW114699   2.523   3.761  16.724 -0.1874  1.9521 -0.3395
 1022SOL    HW214700   2.416   3.758  16.826 -0.6083 -2.7171 -0.0431
 1023SOL     OW14701   1.045   0.162   6.533  0.1624  0.3859  0.3159
 1023SOL    HW114702   1.091   0.081   6.510  0.2287  0.3063  0.7311
 1023SOL    HW214703   0.955   0.137   6.509 -0.1749  2.1634 -0.2176
 1024SOL     OW14704   1.721   3.307  14.237  0.3515  0.0986 -0.3466
 1024SOL    HW114705   1.690   3.364  14.166  1.2014 -2.5566 -2.8941
 1024SOL    HW214706   1.638   3.294  14.281  0.4437 -1.7199 -0.7225
 1025SOL     OW14707   2.828   0.733   2.844  0.8081  1.2031  0.0175
 1025SOL    HW114708   2.772   0.667   2.804  0.1427  0.9523  1.3548
 1025SOL    HW214709   2.765   0.767   2.907  3.1874  1.3805  2.3248
 1026SOL     OW14710   4.087   2.295   3.744 -0.8250  0.3468  0.0834
 1026SOL    HW114711   4.055   2.373   3.790 -1.8022 -0.5260  0.8705
 1026SOL    HW214712   4.068   2.312   3.651 -1.0207 -1.4066 -0.2012
 1027SOL     OW14713   3.214   1.575  13.895  0.0921  0.0800  0.1425
 1027SOL    HW114714   3.125   1.585  13.929 -0.1780  1.0279 -0.8248
 1027SOL    HW214715   3.201   1.555  13.803  0.4257  1.8772 -0.2952
 1028SOL     OW14716   2.535   0.343   4.915 -0.3308 -0.2175  0.0358
 1028SOL    HW114717   2.514   0.419   4.861  0.4169 -0.0548 -0.0238
 1028SOL    HW214718   2.506   0.265   4.867 -0.7376 -0.6625  1.0127
 1029SOL     OW14719   1.069   1.677   6.449  0.0236  0.2501 -0.0671
 1029SOL    HW114720   1.099   1.651   6.536 -1.1579  0.7182  0.4771
 1029SOL    HW214721   1.037   1.591   6.423  0.0547  0.5672 -1.1328
 1030SOL     OW14722   1.559   2.992   5.767 -0.0580  0.1064  0.3578
 1030SOL    HW114723   1.526   3.077   5.737 -4.0871 -1.1267  1.3471
 1030SOL    HW214724   1.534   2.947   5.687  2.3186  0.2932 -0.4900
 1031SOL     OW14725   2.242   2.291   3.428 -0.0127  0.3464  0.1418
 1031SOL    HW114726   2.207   2.348   3.359  0.4868 -0.7225 -0.9956
 1031SOL    HW214727   2.296   2.357   3.472  1.0695 -0.8469  0.6116
 1032SOL     OW14728   2.445   2.575   1.561 -0.2196 -0.0904 -0.4338
 1032SOL    HW114729   2.492   2.620   1.631 -0.5179 -0.9999  0.3490
 1032SOL    HW214730   2.404   2.502   1.606 -1.3724  1.2804  0.7239
 1033SOL     OW14731   4.394   3.649   6.430 -0.3027  0.6524  0.3181
 1033SOL    HW114732   4.425   3.667   6.342 -1.5275  1.3390  0.0278
 1033SOL    HW214733   4.421   3.557   6.439 -2.1254 -0.1972 -2.8877
 1034SOL     OW14734   3.795   1.265   5.942  0.0853  0.0685 -0.2524
 1034SOL    HW114735   3.729   1.258   6.011  0.2053  3.1759  0.1891
 1034SOL    HW214736   3.874   1.280   5.995 -0.8304 -0.8575  1.3647
 1035SOL     OW14737   0.236   0.274  11.761 -0.3762  0.0042  0.1892
 1035SOL    HW114738   0.328   0.250  11.770 -0.4450  0.2349  1.4941
 1035SOL    HW214739   0.222   0.315  11.846  2.2538 -1.5363  1.3901
 1036SOL     OW14740   3.769   0.430  14.067  0.2308 -0.6845  0.2029
 1036SOL    HW114741   3.819   0.489  14.122  2.2634 -0.2587 -2.0914
 1036SOL    HW214742   3.681   0.447  14.100  0.4216 -0.1335  0.4264
 1037SOL     OW14743   3.142   2.299   6.495  0.1364 -0.2514 -0.1625
 1037SOL    HW114744   3.153   2.205   6.481 -1.1061 -0.6573  1.6710
 1037SOL    HW214745   3.229   2.323   6.526  0.0979 -2.1723  1.4116
 1038SOL     OW14746   1.879   2.223  17.237  0.2254 -0.2608 -0.2418
 1038SOL    HW114747   1.874   2.318  17.251 -0.9572 -0.2537 -0.7426
 1038SOL    HW214748   1.816   2.209  17.167 -2.0951  0.7949  1.6299
 1039SOL     OW14749   2.005   4.185   5.766  0.0862 -0.2785 -0.3596
 1039SOL    HW114750   1.964   4.170   5.851  0.4043  0.9980  0.0184
 1039SOL    HW214751   1.955   4.264   5.746  0.8048  0.3481  0.3005
 1040SOL     OW14752   4.526   3.735   8.039 -0.1191 -0.3426 -0.1307
 1040SOL    HW114753   4.478   3.654   8.059  0.2397 -0.7413 -0.8975
 1040SOL    HW214754   4.479   3.789   8.102  0.5090  0.4623 -0.3611
 1041SOL     OW14755   4.129   2.060   6.311 -0.0110 -0.1754  0.0863
 1041SOL    HW114756   4.119   2.073   6.216 -1.2255  1.4229  0.4309
 1041SOL    HW214757   4.186   2.133   6.334  0.6036 -0.9019  0.8503
 1042SOL     OW14758   3.106   1.640   2.277 -0.3890 -0.3061 -0.7417
 1042SOL    HW114759   3.187   1.599   2.246  1.5742 -0.5633  4.5714
 1042SOL    HW214760   3.086   1.595   2.359  0.8112 -0.9102 -0.7863
 1043SOL     OW14761   4.621   1.304   7.728 -0.4766  0.7219 -0.1299
 1043SOL    HW114762   4.669   1.223   7.708 -2.3191 -0.2511 -0.6794
 1043SOL    HW214763   4.663   1.339   7.806  0.1853 -1.1297  0.3560
 1044SOL     OW14764   4.365   2.722  14.355  0.1959 -0.2926 -0.0035
 1044SOL    HW114765   4.445   2.674  14.375  0.0969 -0.3724  0.1958
 1044SOL    HW214766   4.299   2.656  14.376  0.3762 -0.7688 -0.9038
 1045SOL     OW14767   0.437   0.988  13.456  0.2832 -0.1099 -0.0836
 1045SOL    HW114768   0.417   1.081  13.466  2.1728  0.4872 -1.8666
 1045SOL    HW214769   0.370   0.952  13.399 -0.9889  0.6395  0.9264
 1046SOL     OW14770   4.195   4.367   5.123  0.1806 -0.2143  0.0885
 1046SOL    HW114771   4.117   4.369   5.066 -0.2736  0.8999  0.7433
 1046SOL    HW214772   4.151   4.403   5.200 -2.8153 -1.9611 -0.7727
 1047SOL     OW14773   3.043   3.825   5.980 -1.2549 -0.0599 -0.0937
 1047SOL    HW114774   3.105   3.754   5.996  0.4094  1.1299 -1.3214
 1047SOL    HW214775   3.094   3.904   5.964 -0.0171 -0.5004  1.6735
 1048SOL     OW14776   2.506   2.371   9.970  0.4964  0.5490 -0.1663
 1048SOL    HW114777   2.483   2.387  10.061  1.2107 -0.4914  0.1916
 1048SOL    HW214778   2.418   2.364   9.933  0.4868 -0.0668 -0.0188
 1049SOL     OW14779   0.730   0.048   4.905 -0.2509  0.0899 -0.2589
 1049SOL    HW114780   0.785   0.126   4.894 -0.3726  0.1140 -0.6919
 1049SOL    HW214781   0.797   0.001   4.956 -0.3168  1.5646  1.1636
 1050SOL     OW14782   0.846   0.430   7.194  0.1887  0.0953 -0.2928
 1050SOL    HW114783   0.826   0.520   7.168  1.3665 -0.0464 -1.7030
 1050SOL    HW214784   0.937   0.450   7.216  0.5407 -1.8124 -0.0647
 1051SOL     OW14785   2.333   2.089   5.539 -0.2491  0.1095 -0.3413
 1051SOL    HW114786   2.265   2.128   5.483 -0.8031 -2.4073 -1.3951
 1051SOL    HW214787   2.406   2.145   5.513 -0.6226 -0.1029 -1.8661
 1052SOL     OW14788   2.600   2.538   1.278  0.0553  0.5440 -0.0228
 1052SOL    HW114789   2.656   2.612   1.253 -0.4498  0.9054 -0.0954
 1052SOL    HW214790   2.635   2.522   1.366 -1.5458 -2.0536  0.1223
 1053SOL     OW14791   4.246   3.253  15.509 -0.0337 -0.4761 -0.2561
 1053SOL    HW114792   4.276   3.237  15.420  0.6452 -1.7498  0.2004
 1053SOL    HW214793   4.295   3.181  15.549  1.1562  0.9871  0.8958
 1054SOL     OW14794   1.108   0.768   4.441  0.6041  0.3457 -0.0647
 1054SOL    HW114795   1.030   0.748   4.493 -0.3455  4.3318  0.0300
 1054SOL    HW214796   1.068   0.770   4.354  0.6384 -1.5695 -0.1206
 1055SOL     OW14797   4.089   2.806   5.261  0.4750  0.3074 -0.6479
 1055SOL    HW114798   4.037   2.800   5.341 -0.6638  1.3072 -1.3139
 1055SOL    HW214799   4.076   2.897   5.235  0.9564  0.3030 -0.9086
 1056SOL     OW14800   0.527   0.805   8.029  0.4192 -0.9602 -0.3612
 1056SOL    HW114801   0.447   0.792   7.978  0.5290 -1.2543 -0.4555
 1056SOL    HW214802   0.570   0.867   7.970  1.2514 -1.4208 -0.2219
 1057SOL     OW14803   4.151   3.418  14.684 -0.7353  0.0640 -0.0715
 1057SOL    HW114804   4.238   3.399  14.722 -0.7030  0.0667 -0.1449
 1057SOL    HW214805   4.095   3.368  14.743  0.2199 -2.3124 -1.2261
 1058SOL     OW14806   1.918   2.209   8.689  0.0229  0.2426  0.6573
 1058SOL    HW114807   1.981   2.246   8.751  0.9771 -0.0909 -0.1178
 1058SOL    HW214808   1.972   2.162   8.625 -0.2810 -1.3947  1.6108
 1059SOL     OW14809   1.007   2.531   4.594  0.8170  0.2223 -0.0888
 1059SOL    HW114810   1.099   2.557   4.600  0.9741 -0.4024  0.2031
 1059SOL    HW214811   0.962   2.614   4.577  1.4862  0.3714 -1.1181
 1060SOL     OW14812   2.086   3.929  16.515 -0.0911  0.4450  0.9967
 1060SOL    HW114813   2.094   3.889  16.428 -0.3101 -1.6453  1.9478
 1060SOL    HW214814   2.000   3.969  16.525  1.3899  3.9238 -0.0697
 1061SOL     OW14815   3.541   2.146  11.330 -0.2125  0.1496  0.0138
 1061SOL    HW114816   3.459   2.173  11.372  0.3939  1.2959  0.4508
 1061SOL    HW214817   3.516   2.085  11.260  0.9567  0.4316 -0.6600
 1062SOL     OW14818   1.191   0.701   8.964  0.3852  0.0083 -0.2302
 1062SOL    HW114819   1.224   0.786   8.935  0.7857 -0.6093 -1.6153
 1062SOL    HW214820   1.123   0.681   8.899  2.0917  0.2331 -2.0753
 1063SOL     OW14821   0.928   1.153   3.982  0.0724  0.2963  0.6821
 1063SOL    HW114822   0.866   1.121   4.048  0.7611 -2.4941 -0.0457
 1063SOL    HW214823   0.881   1.234   3.964  0.9826  0.9924  1.4345
 1064SOL     OW14824   4.482   0.387   5.279  0.4248 -0.2759  0.4153
 1064SOL    HW114825   4.388   0.380   5.295  0.2730  0.9979  0.0592
 1064SOL    HW214826   4.507   0.325   5.211 -0.1002 -1.0257  0.9037
 1065SOL     OW14827   3.056   1.368   7.809 -0.4681  0.2161 -0.8134
 1065SOL    HW114828   2.967   1.400   7.791 -1.1606 -1.7261 -0.8655
 1065SOL    HW214829   3.057   1.283   7.765  0.7183 -0.3141  0.2463
 1066SOL     OW14830   3.285   1.114   5.905  0.3525  0.1546  0.1395
 1066SOL    HW114831   3.332   1.194   5.929 -0.9572  0.7374  0.7312
 1066SOL    HW214832   3.308   1.092   5.814 -0.0462 -1.9792  0.5512
 1067SOL     OW14833   3.145   3.530  15.059  0.0351 -0.0465 -0.3146
 1067SOL    HW114834   3.129   3.459  15.122 -1.0527 -0.8912 -1.5364
 1067SOL    HW214835   3.165   3.606  15.114 -2.0623 -0.6467  1.2957
 1068SOL     OW14836   0.863   2.815   6.940 -0.2431  0.0878  0.7786
 1068SOL    HW114837   0.875   2.870   7.018  2.1471 -1.2806  1.4018
 1068SOL    HW214838   0.872   2.884   6.874  0.6426 -1.6392 -0.9146
 1069SOL     OW14839   1.858   2.021   4.495  0.1471 -0.1931 -1.0203
 1069SOL    HW114840   1.935   2.051   4.447 -0.4338  1.7809 -0.7091
 1069SOL    HW214841   1.819   2.107   4.511 -1.1336 -0.9439 -0.1105
 1070SOL     OW14842   2.636   1.118   2.410  0.7763 -0.4267  0.6824
 1070SOL    HW114843   2.557   1.065   2.421  0.3349  0.5210  2.1629
 1070SOL    HW214844   2.594   1.198   2.377 -2.1572 -1.0181  2.9602
 1071SOL     OW14845   0.230   3.272  12.788  0.1665  0.6071  0.2653
 1071SOL    HW114846   0.323   3.252  12.783  0.1837  0.8786 -0.5349
 1071SOL    HW214847   0.223   3.364  12.815  1.2515  0.5115  0.8921
 1072SOL     OW14848   1.383   2.555   3.874 -0.5275 -0.6366  0.0128
 1072SOL    HW114849   1.349   2.468   3.855  1.1350 -1.5396  1.2519
 1072SOL    HW214850   1.306   2.577   3.927  1.2793 -0.4695  2.5412
 1073SOL     OW14851   4.312   0.680   3.864  0.1258 -0.0183  0.1511
 1073SOL    HW114852   4.244   0.614   3.874 -1.0844  1.0178 -1.2369
 1073SOL    HW214853   4.377   0.663   3.932  1.3194  0.8470 -0.7670
 1074SOL     OW14854   2.783   3.684   8.391  0.3798  0.3993  0.8325
 1074SOL    HW114855   2.713   3.719   8.447 -0.3632 -1.7290  1.2323
 1074SOL    HW214856   2.864   3.723   8.427  0.4678  0.4670  0.5583
 1075SOL     OW14857   2.238   0.727  15.883 -0.5799 -0.0669  0.6515
 1075SOL    HW114858   2.244   0.632  15.869 -1.9204 -0.1066  0.3994
 1075SOL    HW214859   2.324   0.750  15.919  0.2511 -1.0477 -0.6981
 1076SOL     OW14860   1.119   0.455  11.819 -0.2092  0.4573 -0.3514
 1076SOL    HW114861   1.110   0.505  11.900 -1.0430 -1.7855  0.9597
 1076SOL    HW214862   1.065   0.516  11.767  2.6627  4.8580  1.8946
 1077SOL     OW14863   0.162   0.016  15.265  0.2669 -0.1214 -0.5664
 1077SOL    HW114864   0.141   4.656  15.273  0.6245 -0.3597 -2.3632
 1077SOL    HW214865   0.146   0.031  15.171  0.1718 -0.0497 -0.5382
 1078SOL     OW14866   4.502   4.248   9.325 -0.1258 -0.2564 -0.2497
 1078SOL    HW114867   4.573   4.289   9.276 -0.8861 -0.8023 -1.8001
 1078SOL    HW214868   4.426   4.297   9.294 -0.8329 -0.4784  1.0980
 1079SOL     OW14869   2.967   2.306   8.769  0.0644 -0.1597 -0.5298
 1079SOL    HW114870   2.988   2.271   8.683  0.1123 -0.2077 -0.4985
 1079SOL    HW214871   2.912   2.380   8.743  1.0559  0.0921 -1.9196
 1080SOL     OW14872   0.324   0.428   4.811  0.8489 -0.2099  0.3460
 1080SOL    HW114873   0.338   0.396   4.900  1.1547  2.4096  1.2355
 1080SOL    HW214874   0.287   0.359   4.756 -1.0962  2.1440 -1.2940
 1081SOL     OW14875   1.377   0.348   6.537  0.4084 -0.1106 -0.2108
 1081SOL    HW114876   1.339   0.285   6.476 -2.8210  0.8217  0.8342
 1081SOL    HW214877   1.315   0.420   6.528  0.2212 -0.2431  0.0033
 1082SOL     OW14878   3.796   2.613   2.966 -0.1123  0.6078 -0.4891
 1082SOL    HW114879   3.838   2.544   2.916 -2.2456 -0.8905 -0.2382
 1082SOL    HW214880   3.818   2.688   2.911 -1.6450  0.9498 -0.6423
 1083SOL     OW14881   1.216   4.453   3.254 -0.1380 -0.1210 -0.0109
 1083SOL    HW114882   1.152   4.404   3.305 -0.8337 -0.6415 -1.4039
 1083SOL    HW214883   1.224   4.410   3.170  4.2390  1.0047 -0.1945
 1084SOL     OW14884   1.735   3.539   9.059  0.4288 -0.0298 -0.0156
 1084SOL    HW114885   1.699   3.624   9.083  0.7222 -0.5120  2.1393
 1084SOL    HW214886   1.798   3.559   8.990  0.4619 -1.8447 -0.5221
 1085SOL     OW14887   1.399   4.676   1.995 -0.6233 -0.0844  0.0378
 1085SOL    HW114888   1.489   4.697   2.021 -1.2118  0.1429  1.9345
 1085SOL    HW214889   1.392   4.600   1.937 -0.2804  1.5494 -2.1192
 1086SOL     OW14890   1.850   3.981   8.833 -0.2973  0.5207 -0.7954
 1086SOL    HW114891   1.926   4.015   8.785  0.8645 -1.0291 -0.0882
 1086SOL    HW214892   1.777   4.041   8.821  0.3667  0.8007 -3.4258
 1087SOL     OW14893   0.363   2.798   2.827 -0.6139  0.0128 -0.0537
 1087SOL    HW114894   0.458   2.812   2.834 -0.4938 -0.6669 -0.2600
 1087SOL    HW214895   0.352   2.751   2.744  0.7091 -1.8889  0.8530
 1088SOL     OW14896   0.421   3.971   5.413  0.1586 -0.4306 -0.2169
 1088SOL    HW114897   0.361   3.968   5.339 -1.3057  0.9591  0.9166
 1088SOL    HW214898   0.370   4.024   5.474 -0.5746 -0.2199 -1.0282
 1089SOL     OW14899   2.242   0.810  12.711 -0.3981  0.0241  0.7601
 1089SOL    HW114900   2.203   0.836  12.794 -2.3517  0.3317 -0.2484
 1089SOL    HW214901   2.276   0.895  12.682 -0.1434 -0.3709 -0.1189
 1090SOL     OW14902   2.071   0.468   7.042  0.4324 -0.0168  0.5427
 1090SOL    HW114903   2.118   0.550   7.060  0.7293  0.3323 -1.8693
 1090SOL    HW214904   2.126   0.414   6.986 -1.5629 -2.2345  0.7268
 1091SOL     OW14905   0.017   1.450  15.652  0.8342  0.0757 -0.1095
 1091SOL    HW114906   0.016   1.406  15.737  1.1727 -0.0288 -0.1598
 1091SOL    HW214907   0.010   1.372  15.597 -1.0443 -0.0835  0.3628
 1092SOL     OW14908   2.742   1.128   8.576 -0.0283  0.3112  0.2363
 1092SOL    HW114909   2.670   1.065   8.570  1.1326 -1.0296  0.3953
 1092SOL    HW214910   2.700   1.209   8.546 -0.2436  0.2154  0.2793
 1093SOL     OW14911   0.339   3.935   2.536  0.3476  0.0932 -0.3026
 1093SOL    HW114912   0.386   4.012   2.503  0.3043  0.9673  1.6591
 1093SOL    HW214913   0.381   3.923   2.621  0.0019  3.0907  0.2887
 1094SOL     OW14914   3.692   2.095   6.790  0.0245 -0.1899  0.0498
 1094SOL    HW114915   3.636   2.083   6.866 -0.6885 -1.5715 -0.6901
 1094SOL    HW214916   3.673   2.019   6.735 -2.5124 -0.5610  1.4590
 1095SOL     OW14917   0.052   1.008   8.138 -0.4104  0.1233 -0.7546
 1095SOL    HW114918   0.086   1.022   8.226 -0.0259 -1.2844 -0.6739
 1095SOL    HW214919   0.131   1.000   8.085 -0.5884  1.6442 -1.2573
 1096SOL     OW14920   0.129   0.894   8.960  0.7920  0.5189  0.1648
 1096SOL    HW114921   0.033   0.899   8.952  0.9340  2.5404 -0.2270
 1096SOL    HW214922   0.150   0.972   9.011  1.9550  1.3785 -1.6083
 1097SOL     OW14923   3.393   2.479   2.625 -0.4613  0.4836 -0.2826
 1097SOL    HW114924   3.337   2.406   2.598 -0.8019  1.8500 -3.2073
 1097SOL    HW214925   3.342   2.544   2.577 -0.4965  2.1041  1.9134
 1098SOL     OW14926   1.207   0.887   3.220 -0.4428  0.2901  0.0263
 1098SOL    HW114927   1.121   0.875   3.259 -0.4717  1.4478  0.3063
 1098SOL    HW214928   1.177   0.857   3.134 -1.8157 -2.6489  1.5649
 1099SOL     OW14929   0.599   4.403   2.221  0.3119  0.2226 -0.1912
 1099SOL    HW114930   0.519   4.355   2.201  1.9024 -1.6985 -1.9454
 1099SOL    HW214931   0.648   4.328   2.253  1.6071  0.0663 -2.4745
 1100SOL     OW14932   1.654   3.081   3.132 -0.3790 -0.6465  0.5196
 1100SOL    HW114933   1.696   3.062   3.048  1.0115  0.1954  1.0248
 1100SOL    HW214934   1.560   3.089   3.114 -0.4834 -0.1293  1.2913
 1101SOL     OW14935   3.932   0.092   7.401 -0.2425 -0.0035  0.0008
 1101SOL    HW114936   3.924   0.183   7.427 -1.4802  0.5062 -2.0976
 1101SOL    HW214937   3.943   0.107   7.307  0.3895 -1.1744 -0.1180
 1102SOL     OW14938   2.665   2.101  17.331  0.1953  0.1440 -0.1455
 1102SOL    HW114939   2.595   2.158  17.301 -0.8839 -2.3398 -2.3135
 1102SOL    HW214940   2.722   2.169  17.367 -0.1117  0.0610  0.5116
 1103SOL     OW14941   4.222   0.586   4.867  0.1450  0.6398  0.0104
 1103SOL    HW114942   4.182   0.639   4.936  1.3741  1.5809 -0.0109
 1103SOL    HW214943   4.175   0.503   4.879  0.6188  0.0295 -2.3468
 1104SOL     OW14944   2.019   0.855   2.656 -0.6537  0.6934 -0.0305
 1104SOL    HW114945   1.981   0.780   2.611 -1.1884  0.7813  0.2637
 1104SOL    HW214946   1.967   0.927   2.620 -1.0650 -0.3029 -1.3865
 1105SOL     OW14947   1.237   4.268   6.380  0.2532  0.8194  0.0720
 1105SOL    HW114948   1.160   4.214   6.364 -1.1475  2.9569 -0.3857
 1105SOL    HW214949   1.264   4.281   6.289 -4.2522 -0.0526 -1.3747
 1106SOL     OW14950   4.509   2.570   8.825  0.3499 -0.4221 -0.4613
 1106SOL    HW114951   4.558   2.620   8.760 -1.4180 -1.4921 -2.6472
 1106SOL    HW214952   4.441   2.534   8.767  0.0954  1.1238 -1.1195
 1107SOL     OW14953   0.924   0.098   7.178 -0.4347 -0.2308  0.6705
 1107SOL    HW114954   0.991   0.143   7.229 -1.9016  2.4615  0.2421
 1107SOL    HW214955   0.847   0.147   7.207  0.0093  0.9588 -0.1307
 1108SOL     OW14956   2.394   0.831   6.738 -0.2572 -0.1472 -0.5326
 1108SOL    HW114957   2.358   0.744   6.756 -1.2539  0.7469  1.7863
 1108SOL    HW214958   2.387   0.870   6.825 -1.1911  1.6692 -1.4217
 1109SOL     OW14959   1.849   3.848  14.574 -0.4835  0.0542 -0.0707
 1109SOL    HW114960   1.930   3.872  14.530  0.6733 -1.0108  1.4670
 1109SOL    HW214961   1.823   3.767  14.532 -0.2937 -0.7589  1.3829
 1110SOL     OW14962   0.560   2.850   3.339  0.4927  0.6291  0.6248
 1110SOL    HW114963   0.626   2.896   3.286  0.4674 -0.2106 -0.1385
 1110SOL    HW214964   0.606   2.774   3.375 -0.8744  0.2074  1.4626
 1111SOL     OW14965   4.266   4.594   4.421  0.3362 -0.1438  0.2327
 1111SOL    HW114966   4.304   4.506   4.423 -0.9146 -0.6517  1.7179
 1111SOL    HW214967   4.239   4.599   4.512  0.1522 -1.1050  0.2382
 1112SOL     OW14968   0.554   4.213  13.885  0.2461  0.0862  0.8050
 1112SOL    HW114969   0.636   4.202  13.932  0.8830 -0.2671 -0.3996
 1112SOL    HW214970   0.541   4.308  13.876  0.0413 -0.0935 -0.7602
 1113SOL     OW14971   3.368   3.804  11.953  0.0791  0.5901 -0.0776
 1113SOL    HW114972   3.419   3.724  11.964  0.3508  0.5057 -1.9107
 1113SOL    HW214973   3.351   3.823  12.045 -1.8383  0.5692 -0.4340
 1114SOL     OW14974   4.131   1.586   6.318 -0.0820  0.5392  0.1091
 1114SOL    HW114975   4.137   1.490   6.325  1.6436  0.5878 -0.5622
 1114SOL    HW214976   4.209   1.617   6.272  1.7147 -0.0497  2.7530
 1115SOL     OW14977   2.751   0.531  15.948 -0.1322  0.2564 -0.2064
 1115SOL    HW114978   2.729   0.480  15.870 -3.2947  0.3592  0.6255
 1115SOL    HW214979   2.794   0.608  15.913 -0.4024  0.1145 -0.8376
 1116SOL     OW14980   2.734   3.924   6.233 -0.3290 -0.1913 -0.4241
 1116SOL    HW114981   2.683   3.904   6.154 -0.7043 -0.3253 -0.1507
 1116SOL    HW214982   2.682   3.890   6.306 -0.0242  0.7081  0.2062
 1117SOL     OW14983   0.816   1.539   8.389  0.3789 -0.3346 -0.1836
 1117SOL    HW114984   0.816   1.622   8.340 -0.9079  0.1674  0.6725
 1117SOL    HW214985   0.881   1.560   8.456 -0.7966 -0.2395  0.9103
 1118SOL     OW14986   2.032   0.811   2.007  0.2203  0.1043  0.2927
 1118SOL    HW114987   2.065   0.854   1.928 -3.0440  3.1173  0.5296
 1118SOL    HW214988   2.115   0.798   2.052 -0.6865  1.4881  2.3795
 1119SOL     OW14989   4.519   0.382   0.322  0.1393 -0.0323  0.0583
 1119SOL    HW114990   4.501   0.303   0.269  0.2417 -0.7692  1.1309
 1119SOL    HW214991   4.482   0.359   0.407 -0.4798  1.6247  0.2213
 1120SOL     OW14992   0.962   0.910   3.325  0.2048 -0.7888 -0.5180
 1120SOL    HW114993   0.884   0.907   3.381  1.3228  0.3165  1.0889
 1120SOL    HW214994   0.988   1.000   3.343 -0.8282  0.1585 -3.7683
 1121SOL     OW14995   2.728   2.451   5.824 -0.0399 -0.0796  0.0849
 1121SOL    HW114996   2.692   2.476   5.909 -1.0764 -1.7180  0.1194
 1121SOL    HW214997   2.676   2.378   5.790  0.2623 -0.0493 -0.4507
 1122SOL     OW14998   1.502   2.544  16.494  0.3186  0.5710  0.0433
 1122SOL    HW114999   1.474   2.514  16.408 -2.8105  0.7237  0.9821
 1122SOL    HW215000   1.597   2.540  16.496  0.3148  0.6673  0.4988
 1123SOL     OW15001   3.726   3.164   6.039  0.1191  0.2627  0.4076
 1123SOL    HW115002   3.748   3.072   6.055 -0.2652 -0.2415 -1.9194
 1123SOL    HW215003   3.653   3.152   5.979 -0.1857 -2.3277  1.2781
 1124SOL     OW15004   3.912   4.157   1.207 -0.2998 -0.3358  0.4404
 1124SOL    HW115005   3.895   4.238   1.159 -1.9457  0.7023  2.7947
 1124SOL    HW215006   3.860   4.171   1.286 -0.0990  0.3672  0.4485
 1125SOL     OW15007   0.874   4.708   9.581 -0.2208  0.4577 -0.3005
 1125SOL    HW115008   0.968   4.711   9.594 -0.2168 -1.5415  0.1325
 1125SOL    HW215009   0.876   4.667   9.495  1.0696 -1.3225  0.5951
 1126SOL     OW15010   3.734   3.109  12.381  0.2529  0.0728  0.3992
 1126SOL    HW115011   3.703   3.029  12.422 -0.3186 -0.4786 -1.0862
 1126SOL    HW215012   3.691   3.177  12.431  1.5577 -0.4271  2.2052
 1127SOL     OW15013   4.031   3.962   6.434 -0.1366  0.0404  0.0611
 1127SOL    HW115014   4.114   3.971   6.480 -0.2995 -0.9274  0.5567
 1127SOL    HW215015   3.987   4.038   6.472 -1.2510  0.3426 -1.8311
 1128SOL     OW15016   4.273   2.832   6.760  0.1433 -0.0849 -0.5651
 1128SOL    HW115017   4.308   2.787   6.837 -1.2401  0.9158  0.6506
 1128SOL    HW215018   4.348   2.888   6.739  1.6914  0.3720  5.8968
 1129SOL     OW15019   3.913   0.726   6.220  0.2797 -0.4412  0.4802
 1129SOL    HW115020   3.989   0.738   6.277  1.0334  0.1314 -0.6239
 1129SOL    HW215021   3.914   0.811   6.176 -0.0921 -0.3927  0.5685
 1130SOL     OW15022   2.015   3.062  10.627  0.1269  0.7789  0.1841
 1130SOL    HW115023   1.955   3.005  10.578 -0.6749  0.1884  1.8734
 1130SOL    HW215024   1.985   3.151  10.610  0.1997  0.8511  0.4453
 1131SOL     OW15025   0.290   3.685   9.205 -0.2264  0.0525 -0.5444
 1131SOL    HW115026   0.299   3.727   9.291  0.1852 -0.4056 -0.3594
 1131SOL    HW215027   0.196   3.681   9.189 -0.3018 -0.0503 -0.1000
 1132SOL     OW15028   1.991   4.572  13.456  0.0485  0.0262 -0.4315
 1132SOL    HW115029   1.926   4.586  13.524 -2.6093  0.7148 -3.1088
 1132SOL    HW215030   1.948   4.626  13.389  0.8008  1.0085 -0.1268
 1133SOL     OW15031   0.972   1.515   2.791  0.3076  0.7488  0.5046
 1133SOL    HW115032   0.906   1.574   2.826 -0.3546  0.3487 -0.0812
 1133SOL    HW215033   0.932   1.433   2.822  0.2693  0.0555 -1.3632
 1134SOL     OW15034   0.238   2.322   6.743 -0.2367  0.1777  0.7215
 1134SOL    HW115035   0.202   2.302   6.829 -1.0961  0.6075  0.4584
 1134SOL    HW215036   0.327   2.344   6.771  0.4167  1.5743 -2.4986
 1135SOL     OW15037   4.601   1.242  10.453 -0.1406  0.1483  0.1851
 1135SOL    HW115038   4.670   1.309  10.450 -1.2172  1.2210 -0.3142
 1135SOL    HW215039   4.522   1.295  10.461  1.3301  2.6699 -1.7607
 1136SOL     OW15040   2.032   2.540  16.555 -0.0333  0.3631 -0.0574
 1136SOL    HW115041   2.100   2.495  16.505 -1.2023 -2.4342  0.8524
 1136SOL    HW215042   2.065   2.517  16.642  0.3812 -0.8790 -0.5418
 1137SOL     OW15043   1.358   1.347  10.164  0.2367  0.5735  0.0314
 1137SOL    HW115044   1.300   1.328  10.237  1.5591 -2.0968  0.4082
 1137SOL    HW215045   1.300   1.319  10.093 -0.4362  0.6667  0.5474
 1138SOL     OW15046   2.050   1.704   4.839  0.0429  0.1102 -0.2301
 1138SOL    HW115047   1.973   1.720   4.893 -0.1460  2.1886 -1.1146
 1138SOL    HW215048   2.024   1.766   4.771 -2.7797 -1.0043 -0.1667
 1139SOL     OW15049   2.020   2.333   8.190 -0.3171 -0.1188 -0.5420
 1139SOL    HW115050   2.047   2.260   8.245  0.0799  2.0206  2.1292
 1139SOL    HW215051   2.080   2.407   8.196 -0.9133  0.3550 -0.4070
 1140SOL     OW15052   0.428   2.456   9.227  0.8060 -0.3423 -0.3650
 1140SOL    HW115053   0.342   2.497   9.227  0.8579 -0.2207 -3.2088
 1140SOL    HW215054   0.477   2.533   9.255  0.0902  0.2341 -0.6943
 1141SOL     OW15055   0.458   2.905   5.128  0.2859 -0.7473 -0.4024
 1141SOL    HW115056   0.471   2.811   5.146 -0.3507 -0.5342  1.2195
 1141SOL    HW215057   0.376   2.904   5.079  0.5426 -1.7431 -0.8202
 1142SOL     OW15058   1.340   4.554   5.886 -0.6362 -0.2084 -0.1528
 1142SOL    HW115059   1.388   4.501   5.823 -2.2102  0.0860 -1.5887
 1142SOL    HW215060   1.261   4.501   5.895 -2.6036  2.9237  0.7097
 1143SOL     OW15061   3.649   2.589  10.807  0.0716 -0.6485  0.3272
 1143SOL    HW115062   3.606   2.664  10.849  0.7499 -1.3007  2.1584
 1143SOL    HW215063   3.569   2.537  10.800  0.1961 -0.7523 -0.3340
 1144SOL     OW15064   0.580   1.696   8.183 -0.4308 -0.5793  0.8938
 1144SOL    HW115065   0.501   1.702   8.129 -0.3228 -2.8689  0.4942
 1144SOL    HW215066   0.552   1.714   8.273  1.7882  0.9328  1.2948
 1145SOL     OW15067   2.587   1.263   9.007 -0.4311  0.8291  0.3403
 1145SOL    HW115068   2.581   1.344   8.957 -0.4446  0.6294  0.0208
 1145SOL    HW215069   2.681   1.247   9.018 -0.3672  0.0388 -1.3670
 1146SOL     OW15070   1.102   3.007   1.971  0.2576  0.6573 -0.2430
 1146SOL    HW115071   1.071   3.003   1.881 -0.2880 -0.2229 -0.0185
 1146SOL    HW215072   1.055   2.926   1.992  1.4754  0.2021  0.7952
 1147SOL     OW15073   0.935   1.900   2.624 -0.0245 -0.5412  0.7216
 1147SOL    HW115074   0.966   1.936   2.541 -1.0540 -1.0891  0.1106
 1147SOL    HW215075   0.931   1.976   2.683 -1.2929 -2.6031  3.3081
 1148SOL     OW15076   1.333   1.573   8.432 -0.5811  0.4281  0.5545
 1148SOL    HW115077   1.290   1.642   8.382 -2.9570 -2.6740 -1.6721
 1148SOL    HW215078   1.424   1.603   8.439 -0.9451  1.7999 -0.7477
 1149SOL     OW15079   3.658   0.839   2.712  1.0487 -0.9429 -0.5027
 1149SOL    HW115080   3.600   0.893   2.765 -1.6722 -2.6864 -1.7506
 1149SOL    HW215081   3.730   0.901   2.723  0.3390 -0.4698  1.3940
 1150SOL     OW15082   3.854   4.687   8.046  0.7884  0.9409 -0.3178
 1150SOL    HW115083   3.931   4.646   8.007 -0.9056  0.2916 -2.9620
 1150SOL    HW215084   3.823   4.615   8.101 -0.8014  2.3329  0.6233
 1151SOL     OW15085   0.140   3.020   8.137  0.0846  0.5937  0.1304
 1151SOL    HW115086   0.158   3.073   8.059 -2.5602  0.4780 -0.5855
 1151SOL    HW215087   0.073   3.075   8.179 -0.5030 -0.6751  0.8651
 1152SOL     OW15088   2.982   2.761   5.741 -0.3076  0.0951 -0.1550
 1152SOL    HW115089   2.968   2.725   5.829 -0.5177 -1.6332 -0.8922
 1152SOL    HW215090   2.968   2.850   5.773  1.1211 -0.5066  2.1641
 1153SOL     OW15091   1.453   4.669  10.435  0.3331 -0.5787  0.3389
 1153SOL    HW115092   1.535   4.676  10.386  1.0254 -1.5677  1.3495
 1153SOL    HW215093   1.389   4.645  10.368  1.3486 -1.7796 -0.1938
 1154SOL     OW15094   4.573   3.442  15.010  0.0110  0.0324  0.6817
 1154SOL    HW115095   4.634   3.459  14.939 -0.9393  0.2296 -0.0900
 1154SOL    HW215096   4.548   3.533  15.026 -0.1119 -0.0278  0.8386
 1155SOL     OW15097   3.921   4.243   8.424 -0.5857  0.2164 -0.1053
 1155SOL    HW115098   3.921   4.265   8.517  0.9850 -3.3932  0.7353
 1155SOL    HW215099   3.849   4.181   8.419 -1.6421  1.3771  0.7033
 1156SOL     OW15100   4.520   1.164   8.290  0.3417  0.3247 -0.0051
 1156SOL    HW115101   4.537   1.141   8.381 -1.7216  0.5959  0.4469
 1156SOL    HW215102   4.573   1.244   8.289  0.7707  0.0215 -2.4025
 1157SOL     OW15103   0.911   0.697  14.956  0.4290  0.0052 -0.3400
 1157SOL    HW115104   0.867   0.758  14.896 -1.8071  0.1821  1.4758
 1157SOL    HW215105   0.958   0.768  14.999  1.3316 -0.0600 -1.2273
 1158SOL     OW15106   0.023   1.965   8.544  0.6316 -0.0749  0.7525
 1158SOL    HW115107   0.084   2.031   8.511  2.1022 -1.7886  0.0486
 1158SOL    HW215108   0.024   1.898   8.476  1.2606  1.8709 -1.1184
 1159SOL     OW15109   2.350   3.911   8.522  0.3333 -0.2455  0.0342
 1159SOL    HW115110   2.430   3.926   8.572  0.4049  1.2611 -0.5467
 1159SOL    HW215111   2.337   3.996   8.482 -0.5908  0.2758  1.4382
 1160SOL     OW15112   2.415   1.634   3.867 -0.4945 -0.5555  0.3134
 1160SOL    HW115113   2.416   1.540   3.884  1.0082 -0.4866  0.6164
 1160SOL    HW215114   2.425   1.632   3.771  0.2565 -1.2123  0.4075
 1161SOL     OW15115   0.964   3.693   7.451  0.4076  0.0880 -0.0654
 1161SOL    HW115116   0.918   3.663   7.530 -1.6936 -2.5859 -2.2821
 1161SOL    HW215117   0.947   3.787   7.453 -1.6216 -0.3026  2.1129
 1162SOL     OW15118   3.601   0.002   3.183 -0.1579  0.7184 -0.0639
 1162SOL    HW115119   3.575   0.061   3.112  0.9446  0.7055 -0.4765
 1162SOL    HW215120   3.563   0.040   3.263 -1.2949  0.0942 -0.3140
 1163SOL     OW15121   0.430   3.386  12.237  0.2956  0.0257  0.0383
 1163SOL    HW115122   0.357   3.448  12.243  0.3647  0.0709  0.3848
 1163SOL    HW215123   0.436   3.353  12.327 -1.3886 -0.1463  0.1026
 1164SOL     OW15124   0.813   3.975  17.382  0.8044  0.1397  0.5855
 1164SOL    HW115125   0.849   3.942  17.465 -0.9828 -0.2258  1.2067
 1164SOL    HW215126   0.888   3.965  17.322  0.6166  0.8569  0.2313
 1165SOL     OW15127   2.865   1.809  14.005  0.3583  0.7621 -0.0963
 1165SOL    HW115128   2.837   1.824  13.915 -0.6356 -0.2303  0.0343
 1165SOL    HW215129   2.902   1.896  14.015 -1.1225  1.4194 -0.3717
 1166SOL     OW15130   4.079   1.824  12.598 -0.3513 -0.8455 -0.6798
 1166SOL    HW115131   4.141   1.771  12.547 -1.5106 -0.2508 -2.7272
 1166SOL    HW215132   4.118   1.911  12.606  2.3537 -1.8650 -2.3935
 1167SOL     OW15133   3.017   1.279  15.830  0.1115  0.1718 -0.7347
 1167SOL    HW115134   3.000   1.336  15.905  0.1726 -2.8962  1.6223
 1167SOL    HW215135   3.005   1.190  15.863  0.7511  0.3817  0.0634
 1168SOL     OW15136   3.676   0.198  12.567  0.0701 -0.5503 -0.8258
 1168SOL    HW115137   3.720   0.113  12.562 -2.0843 -1.7749  1.2552
 1168SOL    HW215138   3.604   0.179  12.627  1.6012  2.6026  1.9772
 1169SOL     OW15139   4.702   1.956  12.962  0.4385  0.5586 -0.7131
 1169SOL    HW115140   0.053   1.934  12.921  0.3635  1.3882 -1.3136
 1169SOL    HW215141   4.658   1.990  12.884  0.1155 -1.2243 -1.3127
 1170SOL     OW15142   0.755   0.994   7.361 -0.8010  0.3379  0.1629
 1170SOL    HW115143   0.754   1.089   7.376 -1.9295 -0.1504  3.0904
 1170SOL    HW215144   0.678   0.974   7.309 -0.6825  0.1658  0.0534
 1171SOL     OW15145   0.838   0.708   9.918 -0.2109  0.2422  0.1306
 1171SOL    HW115146   0.806   0.727  10.006  0.0118 -0.0515  0.2709
 1171SOL    HW215147   0.933   0.724   9.918 -0.5163  2.0953  5.1399
 1172SOL     OW15148   2.071   1.161   7.663 -0.4378  0.3461  0.2318
 1172SOL    HW115149   2.032   1.248   7.654 -0.6653  0.3095  0.8383
 1172SOL    HW215150   2.013   1.133   7.735  0.1435  1.8557  1.2967
 1173SOL     OW15151   1.853   1.395  14.332  0.5033 -0.2052 -0.1525
 1173SOL    HW115152   1.890   1.429  14.414  0.0206 -1.4655  0.5867
 1173SOL    HW215153   1.759   1.405  14.347  0.6665  1.7234 -0.3305
 1174SOL     OW15154   1.055   1.674   4.066 -0.3887  0.8934 -0.3360
 1174SOL    HW115155   1.117   1.715   4.006  1.7415  0.0470  1.2752
 1174SOL    HW215156   1.098   1.591   4.087  0.2475  1.8910  2.3973
 1175SOL     OW15157   3.037   2.686  10.793  0.5903 -0.7081  0.0913
 1175SOL    HW115158   2.963   2.631  10.767 -1.2834  1.2558  1.2521
 1175SOL    HW215159   3.012   2.725  10.877 -1.4440 -0.4976 -0.6133
 1176SOL     OW15160   3.294   1.058   5.083 -0.4585 -0.6531 -0.0792
 1176SOL    HW115161   3.364   0.997   5.104 -1.0993 -1.8849 -1.5423
 1176SOL    HW215162   3.301   1.111   5.163  0.7548  1.6899 -1.7590
 1177SOL     OW15163   3.230   3.947   7.393  0.1916 -0.5086  0.2366
 1177SOL    HW115164   3.303   3.896   7.359 -0.0519 -0.1806 -0.7819
 1177SOL    HW215165   3.162   3.939   7.326 -0.6171  0.3308  0.9450
 1178SOL     OW15166   1.241   3.933  10.703  0.0694  0.0995  0.3423
 1178SOL    HW115167   1.198   3.847  10.707  0.2769  0.0225  0.8459
 1178SOL    HW215168   1.260   3.958  10.793  1.6918  1.7143 -0.4574
 1179SOL     OW15169   4.099   4.253   2.103 -0.1542 -0.1761  0.0855
 1179SOL    HW115170   4.170   4.223   2.160 -0.1435 -1.1229 -0.4173
 1179SOL    HW215171   4.115   4.345   2.085 -1.8000  0.1836  0.4922
 1180SOL     OW15172   3.391   1.002   6.140  0.4313  0.2134  0.0044
 1180SOL    HW115173   3.308   1.022   6.183 -1.0941 -0.9085 -2.4046
 1180SOL    HW215174   3.365   1.032   6.052  1.2366 -2.1853 -1.0665
 1181SOL     OW15175   1.273   2.217   8.491 -0.3392  0.1973 -0.1723
 1181SOL    HW115176   1.349   2.259   8.451  1.8806  1.0691  4.8859
 1181SOL    HW215177   1.246   2.149   8.430  0.7088 -0.6706  0.3394
 1182SOL     OW15178   0.290   3.610   7.176 -0.7798  0.1754  0.2393
 1182SOL    HW115179   0.250   3.611   7.263 -2.2741  0.9774 -0.4442
 1182SOL    HW215180   0.287   3.703   7.152 -1.6055 -0.2835 -1.4679
 1183SOL     OW15181   0.760   2.691   2.302  0.2971  0.2518  0.5321
 1183SOL    HW115182   0.758   2.770   2.249  1.6204 -1.0158 -1.4450
 1183SOL    HW215183   0.852   2.663   2.301  0.2217 -0.0791  2.9841
 1184SOL     OW15184   0.085   0.256  10.979 -0.1150 -0.1052 -0.1328
 1184SOL    HW115185   0.084   0.310  11.058 -0.8160  0.1621 -0.3209
 1184SOL    HW215186   0.102   0.322  10.911  1.2241 -0.4699 -0.1554
 1185SOL     OW15187   0.911   2.959   8.864  0.3917 -0.2605  0.1172
 1185SOL    HW115188   0.899   2.868   8.836  0.8906 -0.6816  1.2929
 1185SOL    HW215189   0.990   2.957   8.918  0.2518 -3.8943  0.2508
 1186SOL     OW15190   1.357   3.296   8.652 -0.3086  0.8459 -0.4727
 1186SOL    HW115191   1.433   3.313   8.596 -0.4668 -1.3150 -1.3463
 1186SOL    HW215192   1.385   3.351   8.725  0.2907 -1.3634  0.9689
 1187SOL     OW15193   0.614   0.725   4.548  0.4326  0.3293 -0.1996
 1187SOL    HW115194   0.562   0.646   4.563 -1.8693  1.9094  0.1725
 1187SOL    HW215195   0.573   0.751   4.466  0.8614  0.7382 -0.2844
 1188SOL     OW15196   4.689   1.778   7.786  0.0356 -0.1458  0.2783
 1188SOL    HW115197   0.035   1.748   7.739  0.5547  0.5705  0.6855
 1188SOL    HW215198   4.665   1.864   7.752  2.0741 -0.0446 -0.9312
 1189SOL     OW15199   1.595   2.608   6.299 -0.0055  0.0772  0.0729
 1189SOL    HW115200   1.661   2.545   6.270  0.1516 -0.4851  1.6446
 1189SOL    HW215201   1.635   2.627   6.384  3.3418  0.1852 -1.5602
 1190SOL     OW15202   1.182   1.845   7.189  0.2432 -0.4456 -0.1661
 1190SOL    HW115203   1.272   1.856   7.221 -0.1581 -0.4616  0.9835
 1190SOL    HW215204   1.149   1.933   7.171  1.4140 -0.1867 -1.0134
 1191SOL     OW15205   2.914   2.621   9.420  0.0270 -0.1019  0.8316
 1191SOL    HW115206   2.992   2.638   9.473  1.6984 -2.3992 -0.8462
 1191SOL    HW215207   2.873   2.561   9.483  0.5435 -2.2178 -0.8317
 1192SOL     OW15208   1.584   4.078   9.754 -1.1435  0.1417  0.7036
 1192SOL    HW115209   1.498   4.040   9.735 -0.4335  0.0778 -2.4550
 1192SOL    HW215210   1.568   4.164   9.716 -1.6440 -0.1491  0.2506
 1193SOL     OW15211   0.483   2.609   3.155  0.6359 -0.0850  0.2410
 1193SOL    HW115212   0.490   2.691   3.202 -0.1542  0.2977 -0.3032
 1193SOL    HW215213   0.517   2.633   3.069  1.8401  0.3494  0.8378
 1194SOL     OW15214   3.574   3.228   4.118 -0.3059  0.5014 -0.1867
 1194SOL    HW115215   3.570   3.322   4.133  2.5671  0.3892  1.2932
 1194SOL    HW215216   3.498   3.208   4.063 -1.1044  2.6266  0.1389
 1195SOL     OW15217   3.211   1.156   4.828  0.1336  0.8468 -0.0344
 1195SOL    HW115218   3.177   1.080   4.782  1.7889  0.4038 -0.5135
 1195SOL    HW215219   3.203   1.126   4.919  2.4726  0.4061  0.0231
 1196SOL     OW15220   1.652   2.444   5.181  0.0245  0.5291  0.0122
 1196SOL    HW115221   1.717   2.496   5.133 -0.8851  1.3682 -0.3079
 1196SOL    HW215222   1.622   2.378   5.118  0.3925 -2.3130  2.8124
 1197SOL     OW15223   1.290   4.444   3.598 -0.2148  0.1168  0.0458
 1197SOL    HW115224   1.255   4.515   3.651 -1.2207 -0.0154 -0.4482
 1197SOL    HW215225   1.212   4.389   3.591  0.6902 -1.1252 -0.3867
 1198SOL     OW15226   3.363   1.886   2.924 -0.5486 -0.1410  1.1112
 1198SOL    HW115227   3.392   1.818   2.864 -0.1478  2.4817 -1.7005
 1198SOL    HW215228   3.435   1.904   2.984 -0.1589  0.5304  0.4491
 1199SOL     OW15229   2.566   1.012   3.822  0.1953 -0.2195  0.5016
 1199SOL    HW115230   2.490   0.973   3.778 -0.2407  1.2611 -0.0607
 1199SOL    HW215231   2.611   0.948   3.877  1.8569  1.5640  1.2145
 1200SOL     OW15232   4.567   3.740   7.778  0.5317  0.4903 -0.1302
 1200SOL    HW115233   4.556   3.745   7.873  1.9027  0.6835  0.0141
 1200SOL    HW215234   4.634   3.807   7.766  0.4992  0.9020  2.0040
 1201SOL     OW15235   4.258   0.191   8.263  0.4366  0.0318  0.1607
 1201SOL    HW115236   4.203   0.255   8.217  2.1773  2.1808  1.0523
 1201SOL    HW215237   4.330   0.250   8.285  1.7405 -0.5604 -2.4572
 1202SOL     OW15238   3.600   3.353   1.172 -1.1681 -0.3386 -0.6995
 1202SOL    HW115239   3.662   3.280   1.166  0.9559  1.2811  1.6533
 1202SOL    HW215240   3.625   3.389   1.087  0.7400  2.0688  0.8881
 1203SOL     OW15241   0.010   3.597  15.653  0.2614 -0.5320 -0.3000
 1203SOL    HW115242   4.690   3.616  15.576 -0.8052  0.9576  0.7817
 1203SOL    HW215243   0.006   3.682  15.696  0.1321 -0.8926  0.4064
 1204SOL     OW15244   3.737   0.159   7.611 -0.1637  0.0876 -0.4148
 1204SOL    HW115245   3.813   0.217   7.618 -1.2772  1.6081 -0.8091
 1204SOL    HW215246   3.694   0.160   7.697  1.6512  2.2771  0.4589
 1205SOL     OW15247   1.832   3.715   6.413  0.5540 -0.5323 -0.0734
 1205SOL    HW115248   1.827   3.686   6.504 -0.2379 -1.5626 -0.4526
 1205SOL    HW215249   1.838   3.809   6.432 -2.9604 -0.5657  1.2699
 1206SOL     OW15250   3.441   1.301  16.593  0.3660 -0.0859  0.2366
 1206SOL    HW115251   3.468   1.378  16.543 -1.4290 -0.4035 -1.2065
 1206SOL    HW215252   3.364   1.262  16.553  1.9081 -3.5305  0.6656
 1207SOL     OW15253   4.490   3.289   8.448 -0.6970 -0.5170 -0.2939
 1207SOL    HW115254   4.526   3.203   8.469 -1.4826 -1.2375 -1.9359
 1207SOL    HW215255   4.557   3.333   8.395 -1.5562  0.0775 -0.8803
 1208SOL     OW15256   1.559   1.787   9.773 -0.0636  1.0481  0.0658
 1208SOL    HW115257   1.612   1.856   9.734  0.7730  0.4761  0.1932
 1208SOL    HW215258   1.498   1.849   9.814 -0.7081  1.4629 -1.5482
 1209SOL     OW15259   1.405   4.469   5.412  0.1820  0.2235  0.3927
 1209SOL    HW115260   1.320   4.488   5.372  0.2572  0.4631  0.3429
 1209SOL    HW215261   1.447   4.551   5.385  1.3242 -0.3318  0.4654
 1210SOL     OW15262   0.406   3.763   5.768  0.0794 -0.6464  0.5672
 1210SOL    HW115263   0.355   3.685   5.790 -1.9333  0.8317  1.2356
 1210SOL    HW215264   0.348   3.839   5.776  0.4250 -0.6986  3.7258
 1211SOL     OW15265   3.866   3.773   8.441 -0.2497  0.4328  0.4909
 1211SOL    HW115266   3.814   3.757   8.520  0.2985  0.7684  0.9218
 1211SOL    HW215267   3.835   3.700   8.388 -0.7171  1.6597 -0.9049
 1212SOL     OW15268   3.832   1.856   3.037 -0.3418 -0.3746 -0.1124
 1212SOL    HW115269   3.816   1.832   2.946  0.1333  1.2947 -0.6519
 1212SOL    HW215270   3.847   1.775   3.085  0.1288 -0.4953 -0.4585
 1213SOL     OW15271   3.549   0.024   4.871  0.0562 -0.0746  0.0413
 1213SOL    HW115272   3.490   0.093   4.841  1.3973  0.3851 -1.5567
 1213SOL    HW215273   3.494   4.679   4.859 -0.9214  0.2504  2.4229
 1214SOL     OW15274   2.005   0.323   7.869 -0.1974 -0.8314  0.1360
 1214SOL    HW115275   1.912   0.313   7.847 -0.8098  0.8591  2.0466
 1214SOL    HW215276   2.010   0.246   7.925 -1.3638  0.4982  2.0715
 1215SOL     OW15277   1.121   1.471   7.315 -0.6128 -0.1890 -0.3565
 1215SOL    HW115278   1.211   1.455   7.345 -0.2130 -0.8169 -1.8558
 1215SOL    HW215279   1.107   1.562   7.339  1.0935  0.4985 -1.9581
 1216SOL     OW15280   4.148   2.656   2.077 -0.4100  0.1173  0.2605
 1216SOL    HW115281   4.206   2.722   2.115 -0.7014 -0.3038  1.4564
 1216SOL    HW215282   4.149   2.695   1.990  0.2523 -0.4068  0.0345
 1217SOL     OW15283   2.678   2.802   6.214  0.3248 -0.5241  0.2684
 1217SOL    HW115284   2.688   2.839   6.302 -0.8157  0.7302 -0.1124
 1217SOL    HW215285   2.582   2.794   6.214  0.1708  1.2033 -1.7201
 1218SOL     OW15286   2.381   0.963  10.684 -0.0286  0.0534 -0.1024
 1218SOL    HW115287   2.325   0.917  10.747 -0.5889  0.7028 -0.1298
 1218SOL    HW215288   2.430   1.024  10.739  2.1478 -2.0614  0.2844
 1219SOL     OW15289   0.519   1.717   3.655 -0.4178 -0.1241 -0.6376
 1219SOL    HW115290   0.425   1.696   3.649 -0.6495  0.9271 -0.7030
 1219SOL    HW215291   0.560   1.635   3.629 -1.4716 -0.7431 -0.3374
 1220SOL     OW15292   0.627   2.532   7.160 -0.5209  0.1583 -0.1129
 1220SOL    HW115293   0.714   2.514   7.197 -0.2792 -1.1311 -1.3536
 1220SOL    HW215294   0.622   2.624   7.187 -0.6113  0.1744 -0.1863
 1221SOL     OW15295   1.361   0.023   9.817  0.0597 -0.5361 -0.0205
 1221SOL    HW115296   1.315   0.104   9.796  0.3078 -0.2383  0.5966
 1221SOL    HW215297   1.450   0.047   9.790 -0.1699  0.0923 -0.2170
 1222SOL     OW15298   4.429   3.965   5.095 -0.0340  0.3095 -0.2481
 1222SOL    HW115299   4.421   4.015   5.176  1.3444 -0.8443  0.6011
 1222SOL    HW215300   4.423   4.033   5.028 -0.2505 -1.7929 -2.3651
 1223SOL     OW15301   0.919   4.015   2.410  0.2282 -0.2102 -0.4916
 1223SOL    HW115302   0.851   4.042   2.348  0.0439  2.6064  0.9403
 1223SOL    HW215303   0.973   4.094   2.406 -0.0133  0.0247  1.0315
 1224SOL     OW15304   0.508   3.035   9.278 -0.0231 -0.1584  0.4251
 1224SOL    HW115305   0.575   3.040   9.346  1.8346 -0.7389 -1.3579
 1224SOL    HW215306   0.539   3.093   9.208 -1.0256  1.1059  1.0148
 1225SOL     OW15307   2.334   3.742   3.034 -0.1577  0.2245  0.4791
 1225SOL    HW115308   2.362   3.797   2.961  0.6803 -1.2975 -0.3582
 1225SOL    HW215309   2.246   3.719   3.005 -0.5011  1.2323  0.7050
 1226SOL     OW15310   4.684   2.174   9.432 -0.0800  0.1883 -0.0425
 1226SOL    HW115311   4.672   2.081   9.417 -2.5757  0.4675  0.1520
 1226SOL    HW215312   4.601   2.219   9.416  1.0336  1.7757 -1.4325
 1227SOL     OW15313   0.422   3.860   6.230  0.1356  0.2779 -0.0173
 1227SOL    HW115314   0.355   3.796   6.205  1.1667 -1.3965  1.4555
 1227SOL    HW215315   0.499   3.820   6.188  0.2164  0.5602 -0.1345
 1228SOL     OW15316   1.733   0.352   3.912 -0.1030 -0.2535 -0.2052
 1228SOL    HW115317   1.827   0.348   3.931 -0.5862 -0.1671  2.2267
 1228SOL    HW215318   1.688   0.348   3.997 -0.2070 -0.3839 -0.2677
 1229SOL     OW15319   1.803   0.478  16.058  0.1914 -0.4268 -0.4663
 1229SOL    HW115320   1.753   0.404  16.094  0.2645  0.4663  1.4409
 1229SOL    HW215321   1.823   0.455  15.967  1.0332  0.2835 -0.4584
 1230SOL     OW15322   3.405   3.370   4.391 -0.6445  0.0308  0.4008
 1230SOL    HW115323   3.320   3.351   4.352  0.2924 -1.3588 -0.9800
 1230SOL    HW215324   3.458   3.394   4.314 -0.6979  0.6748  0.5641
 1231SOL     OW15325   4.555   3.316   1.771 -0.8453  0.4458 -0.5876
 1231SOL    HW115326   4.615   3.389   1.755 -0.9745  0.9351  1.2327
 1231SOL    HW215327   4.570   3.319   1.865 -1.4310  0.0004 -0.4817
 1232SOL     OW15328   1.712   2.705   4.118  0.2136  0.0164 -0.0199
 1232SOL    HW115329   1.775   2.718   4.189  0.7760 -0.4471 -0.4360
 1232SOL    HW215330   1.729   2.785   4.069  0.4104  0.0870  0.1626
 1233SOL     OW15331   4.690   1.498   9.535  0.7813  0.3980 -0.2392
 1233SOL    HW115332   4.669   1.417   9.487  2.7400  0.5305 -1.3038
 1233SOL    HW215333   4.620   1.491   9.600  1.0094  0.2985 -0.0043
 1234SOL     OW15334   0.522   0.655  13.313 -0.0321 -0.3818  0.3492
 1234SOL    HW115335   0.584   0.722  13.343  1.1418 -0.7914 -1.1985
 1234SOL    HW215336   0.488   0.626  13.398  0.6287 -0.9271  0.4277
 1235SOL     OW15337   2.207   0.226   6.981 -0.8957  0.7039  0.2506
 1235SOL    HW115338   2.249   0.256   7.062 -0.3902 -3.1611  1.4513
 1235SOL    HW215339   2.222   0.131   6.978 -1.4949  0.6165  0.0227
 1236SOL     OW15340   0.682   0.796   5.050  0.1204  0.2189 -0.3196
 1236SOL    HW115341   0.677   0.853   5.127 -0.3116 -0.8195  0.4219
 1236SOL    HW215342   0.588   0.800   5.029  0.4005 -0.2521 -1.6681
 1237SOL     OW15343   1.939   0.230   9.802 -0.1111  0.2533  0.1513
 1237SOL    HW115344   2.033   0.223   9.784 -0.0959  0.6561  0.0613
 1237SOL    HW215345   1.917   0.288   9.729 -4.4618  0.3793  1.5466
 1238SOL     OW15346   4.673   4.063   3.837 -0.2636 -0.1301  0.3017
 1238SOL    HW115347   4.581   4.060   3.863 -0.5336 -1.3467 -0.7876
 1238SOL    HW215348   4.665   4.039   3.745 -0.9650 -0.5185  0.4554
 1239SOL     OW15349   2.130   0.916   5.125  0.4115 -0.0835  0.0418
 1239SOL    HW115350   2.138   0.847   5.191 -0.2265  0.4343  0.6589
 1239SOL    HW215351   2.179   0.977   5.181 -0.6269 -0.9229  1.8536
 1240SOL     OW15352   2.410   1.024  14.721  0.3695 -0.7434 -0.6804
 1240SOL    HW115353   2.400   1.119  14.718  0.3693 -0.7812 -1.8437
 1240SOL    HW215354   2.316   1.011  14.735 -0.2847  3.0942 -1.6942
 1241SOL     OW15355   0.224   3.799  12.732  0.2060  0.3106 -0.1850
 1241SOL    HW115356   0.297   3.760  12.682 -0.8254 -1.8360 -0.0521
 1241SOL    HW215357   0.254   3.889  12.721  1.6950 -0.1413  0.1026
 1242SOL     OW15358   3.152   1.268   2.970  0.4140  0.1180  0.3673
 1242SOL    HW115359   3.060   1.243   2.983  0.1284  0.1798 -1.5207
 1242SOL    HW215360   3.167   1.344   3.027  0.3441  0.8434 -0.5715
 1243SOL     OW15361   0.082   2.825  12.602  0.0393 -0.6448  0.7688
 1243SOL    HW115362   0.043   2.835  12.516 -0.1396  1.7074  1.1311
 1243SOL    HW215363   0.077   2.915  12.635 -1.5930  0.1010 -1.5122
 1244SOL     OW15364   0.314   3.380   7.422 -0.8357  0.6935 -0.2528
 1244SOL    HW115365   0.295   3.377   7.516  2.0771  1.4802  0.3760
 1244SOL    HW215366   0.293   3.469   7.394 -2.0713  0.0121 -1.4846
 1245SOL     OW15367   1.585   3.064   9.132 -0.2394 -0.7484  0.5564
 1245SOL    HW115368   1.679   3.079   9.125 -0.5093  0.5154 -0.5013
 1245SOL    HW215369   1.553   3.070   9.042  1.9033  0.9174 -0.1053
 1246SOL     OW15370   3.030   3.305   0.978  0.6823  0.1595  0.3183
 1246SOL    HW115371   3.069   3.392   0.993 -0.5629  1.1778 -2.3813
 1246SOL    HW215372   2.937   3.324   0.985  0.4581 -1.5808  2.1237
 1247SOL     OW15373   0.369   2.757  10.047 -0.1115 -0.0682  0.5832
 1247SOL    HW115374   0.403   2.800  10.124 -0.6214  0.1320  0.6949
 1247SOL    HW215375   0.437   2.693  10.023  0.0553  0.8135 -1.3322
 1248SOL     OW15376   0.572   2.551   3.792  0.0562  0.1782  0.6206
 1248SOL    HW115377   0.523   2.507   3.722  0.3795  0.2400  0.3551
 1248SOL    HW215378   0.516   2.628   3.802 -3.4803 -2.1143 -1.3912
 1249SOL     OW15379   0.145   3.988   0.397 -0.0159 -0.0782  0.1861
 1249SOL    HW115380   0.062   3.986   0.444 -0.7667  1.0488 -1.0627
 1249SOL    HW215381   0.179   4.073   0.425 -2.1552  0.6758  0.5243
 1250SOL     OW15382   2.595   4.565   3.156  0.4780  0.1281 -0.2335
 1250SOL    HW115383   2.566   4.480   3.123  1.4109 -0.6385  0.9144
 1250SOL    HW215384   2.511   4.601   3.185 -0.8341 -2.3719 -0.8871
 1251SOL     OW15385   0.759   0.371   8.177  0.3870  0.2829  0.5289
 1251SOL    HW115386   0.781   0.398   8.266  0.6400 -1.2169  0.9234
 1251SOL    HW215387   0.668   0.401   8.179  0.7608  1.3099  1.9472
 1252SOL     OW15388   1.637   1.056  17.568  0.1956  0.7020  0.0347
 1252SOL    HW115389   1.666   1.148  17.564  1.0836  0.4423  0.3505
 1252SOL    HW215390   1.668   1.031  17.655 -0.8602 -0.4262  0.0826
 1253SOL     OW15391   1.874   4.559   8.078 -0.0564  0.0310 -0.2554
 1253SOL    HW115392   1.912   4.600   8.156 -2.4160  1.3067  0.2245
 1253SOL    HW215393   1.784   4.591   8.088  0.0522  0.3664 -0.3242
 1254SOL     OW15394   1.942   4.037   3.997 -0.1804 -0.5587  0.3778
 1254SOL    HW115395   1.991   4.113   3.965  0.4421 -0.6255  1.1917
 1254SOL    HW215396   1.928   3.982   3.920 -0.7606 -0.8126  0.6674
 1255SOL     OW15397   2.547   4.256  15.589 -0.5830  0.3518 -0.2454
 1255SOL    HW115398   2.636   4.225  15.607  0.1440  3.4155  1.4698
 1255SOL    HW215399   2.561   4.310  15.512 -0.3306  0.1804 -0.3225
 1256SOL     OW15400   2.251   1.347   2.039 -0.3085 -0.6399 -0.7443
 1256SOL    HW115401   2.163   1.379   2.059 -0.9520 -2.2781 -0.9522
 1256SOL    HW215402   2.237   1.254   2.056 -1.3847  0.2182  3.0523
 1257SOL     OW15403   2.660   0.410   1.584 -0.5176  0.4539  0.1757
 1257SOL    HW115404   2.732   0.423   1.646 -0.1747  0.4286 -0.2203
 1257SOL    HW215405   2.714   0.360   1.523 -1.9367  0.0699 -0.7887
 1258SOL     OW15406   2.344   2.843   8.785  0.1907  0.2024  0.3915
 1258SOL    HW115407   2.355   2.910   8.717 -0.2879  0.2446  0.3581
 1258SOL    HW215408   2.285   2.779   8.746 -0.4631  1.6817 -1.0695
 1259SOL     OW15409   4.655   1.727   3.792  0.3267  0.4654  0.1333
 1259SOL    HW115410   4.689   1.638   3.801  3.0164  1.4817  0.0877
 1259SOL    HW215411   4.705   1.766   3.864  1.9378 -1.4996  0.0495
 1260SOL     OW15412   4.652   0.277   8.067 -0.1573  0.0379 -0.1480
 1260SOL    HW115413   4.568   0.323   8.071  1.2385  2.3897  2.2805
 1260SOL    HW215414   4.632   0.201   8.121 -0.4212 -0.1170 -0.4665
 1261SOL     OW15415   0.558   3.796   2.345 -0.7337 -0.5729 -0.0710
 1261SOL    HW115416   0.628   3.772   2.284 -1.2719 -2.8203  0.1690
 1261SOL    HW215417   0.570   3.890   2.340  1.3247 -0.7111  2.4973
 1262SOL     OW15418   0.319   4.225  13.787  0.1563 -0.0639 -0.4555
 1262SOL    HW115419   0.337   4.301  13.731 -2.8807  0.4196 -0.8347
 1262SOL    HW215420   0.404   4.214  13.829  1.2386 -0.0295 -2.6263
 1263SOL     OW15421   2.235   4.541   2.042 -0.3388 -0.4840 -0.3145
 1263SOL    HW115422   2.194   4.497   2.116  1.0140 -0.3911  0.4971
 1263SOL    HW215423   2.328   4.540   2.066  0.1031 -0.6025 -2.0188
 1264SOL     OW15424   2.512   2.923  14.864 -0.4147 -0.0160  0.3122
 1264SOL    HW115425   2.594   2.925  14.913 -0.9606  1.4767  1.1401
 1264SOL    HW215426   2.539   2.874  14.786  1.8542  1.2474  0.3327
 1265SOL     OW15427   1.502   0.879   0.348 -0.5482 -0.1575 -0.1078
 1265SOL    HW115428   1.451   0.915   0.421 -0.3785 -0.0312 -0.0519
 1265SOL    HW215429   1.431   0.877   0.284 -1.8271 -1.8997  1.3529
 1266SOL     OW15430   4.214   4.403   4.158 -0.1426  0.0508  0.2481
 1266SOL    HW115431   4.251   4.358   4.082 -2.0785  2.2638 -1.9909
 1266SOL    HW215432   4.287   4.393   4.219  0.3660 -4.3147 -1.0273
 1267SOL     OW15433   1.715   4.127   6.940  0.3588 -0.2838  1.1943
 1267SOL    HW115434   1.635   4.180   6.937 -0.0085 -0.9058 -0.3562
 1267SOL    HW215435   1.732   4.105   6.848 -1.8128  0.9751  0.4966
 1268SOL     OW15436   0.127   3.229   9.025  0.5180  0.4479 -0.5438
 1268SOL    HW115437   0.213   3.242   9.066  0.3938  1.8667 -0.7203
 1268SOL    HW215438   0.157   3.206   8.937 -1.7198 -3.3930 -0.2871
 1269SOL     OW15439   3.274   1.114  12.757  0.0640  0.4202  0.5676
 1269SOL    HW115440   3.309   1.034  12.716  2.0551 -0.6739  4.3529
 1269SOL    HW215441   3.221   1.081  12.829 -1.5432 -0.3690 -0.9807
 1270SOL     OW15442   3.944   3.371  11.446  0.0486 -0.4247  0.3218
 1270SOL    HW115443   3.978   3.454  11.411 -1.7850  1.1172  2.1778
 1270SOL    HW215444   3.996   3.303  11.404  2.8064  0.4159  2.4045
 1271SOL     OW15445   3.188   1.404   6.497  0.5234  0.4609  0.1596
 1271SOL    HW115446   3.126   1.462   6.540 -0.9818 -1.2743  0.3130
 1271SOL    HW215447   3.266   1.428   6.548  0.4151 -1.6932  1.3651
 1272SOL     OW15448   0.493   0.271   8.090 -0.4089 -0.5566 -0.4739
 1272SOL    HW115449   0.456   0.337   8.148  2.0991  2.0158 -1.8064
 1272SOL    HW215450   0.551   0.223   8.149 -0.8056 -0.9691 -0.4164
 1273SOL     OW15451   2.270   3.661   9.742  0.4946  0.4256 -0.0628
 1273SOL    HW115452   2.345   3.654   9.683 -0.0462 -1.5128 -0.5118
 1273SOL    HW215453   2.300   3.740   9.787  1.4007 -0.3327  0.6482
 1274SOL     OW15454   1.254   1.026   9.684 -0.0711 -0.2539  0.2791
 1274SOL    HW115455   1.258   0.976   9.603  2.4922 -0.9812  0.8379
 1274SOL    HW215456   1.297   1.109   9.661 -1.1601  0.0451 -0.6596
 1275SOL     OW15457   3.197   0.689   7.566 -0.0698 -0.4600  0.5026
 1275SOL    HW115458   3.133   0.712   7.632 -0.3655  1.5400 -0.4991
 1275SOL    HW215459   3.254   0.622   7.605  1.0314  1.1517  1.6842
 1276SOL     OW15460   4.402   2.535  15.246 -0.1939 -0.7824  0.4302
 1276SOL    HW115461   4.459   2.484  15.304  1.0901 -2.3504 -2.1701
 1276SOL    HW215462   4.324   2.483  15.225 -0.4699 -0.4537  0.6448
 1277SOL     OW15463   3.454   2.022  17.103  0.0349 -0.3194 -0.5556
 1277SOL    HW115464   3.439   2.040  17.011 -1.1611  2.1601  0.1081
 1277SOL    HW215465   3.369   2.001  17.142  0.6377  0.7539  1.3939
 1278SOL     OW15466   4.190   3.530   7.377 -1.0232 -0.1438 -0.0370
 1278SOL    HW115467   4.198   3.436   7.395  0.3152 -0.4521 -2.2766
 1278SOL    HW215468   4.116   3.554   7.433 -0.7930  2.3976 -0.8499
 1279SOL     OW15469   0.029   4.513   7.396 -0.2052  0.0646 -0.5124
 1279SOL    HW115470   0.040   4.571   7.320 -1.2096  0.6287 -0.2338
 1279SOL    HW215471   4.732   4.579   7.459  0.7631 -0.0562  0.0697
 1280SOL     OW15472   0.155   2.697  17.192 -0.4819 -0.4281  0.0724
 1280SOL    HW115473   0.223   2.715  17.258  0.2198 -0.0985 -0.7485
 1280SOL    HW215474   0.199   2.630  17.140 -1.6680 -1.1692  0.0336
 1281SOL     OW15475   0.486   3.590  12.882  0.0767 -0.1702  0.3120
 1281SOL    HW115476   0.547   3.593  12.955  1.0905  1.6705 -0.6062
 1281SOL    HW215477   0.517   3.663  12.828 -0.9396  0.2890  0.3442
 1282SOL     OW15478   2.016   3.527  14.373 -0.1139 -0.2249  0.0518
 1282SOL    HW115479   2.093   3.526  14.315 -0.8186 -2.7126 -0.8237
 1282SOL    HW215480   2.037   3.449  14.424  0.5918  0.8722  1.4159
 1283SOL     OW15481   1.360   2.363  17.402 -0.0180  0.2209 -0.1831
 1283SOL    HW115482   1.415   2.307  17.457 -1.2449 -0.0166  0.8156
 1283SOL    HW215483   1.302   2.391  17.472 -0.4872 -0.9696 -0.0899
 1284SOL     OW15484   3.953   0.467   9.088 -0.1317 -0.3494 -0.2863
 1284SOL    HW115485   4.034   0.511   9.061 -0.4091 -0.4416 -1.3044
 1284SOL    HW215486   3.963   0.396   9.024 -1.1550  1.3552 -2.3795
 1285SOL     OW15487   0.118   0.974   4.468  0.1334  0.1349 -0.3932
 1285SOL    HW115488   0.150   0.885   4.482 -0.1495  0.1296  0.1957
 1285SOL    HW215489   0.091   1.000   4.556  0.7342  1.2439 -0.5378
 1286SOL     OW15490   2.089   3.610  10.092  0.1968  0.2837 -0.7399
 1286SOL    HW115491   2.065   3.590  10.001  0.7025  0.6943 -0.9582
 1286SOL    HW215492   2.127   3.696  10.077 -1.7765  1.1440 -0.8785
 1287SOL     OW15493   1.863   0.190   4.171  0.4309 -0.2311 -0.3247
 1287SOL    HW115494   1.931   0.242   4.126  0.0335  1.4772  1.0402
 1287SOL    HW215495   1.830   0.248   4.240  1.6435  1.6873 -1.3198
 1288SOL     OW15496   4.422   4.466  17.154  0.0406  0.3398 -0.5347
 1288SOL    HW115497   4.360   4.403  17.118 -0.4523 -1.4970  3.5127
 1288SOL    HW215498   4.380   4.544  17.119 -1.1043 -0.9931 -2.1345
 1289SOL     OW15499   3.907   1.944   9.202 -0.5553  0.0294  0.4392
 1289SOL    HW115500   3.937   2.035   9.197 -0.0546 -0.0845  1.4414
 1289SOL    HW215501   3.844   1.948   9.274 -1.0461 -2.0937  0.1387
 1290SOL     OW15502   2.755   2.076  16.070 -0.3739  0.1790 -0.8079
 1290SOL    HW115503   2.723   2.138  16.135 -0.9560 -1.9155  0.9123
 1290SOL    HW215504   2.799   2.126  16.002  1.4716  2.4811  2.0392
 1291SOL     OW15505   4.667   3.650   4.336  0.1951  0.4236 -0.2043
 1291SOL    HW115506   4.611   3.710   4.286 -1.7468 -0.0199  1.4278
 1291SOL    HW215507   4.623   3.568   4.315 -0.4159  0.3145  1.4611
 1292SOL     OW15508   3.419   4.036   6.754  0.1121 -0.0785  0.6703
 1292SOL    HW115509   3.347   3.981   6.723 -1.6516  1.7463  1.5296
 1292SOL    HW215510   3.367   4.113   6.773  1.4086  0.8875  0.2732
 1293SOL     OW15511   0.199   2.528   9.075  0.2667  0.0068  0.0739
 1293SOL    HW115512   0.190   2.541   8.981 -1.3631 -0.6092  0.1468
 1293SOL    HW215513   0.141   2.454   9.093 -2.8612  2.0014 -1.9395
 1294SOL     OW15514   0.514   2.101   6.821 -0.5137  0.0102 -0.4994
 1294SOL    HW115515   0.538   2.169   6.758 -2.9706 -0.2396 -1.7344
 1294SOL    HW215516   0.594   2.091   6.872 -1.1256  0.5738  0.5848
 1295SOL     OW15517   4.126   0.456   3.889  0.6416 -0.7452 -0.4074
 1295SOL    HW115518   4.056   0.501   3.843  0.8842  0.1457  0.0871
 1295SOL    HW215519   4.102   0.471   3.980  1.0118  3.5289 -0.9915
 1296SOL     OW15520   1.373   3.672  12.813 -0.1603 -0.0929 -0.7881
 1296SOL    HW115521   1.367   3.578  12.825 -1.0335  0.3721  2.4695
 1296SOL    HW215522   1.361   3.706  12.902  0.3017 -0.5510 -0.5535
 1297SOL     OW15523   4.577   4.187  16.629 -0.1898  0.7344 -0.2272
 1297SOL    HW115524   4.645   4.198  16.563  0.7000  1.4782  0.8202
 1297SOL    HW215525   4.536   4.274  16.624  1.7971  1.7380  1.3443
 1298SOL     OW15526   4.645   0.873  16.829 -0.5323  0.5411 -0.1700
 1298SOL    HW115527   4.722   0.848  16.778  0.1100 -1.7981  1.9016
 1298SOL    HW215528   4.684   0.952  16.866  1.6926  0.3002 -1.9861
 1299SOL     OW15529   1.647   1.653   6.113 -0.0693 -0.6317 -0.8946
 1299SOL    HW115530   1.640   1.625   6.022 -2.3952  0.3807 -1.0400
 1299SOL    HW215531   1.739   1.673   6.127 -0.8350  2.0109  0.3672
 1300SOL     OW15532   4.335   0.827  10.732  0.2804  0.5169  0.6783
 1300SOL    HW115533   4.295   0.785  10.808  0.8977 -0.9514  0.1999
 1300SOL    HW215534   4.328   0.751  10.675 -1.3288  1.9193 -1.0035
 1301SOL     OW15535   0.851   3.381   2.598  0.2380 -0.8736 -0.6992
 1301SOL    HW115536   0.903   3.438   2.655  0.6657 -1.8460 -0.1174
 1301SOL    HW215537   0.890   3.397   2.512  1.2926 -2.1612 -0.4621
 1302SOL     OW15538   1.564   3.123   2.625 -0.3092  0.4227  0.1070
 1302SOL    HW115539   1.638   3.134   2.564  0.7779  2.4111  1.8286
 1302SOL    HW215540   1.608   3.119   2.710  0.5953  0.7999 -0.3372
 1303SOL     OW15541   4.035   0.476  11.641 -0.0960 -0.6526  0.2118
 1303SOL    HW115542   3.970   0.412  11.670 -1.9696  1.8470  1.4708
 1303SOL    HW215543   4.109   0.445  11.694  0.0179  0.5021  0.7262
 1304SOL     OW15544   2.724   2.442   2.569  0.1638  0.3307 -0.2952
 1304SOL    HW115545   2.710   2.521   2.621 -0.4025  1.0846 -1.5733
 1304SOL    HW215546   2.691   2.387   2.640 -1.4455  0.5657 -0.8481
 1305SOL     OW15547   4.605   3.509   6.209 -0.1016  0.1707 -0.0871
 1305SOL    HW115548   4.575   3.436   6.154  1.8577  0.5565 -1.6631
 1305SOL    HW215549   4.541   3.574   6.183 -0.0743  0.1074 -0.3100
 1306SOL     OW15550   2.944   1.870   8.913  0.0577  0.0563  0.1587
 1306SOL    HW115551   2.912   1.960   8.912  1.8371  0.6753  0.2096
 1306SOL    HW215552   2.983   1.874   8.826 -0.4524 -0.2939 -0.0903
 1307SOL     OW15553   1.373   4.627   6.694 -0.0120 -0.1588  0.3193
 1307SOL    HW115554   1.279   4.635   6.710 -0.1857  3.7619 -2.6242
 1307SOL    HW215555   1.369   4.613   6.599 -0.8369 -0.0918  0.3491
 1308SOL     OW15556   4.242   3.727  15.325  0.1040 -0.1500 -0.4411
 1308SOL    HW115557   4.302   3.736  15.399  0.2613  2.4718 -0.8805
 1308SOL    HW215558   4.179   3.662  15.355 -0.1938  1.0786  1.5985
 1309SOL     OW15559   4.467   0.084  11.269  0.2676 -0.3399  0.0608
 1309SOL    HW115560   4.413   0.161  11.289 -0.4698 -0.7870 -0.2139
 1309SOL    HW215561   4.538   0.102  11.331  0.6633  0.2766 -0.5732
 1310SOL     OW15562   3.927   4.489   6.210  0.4413  0.3826  0.0294
 1310SOL    HW115563   3.879   4.536   6.142 -0.9786  0.5356  1.1313
 1310SOL    HW215564   3.953   4.562   6.267 -2.3968  0.7444  0.8540
 1311SOL     OW15565   3.798   1.746   7.284 -0.0430  0.2986  0.0216
 1311SOL    HW115566   3.812   1.827   7.234 -0.8684 -0.7424 -1.8936
 1311SOL    HW215567   3.888   1.732   7.314  0.2838 -1.1792 -1.6571
 1312SOL     OW15568   1.028   4.363   3.422 -0.4701 -0.0316 -0.2686
 1312SOL    HW115569   1.058   4.320   3.503 -1.8684  1.5235  1.0708
 1312SOL    HW215570   1.002   4.291   3.365  1.1485 -0.2059 -0.7836
 1313SOL     OW15571   0.983   2.890   6.289  0.2482  0.7268  0.1312
 1313SOL    HW115572   1.053   2.949   6.317  0.2403  0.0386  1.5666
 1313SOL    HW215573   1.037   2.817   6.259  1.7083  1.3629  1.2728
 1314SOL     OW15574   2.363   4.565  14.917  0.2166  0.0094  0.4055
 1314SOL    HW115575   2.458   4.562  14.902 -0.3957 -2.7483 -2.8667
 1314SOL    HW215576   2.347   4.657  14.893 -2.9461 -1.2369 -2.2707
 1315SOL     OW15577   2.131   4.459   2.266 -0.0436 -0.1400  0.3652
 1315SOL    HW115578   2.165   4.399   2.333  1.7838  0.2212 -0.2475
 1315SOL    HW215579   2.140   4.542   2.311  1.0884 -0.5727  0.9399
 1316SOL     OW15580   1.755   4.105   7.650 -0.3368 -0.4133  0.0098
 1316SOL    HW115581   1.684   4.122   7.588  0.7512 -0.0930 -1.1478
 1316SOL    HW215582   1.777   4.191   7.686 -0.8413  0.3259 -1.4517
 1317SOL     OW15583   1.984   2.009   6.535  0.2396 -0.5982 -0.3141
 1317SOL    HW115584   2.057   1.947   6.535  0.4356 -0.3591  0.2906
 1317SOL    HW215585   1.909   1.959   6.502 -0.2562 -1.4164  2.0624
 1318SOL     OW15586   3.768   3.364   3.134 -0.2482  0.3040 -0.0380
 1318SOL    HW115587   3.786   3.457   3.147 -1.7222  0.5958 -0.1032
 1318SOL    HW215588   3.708   3.390   3.064  1.0495  0.3914 -1.1227
 1319SOL     OW15589   3.275   0.227   0.947 -0.0165  0.4465  0.3384
 1319SOL    HW115590   3.192   0.273   0.929 -0.4461 -1.0924 -1.6457
 1319SOL    HW215591   3.328   0.307   0.948 -1.3152  1.2615  3.1284
 1320SOL     OW15592   1.835   0.879  15.341  0.1053  0.1790  0.1526
 1320SOL    HW115593   1.764   0.857  15.281  0.9007  1.3627 -1.2267
 1320SOL    HW215594   1.917   0.852  15.301 -0.3792 -2.8360  1.2466
 1321SOL     OW15595   1.890   0.288   1.005  0.0618  0.1159 -0.3163
 1321SOL    HW115596   1.924   0.211   1.051 -1.4806 -1.0075 -1.0767
 1321SOL    HW215597   1.886   0.359   1.069  1.9200  0.5125 -0.6453
 1322SOL     OW15598   3.225   3.366   6.221 -0.4138 -0.2943  0.1417
 1322SOL    HW115599   3.296   3.398   6.277 -0.0592 -1.3744  0.2984
 1322SOL    HW215600   3.271   3.376   6.138 -1.3702  1.9971 -0.1162
 1323SOL     OW15601   2.241   4.075   5.009  0.4895  0.3434 -0.1986
 1323SOL    HW115602   2.331   4.074   5.043  0.2821 -1.9428  0.3024
 1323SOL    HW215603   2.182   4.093   5.082  1.2441  1.9011  0.0227
 1324SOL     OW15604   2.945   3.725   7.072 -0.5129  0.1016  0.1067
 1324SOL    HW115605   2.939   3.691   6.983 -1.7335 -0.9042  0.5676
 1324SOL    HW215606   2.853   3.714   7.097 -0.2682 -0.9279  0.5634
 1325SOL     OW15607   1.281   0.712  16.224  0.0791 -0.1523 -0.1506
 1325SOL    HW115608   1.203   0.763  16.247  1.2001  0.5788  2.0806
 1325SOL    HW215609   1.255   0.625  16.254  3.0102  0.1021  3.1096
 1326SOL     OW15610   3.189   1.813   6.813  0.1064 -0.1048 -0.2173
 1326SOL    HW115611   3.096   1.835   6.801  0.1065  0.2558  0.4281
 1326SOL    HW215612   3.219   1.805   6.722  0.5760  0.6131 -0.1274
 1327SOL     OW15613   2.073   0.108   4.360  0.0291  0.1846  0.6639
 1327SOL    HW115614   2.037   0.082   4.275 -1.7394  3.9163  0.2771
 1327SOL    HW215615   2.000   0.150   4.406 -0.4188  1.9886 -1.7216
 1328SOL     OW15616   3.991   3.852  16.789 -0.4080  0.6067 -0.0755
 1328SOL    HW115617   3.999   3.831  16.696  1.2757  0.5207  0.0837
 1328SOL    HW215618   3.931   3.782  16.814  2.8409 -1.5674  1.7632
 1329SOL     OW15619   0.385   1.939  13.377 -0.0253 -0.0508 -0.2772
 1329SOL    HW115620   0.307   1.980  13.339  0.5512  1.2449 -0.0429
 1329SOL    HW215621   0.454   1.995  13.341  0.0181 -0.0133 -0.1337
 1330SOL     OW15622   2.116   4.259   6.492  0.2043  0.9152  0.1164
 1330SOL    HW115623   2.040   4.216   6.531  0.9073 -1.8764 -1.6030
 1330SOL    HW215624   2.114   4.343   6.538 -1.6218  0.6833  0.4544
 1331SOL     OW15625   2.963   3.408   3.385 -0.1317 -0.3023 -0.2194
 1331SOL    HW115626   2.922   3.469   3.447 -0.9269 -0.7385 -0.3207
 1331SOL    HW215627   2.891   3.360   3.346  1.5928 -2.6827 -0.4790
 1332SOL     OW15628   4.655   2.985   3.605 -0.1563  0.5978 -0.7300
 1332SOL    HW115629   4.688   3.075   3.607 -0.1548  0.5614  0.9964
 1332SOL    HW215630   0.005   2.938   3.614 -0.4337  0.5850  1.8504
 1333SOL     OW15631   2.095   0.839   6.892 -0.1941 -0.0207 -0.2158
 1333SOL    HW115632   2.059   0.899   6.827  1.3169 -2.8599 -3.7022
 1333SOL    HW215633   2.165   0.889   6.934  0.5649 -0.5999 -0.7837
 1334SOL     OW15634   1.559   0.709  16.283 -0.2069 -0.1926  0.8643
 1334SOL    HW115635   1.470   0.737  16.261 -0.1263  0.4250  1.3472
 1334SOL    HW215636   1.594   0.732  16.197  0.4907  0.6815  1.3833
 1335SOL     OW15637   0.595   3.396   7.698 -0.3995 -0.0445 -0.5959
 1335SOL    HW115638   0.530   3.337   7.735  0.2004 -0.9915 -1.0547
 1335SOL    HW215639   0.674   3.373   7.747  1.0018  2.5715 -1.6102
 1336SOL     OW15640   0.497   4.008   2.054  0.4679  0.3785 -0.5190
 1336SOL    HW115641   0.437   3.933   2.064  0.3373  0.9320  3.0185
 1336SOL    HW215642   0.532   3.999   1.966  1.8417  1.8065 -0.1017
 1337SOL     OW15643   3.987   0.318   3.283 -0.2022  0.1111  0.8735
 1337SOL    HW115644   4.071   0.272   3.287 -0.4586 -0.4039  0.1820
 1337SOL    HW215645   3.978   0.344   3.375 -1.3300  2.2986  0.1372
 1338SOL     OW15646   0.847   3.030   9.190  0.0258 -0.3702 -0.3475
 1338SOL    HW115647   0.801   2.973   9.129  1.7855 -1.1959 -0.9175
 1338SOL    HW215648   0.866   2.967   9.259  0.8616  1.5854  1.1826
 1339SOL     OW15649   2.115   4.098   5.539  0.1580  0.2177  0.2384
 1339SOL    HW115650   2.039   4.079   5.484  0.6496 -0.8652 -0.0608
 1339SOL    HW215651   2.069   4.136   5.614 -0.4704  2.2255 -1.1473
 1340SOL     OW15652   3.458   1.692   6.043  0.2164 -0.0693  0.4423
 1340SOL    HW115653   3.536   1.637   6.046  0.0961 -0.4820 -4.1322
 1340SOL    HW215654   3.496   1.774   6.074 -0.9033  0.5244  0.2510
 1341SOL     OW15655   1.299   3.907  17.424 -0.5949  0.1814  0.2692
 1341SOL    HW115656   1.289   3.887  17.331  1.6762  0.6857 -0.0832
 1341SOL    HW215657   1.220   3.956  17.444 -1.0024  0.2536 -1.5885
 1342SOL     OW15658   1.837   3.583   2.024 -0.3192 -0.3449  0.4483
 1342SOL    HW115659   1.862   3.594   1.932  0.2382  0.4812  0.7028
 1342SOL    HW215660   1.742   3.579   2.008 -0.4685  3.2470  0.4687
 1343SOL     OW15661   0.894   4.018   8.633 -0.2917 -0.2779 -0.1583
 1343SOL    HW115662   0.816   4.009   8.688 -1.2239  4.0678 -0.7201
 1343SOL    HW215663   0.964   4.024   8.698 -0.2927  0.1288 -0.1940
 1344SOL     OW15664   3.565   0.538   8.333 -0.5051 -0.5759 -0.0703
 1344SOL    HW115665   3.549   0.628   8.306 -1.8286 -0.5754  0.7133
 1344SOL    HW215666   3.572   0.554   8.427 -3.9904  0.5895  0.0054
 1345SOL     OW15667   0.320   1.996   5.240  0.3023  0.8764 -0.2120
 1345SOL    HW115668   0.335   1.953   5.324 -2.0087 -1.1239 -0.8394
 1345SOL    HW215669   0.306   2.086   5.268  1.0680  0.9458 -0.0595
 1346SOL     OW15670   2.185   4.715   0.158 -0.4144 -0.5021  0.0477
 1346SOL    HW115671   2.115   0.047   0.148 -0.9071 -1.1653 -0.8224
 1346SOL    HW215672   2.149   4.645   0.102  0.7846 -0.9840 -0.1223
 1347SOL     OW15673   3.267   4.666   1.645 -0.0354  0.7549  0.4184
 1347SOL    HW115674   3.259   4.631   1.733  1.2492  0.6592  0.5036
 1347SOL    HW215675   3.355   4.631   1.628 -0.8035 -0.3713 -1.1920
 1348SOL     OW15676   1.202   0.456  10.569  0.6596 -0.0801 -0.0998
 1348SOL    HW115677   1.279   0.501  10.605  1.6267 -0.3707 -1.8296
 1348SOL    HW215678   1.127   0.501  10.610 -0.4807  0.1462 -2.4559
 1349SOL     OW15679   3.383   2.538   8.997 -0.0103  0.4001 -0.1270
 1349SOL    HW115680   3.426   2.459   9.029 -0.0468  0.5811  0.3702
 1349SOL    HW215681   3.310   2.502   8.947 -0.1315  1.3166 -0.6109
 1350SOL     OW15682   1.834   4.371   8.647  0.4013 -0.3930  0.1010
 1350SOL    HW115683   1.876   4.456   8.640 -0.7673  0.1480 -0.2146
 1350SOL    HW215684   1.902   4.319   8.603  0.1197 -1.8887  1.4174
 1351SOL     OW15685   0.410   4.400   7.107 -0.0659 -0.1113  0.2434
 1351SOL    HW115686   0.404   4.485   7.149  0.7342 -0.1118  0.3544
 1351SOL    HW215687   0.316   4.382   7.098 -0.1859 -0.0962  1.5008
 1352SOL     OW15688   2.168   1.564   3.634  0.3681 -0.1714  0.2464
 1352SOL    HW115689   2.257   1.598   3.639 -0.3663  1.4161  2.1083
 1352SOL    HW215690   2.140   1.568   3.542 -0.8400  2.0631  0.7248
 1353SOL     OW15691   2.978   2.208   7.752  0.0844  0.3293 -0.3823
 1353SOL    HW115692   2.965   2.121   7.789  1.3141  0.6437  0.7892
 1353SOL    HW215693   3.002   2.187   7.662 -0.2175  0.7799 -0.5688
 1354SOL     OW15694   2.351   1.992   3.755 -0.2086  0.2582 -0.0385
 1354SOL    HW115695   2.259   2.011   3.733 -0.1901  1.0675  0.5821
 1354SOL    HW215696   2.340   1.917   3.813  3.0269  0.4273  0.7735
 1355SOL     OW15697   1.037   2.812   8.346 -0.1328  0.2488 -0.4480
 1355SOL    HW115698   1.086   2.894   8.355 -2.1989  1.2464  1.6540
 1355SOL    HW215699   1.095   2.759   8.401 -1.6156  1.2018  2.0665
 1356SOL     OW15700   2.553   0.259   7.885  0.3167 -0.9752  0.0389
 1356SOL    HW115701   2.582   0.169   7.869 -0.0965 -1.3595  1.4530
 1356SOL    HW215702   2.572   0.266   7.978  0.0115 -0.9152  0.0939
 1357SOL     OW15703   1.492   3.042  10.879 -0.2440  0.3375  0.6006
 1357SOL    HW115704   1.560   2.977  10.898 -1.3562 -1.3054 -1.0189
 1357SOL    HW215705   1.447   2.995  10.808  1.7453 -0.4297 -0.1742
 1358SOL     OW15706   0.860   3.592   7.688 -0.5016  0.1362  0.2683
 1358SOL    HW115707   0.848   3.538   7.766  0.6778  0.7309  0.8716
 1358SOL    HW215708   0.771   3.625   7.686 -1.1880 -1.6320  1.5272
 1359SOL     OW15709   0.082   3.088   6.545  0.8979  0.2985  0.5794
 1359SOL    HW115710   0.134   3.031   6.602  1.6219  1.3062  0.9365
 1359SOL    HW215711   0.003   3.035   6.534  0.8535  0.5486 -0.2627
 1360SOL     OW15712   4.241   1.336   8.357 -0.2236 -0.6098 -0.2627
 1360SOL    HW115713   4.272   1.246   8.368 -0.2807 -0.6024 -0.0371
 1360SOL    HW215714   4.160   1.323   8.406 -0.0957  1.4516  0.4811
 1361SOL     OW15715   3.781   4.681   4.150 -0.2202  0.8501  0.2818
 1361SOL    HW115716   3.877   4.683   4.159 -0.5012 -0.3445  3.7348
 1361SOL    HW215717   3.774   0.021   4.088  2.0166 -0.0046 -0.9923
 1362SOL     OW15718   1.235   2.313   4.010 -0.0021 -0.1961  0.2999
 1362SOL    HW115719   1.284   2.273   3.938 -1.3389 -2.0648  0.4243
 1362SOL    HW215720   1.172   2.244   4.033  0.4634 -0.1553  1.6839
 1363SOL     OW15721   2.182   3.452   8.903  0.0774 -0.2870  0.3343
 1363SOL    HW115722   2.209   3.368   8.866  1.0351  0.2369 -0.1458
 1363SOL    HW215723   2.087   3.447   8.904  0.0982 -0.7582  0.2441
 1364SOL     OW15724   2.446   1.169   6.779  0.0204  0.5362 -0.1513
 1364SOL    HW115725   2.482   1.191   6.694 -0.9717 -1.5322 -1.1122
 1364SOL    HW215726   2.523   1.172   6.836 -0.7410  1.1123  0.8455
 1365SOL     OW15727   2.402   2.579  10.780  0.1551  0.1773 -0.1580
 1365SOL    HW115728   2.377   2.560  10.870 -1.4751 -0.3132 -0.7214
 1365SOL    HW215729   2.417   2.674  10.783 -1.2748  0.3374  1.4754
 1366SOL     OW15730   2.125   1.568  10.672  0.2392 -0.0730 -0.2485
 1366SOL    HW115731   2.100   1.509  10.602  0.4823 -0.4125 -0.0478
 1366SOL    HW215732   2.048   1.624  10.671  0.5248  0.3107 -0.8461
 1367SOL     OW15733   3.953   0.060   5.935  0.2359 -0.2800  0.1614
 1367SOL    HW115734   3.897   0.021   6.002  1.9490 -1.1436  1.1000
 1367SOL    HW215735   3.894   0.110   5.879 -1.1006 -0.7826  1.1472
 1368SOL     OW15736   0.060   1.326  14.586 -0.4714 -0.4379 -0.2649
 1368SOL    HW115737   0.100   1.336  14.500 -1.3039  0.5333 -0.5342
 1368SOL    HW215738   0.116   1.385  14.637  2.1091 -1.6912 -1.6818
 1369SOL     OW15739   2.200   2.244   9.157  0.3851 -0.7082 -0.0533
 1369SOL    HW115740   2.173   2.159   9.123  1.1394 -0.1726 -1.9910
 1369SOL    HW215741   2.136   2.256   9.227  0.9863 -0.2273  0.4098
 1370SOL     OW15742   3.308   4.367   6.809  0.0333  0.3345  0.5400
 1370SOL    HW115743   3.233   4.313   6.832 -0.9411  1.3176 -0.3342
 1370SOL    HW215744   3.321   4.419   6.889  1.0820 -0.1092  0.6554
 1371SOL     OW15745   4.047   2.505  15.031 -0.0989  0.2574 -0.0359
 1371SOL    HW115746   4.110   2.462  15.089  1.7999  1.7799 -0.9928
 1371SOL    HW215747   4.014   2.438  14.972  1.0395 -0.5300  0.2359
 1372SOL     OW15748   3.315   3.988   1.660 -0.9861 -0.2496  0.5864
 1372SOL    HW115749   3.257   3.950   1.594  0.0655 -0.8052 -0.0084
 1372SOL    HW215750   3.268   3.979   1.743 -1.4650 -0.2063  0.3220
 1373SOL     OW15751   2.139   2.153   5.357  0.0918  0.1409 -0.4033
 1373SOL    HW115752   2.177   2.118   5.276  0.5004 -0.9723  0.2700
 1373SOL    HW215753   2.047   2.135   5.340 -0.2781 -0.1331  1.8794
 1374SOL     OW15754   3.530   3.184   9.279  0.1103  0.0224  1.0056
 1374SOL    HW115755   3.471   3.256   9.256  0.3828 -0.5183 -1.3260
 1374SOL    HW215756   3.500   3.109   9.227  2.1878 -1.5883  2.1484
 1375SOL     OW15757   4.319   2.166  13.900 -0.3351 -0.3449 -0.5708
 1375SOL    HW115758   4.231   2.148  13.868 -1.0258 -0.3886  1.3875
 1375SOL    HW215759   4.311   2.158  13.995 -0.2929  0.6551 -0.4878
 1376SOL     OW15760   0.436   2.847   5.434 -0.4130  0.6114  0.7362
 1376SOL    HW115761   0.408   2.897   5.357 -0.2558 -1.3651 -0.6430
 1376SOL    HW215762   0.352   2.831   5.477  0.1502 -0.1635  1.5243
 1377SOL     OW15763   4.191   1.868   9.857  0.3092  0.3076 -0.1750
 1377SOL    HW115764   4.182   1.907   9.944 -0.3227 -0.5624  0.1489
 1377SOL    HW215765   4.110   1.817   9.848  1.0202 -0.3365 -2.6463
 1378SOL     OW15766   2.885   4.303  11.770 -0.1720 -0.4181  0.0614
 1378SOL    HW115767   2.866   4.262  11.686  0.6939  0.8396 -0.7327
 1378SOL    HW215768   2.797   4.326  11.801 -0.2434 -1.2848  0.4916
 1379SOL     OW15769   4.093   4.523   0.399  0.4654  0.0745  0.4168
 1379SOL    HW115770   4.138   4.600   0.362  0.1591  0.8630  1.7076
 1379SOL    HW215771   4.161   4.508   0.464 -0.3918 -0.4909  1.1672
 1380SOL     OW15772   0.131   0.337   2.841 -0.3254  0.2396  0.1497
 1380SOL    HW115773   0.093   0.377   2.763  1.6160  0.4397 -0.7094
 1380SOL    HW215774   0.151   0.251   2.804 -0.0054 -0.3070  1.6219
 1381SOL     OW15775   2.636   4.411  12.961 -0.2862 -0.1290  0.0137
 1381SOL    HW115776   2.566   4.433  13.023 -0.1965  0.3633 -0.0585
 1381SOL    HW215777   2.700   4.480  12.977 -0.8639  0.0634  1.5098
 1382SOL     OW15778   3.891   1.670   9.286  0.4985 -0.0337  0.0974
 1382SOL    HW115779   3.924   1.759   9.277 -1.4526  0.4762 -1.9046
 1382SOL    HW215780   3.880   1.649   9.193 -0.2576 -0.4564  0.2796
 1383SOL     OW15781   3.158   0.673  13.339  0.7121 -0.0637 -0.5507
 1383SOL    HW115782   3.183   0.647  13.428  0.6029  0.5964 -0.3253
 1383SOL    HW215783   3.109   0.597  13.308  2.0149 -1.1778  0.1416
 1384SOL     OW15784   0.583   0.576   5.727  0.5873 -0.0046  0.5056
 1384SOL    HW115785   0.657   0.522   5.699  1.0179  1.6163 -1.4963
 1384SOL    HW215786   0.514   0.546   5.667 -0.1407  1.9938  0.3387
 1385SOL     OW15787   0.891   3.178   2.857  0.1728  0.0088  0.9125
 1385SOL    HW115788   0.858   3.163   2.946  0.4371  1.8346  1.3183
 1385SOL    HW215789   0.806   3.198   2.818  1.0538  1.5128 -0.2583
 1386SOL     OW15790   4.130   3.680  17.552 -0.1929 -0.2996 -0.2569
 1386SOL    HW115791   4.101   3.686  17.460 -0.4245  0.1512 -0.1577
 1386SOL    HW215792   4.043   3.694  17.590 -0.3626  3.1547 -1.9076
 1387SOL     OW15793   0.278   1.447   9.060  0.1118  0.8601  0.2251
 1387SOL    HW115794   0.266   1.447   9.155 -1.1760 -2.1804  0.0687
 1387SOL    HW215795   0.347   1.512   9.050  1.1621 -0.1524  0.7952
 1388SOL     OW15796   1.913   3.572  10.678 -0.2334  0.1804 -0.2907
 1388SOL    HW115797   1.948   3.635  10.741  0.9777  0.1732 -0.9734
 1388SOL    HW215798   1.817   3.582  10.681 -0.2521  0.5057 -2.1369
 1389SOL     OW15799   3.518   3.120   5.849  0.3679 -0.0233 -0.0332
 1389SOL    HW115800   3.444   3.064   5.872  0.4637 -0.3543 -0.5449
 1389SOL    HW215801   3.479   3.207   5.856 -1.0807 -0.5035 -2.3144
 1390SOL     OW15802   0.275   2.571  10.315  0.3667  0.0713  0.5699
 1390SOL    HW115803   0.191   2.614  10.332 -0.6296 -1.1705 -1.2755
 1390SOL    HW215804   0.257   2.478  10.331 -2.8422  0.3521 -1.5997
 1391SOL     OW15805   4.468   2.865   7.972 -0.1915  0.3036  0.0540
 1391SOL    HW115806   4.433   2.939   8.022  0.4134  0.2218  0.5970
 1391SOL    HW215807   4.534   2.832   8.032 -1.0895  1.4586  1.6793
 1392SOL     OW15808   0.812   2.354   4.671  0.2972 -0.8257 -0.1152
 1392SOL    HW115809   0.880   2.412   4.637  1.1336 -0.9088  1.4138
 1392SOL    HW215810   0.862   2.273   4.682  0.9564 -0.3348  0.5236
 1393SOL     OW15811   1.532   0.026   4.870 -0.1230 -0.5370  0.9843
 1393SOL    HW115812   1.483   0.094   4.822  1.6785  0.8908  1.1490
 1393SOL    HW215813   1.616   0.038   4.825 -0.1971 -0.1088  0.9566
 1394SOL     OW15814   0.505   4.549   7.907  0.3394  0.2157 -0.1073
 1394SOL    HW115815   0.444   4.613   7.942  0.4947  2.2430 -3.5722
 1394SOL    HW215816   0.587   4.561   7.956  0.7223  1.7833 -1.1581
 1395SOL     OW15817   3.999   1.162  10.447 -0.6798 -0.3194 -0.0318
 1395SOL    HW115818   4.063   1.110  10.497  0.1182 -0.4687 -1.2092
 1395SOL    HW215819   3.921   1.125  10.488  0.4036 -0.5848  1.8284
 1396SOL     OW15820   3.337   3.840  12.214 -0.4013  0.2659  0.4755
 1396SOL    HW115821   3.361   3.753  12.245  1.8065  0.2343 -1.3229
 1396SOL    HW215822   3.323   3.899  12.288  0.8593  0.5698  0.4650
 1397SOL     OW15823   3.235   4.619   2.285 -0.0828  0.3370 -0.4514
 1397SOL    HW115824   3.249   4.528   2.259 -0.5370 -0.0801  0.7635
 1397SOL    HW215825   3.308   4.637   2.343 -0.7440  0.3373  0.3746
 1398SOL     OW15826   4.598   3.849   6.845  0.4525  0.4130  0.1748
 1398SOL    HW115827   4.549   3.914   6.895  2.7528  0.6045  2.1659
 1398SOL    HW215828   4.640   3.799   6.915 -1.1525 -0.5984  0.3985
 1399SOL     OW15829   1.486   1.162  16.024  0.0749  0.4998  0.3867
 1399SOL    HW115830   1.549   1.097  16.056 -1.7147 -1.4141  0.0365
 1399SOL    HW215831   1.522   1.238  16.069 -1.7387  1.7423 -0.2870
 1400SOL     OW15832   2.852   1.894  11.241  0.1995 -0.0508 -0.0058
 1400SOL    HW115833   2.907   1.970  11.258 -0.1484  0.1213  0.3391
 1400SOL    HW215834   2.911   1.830  11.200  1.5077  1.8329 -1.0417
 1401SOL     OW15835   3.282   3.205   0.400 -0.1696 -0.2440  0.1396
 1401SOL    HW115836   3.268   3.246   0.486 -3.7135 -0.6995 -0.2146
 1401SOL    HW215837   3.304   3.281   0.347  1.8404 -1.1111 -0.2746
 1402SOL     OW15838   2.956   3.769   8.892  0.3052 -0.1749  0.5125
 1402SOL    HW115839   3.018   3.825   8.937 -2.0184  2.3867  0.5302
 1402SOL    HW215840   2.977   3.690   8.942 -1.3411  0.7022  2.5946
 1403SOL     OW15841   2.183   2.427   9.475 -0.1365 -0.0161  0.2038
 1403SOL    HW115842   2.198   2.337   9.444  0.8198  0.0037  0.6026
 1403SOL    HW215843   2.144   2.416   9.562 -1.4304  2.5361 -0.0678
 1404SOL     OW15844   4.020   4.053   3.453 -0.0029  0.0532  0.1425
 1404SOL    HW115845   4.103   4.042   3.408  0.3861 -1.2024  1.1570
 1404SOL    HW215846   3.999   4.145   3.436 -0.4087 -0.1931 -0.6881
 1405SOL     OW15847   4.397   4.367   6.203  0.1478 -0.1678 -0.1711
 1405SOL    HW115848   4.442   4.445   6.173 -0.3346 -0.1235 -0.7749
 1405SOL    HW215849   4.319   4.365   6.147 -0.6835  0.1659  0.9605
 1406SOL     OW15850   2.658   1.513   7.063  0.0405 -0.0274 -0.0141
 1406SOL    HW115851   2.583   1.554   7.020 -0.8077 -1.1154  0.4162
 1406SOL    HW215852   2.661   1.563   7.144 -0.2227 -0.5430  0.3168
 1407SOL     OW15853   3.507   2.751   2.841  0.1963  0.1946  0.0951
 1407SOL    HW115854   3.601   2.742   2.822  0.1156 -0.4914  0.0378
 1407SOL    HW215855   3.486   2.801   2.762 -1.6496  0.0311  0.5020
 1408SOL     OW15856   3.881   1.768   0.879  0.5346  0.1819 -0.1854
 1408SOL    HW115857   3.883   1.673   0.879  0.2164  0.1720 -1.1824
 1408SOL    HW215858   3.960   1.798   0.833  1.6930 -0.7211  1.2451
 1409SOL     OW15859   2.260   1.235   4.906 -0.0250 -0.0301  0.1651
 1409SOL    HW115860   2.179   1.209   4.950 -0.8173  3.1073  0.5714
 1409SOL    HW215861   2.236   1.327   4.896  1.0743  0.4318  1.8653
 1410SOL     OW15862   2.262   3.149   1.895 -0.3120 -0.0588  0.4860
 1410SOL    HW115863   2.248   3.156   1.990  0.8716 -0.5635  0.6982
 1410SOL    HW215864   2.348   3.107   1.894  0.2357  1.0733 -1.0039
 1411SOL     OW15865   2.546   2.532  14.953 -0.0870  0.3579  0.0718
 1411SOL    HW115866   2.473   2.587  14.924 -0.1897  0.0586 -0.2315
 1411SOL    HW215867   2.563   2.483  14.873  1.3937  0.6744  0.1803
 1412SOL     OW15868   3.032   2.806   9.590  0.5883 -0.3741 -0.5757
 1412SOL    HW115869   3.118   2.775   9.561  0.0838  0.3085 -2.7862
 1412SOL    HW215870   3.030   2.888   9.542 -1.6574 -0.3502 -0.4076
 1413SOL     OW15871   4.626   3.992   7.510 -0.3326  0.0900  0.2896
 1413SOL    HW115872   4.677   3.997   7.591 -1.1011  1.1033  0.7038
 1413SOL    HW215873   4.535   3.996   7.541  0.2625 -0.3665  2.1258
 1414SOL     OW15874   2.358   1.663   6.273  0.3146 -0.1850  0.3766
 1414SOL    HW115875   2.430   1.699   6.220  1.1629  0.1036  1.7237
 1414SOL    HW215876   2.360   1.572   6.241  0.0575 -0.2152  0.4527
 1415SOL     OW15877   1.197   2.272   2.144 -0.6194  0.0789 -0.0207
 1415SOL    HW115878   1.273   2.277   2.087 -0.7572  2.0435 -0.0406
 1415SOL    HW215879   1.231   2.305   2.227 -1.4116 -0.3569  0.4718
 1416SOL     OW15880   2.137   0.170   3.459 -0.1069  0.7454  0.0742
 1416SOL    HW115881   2.181   0.243   3.414  0.9121 -1.3181 -2.2729
 1416SOL    HW215882   2.183   0.099   3.415  0.1398  0.4760  0.7777
 1417SOL     OW15883   1.289   1.222  10.687 -0.1161  0.2076  0.2266
 1417SOL    HW115884   1.235   1.289  10.644 -1.3851 -1.5656 -0.9393
 1417SOL    HW215885   1.327   1.272  10.760 -1.2736  0.5933  0.5785
 1418SOL     OW15886   0.142   3.268   0.002  0.4101 -0.2061  0.5872
 1418SOL    HW115887   0.191   3.259   0.083 -0.9807 -1.5430  1.2675
 1418SOL    HW215888   0.211   3.285  17.668 -1.8792 -0.7926 -2.0402
 1419SOL     OW15889   2.289   3.335   4.097 -0.7130  0.6144 -0.2792
 1419SOL    HW115890   2.238   3.255   4.083  1.3571 -0.5914 -0.9083
 1419SOL    HW215891   2.262   3.397   4.029  0.8783  0.9354 -0.6254
 1420SOL     OW15892   1.707   0.309   9.950  0.7328  0.5111 -0.1892
 1420SOL    HW115893   1.794   0.285   9.916  0.1868 -1.8905  0.0743
 1420SOL    HW215894   1.717   0.318  10.044  3.0386 -1.2120 -0.2463
 1421SOL     OW15895   1.222   4.616   8.632 -0.2689  0.2237  0.4550
 1421SOL    HW115896   1.163   4.565   8.687 -1.4261 -0.8727 -1.8337
 1421SOL    HW215897   1.303   4.571   8.659 -0.6062  0.3133  1.6459
 1422SOL     OW15898   3.411   1.156   6.825  0.2320 -0.3609  0.1308
 1422SOL    HW115899   3.448   1.228   6.876 -1.0221 -0.9282  1.8099
 1422SOL    HW215900   3.484   1.160   6.762  1.5876  0.0416  1.7441
 1423SOL     OW15901   0.093   1.096  13.600 -0.8851  0.1797  0.1849
 1423SOL    HW115902   0.164   1.114  13.539 -0.5177 -2.9435 -0.3440
 1423SOL    HW215903   0.048   1.180  13.599  0.9270  1.1019 -2.3448
 1424SOL     OW15904   3.626   1.763   7.002  0.4478 -0.2736  0.0146
 1424SOL    HW115905   3.721   1.771   7.000  0.2471  1.9621 -0.1882
 1424SOL    HW215906   3.596   1.853   6.994 -0.1120 -0.3939  0.7282
 1425SOL     OW15907   0.832   3.715   5.907  0.5560 -0.2522  0.0684
 1425SOL    HW115908   0.899   3.663   5.953 -0.6804 -1.9027 -0.0226
 1425SOL    HW215909   0.891   3.778   5.865 -0.4000 -0.9039 -2.2357
 1426SOL     OW15910   4.645   0.749   3.054  0.0720  0.1657 -0.1690
 1426SOL    HW115911   4.710   0.720   2.990  1.9727  0.0157  1.8511
 1426SOL    HW215912   4.579   0.784   2.993 -0.2823 -0.9433 -0.4332
 1427SOL     OW15913   1.021   3.117  14.895 -0.3025  0.3534 -0.3605
 1427SOL    HW115914   0.931   3.113  14.862  0.2207  0.9442 -1.8780
 1427SOL    HW215915   1.029   3.210  14.917  1.8385 -0.5223  2.4957
 1428SOL     OW15916   2.443   3.841   9.831 -0.0021 -0.4743  0.6142
 1428SOL    HW115917   2.395   3.919   9.860 -2.7322 -3.0403  3.1097
 1428SOL    HW215918   2.508   3.877   9.771 -0.8104 -2.1941 -1.2647
 1429SOL     OW15919   0.273   4.284   6.519 -0.0690  0.1199  0.2480
 1429SOL    HW115920   0.243   4.199   6.550  0.2306 -0.2784 -0.5571
 1429SOL    HW215921   0.190   4.331   6.528 -0.3336 -0.8163  2.6728
 1430SOL     OW15922   3.729   4.470   4.349 -0.1753  0.4002  0.4309
 1430SOL    HW115923   3.814   4.429   4.336  0.3761  1.6946 -0.0352
 1430SOL    HW215924   3.741   4.544   4.290  0.6018  0.3121  0.4860
 1431SOL     OW15925   2.469   4.470   7.541 -0.3856 -0.3615  0.2277
 1431SOL    HW115926   2.446   4.550   7.589  1.6273  0.6509 -0.4675
 1431SOL    HW215927   2.382   4.441   7.515 -0.4523 -2.0880  2.3888
 1432SOL     OW15928   4.180   2.585   7.726  0.2993 -0.0126 -0.1016
 1432SOL    HW115929   4.139   2.498   7.729  2.3356 -0.9997 -0.7217
 1432SOL    HW215930   4.187   2.605   7.819 -0.8707 -0.4175  0.0848
 1433SOL     OW15931   1.188   4.650   6.254 -0.0654 -0.2342 -0.0438
 1433SOL    HW115932   1.245   4.575   6.242  2.5929  1.2225  3.4621
 1433SOL    HW215933   1.106   4.601   6.266 -0.1418 -0.1930 -0.3873
 1434SOL     OW15934   0.460   2.399   6.429 -0.0690  0.1348  0.4195
 1434SOL    HW115935   0.405   2.391   6.351  0.0911 -2.6622  0.5772
 1434SOL    HW215936   0.479   2.493   6.431  0.9892 -0.0002 -2.3828
 1435SOL     OW15937   4.271   2.516  11.810 -0.3906 -0.1711  0.5333
 1435SOL    HW115938   4.189   2.467  11.800 -0.1935 -0.2031 -0.8255
 1435SOL    HW215939   4.238   2.590  11.760  2.2326  0.0708 -0.8365
 1436SOL     OW15940   2.973   1.214   3.607  0.0376 -0.1510  0.0853
 1436SOL    HW115941   3.003   1.268   3.680  1.9008 -2.0827  0.7646
 1436SOL    HW215942   3.005   1.264   3.532  0.6376  1.0774  1.1679
 1437SOL     OW15943   1.677   3.084  16.238 -0.1442  0.1978  0.1088
 1437SOL    HW115944   1.692   2.990  16.237  0.0342  0.2386 -0.5483
 1437SOL    HW215945   1.584   3.077  16.217  0.8708 -1.5635 -3.6134
 1438SOL     OW15946   0.523   4.201   3.478  0.4046  0.5704  0.4975
 1438SOL    HW115947   0.442   4.249   3.490 -0.7180 -1.1582 -0.1955
 1438SOL    HW215948   0.585   4.239   3.540  0.2818  2.0783 -0.3183
 1439SOL     OW15949   2.125   1.007   1.840 -0.6393  0.1435  0.2368
 1439SOL    HW115950   2.038   1.005   1.799 -0.6002  0.7346  0.1211
 1439SOL    HW215951   2.180   0.958   1.779 -0.2231  2.3862 -1.2160
 1440SOL     OW15952   2.682   0.508  10.610 -0.1727  0.3563  0.3120
 1440SOL    HW115953   2.596   0.545  10.591 -1.7668 -2.4382  2.0411
 1440SOL    HW215954   2.687   0.457  10.529 -1.3158  0.9983 -0.1669
 1441SOL     OW15955   1.565   4.246   0.591  0.5775  0.0645 -0.5144
 1441SOL    HW115956   1.657   4.220   0.597  0.6030 -0.0074 -1.2094
 1441SOL    HW215957   1.550   4.292   0.673  1.2095 -1.0485  0.2270
 1442SOL     OW15958   3.241   0.934   8.276 -0.4688  0.4491  0.0644
 1442SOL    HW115959   3.192   0.966   8.200 -2.4543 -1.3062  0.6065
 1442SOL    HW215960   3.221   1.003   8.340  0.0282  0.7783 -0.1311
 1443SOL     OW15961   4.231   3.315   0.506  0.6600 -0.2105  0.7675
 1443SOL    HW115962   4.252   3.222   0.514  0.7457 -0.1940  0.7334
 1443SOL    HW215963   4.313   3.363   0.490 -0.1245 -0.0800 -2.7111
 1444SOL     OW15964   3.631   0.941   6.034 -0.3061  0.3243  0.0433
 1444SOL    HW115965   3.655   0.910   6.121  2.4221 -0.6305 -1.0283
 1444SOL    HW215966   3.541   0.969   6.045 -0.8671 -0.5815 -2.2299
 1445SOL     OW15967   2.952   4.218  13.752  0.1769  0.2839  0.2511
 1445SOL    HW115968   3.032   4.268  13.734 -0.9987  1.3832 -1.9604
 1445SOL    HW215969   2.887   4.287  13.761  1.0604  1.1035  0.3842
 1446SOL     OW15970   0.448   0.513   6.508  0.2509 -0.3316  0.7177
 1446SOL    HW115971   0.372   0.484   6.559 -0.3550  0.6183  0.3476
 1446SOL    HW215972   0.510   0.442   6.528  0.0358 -0.4211  1.0591
 1447SOL     OW15973   4.585   1.197   4.280  0.5174  0.0128 -0.1459
 1447SOL    HW115974   4.536   1.119   4.307  1.8382 -0.5194  0.7233
 1447SOL    HW215975   4.622   1.219   4.366 -2.1665 -0.0928  1.0214
 1448SOL     OW15976   4.540   4.238  17.297  0.8261  0.1408 -0.0019
 1448SOL    HW115977   4.474   4.307  17.289  0.7760  0.1296  0.3026
 1448SOL    HW215978   4.584   4.257  17.214 -1.0578  0.0074 -1.0338
 1449SOL     OW15979   2.614   0.006   7.819 -0.1184  0.0082  0.5701
 1449SOL    HW115980   2.643   4.648   7.828  0.9290  0.5877  3.0073
 1449SOL    HW215981   2.682   0.030   7.755  1.4969 -1.3807  1.7849
 1450SOL     OW15982   1.807   1.813   4.980 -0.2396 -0.0995 -0.0948
 1450SOL    HW115983   1.734   1.804   4.918 -0.7331  0.7022  0.3710
 1450SOL    HW215984   1.791   1.744   5.045 -0.7356  0.8170  0.7485
 1451SOL     OW15985   1.328   3.410  12.786 -0.3765  0.0334  0.4215
 1451SOL    HW115986   1.344   3.345  12.853 -0.1065  0.8507  1.1543
 1451SOL    HW215987   1.235   3.431  12.799 -1.3491 -4.0916  0.0234
 1452SOL     OW15988   1.945   4.367   8.966 -0.3824 -0.6371 -0.3126
 1452SOL    HW115989   1.916   4.457   8.985  0.2899 -0.7974  1.5015
 1452SOL    HW215990   1.884   4.325   9.026 -0.3708  0.9429  0.8316
 1453SOL     OW15991   3.445   0.716   7.323 -0.3362  0.1012  0.3666
 1453SOL    HW115992   3.503   0.641   7.333 -1.1780 -0.7080 -0.8563
 1453SOL    HW215993   3.428   0.729   7.416 -1.3485  1.6593 -0.0324
 1454SOL     OW15994   2.342   2.833   2.819 -0.1250  0.0324  0.2039
 1454SOL    HW115995   2.419   2.858   2.767  0.2880  1.7929  1.6598
 1454SOL    HW215996   2.378   2.838   2.907  1.5423 -1.2120 -0.4046
 1455SOL     OW15997   1.533   0.604   7.460  0.2692 -0.6084 -0.4481
 1455SOL    HW115998   1.557   0.559   7.378  1.5661  0.6564 -0.7595
 1455SOL    HW215999   1.481   0.681   7.438 -0.0971 -0.2061  1.9248
 1456SOL     OW16000   0.187   2.982   6.324  0.4420 -0.1192 -0.1517
 1456SOL    HW116001   0.179   3.049   6.256 -0.5077 -0.7493 -0.6642
 1456SOL    HW216002   0.153   3.027   6.401 -1.8018 -2.5432  0.2773
 1457SOL     OW16003   4.241   4.344   5.933  0.1638 -0.6402 -0.3364
 1457SOL    HW116004   4.272   4.396   5.859  1.5221 -2.4067 -1.0124
 1457SOL    HW216005   4.268   4.255   5.909 -0.1629 -0.5719 -0.9670
 1458SOL     OW16006   0.518   0.211   7.121  0.2438 -0.6463 -0.5735
 1458SOL    HW116007   0.503   0.118   7.133  2.5685 -0.9748 -0.2338
 1458SOL    HW216008   0.455   0.232   7.052 -0.0079 -0.9278 -0.4256
 1459SOL     OW16009   0.308   1.510   3.918  0.0359  0.1547  0.3530
 1459SOL    HW116010   0.340   1.457   3.845  0.5209  1.1110 -0.1291
 1459SOL    HW216011   0.352   1.471   3.993 -0.1473 -0.2377  0.2549
 1460SOL     OW16012   4.525   2.361  14.061 -0.1610 -0.1586 -0.0123
 1460SOL    HW116013   4.555   2.452  14.070  0.8132 -0.4160 -0.6579
 1460SOL    HW216014   4.489   2.347  14.149  1.4592  0.3819  0.7464
 1461SOL     OW16015   0.027   0.981   6.742  0.5692  0.5306 -0.8668
 1461SOL    HW116016   0.067   1.068   6.747 -0.3489  0.8272  1.2687
 1461SOL    HW216017   0.042   0.969   6.648  0.8299  1.4710 -0.9522
 1462SOL     OW16018   0.487   1.989   2.598 -0.3769 -0.4569  0.1564
 1462SOL    HW116019   0.524   2.039   2.525  0.1225  0.8302  1.2968
 1462SOL    HW216020   0.549   1.996   2.670 -0.2718  1.0651 -0.0787
 1463SOL     OW16021   4.330   3.892  14.606 -0.5476  0.1265  0.0561
 1463SOL    HW116022   4.281   3.901  14.688  1.0147 -2.0238  1.2424
 1463SOL    HW216023   4.330   3.797  14.595  0.8756  0.3910 -2.1450
 1464SOL     OW16024   2.978   4.172  14.894 -0.4097 -0.1084 -0.6714
 1464SOL    HW116025   3.022   4.157  14.977 -1.0341  1.2493 -0.1018
 1464SOL    HW216026   2.959   4.081  14.869  0.4161  0.8496 -4.8638
 1465SOL     OW16027   2.710   4.213  17.262 -0.2371 -0.5292  0.3891
 1465SOL    HW116028   2.768   4.166  17.203 -0.5138  0.0953 -0.3803
 1465SOL    HW216029   2.754   4.297  17.263 -1.2302 -0.0036  0.4157
 1466SOL     OW16030   2.505   2.728   1.846 -0.5352 -0.4625  0.6385
 1466SOL    HW116031   2.596   2.757   1.849 -0.9914  1.0164  0.4309
 1466SOL    HW216032   2.480   2.750   1.936 -0.1473  3.6392 -0.2691
 1467SOL     OW16033   2.465   3.277  17.614  0.2174 -0.1275  0.4005
 1467SOL    HW116034   2.538   3.280  17.676  0.3467 -0.5966  0.2757
 1467SOL    HW216035   2.460   3.183  17.594  1.1614 -0.3578  1.2478
 1468SOL     OW16036   2.100   1.082  11.786  0.1914 -0.3335 -0.5099
 1468SOL    HW116037   2.007   1.067  11.765  0.0845  1.3949 -1.2873
 1468SOL    HW216038   2.141   0.997  11.794 -1.4405 -1.2094 -1.3074
 1469SOL     OW16039   0.305   3.397   2.627  0.4264  0.2846 -1.1459
 1469SOL    HW116040   0.354   3.397   2.544  0.3182  1.3671 -1.2020
 1469SOL    HW216041   0.316   3.488   2.655  0.7264 -0.3283  0.7070
 1470SOL     OW16042   1.076   1.405   9.729 -0.6311  0.2695  0.9157
 1470SOL    HW116043   1.079   1.499   9.744 -0.5932  0.8792 -2.8571
 1470SOL    HW216044   1.133   1.394   9.653 -1.0589  0.6788  0.5311
 1471SOL     OW16045   2.757   1.621  11.706 -0.7428  0.2210 -0.1062
 1471SOL    HW116046   2.679   1.580  11.745 -1.7390  1.2868 -0.9716
 1471SOL    HW216047   2.725   1.630  11.616  0.6060  0.8308 -0.5167
 1472SOL     OW16048   0.817   0.774   6.704 -1.2428  0.2664  0.7951
 1472SOL    HW116049   0.872   0.707   6.663 -0.1667  1.7972 -0.2768
 1472SOL    HW216050   0.749   0.779   6.637 -0.0397  1.7749 -0.3159
 1473SOL     OW16051   3.550   3.390   0.120 -0.0813  0.0340  0.0180
 1473SOL    HW116052   3.613   3.418   0.187  2.1739 -0.9211 -1.7191
 1473SOL    HW216053   3.463   3.407   0.155 -0.1694  0.2082 -0.2872
 1474SOL     OW16054   2.399   1.105  10.311 -0.5572  0.1144  0.2661
 1474SOL    HW116055   2.418   1.022  10.355  0.1034  1.6926  2.9695
 1474SOL    HW216056   2.442   1.172  10.364  0.8513  0.9786 -1.9428
 1475SOL     OW16057   2.105   3.439   9.218  0.7764  0.3720  0.5259
 1475SOL    HW116058   2.128   3.412   9.130 -2.1139  0.2869 -0.1980
 1475SOL    HW216059   2.169   3.400   9.278 -1.1762  0.9173  2.9684
 1476SOL     OW16060   2.717   0.136   6.776  0.8724 -0.3853  0.0579
 1476SOL    HW116061   2.627   0.148   6.745  0.5265  0.1119  1.2894
 1476SOL    HW216062   2.717   0.042   6.795 -1.1348 -0.2705  0.6299
 1477SOL     OW16063   1.997   3.669   6.134 -0.4621  0.2222  0.3708
 1477SOL    HW116064   2.019   3.607   6.203 -2.5976  0.7437  1.5077
 1477SOL    HW216065   2.007   3.746   6.190  2.5753 -0.3524  0.6223
 1478SOL     OW16066   1.983   1.936   7.784 -0.5752  0.1596 -0.4889
 1478SOL    HW116067   2.076   1.951   7.768 -0.4502  0.8503  0.8081
 1478SOL    HW216068   1.986   1.913   7.877  0.1584 -2.1535 -1.0745
 1479SOL     OW16069   3.232   4.710  16.983 -0.0927 -0.0095  0.1793
 1479SOL    HW116070   3.324   4.715  16.956 -0.3712  0.7076 -0.6313
 1479SOL    HW216071   3.194   0.063  16.961 -1.2526 -0.2722  1.1719
 1480SOL     OW16072   1.933   2.236  15.137  0.1492  0.1423  0.2706
 1480SOL    HW116073   1.990   2.309  15.161  0.2194  0.2538 -0.2334
 1480SOL    HW216074   1.886   2.271  15.062  0.7890 -1.3234 -0.8166
 1481SOL     OW16075   0.489   3.362  11.790  0.1732 -0.5864  0.6178
 1481SOL    HW116076   0.579   3.329  11.796 -0.2833 -1.7339  1.1741
 1481SOL    HW216077   0.512   3.433  11.730 -1.7500  0.8141  1.5328
 1482SOL     OW16078   3.019   0.424   8.367  0.2638 -0.1900  0.5157
 1482SOL    HW116079   3.062   0.509   8.374 -1.2354  0.5665  0.6240
 1482SOL    HW216080   3.046   0.400   8.278  1.2526  1.3346  0.3922
 1483SOL     OW16081   3.511   0.542   8.603 -0.3807 -0.0463  0.2510
 1483SOL    HW116082   3.430   0.511   8.562  0.5658 -0.7463 -1.1000
 1483SOL    HW216083   3.525   0.472   8.666  0.8871 -1.0723 -1.1870
 1484SOL     OW16084   2.356   4.095  15.688  0.4589  0.1321  0.6105
 1484SOL    HW116085   2.408   4.166  15.651  1.3514 -0.5086  0.6167
 1484SOL    HW216086   2.279   4.148  15.707 -0.8670 -2.1263  1.5743
 1485SOL     OW16087   0.660   2.070   9.011 -0.3648  0.6389  0.0932
 1485SOL    HW116088   0.570   2.079   8.980  0.7419  0.6095 -3.1472
 1485SOL    HW216089   0.698   2.040   8.929  0.5295  0.7894  0.4454
 1486SOL     OW16090   3.751   0.679   4.229 -0.1480 -0.4235  0.2312
 1486SOL    HW116091   3.693   0.668   4.304  2.1759 -0.9450  1.9762
 1486SOL    HW216092   3.794   0.760   4.258 -0.2121 -0.2495 -0.1511
 1487SOL     OW16093   3.851   2.563   1.005 -0.0076  0.2935 -0.5134
 1487SOL    HW116094   3.853   2.639   0.947 -2.6628 -1.2308 -2.5549
 1487SOL    HW216095   3.943   2.541   0.987 -0.6418 -0.8379 -2.3329
 1488SOL     OW16096   4.160   2.844   2.623  0.0071  0.5281  0.0067
 1488SOL    HW116097   4.200   2.759   2.639 -0.8330  0.1753  0.2345
 1488SOL    HW216098   4.229   2.910   2.634  0.3237  0.3839 -1.1197
 1489SOL     OW16099   0.923   2.198   9.625  0.3574  0.3722 -0.1950
 1489SOL    HW116100   0.932   2.112   9.585  1.6016 -0.1836  1.3093
 1489SOL    HW216101   0.956   2.169   9.710 -1.7259 -0.0644  0.4738
 1490SOL     OW16102   1.529   0.824   7.722 -0.2685 -0.3499  0.4963
 1490SOL    HW116103   1.606   0.840   7.667  0.3948  0.2716  1.6085
 1490SOL    HW216104   1.511   0.912   7.757  0.6913 -0.5909  1.5725
 1491SOL     OW16105   0.078   4.255   7.861 -0.4970  0.0527  0.4992
 1491SOL    HW116106   0.117   4.174   7.893  1.6470  0.8636 -0.0641
 1491SOL    HW216107   4.723   4.246   7.897 -1.6854 -1.4071 -2.7234
 1492SOL     OW16108   0.462   1.290   5.452 -0.3361  0.1196  0.1471
 1492SOL    HW116109   0.404   1.214   5.446  0.4785 -0.3068 -2.3059
 1492SOL    HW216110   0.472   1.322   5.363  0.3111  0.6972  0.4266
 1493SOL     OW16111   0.651   2.455   8.995  0.1960  0.1606 -0.3404
 1493SOL    HW116112   0.724   2.458   9.057 -0.7731 -1.6953  0.8959
 1493SOL    HW216113   0.582   2.415   9.048 -0.4113  1.1498 -0.3860
 1494SOL     OW16114   0.685   2.622   3.410 -0.1611  0.3749 -0.0708
 1494SOL    HW116115   0.711   2.534   3.385 -0.7158  0.1158  0.2529
 1494SOL    HW216116   0.748   2.644   3.478  1.3353 -2.7775 -0.4695
 1495SOL     OW16117   2.121   3.520   8.191  0.6067  0.0211 -0.1699
 1495SOL    HW116118   2.191   3.583   8.206  1.3998 -0.8577 -0.1935
 1495SOL    HW216119   2.044   3.550   8.239  1.3338 -0.8131  1.5359
 1496SOL     OW16120   0.285   3.531   6.504  0.6074 -0.0894 -0.0534
 1496SOL    HW116121   0.323   3.497   6.423  0.4920  0.0846 -0.1795
 1496SOL    HW216122   0.192   3.529   6.481  0.6040  2.6596 -0.2052
 1497SOL     OW16123   2.528   4.273   2.652  0.3465  0.3704 -0.2380
 1497SOL    HW116124   2.559   4.188   2.623  0.7311 -0.6777  3.2430
 1497SOL    HW216125   2.546   4.263   2.746 -0.3377 -0.6216 -0.2209
 1498SOL     OW16126   0.870   1.222   9.714 -0.2901 -0.4580  0.1555
 1498SOL    HW116127   0.916   1.160   9.771  0.0821  1.8847  2.3713
 1498SOL    HW216128   0.936   1.290   9.704 -0.3860 -0.6282 -1.6766
 1499SOL     OW16129   4.283   4.492   2.168  0.3845 -0.3814  0.1106
 1499SOL    HW116130   4.357   4.457   2.119 -0.7475 -3.3096  0.5363
 1499SOL    HW216131   4.330   4.518   2.248  1.2454 -0.9933 -0.1989
 1500SOL     OW16132   2.111   0.346   2.339 -0.1680 -0.2425  0.2024
 1500SOL    HW116133   2.120   0.423   2.283  1.2224 -1.0760 -0.7079
 1500SOL    HW216134   2.019   0.356   2.365 -0.2068 -1.5975  0.5967
 1501SOL     OW16135   3.080   4.175  12.543 -0.2494  0.2968 -0.6571
 1501SOL    HW116136   3.009   4.110  12.541 -0.0855  0.0966  0.1147
 1501SOL    HW216137   3.086   4.211  12.454  0.1893  1.1903 -0.2616
 1502SOL     OW16138   4.228   3.943   5.661  0.5301  0.1181  0.3810
 1502SOL    HW116139   4.159   3.978   5.605  1.1409  2.1868  0.9409
 1502SOL    HW216140   4.287   3.896   5.602  0.5319 -0.1335  0.5820
 1503SOL     OW16141   1.521   4.244  12.666 -0.1222  0.5264  0.0395
 1503SOL    HW116142   1.499   4.334  12.640  1.5443  0.6752 -0.8463
 1503SOL    HW216143   1.452   4.216  12.726 -0.2363 -0.6343 -0.6297
 1504SOL     OW16144   0.706   3.549   3.884  0.2927 -0.3417  0.0760
 1504SOL    HW116145   0.769   3.613   3.918  1.6253 -2.3732  1.3999
 1504SOL    HW216146   0.635   3.607   3.856 -0.0001 -1.2563 -1.0672
 1505SOL     OW16147   4.678   0.019   3.954 -0.1967 -1.0256 -0.4455
 1505SOL    HW116148   4.669   0.052   4.044 -0.9312 -0.7011 -0.6404
 1505SOL    HW216149   4.614   4.680   3.957 -2.0473  0.7032  2.2172
 1506SOL     OW16150   1.103   4.574   7.214 -0.2066 -0.3833  0.0905
 1506SOL    HW116151   1.022   4.622   7.228  0.9448  2.0244 -1.4973
 1506SOL    HW216152   1.150   4.591   7.295  2.2895 -2.7038 -0.8650
 1507SOL     OW16153   2.927   0.417   7.453  0.0577 -0.6621  0.1026
 1507SOL    HW116154   2.915   0.426   7.548  1.5823  1.6307  0.0764
 1507SOL    HW216155   2.885   0.499   7.426  3.1306  0.1860 -2.0512
 1508SOL     OW16156   1.193   0.670  10.203  0.2891  0.3631 -0.1156
 1508SOL    HW116157   1.283   0.667  10.169  0.2525  1.3432 -0.2779
 1508SOL    HW216158   1.163   0.744  10.151 -1.2356 -0.0581  0.1584
 1509SOL     OW16159   2.485   3.371  10.643  0.2408  0.1017  0.0082
 1509SOL    HW116160   2.516   3.460  10.625  2.2689 -0.7738 -0.8004
 1509SOL    HW216161   2.407   3.376  10.697  2.8594  4.0923  3.4023
 1510SOL     OW16162   0.534   2.547   2.325 -0.2337  0.1839 -0.1209
 1510SOL    HW116163   0.587   2.468   2.311 -0.6637 -0.0341 -0.5516
 1510SOL    HW216164   0.597   2.618   2.318 -1.1694  0.9766 -0.4319
 1511SOL     OW16165   0.681   4.628   2.127  0.0730 -0.0014 -0.5238
 1511SOL    HW116166   0.658   4.541   2.157 -1.4040  1.4764  2.5540
 1511SOL    HW216167   0.703   4.616   2.034 -1.9596  0.5643 -1.0731
 1512SOL     OW16168   2.663   2.215   7.700 -0.3444 -0.5574 -0.1033
 1512SOL    HW116169   2.684   2.247   7.612 -0.2183  0.2725  0.2273
 1512SOL    HW216170   2.751   2.203   7.737 -0.2597 -0.9967 -0.4444
 1513SOL     OW16171   0.558   3.454   1.559 -0.0222  0.3883 -0.0777
 1513SOL    HW116172   0.639   3.405   1.575  0.3082  0.0769 -2.6670
 1513SOL    HW216173   0.537   3.493   1.644  0.7233  1.1237 -0.2219
 1514SOL     OW16174   0.609   1.877  13.196  0.4308 -0.5129  0.1404
 1514SOL    HW116175   0.700   1.891  13.169  0.6371 -0.8150  0.6850
 1514SOL    HW216176   0.617   1.836  13.282 -1.9289 -0.2436  0.5046
 1515SOL     OW16177   1.460   0.610   8.680  0.3245  0.5020 -0.1436
 1515SOL    HW116178   1.511   0.604   8.761  1.5909 -0.9453 -1.0644
 1515SOL    HW216179   1.387   0.669   8.703 -0.4209 -0.8204  0.8571
 1516SOL     OW16180   2.203   0.261  14.086 -0.2775 -0.5343 -0.6993
 1516SOL    HW116181   2.219   0.290  13.996 -1.3107 -0.3004 -0.8102
 1516SOL    HW216182   2.207   0.346  14.130 -0.0768  0.7614 -3.2203
 1517SOL     OW16183   4.476   1.881   8.350  0.5517 -0.0188  0.3930
 1517SOL    HW116184   4.455   1.807   8.293  0.9033  0.4525 -0.3508
 1517SOL    HW216185   4.568   1.856   8.361  0.6565  0.8403  1.4273
 1518SOL     OW16186   1.322   3.815   0.055 -0.0257  0.8875  0.0348
 1518SOL    HW116187   1.240   3.864   0.061 -1.2556 -1.1440  0.0749
 1518SOL    HW216188   1.288   3.731   0.087  2.6723  1.0022  3.1515
 1519SOL     OW16189   0.881   1.070  16.893  0.2907  0.4108  0.0794
 1519SOL    HW116190   0.848   1.148  16.848  0.0004  0.4276  0.3235
 1519SOL    HW216191   0.975   1.076  16.871  0.6076  1.0899  1.6707
 1520SOL     OW16192   1.264   0.115   5.936 -0.4050 -0.0609 -0.0957
 1520SOL    HW116193   1.334   0.156   5.987 -0.1178 -0.8039  0.1033
 1520SOL    HW216194   1.307   0.034   5.909 -0.1246 -0.7263  2.4187
 1521SOL     OW16195   2.315   4.649  17.477  0.3337 -0.4501 -0.2348
 1521SOL    HW116196   2.403   4.611  17.476  1.2528  1.7185 -1.9723
 1521SOL    HW216197   2.267   4.571  17.503 -1.7778  1.0024  0.1754
 1522SOL     OW16198   1.955   0.414  12.568  0.2035 -0.3624  0.0288
 1522SOL    HW116199   2.016   0.463  12.622 -0.6646  0.6355  0.1109
 1522SOL    HW216200   1.868   0.434  12.603 -0.1997 -1.1047 -0.5427
 1523SOL     OW16201   2.383   3.430  11.516  0.2959  0.3135  0.2337
 1523SOL    HW116202   2.298   3.440  11.559 -0.5922  0.4522 -1.5314
 1523SOL    HW216203   2.445   3.469  11.577  0.6264 -0.9778  0.7385
 1524SOL     OW16204   4.107   1.984   5.104 -0.0865  0.5380 -0.2609
 1524SOL    HW116205   4.014   2.004   5.107 -0.2362 -0.3452  1.0993
 1524SOL    HW216206   4.133   2.076   5.098 -0.8148  0.7795  0.3508
 1525SOL     OW16207   0.645   3.488   1.263  0.1824 -0.4168 -0.0940
 1525SOL    HW116208   0.596   3.442   1.331 -0.2050  1.3344  0.8173
 1525SOL    HW216209   0.737   3.481   1.291  0.2273  1.5554  0.2486
 1526SOL     OW16210   0.151   3.099  15.582  0.2305 -0.2821  0.1923
 1526SOL    HW116211   0.106   3.158  15.642 -1.5737 -1.1038 -0.3561
 1526SOL    HW216212   0.234   3.143  15.563  0.8719 -1.5390  0.0597
 1527SOL     OW16213   0.055   3.703   5.068 -0.6308  0.1076  0.5808
 1527SOL    HW116214   0.102   3.652   5.002  0.4497  1.1314  0.5611
 1527SOL    HW216215   4.710   3.736   5.022 -0.6433 -0.2365  0.3543
 1528SOL     OW16216   0.355   4.664   7.165 -0.4371  0.3933 -0.3208
 1528SOL    HW116217   0.366   4.656   7.260  0.4294 -0.0024 -0.4519
 1528SOL    HW216218   0.261   4.682   7.157 -0.1209  1.8643 -0.7228
 1529SOL     OW16219   4.608   3.988   3.583 -0.7645 -0.8080  0.0401
 1529SOL    HW116220   4.552   4.066   3.585 -0.9277 -0.9397  0.6845
 1529SOL    HW216221   4.550   3.926   3.537 -0.1122 -2.0102  0.8437
 1530SOL     OW16222   2.625   1.686   5.076 -0.2333 -0.2965  0.1513
 1530SOL    HW116223   2.590   1.775   5.081  1.5318  0.4232 -0.1721
 1530SOL    HW216224   2.614   1.655   4.986 -1.5993 -1.6475  0.7883
 1531SOL     OW16225   0.398   3.211  15.475 -0.5672 -0.1741 -0.1663
 1531SOL    HW116226   0.468   3.161  15.432 -0.4916 -0.6008  0.4547
 1531SOL    HW216227   0.360   3.258  15.400  0.4347  1.1455  0.1623
 1532SOL     OW16228   3.839   3.846  15.057 -0.0734  0.3785 -0.1726
 1532SOL    HW116229   3.752   3.823  15.025  0.4040 -1.3728 -0.2077
 1532SOL    HW216230   3.882   3.863  14.973  1.0256  0.2948  0.3745
 1533SOL     OW16231   0.998   4.302  12.544 -0.0491 -0.1772 -0.3134
 1533SOL    HW116232   0.984   4.300  12.449  1.4191  0.2791 -0.5409
 1533SOL    HW216233   1.058   4.229  12.555 -0.2532 -0.4019 -0.6828
 1534SOL     OW16234   0.303   0.198   3.720 -0.0031  0.3380  0.1926
 1534SOL    HW116235   0.258   0.115   3.735  0.3115  0.1086 -0.1164
 1534SOL    HW216236   0.389   0.193   3.761 -0.5525 -3.9213  0.8554
 1535SOL     OW16237   2.589   2.379   1.783 -0.2969 -0.1360  0.0558
 1535SOL    HW116238   2.657   2.349   1.843 -1.4431 -0.5096  1.1669
 1535SOL    HW216239   2.530   2.425   1.843 -1.6841  0.3467 -1.6605
 1536SOL     OW16240   3.241   0.584   6.053 -0.4300 -0.2670 -0.0218
 1536SOL    HW116241   3.333   0.582   6.079 -0.6922 -0.0541  0.9129
 1536SOL    HW216242   3.221   0.670   6.090  0.4166 -0.2641  0.4268
 1537SOL     OW16243   1.548   3.577   1.445 -0.0812 -0.0060 -0.5471
 1537SOL    HW116244   1.574   3.485   1.436 -0.9533 -0.3022 -0.0222
 1537SOL    HW216245   1.518   3.602   1.358 -0.1746 -0.8345 -0.7558
 1538SOL     OW16246   3.559   2.662   6.665  0.2139 -0.2742  0.0392
 1538SOL    HW116247   3.503   2.688   6.737 -0.1996  0.4860 -0.5585
 1538SOL    HW216248   3.633   2.723   6.676 -1.9347  2.1456  0.9651
 1539SOL     OW16249   0.333   3.821   2.180 -0.5204 -0.8697 -0.1457
 1539SOL    HW116250   0.389   3.804   2.255 -1.3030 -0.3216  0.5557
 1539SOL    HW216251   0.273   3.746   2.185  1.7822 -2.6554  0.5748
 1540SOL     OW16252   2.505   3.227   2.926 -0.0182  0.3110  0.1076
 1540SOL    HW116253   2.512   3.321   2.941 -1.3961  0.5343 -0.5761
 1540SOL    HW216254   2.580   3.209   2.869 -0.4054  4.9211 -1.8503
 1541SOL     OW16255   0.411   2.790   3.676 -0.0858 -0.1516  0.1160
 1541SOL    HW116256   0.343   2.838   3.629 -0.6034  0.4014  1.4423
 1541SOL    HW216257   0.352   2.716   3.693  0.9683 -1.2024 -0.8172
 1542SOL     OW16258   2.511   3.018   5.794  0.2056 -0.3132  0.6287
 1542SOL    HW116259   2.554   2.938   5.823  3.7757  0.1969 -3.2843
 1542SOL    HW216260   2.550   3.022   5.707 -2.5341 -0.0957 -0.5845
 1543SOL     OW16261   4.513   4.651  17.491  0.3107  0.4544  0.0723
 1543SOL    HW116262   4.418   4.642  17.483  0.0083  3.1655  0.7794
 1543SOL    HW216263   4.522   4.556  17.496 -0.4882  0.3518 -0.3578
 1544SOL     OW16264   4.319   1.015   5.637  0.0207  0.1565  0.2834
 1544SOL    HW116265   4.381   0.963   5.689 -0.4223 -1.8177 -1.1785
 1544SOL    HW216266   4.357   0.997   5.551 -0.5826 -1.1621  0.2993
 1545SOL     OW16267   2.238   1.027   3.174  0.4829 -0.4296 -0.4838
 1545SOL    HW116268   2.326   1.004   3.204 -0.1595 -2.9724 -0.5470
 1545SOL    HW216269   2.264   1.094   3.111 -0.6319 -1.4510 -2.0225
 1546SOL     OW16270   1.123   1.568  12.137 -0.2901  0.4136  0.5306
 1546SOL    HW116271   1.115   1.511  12.213  0.3332 -1.9364 -1.1443
 1546SOL    HW216272   1.030   1.583  12.118 -0.2966 -2.0864 -1.4010
 1547SOL     OW16273   1.441   1.243   4.726  0.1916 -0.4422 -0.6227
 1547SOL    HW116274   1.388   1.263   4.803 -0.1942  0.3268 -1.0929
 1547SOL    HW216275   1.376   1.214   4.663 -0.9875  0.2670  0.2826
 1548SOL     OW16276   1.634   3.787   9.104  0.0636  0.3100 -0.0243
 1548SOL    HW116277   1.718   3.832   9.095 -0.5948  1.2791 -1.2918
 1548SOL    HW216278   1.571   3.854   9.078 -2.2178 -1.0134  2.0837
 1549SOL     OW16279   3.279   1.709   6.583 -0.3866  0.4922 -0.5771
 1549SOL    HW116280   3.370   1.680   6.570 -1.1346 -1.1384 -2.0597
 1549SOL    HW216281   3.244   1.713   6.494 -1.9074 -2.9999 -0.1447
 1550SOL     OW16282   2.510   2.616   2.676 -0.0523 -0.0907  0.5966
 1550SOL    HW116283   2.498   2.547   2.741  0.8408  1.9235  2.8990
 1550SOL    HW216284   2.594   2.650   2.709 -0.6637  1.1674  0.8488
 1551SOL     OW16285   3.119   1.769   3.782  0.3393  0.0139 -0.0629
 1551SOL    HW116286   3.096   1.855   3.818  0.1312 -0.3342  0.6319
 1551SOL    HW216287   3.093   1.726   3.863  2.3762 -0.5884  0.2894
 1552SOL     OW16288   2.062   1.837   9.383 -0.4005  0.4371 -0.2470
 1552SOL    HW116289   2.094   1.879   9.463  0.2961  2.7863 -1.7807
 1552SOL    HW216290   2.089   1.745   9.388 -2.2176  0.0003  1.8550
 1553SOL     OW16291   1.163   2.013   9.487 -0.0324  0.1684  0.0410
 1553SOL    HW116292   1.084   1.959   9.486  1.1711 -1.5680  0.8381
 1553SOL    HW216293   1.155   2.066   9.407 -1.6619 -0.5546 -0.2833
 1554SOL     OW16294   2.402   0.544   8.044 -0.1775 -0.4294 -0.6655
 1554SOL    HW116295   2.451   0.470   8.080  0.1107 -0.2843 -0.7558
 1554SOL    HW216296   2.442   0.610   8.100  0.0486  0.0746 -1.4132
 1555SOL     OW16297   4.136   0.027   1.731  0.2208  0.6205 -0.3830
 1555SOL    HW116298   4.090   0.084   1.669 -1.1953 -0.6924 -0.5294
 1555SOL    HW216299   4.205   0.088   1.759  2.1132 -2.2551  1.1169
 1556SOL     OW16300   0.430   1.804   2.953  0.0536 -0.2713 -0.0882
 1556SOL    HW116301   0.494   1.863   2.993 -0.7353  1.0715 -0.7972
 1556SOL    HW216302   0.373   1.778   3.025 -1.4935  2.1261 -0.4424
 1557SOL     OW16303   3.590   0.730  16.010  0.0860 -0.3680  0.0595
 1557SOL    HW116304   3.655   0.673  15.969  0.7047  1.6739 -1.7985
 1557SOL    HW216305   3.648   0.805  16.017  0.7004 -0.8358  0.0067
 1558SOL     OW16306   3.368   0.886  17.314  0.3058 -0.2997 -0.2529
 1558SOL    HW116307   3.370   0.977  17.344 -0.4499  0.0191 -1.1750
 1558SOL    HW216308   3.457   0.864  17.340  0.4317  2.8263  1.9716
 1559SOL     OW16309   2.503   2.997   3.102  0.2906  0.1104 -0.3634
 1559SOL    HW116310   2.523   3.084   3.065  1.5826  0.5663  1.4370
 1559SOL    HW216311   2.583   2.947   3.089  0.4736  0.1802  0.5272
 1560SOL     OW16312   3.146   3.183   2.796  0.7279  0.5201 -0.2704
 1560SOL    HW116313   3.084   3.203   2.867 -0.1514 -2.7579 -0.0994
 1560SOL    HW216314   3.194   3.112   2.840 -1.2208 -0.2493  0.6426
 1561SOL     OW16315   2.984   1.052   1.268 -0.0519  0.4858  0.0441
 1561SOL    HW116316   2.969   1.023   1.357 -0.9692  1.9864  0.3863
 1561SOL    HW216317   2.893   1.074   1.246 -0.3819 -0.7185  0.2124
 1562SOL     OW16318   0.034   1.491   3.895 -0.5232 -0.4724  0.0908
 1562SOL    HW116319   4.725   1.429   3.955 -0.3345  0.9017  1.6484
 1562SOL    HW216320   0.126   1.482   3.920  0.6243  2.0771 -3.2934
 1563SOL     OW16321   2.784   3.315   3.211  0.1089 -0.0351 -0.4211
 1563SOL    HW116322   2.711   3.254   3.211 -0.8371  1.1119 -0.4460
 1563SOL    HW216323   2.739   3.383   3.163 -0.2644 -0.3332 -0.4887
 1564SOL     OW16324   0.907   0.233   2.870 -0.4390 -1.1118 -0.7434
 1564SOL    HW116325   0.958   0.179   2.930 -4.2870 -0.6326  2.9278
 1564SOL    HW216326   0.887   0.168   2.803 -0.1873 -2.1091  0.1550
 1565SOL     OW16327   3.901   0.935   4.303  0.5214 -0.0754 -0.5973
 1565SOL    HW116328   3.810   0.957   4.283  0.4854 -1.7759 -2.3289
 1565SOL    HW216329   3.947   1.019   4.304  0.6674 -0.1551 -0.6518
 1566SOL     OW16330   3.502   1.667   6.380  0.4416  0.5028  0.3130
 1566SOL    HW116331   3.468   1.630   6.298 -0.8490  1.7211  0.2749
 1566SOL    HW216332   3.556   1.736   6.340  0.1306  0.6082  0.0687
 1567SOL     OW16333   3.367   2.032  15.911  0.2158  0.0700 -0.9522
 1567SOL    HW116334   3.376   1.997  16.000 -1.0403 -0.1908 -0.9305
 1567SOL    HW216335   3.445   2.001  15.864 -0.0341  0.3973 -1.5807
 1568SOL     OW16336   2.373   3.628  17.701  0.1548 -0.6794 -0.6763
 1568SOL    HW116337   2.388   3.643   0.064  0.0827  0.9917 -0.9338
 1568SOL    HW216338   2.451   3.578  17.678  1.6712 -0.1551  3.2832
 1569SOL     OW16339   3.401   0.210   1.975 -0.3620  0.3190 -0.2754
 1569SOL    HW116340   3.311   0.238   1.993 -0.5649 -0.2199 -0.4652
 1569SOL    HW216341   3.413   0.206   1.880  0.3827  1.5978 -0.2301
 1570SOL     OW16342   0.307   4.250   9.249  0.0013 -1.1008  0.3206
 1570SOL    HW116343   0.295   4.197   9.170 -1.4359 -0.8131  0.3494
 1570SOL    HW216344   0.326   4.182   9.314  1.1252 -0.8579  0.2558
 1571SOL     OW16345   2.805   2.758   6.696 -0.7366 -0.0555  0.6045
 1571SOL    HW116346   2.778   2.700   6.768 -4.5718  0.7825 -0.1626
 1571SOL    HW216347   2.781   2.709   6.618 -0.5603  0.0087  0.5096
 1572SOL     OW16348   1.581   2.191   6.487  0.3015 -0.0327  0.1765
 1572SOL    HW116349   1.496   2.167   6.451  1.0701  0.4051 -1.8837
 1572SOL    HW216350   1.604   2.270   6.439 -0.4081 -0.0122 -0.1218
 1573SOL     OW16351   0.154   0.368   0.645  0.6431  0.0714 -0.4590
 1573SOL    HW116352   0.176   0.457   0.616  1.5820  0.2102  0.6981
 1573SOL    HW216353   0.234   0.349   0.694  0.0886 -0.7900  0.1196
 1574SOL     OW16354   3.636   1.917  11.032  0.5011  0.5144  0.4253
 1574SOL    HW116355   3.657   1.837  10.984  1.3904  0.4271  0.9707
 1574SOL    HW216356   3.618   1.873  11.115  1.9868 -1.7402 -0.4487
 1575SOL     OW16357   2.579   2.582  12.383 -0.3600 -0.2073  0.6151
 1575SOL    HW116358   2.570   2.555  12.475  0.4337  1.0299  1.0636
 1575SOL    HW216359   2.487   2.595  12.360 -0.1377 -1.6558 -1.1073
 1576SOL     OW16360   3.733   2.694   5.139  0.0418  0.3028 -0.0627
 1576SOL    HW116361   3.718   2.740   5.056 -0.4248 -0.9664 -0.6763
 1576SOL    HW216362   3.810   2.741   5.172  0.5858 -0.7018  0.0825
 1577SOL     OW16363   1.480   0.025   7.334  0.1900 -0.4136  0.0965
 1577SOL    HW116364   1.456   0.007   7.243  0.9702 -0.6185 -0.0656
 1577SOL    HW216365   1.443   0.111   7.350 -3.8511 -2.3565  1.1929
 1578SOL     OW16366   4.599   0.875   8.966 -0.2547 -0.0225 -0.2188
 1578SOL    HW116367   4.547   0.797   8.982  0.0401 -0.4172 -1.1596
 1578SOL    HW216368   4.559   0.929   9.034 -0.9157 -0.6783 -0.0860
 1579SOL     OW16369   0.581   3.402  14.507 -0.0935 -0.0233 -0.5862
 1579SOL    HW116370   0.650   3.390  14.442  0.4460 -0.1150  0.0088
 1579SOL    HW216371   0.507   3.431  14.454 -0.1139 -0.3645 -0.7471
 1580SOL     OW16372   1.819   3.579  16.309  0.1308  0.1005 -0.3129
 1580SOL    HW116373   1.825   3.608  16.218  0.4330  2.8041  0.5797
 1580SOL    HW216374   1.850   3.488  16.298  0.8063  0.3564 -0.5601
 1581SOL     OW16375   2.257   1.449   9.158 -0.4872 -0.1882 -0.0366
 1581SOL    HW116376   2.317   1.382   9.189 -1.5943  1.0030  4.6786
 1581SOL    HW216377   2.185   1.409   9.109 -0.0256  0.3556 -1.1544
 1582SOL     OW16378   2.733   0.753   6.941  0.1241  0.1176 -0.0518
 1582SOL    HW116379   2.711   0.712   6.857 -1.1278  1.8284 -0.5577
 1582SOL    HW216380   2.781   0.683   6.986 -0.0141 -0.2936 -0.5444
 1583SOL     OW16381   0.085   2.532   0.020  0.5908 -0.1678  0.4808
 1583SOL    HW116382   0.028   2.457   0.004 -1.1746  1.0851  0.8818
 1583SOL    HW216383   0.162   2.485   0.050  0.8757 -0.0985 -0.1496
 1584SOL     OW16384   3.771   1.631   8.477  0.1751 -0.4311  0.2580
 1584SOL    HW116385   3.815   1.596   8.555  3.7977 -0.5421 -1.8641
 1584SOL    HW216386   3.784   1.552   8.424 -0.4749 -0.7696  0.5933
 1585SOL     OW16387   4.456   3.528   1.258  0.5609 -0.3425 -0.1176
 1585SOL    HW116388   4.374   3.548   1.303  1.3423  0.7442  0.8435
 1585SOL    HW216389   4.508   3.506   1.336 -0.6784 -2.3478  0.1397
 1586SOL     OW16390   2.260   2.526  12.673  0.2294 -0.3501 -0.4636
 1586SOL    HW116391   2.236   2.611  12.710 -1.3711 -1.2119  0.4855
 1586SOL    HW216392   2.349   2.538  12.640 -0.3032 -0.2342 -1.8843
 1587SOL     OW16393   3.411   2.851  17.604  0.4927 -0.3281 -0.4935
 1587SOL    HW116394   3.341   2.887  17.551 -1.5473 -1.0542  1.6601
 1587SOL    HW216395   3.425   2.767  17.559  2.5084 -0.6588  0.7149
 1588SOL     OW16396   3.733   1.784  14.030  0.7407  0.7314  0.0621
 1588SOL    HW116397   3.812   1.830  14.060  0.5709  0.5004  0.8705
 1588SOL    HW216398   3.696   1.775  14.118  0.9657  2.2605  0.3224
 1589SOL     OW16399   0.837   0.385   0.865 -0.2723  0.5086 -0.1598
 1589SOL    HW116400   0.778   0.454   0.834  0.6584  0.9018 -1.0562
 1589SOL    HW216401   0.837   0.341   0.780  0.2545  0.9432 -0.3857
 1590SOL     OW16402   2.282   0.530   1.836  0.1211 -0.8789 -0.1938
 1590SOL    HW116403   2.338   0.590   1.885 -1.4144  0.9477 -0.6500
 1590SOL    HW216404   2.334   0.528   1.755 -1.2084 -0.0786 -1.0751
 1591SOL     OW16405   3.860   2.173   5.002 -0.4429  0.4705 -0.2410
 1591SOL    HW116406   3.818   2.258   5.010  0.6341  1.0184 -0.3794
 1591SOL    HW216407   3.941   2.209   4.964  0.3775  0.8623  1.9012
 1592SOL     OW16408   0.648   3.743   6.149 -0.1412  0.2707  0.4125
 1592SOL    HW116409   0.710   3.700   6.208  0.5550  0.4487 -0.1907
 1592SOL    HW216410   0.698   3.751   6.067  0.4419 -0.8417  0.6604
 1593SOL     OW16411   0.611   1.490   3.530 -0.1814  0.0906  0.3991
 1593SOL    HW116412   0.687   1.437   3.554  0.9259  0.8970 -1.3252
 1593SOL    HW216413   0.613   1.464   3.438  0.6081  0.4604  0.3140
 1594SOL     OW16414   2.376   1.342  17.418 -0.1224 -0.4577  0.1744
 1594SOL    HW116415   2.421   1.310  17.496 -1.2321 -1.0248  0.5911
 1594SOL    HW216416   2.433   1.313  17.348 -1.0124  1.5083 -1.3584
 1595SOL     OW16417   4.575   0.348   2.957 -0.3756  0.5499 -0.3833
 1595SOL    HW116418   4.481   0.348   2.977  0.1499 -0.0647  2.1347
 1595SOL    HW216419   4.609   0.432   2.987  1.1120 -0.1893  0.0195
 1596SOL     OW16420   4.691   3.474   6.986 -0.2572  0.7151 -0.0262
 1596SOL    HW116421   0.040   3.424   6.979  0.1862  1.8156 -2.5224
 1596SOL    HW216422   4.725   3.556   7.021  1.5856  0.3399 -0.8971
 1597SOL     OW16423   1.803   2.314  14.926 -0.6710  0.2316 -0.0468
 1597SOL    HW116424   1.834   2.250  14.861 -0.0658  0.8845 -0.3960
 1597SOL    HW216425   1.718   2.327  14.885 -0.5442  0.3741 -0.2641
 1598SOL     OW16426   1.979   2.119  10.163  0.0269  0.2193 -0.6177
 1598SOL    HW116427   1.987   2.096  10.070 -0.4725 -0.1376 -0.5719
 1598SOL    HW216428   2.002   2.035  10.205  1.4076 -0.0409 -1.8873
 1599SOL     OW16429   2.072   4.068   3.295  0.0420  0.4993  0.2874
 1599SOL    HW116430   1.989   4.081   3.249 -0.7607 -0.5052  1.4462
 1599SOL    HW216431   2.082   3.974   3.279  1.3425  0.5112  1.0614
 1600SOL     OW16432   2.214   2.970   4.692  0.6934 -0.2031  0.2090
 1600SOL    HW116433   2.294   3.021   4.707  1.3064 -1.2017  0.3444
 1600SOL    HW216434   2.161   3.014   4.758 -0.1771 -0.3528 -0.3906
 1601SOL     OW16435   0.402   2.902   8.139 -0.4859  0.8543 -0.3276
 1601SOL    HW116436   0.314   2.911   8.177  0.1106  0.6729  1.0866
 1601SOL    HW216437   0.431   2.817   8.174  0.6499  0.3512 -2.5050
 1602SOL     OW16438   4.420   1.978   4.612  0.0856  0.0996 -0.0268
 1602SOL    HW116439   4.505   1.948   4.580  0.3921  2.6633 -1.5981
 1602SOL    HW216440   4.452   2.065   4.632 -1.9750  1.4989 -2.7331
 1603SOL     OW16441   0.582   3.755   9.485 -0.1393 -0.1450  0.3301
 1603SOL    HW116442   0.488   3.761   9.502 -0.7567 -0.5515 -2.9990
 1603SOL    HW216443   0.607   3.807   9.562 -0.0963 -2.2498  1.7529
 1604SOL     OW16444   0.051   0.427   9.954  0.3800 -0.1795  0.0481
 1604SOL    HW116445   4.711   0.465  10.003  1.5500  1.6910  0.3187
 1604SOL    HW216446   0.107   0.403  10.028 -0.3184 -0.7218  0.4021
 1605SOL     OW16447   0.013   3.203   4.265 -0.4015 -0.2795  0.0865
 1605SOL    HW116448   0.082   3.139   4.249  1.8473  2.3904 -0.9124
 1605SOL    HW216449   4.721   3.195   4.357 -0.5768 -0.2679  0.0411
 1606SOL     OW16450   3.510   4.306   1.024  0.1320  0.3587 -0.3327
 1606SOL    HW116451   3.467   4.381   0.981  0.3481  1.7598  1.9001
 1606SOL    HW216452   3.453   4.287   1.098  2.4616 -0.7876  1.1550
 1607SOL     OW16453   2.912   2.762   4.429  0.2981 -0.0079 -0.4658
 1607SOL    HW116454   2.982   2.810   4.474  0.1243 -0.9646  0.8072
 1607SOL    HW216455   2.863   2.738   4.507 -0.5701  0.5172 -0.8390
 1608SOL     OW16456   2.349   3.131  14.859 -0.0232 -0.0780 -0.2613
 1608SOL    HW116457   2.428   3.174  14.894 -0.4665  0.8360 -0.3709
 1608SOL    HW216458   2.382   3.042  14.852  2.9273  0.8659  1.5986
 1609SOL     OW16459   0.060   3.120   7.506 -1.1416 -0.0815  0.4780
 1609SOL    HW116460   0.071   3.109   7.600 -1.5754 -1.4489  0.3642
 1609SOL    HW216461   4.719   3.180   7.510  0.2692  1.7784 -1.3840
 1610SOL     OW16462   4.545   0.263  17.620  0.3409  0.4895  0.0309
 1610SOL    HW116463   4.485   0.260  17.545  2.9739 -2.5234 -1.9711
 1610SOL    HW216464   4.556   0.357  17.633 -0.1293  0.4969  0.3548
 1611SOL     OW16465   4.138   2.811   1.082 -0.7926  0.0546  0.1624
 1611SOL    HW116466   4.119   2.783   1.172 -2.1626 -0.4848 -0.3006
 1611SOL    HW216467   4.136   2.722   1.045  3.8699 -0.6746  1.6651
 1612SOL     OW16468   1.908   4.172   6.645  0.7892 -0.0348  0.5256
 1612SOL    HW116469   1.828   4.222   6.660  1.3096  1.5098 -1.7850
 1612SOL    HW216470   1.875   4.091   6.684 -0.7224 -0.1928 -1.0580
 1613SOL     OW16471   2.808   2.919  10.897 -0.6335  0.1186  0.2540
 1613SOL    HW116472   2.762   2.893  10.817 -0.7971  0.4648  0.2368
 1613SOL    HW216473   2.779   2.841  10.944  2.1174 -1.0157  0.0734
 1614SOL     OW16474   2.213   0.919   0.188  0.1525  0.1439  0.4449
 1614SOL    HW116475   2.139   0.860   0.200 -0.3283  0.4127 -1.2745
 1614SOL    HW216476   2.233   0.924   0.282 -2.6669 -3.0825  1.2484
 1615SOL     OW16477   4.547   0.500   9.686 -0.3744  0.8384  0.0146
 1615SOL    HW116478   4.629   0.458   9.710  0.1239  1.1195 -1.2090
 1615SOL    HW216479   4.568   0.593   9.677 -1.5430  1.0860 -0.2143
 1616SOL     OW16480   4.319   1.548   8.738 -0.8328  0.4209  0.8557
 1616SOL    HW116481   4.411   1.573   8.746 -0.9843  1.3194 -0.1254
 1616SOL    HW216482   4.310   1.556   8.642  0.9789 -3.3233  0.3955
 1617SOL     OW16483   2.289   3.613   7.202  0.4010  0.1293  0.2174
 1617SOL    HW116484   2.239   3.648   7.128 -0.3135 -2.2217 -0.4084
 1617SOL    HW216485   2.306   3.525   7.170 -1.0757 -1.1774  3.0111
 1618SOL     OW16486   3.417   4.183   2.987 -0.3441 -0.7679  0.1961
 1618SOL    HW116487   3.373   4.174   2.902  0.4215 -0.5371 -0.2247
 1618SOL    HW216488   3.459   4.098   2.996  0.7741 -0.1411  0.9140
 1619SOL     OW16489   0.187   3.294   1.970  0.0023 -0.4693  0.0066
 1619SOL    HW116490   0.276   3.292   1.934 -0.7435  1.5497 -1.9830
 1619SOL    HW216491   0.153   3.211   1.937 -0.5429 -0.8037  1.4519
 1620SOL     OW16492   0.887   0.306  11.362 -0.1875 -0.2577  0.4167
 1620SOL    HW116493   0.930   0.272  11.440  0.4398 -1.1292 -0.3066
 1620SOL    HW216494   0.841   0.385  11.392 -0.5268 -0.7659  1.2085
 1621SOL     OW16495   4.439   2.848   5.864 -0.1333 -0.0550 -0.5078
 1621SOL    HW116496   4.532   2.858   5.842 -0.1671  1.9386  0.2657
 1621SOL    HW216497   4.426   2.762   5.823  0.4388  0.0367 -0.8809
 1622SOL     OW16498   2.831   1.672   6.441 -0.0382 -0.2013 -0.4259
 1622SOL    HW116499   2.872   1.612   6.379 -1.3226  0.1665 -1.6549
 1622SOL    HW216500   2.831   1.753   6.388 -0.4363 -0.7444 -1.2625
 1623SOL     OW16501   3.022   1.807   7.371  0.4727  0.2418  0.1576
 1623SOL    HW116502   3.055   1.723   7.337  0.8705  0.2832  0.4375
 1623SOL    HW216503   3.102   1.859   7.369 -0.4100  1.6950  3.4258
 1624SOL     OW16504   1.521   0.973   8.672 -0.5400 -0.2011  0.4356
 1624SOL    HW116505   1.499   1.013   8.588 -1.1231 -0.7873  0.3107
 1624SOL    HW216506   1.577   1.037   8.717 -0.4163  0.2905 -0.4122
 1625SOL     OW16507   2.295   2.005  13.656  0.1399 -0.5861  0.3855
 1625SOL    HW116508   2.332   2.090  13.631  1.3001 -1.3378 -0.4387
 1625SOL    HW216509   2.295   1.969  13.567 -1.9390  0.9162 -0.2374
 1626SOL     OW16510   3.779   0.621   9.560 -0.4091 -0.4303  0.2185
 1626SOL    HW116511   3.750   0.569   9.485 -0.1623  0.8370 -0.7500
 1626SOL    HW216512   3.855   0.570   9.587 -0.2719 -1.6651 -2.5703
 1627SOL     OW16513   4.603   2.608   3.799 -0.3991  0.2691  0.1200
 1627SOL    HW116514   4.670   2.555   3.757 -1.4874  0.7489 -2.2252
 1627SOL    HW216515   4.661   2.663   3.851 -0.5170  1.7225 -1.2806
 1628SOL     OW16516   1.601   1.753   1.338  0.2708 -0.9045  0.3894
 1628SOL    HW116517   1.590   1.836   1.385 -0.7381 -1.3824  1.0067
 1628SOL    HW216518   1.512   1.720   1.327 -0.4540  1.0034  0.6875
 1629SOL     OW16519   3.157   0.108   5.088 -0.1372 -0.0911 -0.1851
 1629SOL    HW116520   3.123   0.141   5.005 -2.2912 -1.2385  0.2452
 1629SOL    HW216521   3.074   0.108   5.136  0.1563 -2.8118  0.3048
 1630SOL     OW16522   0.205   3.123   2.986  0.3491 -0.0278 -0.4940
 1630SOL    HW116523   0.274   3.109   3.052  0.6884  0.5857 -0.7209
 1630SOL    HW216524   0.210   3.219   2.985 -1.8024  0.0913  0.6505
 1631SOL     OW16525   0.236   4.270   3.566 -0.6394 -0.4751 -0.2659
 1631SOL    HW116526   0.206   4.296   3.653 -0.9744 -0.2443 -0.4527
 1631SOL    HW216527   0.190   4.331   3.509  1.6198  1.3042 -0.1716
 1632SOL     OW16528   3.001   2.781   6.434 -0.2273  0.5083  0.0140
 1632SOL    HW116529   3.054   2.734   6.498 -1.3705 -2.4872 -1.2606
 1632SOL    HW216530   2.922   2.733   6.458  0.8791 -1.7377 -0.8370
 1633SOL     OW16531   1.599   0.434   7.222  0.1708 -0.9411  0.6739
 1633SOL    HW116532   1.540   0.472   7.157  0.6439  1.4727  1.6492
 1633SOL    HW216533   1.688   0.457   7.193 -0.4925 -0.3565 -0.8681
 1634SOL     OW16534   2.546   1.767   2.181  0.2277  0.2026 -0.1575
 1634SOL    HW116535   2.596   1.699   2.225  1.9988 -0.1051 -2.6462
 1634SOL    HW216536   2.552   1.742   2.089 -0.1123 -0.5242  0.0172
 1635SOL     OW16537   0.960   4.087  11.880 -0.2158  0.3541 -0.3387
 1635SOL    HW116538   1.048   4.050  11.871 -0.8422 -0.8780 -1.2672
 1635SOL    HW216539   0.979   4.168  11.928 -1.0098 -0.8604  2.0222
 1636SOL     OW16540   2.941   2.740   3.906  0.8191  0.3808  0.4828
 1636SOL    HW116541   2.886   2.819   3.910 -1.3818 -1.1021 -1.2335
 1636SOL    HW216542   2.937   2.714   3.998  1.6271 -1.1887  0.0646
 1637SOL     OW16543   3.884   3.157   5.302  0.6581  0.5249  0.1378
 1637SOL    HW116544   3.934   3.090   5.256 -0.6195 -0.8640  0.7727
 1637SOL    HW216545   3.950   3.210   5.346  0.9907  1.8687 -1.9846
 1638SOL     OW16546   1.553   1.717   7.570 -0.1446  0.5053 -0.1610
 1638SOL    HW116547   1.636   1.761   7.550 -0.7732  0.4309 -2.8810
 1638SOL    HW216548   1.562   1.693   7.662 -0.6398 -2.3207 -0.8554
 1639SOL     OW16549   4.107   1.672   8.848 -0.4619 -0.0834  0.1847
 1639SOL    HW116550   4.174   1.617   8.807 -0.0311  0.0719  0.6810
 1639SOL    HW216551   4.080   1.727   8.775  0.5200 -1.4875 -1.2323
 1640SOL     OW16552   3.015   4.007   5.745  0.0006  0.4019  0.4298
 1640SOL    HW116553   2.964   3.928   5.762  0.1836  0.0439 -0.7644
 1640SOL    HW216554   3.105   3.976   5.743  0.2032  0.9874  0.5347
 1641SOL     OW16555   3.883   4.175   6.581 -0.4233 -0.3766 -0.3461
 1641SOL    HW116556   3.796   4.139   6.597 -0.4921  0.3903  1.0062
 1641SOL    HW216557   3.875   4.209   6.492  1.2276 -0.5933 -0.5606
 1642SOL     OW16558   3.665   0.624   2.886 -1.0740 -0.2253 -0.5367
 1642SOL    HW116559   3.676   0.550   2.827  1.5252 -0.9076  0.8055
 1642SOL    HW216560   3.680   0.699   2.828  3.0879 -0.7574 -0.1230
 1643SOL     OW16561   2.232   1.813   5.358  0.6790  0.3736  0.1684
 1643SOL    HW116562   2.308   1.867   5.381  2.1437 -1.2728 -0.8503
 1643SOL    HW216563   2.238   1.757   5.435 -0.9906  1.4336  1.0973
 1644SOL     OW16564   0.596   0.494   0.784  0.4765  0.2070 -0.2192
 1644SOL    HW116565   0.549   0.545   0.850  0.0112 -1.1108  0.4665
 1644SOL    HW216566   0.535   0.420   0.779  0.6772 -0.0395  0.8943
 1645SOL     OW16567   1.974   4.588   6.380 -0.7991  0.1926  0.7984
 1645SOL    HW116568   1.880   4.608   6.380 -0.7681  0.3682  0.2618
 1645SOL    HW216569   2.001   4.592   6.471  0.4793 -1.8167  0.5100
 1646SOL     OW16570   0.726   3.556   5.321  0.2451  0.7773  0.2427
 1646SOL    HW116571   0.677   3.515   5.250  0.6129 -0.1410  0.5206
 1646SOL    HW216572   0.679   3.639   5.334 -0.8513  0.2107 -0.1082
 1647SOL     OW16573   2.398   3.454   6.900 -0.0755 -0.3844 -0.2721
 1647SOL    HW116574   2.481   3.441   6.854 -0.0101 -1.7357  0.2099
 1647SOL    HW216575   2.349   3.382   6.859 -1.3592  0.3991 -0.1134
 1648SOL     OW16576   0.474   2.005   7.640 -0.7559  0.4201  0.0919
 1648SOL    HW116577   0.496   1.999   7.733  1.0595  1.1384 -0.2980
 1648SOL    HW216578   0.490   2.098   7.626  1.9111  0.3073  2.2923
 1649SOL     OW16579   1.538   0.528   4.182  0.1215 -0.6622  0.0865
 1649SOL    HW116580   1.583   0.594   4.130 -0.1834 -1.2523 -0.9118
 1649SOL    HW216581   1.450   0.564   4.188 -0.5050 -1.8527 -1.8992
 1650SOL     OW16582   1.447   4.696   0.561 -0.1728 -1.0707 -0.2525
 1650SOL    HW116583   1.462   4.666   0.472  1.3827 -0.6356 -0.1364
 1650SOL    HW216584   1.513   0.033   0.565  1.1193 -2.3048 -0.1904
 1651SOL     OW16585   0.940   3.499  12.078  0.1505 -0.2505  0.6969
 1651SOL    HW116586   0.850   3.529  12.091  0.0088 -0.6004  0.5059
 1651SOL    HW216587   0.986   3.566  12.026 -2.4526 -0.8323 -2.4001
 1652SOL     OW16588   0.923   4.662   5.293 -0.3230  0.2582 -0.1438
 1652SOL    HW116589   0.888   4.684   5.207  1.6639  0.6218 -0.8506
 1652SOL    HW216590   0.850   4.700   5.342  0.8258  1.7395  0.4125
 1653SOL     OW16591   0.763   1.970   5.401 -0.3035  0.1242  0.1887
 1653SOL    HW116592   0.703   2.007   5.466 -0.2261 -1.1465  0.9978
 1653SOL    HW216593   0.805   2.052   5.374  0.3024  0.0655  0.9211
 1654SOL     OW16594   3.095   2.827   7.908 -0.2674 -0.6185 -0.2345
 1654SOL    HW116595   3.089   2.909   7.859 -2.2780 -0.5803  0.0885
 1654SOL    HW216596   3.190   2.819   7.918 -0.1572  1.4687  0.4156
 1655SOL     OW16597   2.809   0.832   5.588 -0.1737  0.1081 -0.4069
 1655SOL    HW116598   2.784   0.742   5.566 -2.0612  0.3579  0.6705
 1655SOL    HW216599   2.754   0.889   5.534 -0.0786  0.9723  0.4005
 1656SOL     OW16600   2.228   3.876   0.501 -0.1850 -0.0758 -0.3760
 1656SOL    HW116601   2.233   3.946   0.435 -1.6509 -1.3428 -1.8265
 1656SOL    HW216602   2.183   3.921   0.573  0.7306  0.8235 -0.3596
 1657SOL     OW16603   0.394   1.205   8.993 -0.1048  0.0841  0.1691
 1657SOL    HW116604   0.357   1.289   9.021 -1.2100 -0.6321  0.8267
 1657SOL    HW216605   0.481   1.227   8.959  0.6110 -0.3940  1.6926
 1658SOL     OW16606   2.953   2.376   3.363  0.3229 -0.5255 -0.5313
 1658SOL    HW116607   2.978   2.385   3.271 -0.8311 -0.5932 -0.8496
 1658SOL    HW216608   3.030   2.408   3.410 -0.9966  1.1527  0.4957
 1659SOL     OW16609   0.101   2.872   7.391 -0.1993 -0.3660  0.3469
 1659SOL    HW116610   0.076   2.965   7.385  0.1582 -0.2375  0.8067
 1659SOL    HW216611   0.050   2.842   7.466  0.0859 -0.4456  0.5089
 1660SOL     OW16612   2.896   1.743   5.108  0.4517  0.0154  0.0849
 1660SOL    HW116613   2.811   1.700   5.107 -0.1255  1.2215 -2.0341
 1660SOL    HW216614   2.861   1.829   5.129  0.8654  0.0981  0.4341
 1661SOL     OW16615   2.751   2.206  13.852  0.1247  0.0585 -0.4120
 1661SOL    HW116616   2.779   2.122  13.816  1.5436 -0.5651  2.0872
 1661SOL    HW216617   2.734   2.178  13.943  0.4761 -3.2106 -1.3446
 1662SOL     OW16618   0.874   0.656   4.544  0.0937  0.3501 -0.2358
 1662SOL    HW116619   0.852   0.572   4.504  1.1186 -0.3270  0.6193
 1662SOL    HW216620   0.789   0.694   4.565 -0.2562 -1.3435  1.4435
 1663SOL     OW16621   3.241   3.884   6.602 -0.1898  0.9247  0.1200
 1663SOL    HW116622   3.293   3.816   6.560 -1.7642  0.3148 -0.8402
 1663SOL    HW216623   3.158   3.837   6.608  1.0100 -1.0509  1.3258
 1664SOL     OW16624   3.757   3.738   1.711  0.1166 -0.3952 -0.3421
 1664SOL    HW116625   3.806   3.815   1.681  0.9330 -0.4771  0.7491
 1664SOL    HW216626   3.671   3.779   1.701  0.1788 -0.5838 -1.6065
 1665SOL     OW16627   0.799   4.339   5.324 -0.0814 -0.1780  0.1524
 1665SOL    HW116628   0.755   4.403   5.380 -0.0664 -0.0426  0.0108
 1665SOL    HW216629   0.742   4.266   5.349 -0.5203 -0.2209 -1.0025
 1666SOL     OW16630   4.716   4.349  13.610 -0.2274  0.3330 -0.5890
 1666SOL    HW116631   4.694   4.303  13.529  0.2131  1.0037 -1.0892
 1666SOL    HW216632   4.659   4.424  13.593 -0.5900  0.1380 -0.2472
 1667SOL     OW16633   2.965   1.161   1.764  0.9318  0.2160 -0.3243
 1667SOL    HW116634   2.891   1.206   1.804  0.5571  1.1096 -2.0256
 1667SOL    HW216635   2.955   1.181   1.671 -0.7437 -0.5313 -0.3183
 1668SOL     OW16636   2.398   3.688   4.388  0.0053  0.0959  0.6333
 1668SOL    HW116637   2.335   3.757   4.371 -0.2412 -0.5581 -1.0936
 1668SOL    HW216638   2.438   3.667   4.303  1.5343 -1.4049  1.7133
 1669SOL     OW16639   3.072   0.942   3.296 -0.0931  0.6344  0.2143
 1669SOL    HW116640   3.057   1.030   3.261 -0.7958  0.1014 -0.8402
 1669SOL    HW216641   2.984   0.909   3.313 -0.4110  1.4937  0.1970
 1670SOL     OW16642   1.686   2.689  15.065 -0.5221 -0.5730 -0.1039
 1670SOL    HW116643   1.714   2.636  15.139  0.3419 -0.9222 -0.6845
 1670SOL    HW216644   1.764   2.675  15.010 -0.8833 -2.4842 -0.1213
 1671SOL     OW16645   0.533   2.289  10.144  0.7413  0.1690  0.2207
 1671SOL    HW116646   0.485   2.221  10.192  2.5723 -0.7359  0.7823
 1671SOL    HW216647   0.619   2.280  10.185  0.2365 -1.8836  0.8552
 1672SOL     OW16648   4.313   3.334   8.877 -0.5398 -0.2707 -0.8371
 1672SOL    HW116649   4.374   3.375   8.817 -0.5796 -0.2403 -0.8569
 1672SOL    HW216650   4.359   3.281   8.942  0.7429  0.8392 -0.8537
 1673SOL     OW16651   3.932   1.890  10.823 -0.0190  0.6148  0.1658
 1673SOL    HW116652   3.928   1.819  10.887 -1.8299  1.0751  0.5617
 1673SOL    HW216653   3.974   1.961  10.871  0.0152  1.4833 -1.1667
 1674SOL     OW16654   0.070   3.768   8.592  0.0290  0.6429  0.3894
 1674SOL    HW116655   4.708   3.763   8.578  0.0112  0.1345  0.6697
 1674SOL    HW216656   0.103   3.678   8.585  0.3549  1.0475 -3.3745
 1675SOL     OW16657   0.765   3.888  12.559 -0.1972  0.0172 -0.2881
 1675SOL    HW116658   0.806   3.812  12.600  1.6300  2.5219  2.5902
 1675SOL    HW216659   0.804   3.964  12.603 -0.5745  0.2723 -0.3949
 1676SOL     OW16660   0.539   2.351   8.755  0.8152  0.0040  0.0609
 1676SOL    HW116661   0.506   2.387   8.838  0.1792 -0.9252  0.2172
 1676SOL    HW216662   0.630   2.378   8.763 -0.0822  3.3070 -0.7019
 1677SOL     OW16663   3.096   0.583   0.264  0.3904  0.2390  0.2618
 1677SOL    HW116664   3.017   0.535   0.288  0.6545 -0.9359 -1.1848
 1677SOL    HW216665   3.079   0.663   0.313  1.4755  0.9338 -0.4999
 1678SOL     OW16666   4.052   0.706   7.110  0.8452  0.4380 -0.2912
 1678SOL    HW116667   4.095   0.687   7.027  0.8568  1.4668 -0.5187
 1678SOL    HW216668   4.112   0.675   7.177 -0.1159 -0.7811  0.0082
 1679SOL     OW16669   2.035   4.614   5.744  0.0727  0.2113  0.0221
 1679SOL    HW116670   1.981   4.557   5.800 -1.2812  0.6139 -0.8660
 1679SOL    HW216671   2.008   4.701   5.774  0.7929  0.1346  0.8792
 1680SOL     OW16672   3.179   2.778   9.116 -0.1584  0.3290 -0.7351
 1680SOL    HW116673   3.218   2.692   9.133  0.8973  0.9736  0.1803
 1680SOL    HW216674   3.138   2.767   9.031 -0.4381  1.8626 -0.7943
 1681SOL     OW16675   2.688   4.174   5.500  0.2427  0.0738  0.2830
 1681SOL    HW116676   2.739   4.246   5.464  0.4751 -0.2004  0.0600
 1681SOL    HW216677   2.756   4.130   5.550  1.2298 -0.6685 -1.7051
 1682SOL     OW16678   0.767   4.506   8.574  0.0014  0.2602  0.0619
 1682SOL    HW116679   0.824   4.430   8.573 -1.4005 -0.8018 -0.2720
 1682SOL    HW216680   0.789   4.541   8.660 -1.5020  2.0615 -0.2843
 1683SOL     OW16681   3.652   3.976   7.935 -0.2212 -0.2426 -0.6348
 1683SOL    HW116682   3.566   3.956   7.898 -0.4560  1.3256 -0.9694
 1683SOL    HW216683   3.693   3.981   7.849  2.2621 -2.2136  0.4279
 1684SOL     OW16684   4.195   0.590   7.304 -0.2741 -0.5457 -0.1206
 1684SOL    HW116685   4.283   0.604   7.269 -0.9250 -0.8194 -1.8873
 1684SOL    HW216686   4.218   0.559   7.391  1.4531 -1.7924 -1.0226
 1685SOL     OW16687   3.509   3.724   8.311  0.4114  0.2980 -0.3500
 1685SOL    HW116688   3.586   3.727   8.255  1.1223 -0.3794  0.6009
 1685SOL    HW216689   3.531   3.665   8.383  1.9770  0.8929 -0.3501
 1686SOL     OW16690   3.857   1.649  16.779 -0.4349  0.5431  0.3865
 1686SOL    HW116691   3.880   1.568  16.826 -3.3213 -0.4848  0.0237
 1686SOL    HW216692   3.830   1.705  16.851 -1.9172 -0.8488  0.9104
 1687SOL     OW16693   2.137   1.286   4.616  1.5293  0.2332  0.0554
 1687SOL    HW116694   2.083   1.361   4.643  1.6669  0.5172 -0.4572
 1687SOL    HW216695   2.188   1.280   4.696  2.4969 -1.7586 -0.7190
 1688SOL     OW16696   1.718   3.760   3.410 -0.2458  0.1420 -0.6360
 1688SOL    HW116697   1.657   3.749   3.337 -0.1633  1.1974 -0.8609
 1688SOL    HW216698   1.794   3.706   3.389  0.3793 -0.3482  2.7957
 1689SOL     OW16699   4.179   1.967   5.666  0.7873  0.3363 -0.4592
 1689SOL    HW116700   4.241   2.014   5.723 -3.5618  0.7918  3.9631
 1689SOL    HW216701   4.227   1.939   5.589 -0.3137  0.9555 -1.3720
 1690SOL     OW16702   4.515   0.860  15.919 -0.1348 -0.3339  0.1807
 1690SOL    HW116703   4.573   0.854  15.843 -0.4102  0.1797 -0.0710
 1690SOL    HW216704   4.463   0.939  15.906  0.6486  0.3369  1.1104
 1691SOL     OW16705   3.574   0.028   5.260  0.3615 -0.3630 -0.2199
 1691SOL    HW116706   3.634   0.071   5.199 -0.7044 -0.7461 -1.5443
 1691SOL    HW216707   3.498   0.074   5.225  0.4540 -0.9702 -1.2196
 1692SOL     OW16708   0.082   0.476  14.646 -0.0608 -0.4023 -0.0557
 1692SOL    HW116709   0.021   0.414  14.606  0.4392 -0.1792 -1.1598
 1692SOL    HW216710   0.119   0.416  14.712  0.1693  0.3975  0.5487
 1693SOL     OW16711   2.818   3.938  11.618  0.0613  0.3028  0.5876
 1693SOL    HW116712   2.863   3.932  11.701 -0.5675  1.9481  1.0504
 1693SOL    HW216713   2.728   3.916  11.642 -0.0682  0.2923  0.0937
 1694SOL     OW16714   1.402   0.887   2.147  0.0886 -0.0166  0.9629
 1694SOL    HW116715   1.384   0.828   2.220 -0.2418  1.9656  2.4861
 1694SOL    HW216716   1.469   0.941   2.189  0.5211 -0.0881  0.3460
 1695SOL     OW16717   2.137   1.294   3.721 -0.7178  0.0924  0.3428
 1695SOL    HW116718   2.127   1.388   3.707  1.4596 -0.2212 -3.2816
 1695SOL    HW216719   2.179   1.253   3.645 -1.4083  2.1794 -1.1487
 1696SOL     OW16720   3.918   3.971  16.328 -0.8978 -0.2088 -0.0728
 1696SOL    HW116721   3.862   3.894  16.322 -0.3461 -0.7334  1.5501
 1696SOL    HW216722   3.969   3.933  16.400 -0.6656  2.1840  1.0401
 1697SOL     OW16723   1.968   0.751   3.905 -0.0964  0.0410 -0.3670
 1697SOL    HW116724   2.022   0.793   3.838  0.0548 -1.6822 -1.3383
 1697SOL    HW216725   1.895   0.709   3.859 -1.9230  2.8272  0.0216
 1698SOL     OW16726   4.568   3.282  16.849  0.3008  0.1865  0.4967
 1698SOL    HW116727   4.621   3.211  16.812 -0.8620 -0.1106 -0.6392
 1698SOL    HW216728   4.577   3.270  16.943 -1.0638 -1.5921  0.4146
 1699SOL     OW16729   4.476   2.649   9.449  0.6517  0.0439 -0.4295
 1699SOL    HW116730   4.558   2.687   9.480 -0.3704  1.4808  0.5125
 1699SOL    HW216731   4.468   2.584   9.519  0.3670  1.1656  0.5901
 1700SOL     OW16732   2.025   0.992   3.491  0.3194 -0.0855 -0.1810
 1700SOL    HW116733   1.989   0.946   3.415 -0.9075 -2.0796  1.5901
 1700SOL    HW216734   2.026   1.077   3.447 -0.2884  0.2335  0.4258
 1701SOL     OW16735   1.128   3.389   1.586  0.2856  0.0663  0.2723
 1701SOL    HW116736   1.203   3.449   1.588  2.3657 -2.5258  1.2245
 1701SOL    HW216737   1.178   3.307   1.591 -0.4615 -0.2713  2.1570
 1702SOL     OW16738   4.039   4.520   7.943 -0.1686  0.2057  0.2119
 1702SOL    HW116739   4.007   4.475   7.865 -0.4770 -1.5888  1.3663
 1702SOL    HW216740   4.114   4.463   7.960 -0.3698 -0.5016 -1.3252
 1703SOL     OW16741   2.061   4.435   5.467  0.1603 -0.1347 -0.4963
 1703SOL    HW116742   1.967   4.423   5.459  0.0571  0.2842  0.1319
 1703SOL    HW216743   2.080   4.452   5.560 -0.9438  0.4733 -0.3871
 1704SOL     OW16744   1.206   4.400   4.607 -0.2688 -0.1024  0.0993
 1704SOL    HW116745   1.128   4.446   4.576 -0.2236  0.2325  0.4785
 1704SOL    HW216746   1.189   4.312   4.574  2.1883 -0.0752 -1.2156
 1705SOL     OW16747   4.054   3.915  12.671  0.0936  0.1674 -0.2417
 1705SOL    HW116748   4.045   3.977  12.599  3.1462  0.6874 -0.1601
 1705SOL    HW216749   4.043   3.829  12.631  0.2185 -0.3896  0.9013
 1706SOL     OW16750   4.266   2.560   3.601 -0.2074  0.4826  0.3816
 1706SOL    HW116751   4.278   2.651   3.572  0.7402 -0.3349 -1.8057
 1706SOL    HW216752   4.175   2.551   3.574  0.2183 -0.4334 -0.7640
 1707SOL     OW16753   2.475   4.317  17.155  0.4749 -0.3624 -0.2732
 1707SOL    HW116754   2.538   4.270  17.211 -0.8982 -0.8663  0.8433
 1707SOL    HW216755   2.510   4.406  17.151  2.0060 -0.9125  0.6936
 1708SOL     OW16756   2.744   2.204   8.087  0.1317 -0.3529 -0.0320
 1708SOL    HW116757   2.703   2.153   8.157  1.3345  0.3697  1.2044
 1708SOL    HW216758   2.826   2.217   8.135 -1.5738  2.8595  2.0566
 1709SOL     OW16759   3.707   3.092   1.735 -0.7721  0.3205  0.2268
 1709SOL    HW116760   3.702   3.040   1.655  0.5757  3.7153 -2.0258
 1709SOL    HW216761   3.621   3.135   1.734  0.5989  3.0847  1.5924
 1710SOL     OW16762   4.584   3.377  15.302 -0.3019  0.5660  0.0365
 1710SOL    HW116763   4.513   3.312  15.310  1.8210 -1.5118  1.9297
 1710SOL    HW216764   4.595   3.395  15.209  1.5144  0.7889  0.2890
 1711SOL     OW16765   1.398   0.305  16.858  0.0451  0.5307  0.2080
 1711SOL    HW116766   1.478   0.355  16.871 -0.2491  0.5808  1.8027
 1711SOL    HW216767   1.321   0.362  16.858 -1.8685 -2.0194  0.5645
 1712SOL     OW16768   2.779   0.317  12.778 -0.6538 -0.2916  0.1705
 1712SOL    HW116769   2.721   0.306  12.703 -0.5980 -0.8282  0.2052
 1712SOL    HW216770   2.841   0.376  12.735  1.9557 -2.7600  0.5440
 1713SOL     OW16771   4.007   3.261   6.044 -0.3744  0.6168 -0.0655
 1713SOL    HW116772   4.019   3.341   6.095  1.6689 -0.2407  0.7638
 1713SOL    HW216773   3.915   3.246   6.068 -0.1268  0.0674  0.5191
 1714SOL     OW16774   3.099   2.828   0.734 -0.2841 -0.1877 -0.0128
 1714SOL    HW116775   3.112   2.776   0.813  1.7899 -0.1515 -0.3209
 1714SOL    HW216776   3.137   2.912   0.759  1.7583 -0.4390 -2.2026
 1715SOL     OW16777   0.825   0.267   9.901 -0.3345  0.0318 -0.2290
 1715SOL    HW116778   0.730   0.259   9.904 -0.1249 -2.3418  0.6371
 1715SOL    HW216779   0.843   0.270   9.995  1.7504  0.8812 -0.6501
 1716SOL     OW16780   3.320   0.280  10.460  0.6059 -0.0134  1.0706
 1716SOL    HW116781   3.230   0.262  10.432  0.5032  2.9914 -0.5827
 1716SOL    HW216782   3.307   0.328  10.541 -1.1226 -0.0838  0.8373
 1717SOL     OW16783   2.371   2.351  16.567 -0.0835  0.4198 -0.0115
 1717SOL    HW116784   2.308   2.290  16.606 -0.4684  1.9135  1.7418
 1717SOL    HW216785   2.453   2.314  16.598 -0.3622  2.4806  3.2290
 1718SOL     OW16786   2.975   3.118   7.997  0.3506 -0.2060 -0.0431
 1718SOL    HW116787   2.918   3.171   8.052  0.1244  3.1082 -3.4786
 1718SOL    HW216788   2.938   3.031   8.014 -2.2919  0.9705  0.2531
 1719SOL     OW16789   0.004   0.959  15.704 -0.0756 -0.1100 -0.2026
 1719SOL    HW116790   0.060   0.980  15.629 -0.5489  0.5990 -0.3576
 1719SOL    HW216791   0.032   1.032  15.759 -0.7250 -0.7792  1.0221
 1720SOL     OW16792   1.780   3.231   1.947  0.0277 -0.0292 -0.2726
 1720SOL    HW116793   1.811   3.322   1.955  0.5628 -0.2829  0.4926
 1720SOL    HW216794   1.833   3.190   2.014 -0.0214  3.2985  1.7949
 1721SOL     OW16795   4.308   0.807   5.868 -0.1059 -0.1473 -0.6572
 1721SOL    HW116796   4.342   0.718   5.876  2.9722  1.1704  0.5096
 1721SOL    HW216797   4.388   0.858   5.880  0.6680 -1.6777  0.6200
 1722SOL     OW16798   2.212   0.600   9.851 -0.6721  0.6906  0.5766
 1722SOL    HW116799   2.123   0.609   9.885 -0.6256  0.5087  0.7442
 1722SOL    HW216800   2.252   0.684   9.870  0.5527  0.0473  0.8162
 1723SOL     OW16801   3.373   2.478   0.784 -0.2797  0.6806 -0.3343
 1723SOL    HW116802   3.456   2.438   0.811 -1.4742 -0.8809  1.0414
 1723SOL    HW216803   3.394   2.518   0.700 -1.9779 -0.5538 -1.3380
 1724SOL     OW16804   4.614   4.566  13.838 -0.1264 -0.6953 -0.3150
 1724SOL    HW116805   4.559   4.639  13.865  1.2405 -0.0734  0.8177
 1724SOL    HW216806   4.547   4.498  13.834  0.9912 -1.6624 -2.7522
 1725SOL     OW16807   4.194   0.066   0.665 -0.1808  0.0641  0.2684
 1725SOL    HW116808   4.236   0.021   0.592  0.3256  1.7955 -0.4988
 1725SOL    HW216809   4.259   0.049   0.733 -1.6011  0.8777  1.8165
 1726SOL     OW16810   2.759   0.193   8.221  0.5071 -0.4174 -0.0136
 1726SOL    HW116811   2.699   0.118   8.215  0.8093 -0.7313  0.8207
 1726SOL    HW216812   2.835   0.164   8.172  1.1374 -1.2399  1.4533
 1727SOL     OW16813   3.288   4.463   7.062 -0.5490 -0.4738 -0.5604
 1727SOL    HW116814   3.312   4.536   7.120 -0.4723  1.4788 -3.0570
 1727SOL    HW216815   3.197   4.488   7.049 -0.3285  0.2200 -0.7733
 1728SOL     OW16816   0.729   0.075  10.114 -0.4482  0.2815  0.1684
 1728SOL    HW116817   0.759   0.020  10.042  1.3857 -0.8651  1.8105
 1728SOL    HW216818   0.635   0.077  10.093  0.0337 -0.3574 -2.1107
 1729SOL     OW16819   3.654   0.975   9.127  0.3938  0.6137 -0.4383
 1729SOL    HW116820   3.691   0.886   9.134 -1.8067 -0.3432 -1.1016
 1729SOL    HW216821   3.590   0.966   9.057  0.1186  0.2900 -0.1435
 1730SOL     OW16822   2.656   4.489   2.479 -1.4399 -0.3635  0.1703
 1730SOL    HW116823   2.676   4.419   2.418  0.6891  2.7036 -2.6611
 1730SOL    HW216824   2.575   4.461   2.521 -1.1647  0.5446  1.3224
 1731SOL     OW16825   3.425   4.108   5.636 -0.5270 -0.2128  0.2712
 1731SOL    HW116826   3.381   4.024   5.651 -0.5907 -0.0932  0.7660
 1731SOL    HW216827   3.495   4.086   5.575 -0.7807  1.1576 -0.5237
 1732SOL     OW16828   2.562   0.210   0.230  0.7191 -0.2375  0.0578
 1732SOL    HW116829   2.474   0.246   0.221  0.1920 -1.4087  0.5545
 1732SOL    HW216830   2.619   0.268   0.178 -1.2727  1.3505 -0.3381
 1733SOL     OW16831   3.225   2.769   3.811 -0.2550  0.1776 -0.3000
 1733SOL    HW116832   3.301   2.797   3.761  0.1575 -0.1466  0.1473
 1733SOL    HW216833   3.178   2.739   3.733 -0.2035  1.2901 -0.7600
 1734SOL     OW16834   3.043   4.176   4.817  0.6149  0.0711  0.7509
 1734SOL    HW116835   3.073   4.247   4.759 -1.4450  1.0584  0.8863
 1734SOL    HW216836   2.950   4.193   4.802  0.4005 -1.9475 -0.1928
 1735SOL     OW16837   0.092   4.444   2.292 -0.5423  0.2828 -0.1326
 1735SOL    HW116838   0.047   4.431   2.376  2.1209  1.8513  1.4964
 1735SOL    HW216839   0.156   4.374   2.306 -1.8720 -1.4960 -2.8728
 1736SOL     OW16840   0.229   3.988   4.650  0.1075 -0.9314  0.1762
 1736SOL    HW116841   0.152   4.015   4.699 -0.6438 -0.0261 -1.5015
 1736SOL    HW216842   0.249   4.072   4.609 -0.8781 -0.9151 -0.2598
 1737SOL     OW16843   4.217   1.871  13.663  0.4469  0.6062  0.2546
 1737SOL    HW116844   4.253   1.931  13.598  0.8378  0.0390 -0.0522
 1737SOL    HW216845   4.183   1.802  13.606  3.1084 -0.7738  0.3160
 1738SOL     OW16846   3.473   4.227   2.401  0.2235  0.2232  0.5744
 1738SOL    HW116847   3.402   4.242   2.340 -0.1868  1.4628  1.3607
 1738SOL    HW216848   3.533   4.297   2.376  0.7430  0.3327  2.1054
 1739SOL     OW16849   2.468   3.790   6.307  0.1158  0.5721  0.3734
 1739SOL    HW116850   2.463   3.844   6.227  1.3128  1.7881  1.1110
 1739SOL    HW216851   2.403   3.834   6.361  0.3786 -0.1797  1.2957
 1740SOL     OW16852   1.626   2.790   3.604 -0.1699  0.0841  0.6671
 1740SOL    HW116853   1.555   2.731   3.580 -0.2506  0.2569  0.4790
 1740SOL    HW216854   1.691   2.763   3.539  0.5006 -0.0256  1.3783
 1741SOL     OW16855   2.081   2.223   9.758 -0.4043 -0.7719 -0.0273
 1741SOL    HW116856   2.057   2.158   9.825  0.4561 -1.7234 -0.6341
 1741SOL    HW216857   2.057   2.179   9.677 -2.4055  2.7477 -1.3066
 1742SOL     OW16858   1.850   3.611   5.445  0.1817 -0.5019 -0.1672
 1742SOL    HW116859   1.927   3.590   5.498  1.5051 -0.4924 -2.0958
 1742SOL    HW216860   1.792   3.548   5.488 -2.1636  1.4648 -0.4168
 1743SOL     OW16861   2.104   3.668   9.350 -0.3808 -0.1514 -0.2240
 1743SOL    HW116862   2.198   3.682   9.341 -0.7092  1.6773 -0.7942
 1743SOL    HW216863   2.092   3.579   9.317 -3.1023 -0.6370  2.0186
 1744SOL     OW16864   4.669   1.956   3.236  0.2371 -0.1093 -0.7909
 1744SOL    HW116865   4.714   1.924   3.314  1.6179  2.1443 -0.6868
 1744SOL    HW216866   4.675   2.051   3.245  0.2973 -0.0416 -1.5479
 1745SOL     OW16867   3.924   3.657   1.214 -0.3998 -0.0463  0.2822
 1745SOL    HW116868   3.931   3.750   1.193 -0.4469 -0.3460 -1.0710
 1745SOL    HW216869   3.864   3.635   1.143  1.6220  0.1061 -1.4810
 1746SOL     OW16870   2.023   3.564   5.657 -0.4618  0.1373 -0.3376
 1746SOL    HW116871   2.002   3.544   5.748 -0.3782  2.1840  0.1367
 1746SOL    HW216872   2.079   3.490   5.632  0.3566  0.9909 -1.0561
 1747SOL     OW16873   3.350   2.720   7.900 -0.3921  0.0935  0.1279
 1747SOL    HW116874   3.431   2.771   7.907  0.2889 -0.9714 -0.0034
 1747SOL    HW216875   3.367   2.663   7.825  2.1500  1.5227 -0.4158
 1748SOL     OW16876   3.987   1.218   7.828  0.0541 -0.1732 -0.1967
 1748SOL    HW116877   4.072   1.194   7.789  0.6966 -1.0454  1.7076
 1748SOL    HW216878   3.977   1.144   7.888 -0.1949  0.9048  1.1036
 1749SOL     OW16879   0.777   4.342   4.289 -0.3038  0.0310 -0.3813
 1749SOL    HW116880   0.688   4.311   4.307 -0.1371 -0.5898 -0.6090
 1749SOL    HW216881   0.818   4.278   4.231 -0.1437 -1.1875  1.0499
 1750SOL     OW16882   3.988   0.296   8.892 -0.0579 -0.2340 -1.1575
 1750SOL    HW116883   4.082   0.277   8.896  0.0431  0.0262 -2.3518
 1750SOL    HW216884   3.955   0.250   8.816 -2.0149  3.1071 -2.3298
 1751SOL     OW16885   3.786   1.652   3.216 -0.6076 -0.6205 -0.0390
 1751SOL    HW116886   3.773   1.599   3.295 -2.3207 -0.1066  0.0220
 1751SOL    HW216887   3.879   1.632   3.206 -0.9534 -0.8484 -2.6716
 1752SOL     OW16888   1.254   1.694   9.252 -0.2264 -0.3217 -0.0758
 1752SOL    HW116889   1.179   1.652   9.293 -0.6531  0.2190 -0.2982
 1752SOL    HW216890   1.218   1.755   9.188  1.1441  0.5168 -0.0631
 1753SOL     OW16891   0.881   3.565   1.017 -0.0073  0.4601  0.2647
 1753SOL    HW116892   0.933   3.574   1.097 -2.2868 -0.4050  1.8730
 1753SOL    HW216893   0.947   3.573   0.949 -0.9236 -0.1510 -0.7143
 1754SOL     OW16894   1.492   4.472  11.168 -0.4853  0.2794  0.1979
 1754SOL    HW116895   1.433   4.546  11.172 -0.1718  0.4130  2.4570
 1754SOL    HW216896   1.489   4.450  11.074 -2.6545 -1.6309  0.7247
 1755SOL     OW16897   3.450   2.093   1.222 -0.1404  0.0243  0.1749
 1755SOL    HW116898   3.532   2.138   1.241 -0.6932  1.4090 -0.7239
 1755SOL    HW216899   3.460   2.090   1.127  2.0078 -0.5938  0.4288
 1756SOL     OW16900   0.644   4.256  10.889 -0.7331  0.6654 -0.3668
 1756SOL    HW116901   0.699   4.184  10.919  1.2985  2.4296  0.1141
 1756SOL    HW216902   0.645   4.251  10.794 -0.0310 -0.6987 -0.2911
 1757SOL     OW16903   2.828   1.410   6.753  0.2748  0.2070  0.3064
 1757SOL    HW116904   2.887   1.476   6.717 -0.5434  0.6105 -0.3140
 1757SOL    HW216905   2.750   1.437   6.705  0.6966  2.6225  0.9658
 1758SOL     OW16906   2.352   2.447   5.654 -0.4033  0.1918  0.0657
 1758SOL    HW116907   2.311   2.521   5.698 -0.1398 -0.2055  0.9870
 1758SOL    HW216908   2.300   2.435   5.575 -0.1311 -1.4273  0.1244
 1759SOL     OW16909   3.234   2.317  15.243  0.4916  0.0203 -0.0005
 1759SOL    HW116910   3.208   2.241  15.192 -0.1543 -1.6120  2.7848
 1759SOL    HW216911   3.158   2.373  15.261 -0.3875 -1.4317  0.7777
 1760SOL     OW16912   3.827   2.002   7.162 -0.5992  0.1011  0.6568
 1760SOL    HW116913   3.908   2.041   7.128 -0.7852 -1.1434 -1.2127
 1760SOL    HW216914   3.762   2.070   7.143  0.6941  1.1418 -0.0854
 1761SOL     OW16915   1.616   3.366   6.449 -0.1763  0.0327  0.1485
 1761SOL    HW116916   1.528   3.396   6.427 -0.0059  1.1721  1.0564
 1761SOL    HW216917   1.632   3.319   6.367  1.0106 -0.2335  0.5274
 1762SOL     OW16918   3.119   0.529  15.357  0.3289  0.5579  0.1449
 1762SOL    HW116919   3.187   0.573  15.306  1.4277 -0.2630  0.8889
 1762SOL    HW216920   3.168   0.447  15.351 -0.2789  0.3145 -1.3338
 1763SOL     OW16921   1.771   1.655   5.620  0.1785 -0.2725  0.0641
 1763SOL    HW116922   1.810   1.627   5.703 -0.5363 -0.8523  0.1989
 1763SOL    HW216923   1.840   1.620   5.563 -1.5162 -2.1542 -0.8224
 1764SOL     OW16924   0.008   1.117   8.542 -0.3941 -0.0346  0.3706
 1764SOL    HW116925   0.078   1.178   8.564  0.2663 -1.2327  1.5981
 1764SOL    HW216926   4.677   1.119   8.614  0.6827 -0.2915  1.3404
 1765SOL     OW16927   3.071   4.715   8.584  0.1183 -0.6971 -0.3090
 1765SOL    HW116928   3.082   0.001   8.491  4.5501  2.6603  0.9317
 1765SOL    HW216929   3.150   0.025   8.618 -1.3183  0.7392  1.2355
 1766SOL     OW16930   1.908   2.916  11.690  0.7435  0.2215 -0.0224
 1766SOL    HW116931   1.856   2.936  11.768 -0.5500 -0.5246 -0.6745
 1766SOL    HW216932   1.852   2.968  11.632  0.3295 -1.5117 -1.1920
 1767SOL     OW16933   2.352   4.217   2.032  0.2289 -0.8812  0.3576
 1767SOL    HW116934   2.279   4.244   1.976 -0.3572 -2.0987  0.5504
 1767SOL    HW216935   2.400   4.159   1.972  2.3468  0.6238  0.5643
 1768SOL     OW16936   1.480   1.911   8.252  0.1522  0.0737  0.6963
 1768SOL    HW116937   1.471   1.983   8.190  0.5991 -0.8691 -0.4612
 1768SOL    HW216938   1.548   1.952   8.305  1.9292 -1.0623 -0.6948
 1769SOL     OW16939   0.290   2.597   6.965 -0.3065 -0.4064 -0.1414
 1769SOL    HW116940   0.267   2.521   7.017  2.2628 -0.0973  1.4443
 1769SOL    HW216941   0.305   2.667   7.029 -1.4399 -0.0497 -0.2591
 1770SOL     OW16942   2.790   0.821   2.562  0.3764  0.0765 -0.1400
 1770SOL    HW116943   2.809   0.732   2.532 -3.4167  0.3929 -3.4472
 1770SOL    HW216944   2.810   0.815   2.655 -1.2453 -0.9528  0.1227
 1771SOL     OW16945   0.433   1.515   1.079 -0.1439 -0.1913  0.5265
 1771SOL    HW116946   0.384   1.491   1.158 -1.7834  1.0797 -0.0843
 1771SOL    HW216947   0.427   1.610   1.088  2.4695  0.0604 -0.6248
 1772SOL     OW16948   3.763   2.322   7.181  0.5593  0.2398 -0.0371
 1772SOL    HW116949   3.765   2.329   7.086  4.2857 -1.9506 -0.0974
 1772SOL    HW216950   3.697   2.389   7.200 -0.8485 -1.5458  1.3980
 1773SOL     OW16951   1.440   4.462   2.750  0.4635  0.4469  0.2824
 1773SOL    HW116952   1.429   4.518   2.673  0.7770 -0.0094 -0.0939
 1773SOL    HW216953   1.387   4.508   2.816 -2.0640  0.8518 -2.0113
 1774SOL     OW16954   2.026   3.101   4.887  1.0071  0.0413 -0.2445
 1774SOL    HW116955   2.035   3.072   4.977 -1.1226  3.0567  0.9401
 1774SOL    HW216956   1.935   3.086   4.861  0.5197  1.4574  0.6563
 1775SOL     OW16957   0.648   1.117   8.039 -0.2339  0.0898 -0.4580
 1775SOL    HW116958   0.633   1.068   7.958  0.7416 -1.2849  0.2024
 1775SOL    HW216959   0.722   1.176   8.023  0.7439 -1.3936 -1.4683
 1776SOL     OW16960   2.752   2.516   9.612  0.0411 -0.3305  0.2485
 1776SOL    HW116961   2.675   2.473   9.575 -1.1746  2.2722 -0.2682
 1776SOL    HW216962   2.718   2.548   9.696 -2.2791 -2.2757  0.0474
 1777SOL     OW16963   0.669   2.871   3.698 -0.1480  0.4643  0.1153
 1777SOL    HW116964   0.725   2.796   3.677 -0.8293 -0.0995  0.3248
 1777SOL    HW216965   0.587   2.824   3.683  0.2077 -0.7963  2.2126
 1778SOL     OW16966   4.586   2.221  10.859 -0.3066  0.0693 -0.1754
 1778SOL    HW116967   4.682   2.219  10.863 -0.4188 -0.1320  2.4509
 1778SOL    HW216968   4.569   2.131  10.887  0.8566 -0.9828 -2.8488
 1779SOL     OW16969   0.075   4.375   4.830  0.3494 -0.3690 -0.0719
 1779SOL    HW116970   0.043   4.465   4.820  0.4704 -0.2553  0.5377
 1779SOL    HW216971   0.076   4.368   4.926 -0.8923 -0.8604 -0.1005
 1780SOL     OW16972   2.041   0.935   4.089  0.5003 -0.0360 -0.6725
 1780SOL    HW116973   2.019   0.880   4.014  0.4351 -0.4466 -0.3520
 1780SOL    HW216974   2.097   1.000   4.048  2.8904 -0.7789  1.4716
 1781SOL     OW16975   1.827   0.462   2.982 -0.4297 -0.7745  0.0904
 1781SOL    HW116976   1.777   0.492   2.907 -3.8600  1.3555  3.2148
 1781SOL    HW216977   1.777   0.386   3.012  0.8766 -1.8082 -0.3558
 1782SOL     OW16978   4.545   3.200   6.131  0.2204  0.3107 -0.6677
 1782SOL    HW116979   4.526   3.106   6.127  0.9301  0.1217  0.5543
 1782SOL    HW216980   4.609   3.209   6.200 -1.1627  0.7006  0.5645
 1783SOL     OW16981   0.943   4.606   7.507  0.3542 -0.5213 -0.1832
 1783SOL    HW116982   0.861   4.567   7.537  0.2955 -1.1730 -1.2241
 1783SOL    HW216983   1.007   4.544   7.541 -0.6701 -2.2720 -1.5006
 1784SOL     OW16984   2.826   4.646   4.559  0.6182 -0.6031  0.2970
 1784SOL    HW116985   2.789   4.652   4.471  0.8091  0.9105  0.3122
 1784SOL    HW216986   2.747   4.652   4.612  0.8365 -0.2592  0.5886
 1785SOL     OW16987   2.477   1.091   7.344 -0.6349  0.6863  0.1413
 1785SOL    HW116988   2.438   1.152   7.282 -1.1953 -1.1568 -1.3298
 1785SOL    HW216989   2.393   1.076   7.389 -1.0582 -0.9926 -1.1974
 1786SOL     OW16990   2.012   0.843   8.189  0.0608  0.2402  0.0049
 1786SOL    HW116991   2.082   0.901   8.221 -1.3578  1.4954  0.8548
 1786SOL    HW216992   2.041   0.808   8.106 -0.5793 -2.4343  0.9101
 1787SOL     OW16993   4.218   1.286   8.929 -0.2505 -0.5057 -0.1453
 1787SOL    HW116994   4.127   1.289   8.897 -0.3286  0.6043  0.1926
 1787SOL    HW216995   4.270   1.342   8.873  0.5823 -1.4676 -0.3337
 1788SOL     OW16996   2.211   2.970  16.515  0.0486  0.1043  0.7718
 1788SOL    HW116997   2.223   3.056  16.554 -0.6324  1.3481 -1.7935
 1788SOL    HW216998   2.143   2.926  16.567 -0.4965  0.8297  0.6636
 1789SOL     OW16999   3.513   2.842   3.414  0.1169  0.3627  0.4415
 1789SOL    HW117000   3.596   2.873   3.379  0.0014  3.1957  2.7082
 1789SOL    HW217001   3.460   2.854   3.335  0.6137 -1.2487 -0.1501
 1790SOL     OW17002   0.110   3.228  17.124 -0.0272  0.3786 -0.2155
 1790SOL    HW117003   0.040   3.283  17.091 -0.7861 -0.5435 -0.1529
 1790SOL    HW217004   0.085   3.194  17.210  0.8498  0.4758  0.0811
 1791SOL     OW17005   3.655   2.106   6.016 -0.7280 -0.2830  0.1850
 1791SOL    HW117006   3.721   2.162   6.058  0.3004 -1.3767  0.0147
 1791SOL    HW217007   3.585   2.103   6.081 -1.2889  0.7255 -0.3714
 1792SOL     OW17008   2.443   4.440   0.055  0.2017 -0.3326  0.0588
 1792SOL    HW117009   2.525   4.484   0.033  0.0585  0.6641  1.5073
 1792SOL    HW217010   2.364   4.475   0.014  0.2601  0.8377  0.9420
 1793SOL     OW17011   4.034   1.148   3.924 -0.0096 -0.4937 -0.2868
 1793SOL    HW117012   3.956   1.102   3.893  1.6867 -2.2654 -1.9514
 1793SOL    HW217013   4.003   1.238   3.930  0.4739 -0.1887 -2.2283
 1794SOL     OW17014   2.431   3.352   2.665  0.0563  0.3490 -0.1081
 1794SOL    HW117015   2.477   3.432   2.688  0.7648  0.0542 -0.4711
 1794SOL    HW217016   2.447   3.299   2.743 -1.1128 -1.1097 -0.8347
 1795SOL     OW17017   0.469   2.828  14.652  0.8244 -0.2031  0.0206
 1795SOL    HW117018   0.392   2.866  14.692 -0.6738  0.1902 -3.2138
 1795SOL    HW217019   0.417   2.770  14.596 -1.4314  0.3974  1.4971
 1796SOL     OW17020   4.247   4.278   7.298  0.1608  0.0222 -0.2527
 1796SOL    HW117021   4.158   4.293   7.331  0.7202 -0.0005  1.2873
 1796SOL    HW217022   4.220   4.232   7.218  2.0085  2.1901 -2.1083
 1797SOL     OW17023   3.245   4.055  10.195  0.5589  0.6022 -0.2585
 1797SOL    HW117024   3.295   4.135  10.210  0.8840  0.4367 -0.4593
 1797SOL    HW217025   3.298   3.997  10.141  1.2198  0.7818  0.1993
 1798SOL     OW17026   3.817   2.923   3.724 -0.3274  0.5068  0.7840
 1798SOL    HW117027   3.757   2.997   3.730 -0.8510  0.0928  0.6626
 1798SOL    HW217028   3.901   2.964   3.705 -0.7663 -0.2191 -2.7663
 1799SOL     OW17029   2.222   1.506  17.271  1.1904  0.1714  0.3426
 1799SOL    HW117030   2.181   1.562  17.337  0.3249 -0.1344  0.0553
 1799SOL    HW217031   2.287   1.454  17.319  0.3030 -1.3101 -0.0918
 1800SOL     OW17032   1.305   0.450   9.000 -0.7056  0.1964 -0.5092
 1800SOL    HW117033   1.324   0.462   9.093  0.5568  0.4317 -0.7904
 1800SOL    HW217034   1.259   0.532   8.982 -1.0783 -0.0921 -0.8907
 1801SOL     OW17035   0.556   1.539   9.778 -0.1287 -0.2286 -0.5782
 1801SOL    HW117036   0.613   1.595   9.726  0.5435 -1.8300 -1.5568
 1801SOL    HW217037   0.471   1.583   9.771  0.9836  1.9044 -0.6125
 1802SOL     OW17038   3.302   4.283   8.870 -0.2766  0.2640  0.1050
 1802SOL    HW117039   3.257   4.208   8.910  0.4125 -2.0961 -3.4976
 1802SOL    HW217040   3.235   4.350   8.881 -1.7237 -0.9817 -1.0425
 1803SOL     OW17041   3.293   0.698  15.971  0.6228  0.5299 -0.2176
 1803SOL    HW117042   3.331   0.679  15.885 -1.0487 -0.7784 -0.6627
 1803SOL    HW217043   3.369   0.746  16.005  0.9244 -0.4299  0.4376
 1804SOL     OW17044   2.489   2.880   7.304 -0.3943  0.1432 -0.1705
 1804SOL    HW117045   2.551   2.889   7.377  1.0429 -1.3484 -1.2109
 1804SOL    HW217046   2.505   2.793   7.267 -0.9479 -0.3895  0.8179
 1805SOL     OW17047   1.528   2.852   7.300  0.1064  0.1554  0.0106
 1805SOL    HW117048   1.580   2.913   7.248  0.8424  1.1944  1.9705
 1805SOL    HW217049   1.599   2.787   7.305  0.0294 -0.0446 -1.5231
 1806SOL     OW17050   2.446   2.453   4.932  0.2083 -0.2693 -0.0436
 1806SOL    HW117051   2.356   2.445   4.899 -0.2858 -1.4279  1.6070
 1806SOL    HW217052   2.450   2.549   4.934  1.4702 -0.3312  0.2439
 1807SOL     OW17053   0.300   3.926   3.277 -0.1355 -0.2416 -0.3739
 1807SOL    HW117054   0.380   3.940   3.327  0.0581  2.9324 -1.5838
 1807SOL    HW217055   0.229   3.951   3.337  0.6424  2.3933 -0.5776
 1808SOL     OW17056   3.731   3.137  10.509 -0.1314 -0.0347  0.0723
 1808SOL    HW117057   3.725   3.089  10.592  2.3496 -1.7232 -0.7239
 1808SOL    HW217058   3.645   3.179  10.502 -0.0956 -0.0850 -0.6205
 1809SOL     OW17059   3.968   0.917   6.599 -0.0320  0.3548 -0.6639
 1809SOL    HW117060   3.995   0.986   6.659 -2.9076  1.1263 -0.2631
 1809SOL    HW217061   3.960   0.957   6.512 -1.6011  0.3203 -0.5245
 1810SOL     OW17062   1.567   1.354   6.355 -0.1501  0.0899  0.9931
 1810SOL    HW117063   1.521   1.352   6.272  1.5357  1.9681 -0.0065
 1810SOL    HW217064   1.617   1.273   6.355  1.1723  0.8940 -0.4848
 1811SOL     OW17065   3.507   4.409   8.254  0.2521  0.7170  0.4236
 1811SOL    HW117066   3.455   4.401   8.334  0.8340 -3.1128  0.4186
 1811SOL    HW217067   3.492   4.324   8.212  3.0997  0.5694 -0.2849
 1812SOL     OW17068   2.311   4.658   5.983  0.2563 -0.0441  0.0428
 1812SOL    HW117069   2.336   4.714   6.057 -0.4253  0.5021 -0.1522
 1812SOL    HW217070   2.275   4.587   6.037  2.8330 -1.9461 -0.7259
 1813SOL     OW17071   4.161   0.706  15.049  0.0424 -0.1579 -0.4375
 1813SOL    HW117072   4.248   0.665  15.041  0.1012 -0.4447  1.5355
 1813SOL    HW217073   4.194   0.784  15.094  1.7132 -2.0187  1.6133
 1814SOL     OW17074   0.881   3.110   7.579 -0.2027  0.1537  0.3015
 1814SOL    HW117075   0.833   3.174   7.526 -2.0150  0.5358  2.4209
 1814SOL    HW217076   0.921   3.054   7.512  0.4922 -0.3737  1.1683
 1815SOL     OW17077   3.600   2.282   5.392  0.2492 -0.1261  0.0999
 1815SOL    HW117078   3.604   2.203   5.445  0.8901 -0.2707 -0.1635
 1815SOL    HW217079   3.602   2.356   5.452  0.0412  0.2745 -0.3855
 1816SOL     OW17080   1.662   1.731  13.146  0.8641 -0.0041  0.9834
 1816SOL    HW117081   1.587   1.675  13.127  0.1623  1.0310  0.6941
 1816SOL    HW217082   1.618   1.815  13.136 -0.6809 -0.5314  3.2831
 1817SOL     OW17083   1.139   2.265   5.379  0.0362  0.4577 -0.1348
 1817SOL    HW117084   1.142   2.197   5.312  1.3609 -0.5132  0.9248
 1817SOL    HW217085   1.153   2.332   5.313  0.3549 -0.5009 -1.0440
 1818SOL     OW17086   1.173   2.204   3.420  0.4760 -0.5402  0.2635
 1818SOL    HW117087   1.197   2.140   3.352 -2.9089 -2.7966  1.1542
 1818SOL    HW217088   1.092   2.241   3.386  0.1193 -1.1306  0.4583
 1819SOL     OW17089   2.551   3.944   3.669 -0.5578 -0.3116  0.1834
 1819SOL    HW117090   2.641   3.913   3.672 -1.3592 -2.5485  1.3636
 1819SOL    HW217091   2.569   4.038   3.671  1.3297 -0.6376 -1.4232
 1820SOL     OW17092   4.399   0.679   9.007 -0.8898 -0.2600 -0.0283
 1820SOL    HW117093   4.319   0.640   8.972  0.9837 -0.9184 -3.5218
 1820SOL    HW217094   4.401   0.657   9.101 -0.7507  0.9467  0.2488
 1821SOL     OW17095   0.610   0.078   9.028  0.3279 -0.1961  0.2300
 1821SOL    HW117096   0.578   0.013   9.091  2.0720 -0.3324  0.9809
 1821SOL    HW217097   0.526   0.110   8.994 -0.4884 -0.0273  2.3490
 1822SOL     OW17098   2.243   4.233   7.690 -0.8109  0.7234  0.4684
 1822SOL    HW117099   2.158   4.239   7.646 -1.2471 -1.6881  1.0227
 1822SOL    HW217100   2.306   4.242   7.618 -1.0090  0.7891  0.3010
 1823SOL     OW17101   0.572   0.583  10.639 -0.0107 -0.3826  0.4889
 1823SOL    HW117102   0.628   0.576  10.562  0.0611  1.1951  0.3979
 1823SOL    HW217103   0.485   0.561  10.606  0.3141 -1.2518  0.2346
 1824SOL     OW17104   4.077   3.725   0.296 -0.0674  0.0909 -0.7147
 1824SOL    HW117105   3.990   3.715   0.259  0.5302  0.6996 -2.2966
 1824SOL    HW217106   4.072   3.820   0.287  1.7696  0.1750 -0.8591
 1825SOL     OW17107   0.761   4.268   3.644 -0.0761  0.3423 -0.4950
 1825SOL    HW117108   0.779   4.352   3.686 -0.8704  0.4983 -0.4628
 1825SOL    HW217109   0.790   4.214   3.716 -0.2619  0.9171  0.0101
 1826SOL     OW17110   1.462   2.483   7.832 -0.0915  0.2297  0.7334
 1826SOL    HW117111   1.523   2.412   7.810  0.3554  0.3115  1.7345
 1826SOL    HW217112   1.518   2.559   7.815 -0.6876  0.5780  0.3353
 1827SOL     OW17113   1.522   2.957   8.859 -0.2494  0.5855 -0.1348
 1827SOL    HW117114   1.451   2.993   8.806  0.6059 -0.0052 -1.6836
 1827SOL    HW217115   1.560   2.899   8.793  3.3077  0.2313  2.1694
 1828SOL     OW17116   2.407   4.176   2.314 -0.2680 -0.7000  0.5075
 1828SOL    HW117117   2.373   4.198   2.227  2.1614  2.0187  0.2479
 1828SOL    HW217118   2.330   4.204   2.364 -0.7184  3.0470 -2.3254
 1829SOL     OW17119   4.450   2.876  14.863  0.0240  0.4541 -0.1839
 1829SOL    HW117120   4.359   2.884  14.834 -0.2745 -2.8395 -0.1706
 1829SOL    HW217121   4.453   2.782  14.877  0.4146  0.1365 -2.3558
 1830SOL     OW17122   1.917   0.035   5.517 -0.3844  0.6922 -0.4382
 1830SOL    HW117123   1.952   4.720   5.592 -1.1292  0.9363  0.0699
 1830SOL    HW217124   1.823   0.030   5.538 -0.5778 -0.3783 -1.5762
 1831SOL     OW17125   1.255   3.748  13.061 -0.1559 -0.5779 -0.4388
 1831SOL    HW117126   1.171   3.783  13.032  1.2699  0.2808 -3.4363
 1831SOL    HW217127   1.306   3.821  13.097 -0.8033 -1.6379  2.6039
 1832SOL     OW17128   2.177   2.481   3.216 -0.0889 -0.1232  0.3939
 1832SOL    HW117129   2.221   2.564   3.236 -0.8371  0.3737 -0.0197
 1832SOL    HW217130   2.097   2.519   3.181  0.0852 -0.0972  0.0154
 1833SOL     OW17131   2.440   0.739   1.075  0.1862 -0.8292 -0.7454
 1833SOL    HW117132   2.363   0.688   1.049 -1.3859  0.8510  0.6374
 1833SOL    HW217133   2.408   0.829   1.073 -2.2785 -1.6654  0.5373
 1834SOL     OW17134   2.701   3.613   8.126  0.2973 -0.5250  0.4588
 1834SOL    HW117135   2.615   3.628   8.164  1.0734  1.2415  1.4941
 1834SOL    HW217136   2.764   3.671   8.169 -0.9208  1.5888 -0.6386
 1835SOL     OW17137   4.611   2.246   9.793 -0.6035 -0.3768  0.3060
 1835SOL    HW117138   4.700   2.257   9.826 -1.0366  0.3006  1.2337
 1835SOL    HW217139   4.579   2.168   9.838 -1.0368 -0.8958 -0.9006
 1836SOL     OW17140   0.756   1.206  10.413  0.8823 -0.7049 -0.2631
 1836SOL    HW117141   0.849   1.185  10.422  2.0467  3.4630 -2.6867
 1836SOL    HW217142   0.712   1.121  10.421 -0.6208  0.2837  2.0687
 1837SOL     OW17143   0.240   4.247  13.019 -0.0564 -0.3746  0.4494
 1837SOL    HW117144   0.299   4.177  13.046  1.9127  1.6382  1.4310
 1837SOL    HW217145   0.221   4.218  12.930 -3.3236  0.4996  0.8722
 1838SOL     OW17146   3.583   4.461  16.376  0.1535  0.4870  0.4188
 1838SOL    HW117147   3.641   4.453  16.301  0.8024  1.6525  0.7945
 1838SOL    HW217148   3.504   4.414  16.349  0.0671  1.1312 -0.4425
 1839SOL     OW17149   4.084   1.427   6.695  0.2566  0.1281  0.2826
 1839SOL    HW117150   4.077   1.475   6.777 -2.1430 -0.3134  0.3615
 1839SOL    HW217151   4.173   1.449   6.669 -0.1087  0.3724 -0.7736
 1840SOL     OW17152   4.490   1.903  10.163 -0.1162  0.0084 -0.0584
 1840SOL    HW117153   4.504   1.959  10.087 -1.6445 -1.1578 -1.1844
 1840SOL    HW217154   4.572   1.921  10.209  0.9102  0.8301 -2.1905
 1841SOL     OW17155   0.800   0.217  12.431 -0.1253  0.1337 -0.1128
 1841SOL    HW117156   0.806   0.139  12.486  0.3642  1.1354  1.2551
 1841SOL    HW217157   0.712   0.209  12.393 -0.8606  0.0319  1.6244
 1842SOL     OW17158   3.033   0.266   5.606 -0.3989  0.0420 -0.1003
 1842SOL    HW117159   2.962   0.238   5.549  0.1429  0.0600 -0.7817
 1842SOL    HW217160   2.997   0.350   5.635  2.0297  1.3395 -0.8954
 1843SOL     OW17161   2.855   3.482   4.511  0.3992  0.1398  0.0502
 1843SOL    HW117162   2.873   3.490   4.604  2.5582  3.5746 -0.6294
 1843SOL    HW217163   2.826   3.392   4.499 -1.9614  0.9937 -0.7940
 1844SOL     OW17164   1.464   4.024   2.945  0.5283  0.1516  0.2806
 1844SOL    HW117165   1.456   3.970   2.866  1.7307  0.1326  0.1678
 1844SOL    HW217166   1.525   4.097   2.928  0.4404  0.1909  0.1286
 1845SOL     OW17167   3.117   1.365   1.390 -0.6953 -0.4344 -0.2037
 1845SOL    HW117168   3.097   1.366   1.297 -2.0755  0.4138  0.1073
 1845SOL    HW217169   3.203   1.323   1.393  0.9617  2.9480 -0.4376
 1846SOL     OW17170   3.346   4.351   6.309 -0.1159 -0.1090  0.1689
 1846SOL    HW117171   3.417   4.288   6.316  0.7796  0.9358  0.3906
 1846SOL    HW217172   3.341   4.359   6.214  0.4518 -0.1535  0.1354
 1847SOL     OW17173   1.908   3.899   8.241  0.8210 -0.3001  0.4219
 1847SOL    HW117174   1.826   3.877   8.286  0.4336  2.1204  0.8896
 1847SOL    HW217175   1.975   3.872   8.304  1.5121 -0.6747 -0.4807
 1848SOL     OW17176   3.318   3.623   5.479  0.5277  0.2842  0.1642
 1848SOL    HW117177   3.340   3.569   5.402 -0.0793  0.3862 -0.0818
 1848SOL    HW217178   3.275   3.556   5.532  0.3688  0.3079  0.0668
 1849SOL     OW17179   1.632   3.100   3.510 -0.6847 -0.3914 -0.3286
 1849SOL    HW117180   1.699   3.065   3.452 -0.9253  0.9197 -1.3901
 1849SOL    HW217181   1.590   3.018   3.534 -2.9071 -0.1301 -3.3987
 1850SOL     OW17182   4.467   2.900   3.781  0.4327 -0.6157  0.1445
 1850SOL    HW117183   4.522   2.823   3.787 -0.2836 -0.9448  2.4130
 1850SOL    HW217184   4.514   2.951   3.714  0.7159 -1.3403 -0.2039
 1851SOL     OW17185   3.944   3.202   1.810 -0.2355 -0.3542  0.3762
 1851SOL    HW117186   3.868   3.147   1.791 -0.8313 -0.2280  2.3976
 1851SOL    HW217187   4.014   3.137   1.813  0.6234  0.5836  0.5252
 1852SOL     OW17188   2.542   2.913   8.089 -0.4913  0.8288 -0.0311
 1852SOL    HW117189   2.515   2.885   8.176  0.2213 -1.2699 -0.4749
 1852SOL    HW217190   2.555   3.007   8.098 -0.4979  0.8681 -0.4233
 1853SOL     OW17191   4.432   2.587   5.329  0.2340 -0.0279 -0.1167
 1853SOL    HW117192   4.430   2.648   5.256 -0.1353  1.0600  0.7875
 1853SOL    HW217193   4.375   2.632   5.392  0.4519 -0.0699  0.1120
 1854SOL     OW17194   2.363   4.504  11.951 -0.4606 -0.0233 -0.0488
 1854SOL    HW117195   2.363   4.568  11.880  2.2565 -0.3500 -0.3439
 1854SOL    HW217196   2.300   4.533  12.017  0.1771 -0.8180  0.9051
 1855SOL     OW17197   1.055   3.967  15.458 -0.3593  0.1042 -0.1721
 1855SOL    HW117198   0.974   3.917  15.448 -0.0778 -0.2604 -0.6642
 1855SOL    HW217199   1.121   3.916  15.412 -0.6423  1.3545 -1.9610
 1856SOL     OW17200   2.486   0.576   5.617 -0.4574 -0.0268 -0.5369
 1856SOL    HW117201   2.531   0.585   5.701  0.5165  1.3077 -1.2077
 1856SOL    HW217202   2.397   0.574   5.652 -0.8695  2.5298 -1.4799
 1857SOL     OW17203   0.911   4.381   3.865 -0.6576  0.1411 -0.2971
 1857SOL    HW117204   0.911   4.476   3.871 -2.7180  0.3238 -2.7382
 1857SOL    HW217205   0.920   4.345   3.953  1.4495 -1.3555 -1.1313
 1858SOL     OW17206   1.278   4.604   9.336  0.2370  0.6201 -0.5843
 1858SOL    HW117207   1.232   4.554   9.268 -2.2095 -1.0212  2.2745
 1858SOL    HW217208   1.352   4.639   9.286  2.7269 -1.6371  1.4800
 1859SOL     OW17209   3.202   0.853   6.529  0.2970  0.2519 -0.1350
 1859SOL    HW117210   3.237   0.861   6.618  0.0909  1.9563 -0.2087
 1859SOL    HW217211   3.177   0.945   6.516  0.0242  0.1707 -0.1742
 1860SOL     OW17212   4.695   3.344   6.698 -0.3185 -0.1263  0.4538
 1860SOL    HW117213   0.036   3.333   6.638  0.7646  1.7710  1.4280
 1860SOL    HW217214   4.701   3.274   6.763  0.8927 -0.4325  0.0078
 1861SOL     OW17215   0.148   4.001  13.776 -0.0284  0.7884 -0.1770
 1861SOL    HW117216   0.229   4.020  13.823 -0.2648  0.0186  0.5258
 1861SOL    HW217217   0.103   4.081  13.803  0.0720 -0.1207  2.6420
 1862SOL     OW17218   4.675   3.776   7.352 -0.0718  0.1788  0.2395
 1862SOL    HW117219   4.596   3.723   7.359 -0.6550  1.2488  1.6385
 1862SOL    HW217220   4.661   3.846   7.416  2.0490 -1.6323  2.7120
 1863SOL     OW17221   2.931   0.510   5.671 -0.3482  1.3620  0.0404
 1863SOL    HW117222   2.852   0.526   5.618 -0.3861  0.0055 -0.3292
 1863SOL    HW217223   2.904   0.568   5.741  1.6059  1.6289  0.5672
 1864SOL     OW17224   2.104   0.842   3.703 -0.0807  0.3630 -0.1687
 1864SOL    HW117225   2.065   0.902   3.640 -1.7914 -0.0519  0.4952
 1864SOL    HW217226   2.172   0.801   3.649  0.1849 -0.4306  0.7481
 1865SOL     OW17227   2.795   4.056   4.054  0.1230 -0.0544 -0.1665
 1865SOL    HW117228   2.807   4.127   4.118 -1.4612 -0.3399  0.4398
 1865SOL    HW217229   2.700   4.062   4.058  0.1648  1.4840 -1.7828
 1866SOL     OW17230   0.031   3.659   1.395 -0.8098  0.3781 -0.6099
 1866SOL    HW117231   0.076   3.744   1.391  1.5920 -0.8824 -0.2772
 1866SOL    HW217232   4.715   3.657   1.477  0.4549 -1.1303  0.0769
 1867SOL     OW17233   2.150   1.562   9.394 -0.3005 -0.2739 -0.3676
 1867SOL    HW117234   2.196   1.535   9.315 -2.1809 -0.6631 -1.3255
 1867SOL    HW217235   2.127   1.477   9.432 -0.8373 -0.5869 -1.4024
 1868SOL     OW17236   2.934   0.883  16.661 -0.7693 -0.6319  0.3032
 1868SOL    HW117237   2.995   0.836  16.718 -0.8167 -0.2312  0.6808
 1868SOL    HW217238   2.936   0.840  16.575  1.1695  1.5251 -0.7291
 1869SOL     OW17239   3.923   4.298   8.682  0.0686 -0.5430  0.0090
 1869SOL    HW117240   3.871   4.271   8.758  0.1389 -0.4728  0.0815
 1869SOL    HW217241   4.007   4.263   8.709  0.7763 -0.4923 -2.1356
 1870SOL     OW17242   2.755   1.636   8.593  0.3225  0.5260 -0.4065
 1870SOL    HW117243   2.702   1.645   8.672 -0.8993 -0.7037 -1.0859
 1870SOL    HW217244   2.730   1.551   8.556  0.3487  0.6839 -0.7859
 1871SOL     OW17245   1.886   0.240   3.355  0.2480  0.1337 -0.2845
 1871SOL    HW117246   1.934   0.306   3.305 -0.1625  0.7958  0.1976
 1871SOL    HW217247   1.945   0.165   3.357  0.2239  0.0415 -2.9744
 1872SOL     OW17248   3.685   0.770   8.475  0.0373 -0.4960 -0.8650
 1872SOL    HW117249   3.594   0.787   8.449 -0.3009  3.9558  3.2243
 1872SOL    HW217250   3.678   0.751   8.569  0.7918  0.3401 -0.6336
 1873SOL     OW17251   4.514   1.504   4.695  0.1610  0.1970  0.4747
 1873SOL    HW117252   4.549   1.538   4.612  1.7149  0.6529  1.3178
 1873SOL    HW217253   4.457   1.572   4.731  1.9002  0.9178  1.8754
 1874SOL     OW17254   1.562   3.599  11.615 -0.7827 -0.1441  0.3397
 1874SOL    HW117255   1.561   3.682  11.567  1.7986  0.6369  1.6569
 1874SOL    HW217256   1.468   3.590  11.629 -1.1363  1.0628 -1.1937
 1875SOL     OW17257   1.101   3.144   7.132 -0.1060 -0.3249  0.4323
 1875SOL    HW117258   1.075   3.118   7.044 -1.3204 -1.4409  1.1060
 1875SOL    HW217259   1.154   3.221   7.114 -0.7182 -0.2919 -1.2694
 1876SOL     OW17260   0.178   2.701  13.530 -0.0322 -0.0589 -0.0455
 1876SOL    HW117261   0.148   2.781  13.489 -0.4364 -0.3039 -0.2265
 1876SOL    HW217262   0.233   2.670  13.459  0.9024  0.2858  0.5357
 1877SOL     OW17263   2.077   2.232  15.535 -0.3827  0.0653 -0.6497
 1877SOL    HW117264   2.129   2.253  15.613 -0.8769 -1.3207  0.0578
 1877SOL    HW217265   2.139   2.178  15.486  0.7441 -0.1325  1.0184
 1878SOL     OW17266   0.864   4.421   5.699  0.8195 -0.5316 -0.1473
 1878SOL    HW117267   0.780   4.374   5.700  1.0838 -1.0551 -1.7485
 1878SOL    HW217268   0.843   4.493   5.757 -0.2760 -2.6001  2.0428
 1879SOL     OW17269   0.144   1.750   6.612  0.0928  0.1247 -0.6657
 1879SOL    HW117270   0.111   1.674   6.564  0.0296  0.4560 -1.1451
 1879SOL    HW217271   0.122   1.730   6.703  2.4597 -2.8277 -0.7396
 1880SOL     OW17272   1.747   0.046  11.415  0.0316 -0.1061 -0.2032
 1880SOL    HW117273   1.659   0.083  11.411 -0.8341 -2.4890 -2.8936
 1880SOL    HW217274   1.772   0.056  11.324 -0.3237 -0.6860 -0.3627
 1881SOL     OW17275   0.973   3.552   1.768 -0.0646 -0.0508 -0.0236
 1881SOL    HW117276   0.960   3.481   1.831 -0.0715 -1.3263 -1.4824
 1881SOL    HW217277   1.028   3.499   1.710  1.1581 -0.7837  1.7876
 1882SOL     OW17278   2.065   1.931   1.345  0.0968 -0.5659  0.3156
 1882SOL    HW117279   2.112   1.885   1.276 -0.1229  1.9716 -1.4926
 1882SOL    HW217280   1.986   1.942   1.292  0.1265 -0.3766  0.3131
 1883SOL     OW17281   2.555   0.348   5.185 -0.1659  0.5982  0.3192
 1883SOL    HW117282   2.544   0.357   5.091 -0.2538  2.7588  0.5287
 1883SOL    HW217283   2.558   0.252   5.184 -0.0061  0.6250 -1.5225
 1884SOL     OW17284   3.633   0.507   7.313  0.1671  0.1633 -0.0276
 1884SOL    HW117285   3.710   0.485   7.365 -0.7090 -0.4322  1.0123
 1884SOL    HW217286   3.672   0.530   7.228 -2.8820  0.8632 -1.2290
 1885SOL     OW17287   4.350   3.005   1.805  0.0716 -0.7569  0.8394
 1885SOL    HW117288   4.420   2.959   1.758  0.5082  2.7478 -1.9580
 1885SOL    HW217289   4.328   3.074   1.743 -0.5865 -1.7532 -0.0423
 1886SOL     OW17290   2.668   2.512   5.443  0.2165  0.0662  0.9579
 1886SOL    HW117291   2.717   2.563   5.379 -0.4468 -1.5167 -0.8271
 1886SOL    HW217292   2.612   2.578   5.483 -0.9683 -0.0096 -0.5612
 1887SOL     OW17293   3.159   2.852   7.231 -0.0069 -0.1288  0.2175
 1887SOL    HW117294   3.187   2.903   7.307 -0.9140  0.7949 -0.0738
 1887SOL    HW217295   3.150   2.918   7.162  0.8848 -1.2560 -0.9984
 1888SOL     OW17296   4.041   3.340  14.056 -0.6513 -0.2171  0.1472
 1888SOL    HW117297   3.979   3.399  14.098  0.3884  0.7332  0.3692
 1888SOL    HW217298   4.037   3.262  14.111  1.1929 -1.0268 -0.8408
 1889SOL     OW17299   1.393   1.225   3.539 -0.1160  0.2509 -0.1836
 1889SOL    HW117300   1.413   1.267   3.623 -1.2700  1.7212 -0.6365
 1889SOL    HW217301   1.476   1.179   3.529  0.7088  1.8703 -0.8886
 1890SOL     OW17302   1.408   0.075   9.202 -0.6695  0.0493 -0.2239
 1890SOL    HW117303   1.464   0.117   9.267 -0.6488 -0.0685 -0.1640
 1890SOL    HW217304   1.450   0.120   9.129 -0.5164  0.4952  0.1434
 1891SOL     OW17305   0.534   3.931   3.454  0.2438 -0.0784 -0.6151
 1891SOL    HW117306   0.538   4.004   3.515 -0.2523  0.1334 -0.8341
 1891SOL    HW217307   0.608   3.965   3.403 -0.5846  2.0529 -0.3780
 1892SOL     OW17308   0.900   2.582   9.472  0.1503  0.3530  0.6052
 1892SOL    HW117309   0.971   2.518   9.480 -1.2781 -1.0366  2.0240
 1892SOL    HW217310   0.844   2.566   9.548 -0.6790  0.1394 -0.0452
 1893SOL     OW17311   3.817   1.091   2.267 -0.3443 -0.3096  0.4170
 1893SOL    HW117312   3.887   1.136   2.220  0.8787 -2.2148  0.4215
 1893SOL    HW217313   3.749   1.077   2.202 -1.5758 -2.4691  2.1399
 1894SOL     OW17314   3.854   1.421   3.876  0.6693 -0.0053  0.3106
 1894SOL    HW117315   3.862   1.388   3.787 -1.3784  1.4496 -0.4314
 1894SOL    HW217316   3.761   1.404   3.894  0.8267  0.5458  1.6787
 1895SOL     OW17317   3.451   2.035   3.844 -1.0449  0.2084 -0.3056
 1895SOL    HW117318   3.426   1.980   3.918  2.6510 -1.1691 -0.1149
 1895SOL    HW217319   3.430   2.121   3.882 -1.7700  0.4741 -1.2821
 1896SOL     OW17320   1.212   2.677   5.920 -0.0456  0.2170 -0.1173
 1896SOL    HW117321   1.118   2.681   5.903 -0.3892 -0.4399  1.6401
 1896SOL    HW217322   1.241   2.636   5.839 -0.7742 -0.5988  0.0294
 1897SOL     OW17323   1.822   2.000   3.520  0.1924  0.1107 -0.3501
 1897SOL    HW117324   1.906   2.044   3.505 -0.0976  1.3439  1.6777
 1897SOL    HW217325   1.771   2.078   3.500  0.5025  0.2252 -0.6897
 1898SOL     OW17326   4.388   1.688   8.182  0.0015  0.1072  0.0558
 1898SOL    HW117327   4.422   1.720   8.098 -0.3635 -1.9276 -0.8625
 1898SOL    HW217328   4.305   1.733   8.198  0.5748  1.2681 -0.1867
 1899SOL     OW17329   3.690   0.472  10.320 -0.0890 -0.3812 -0.2605
 1899SOL    HW117330   3.725   0.439  10.237  0.5743 -0.3374 -0.0016
 1899SOL    HW217331   3.649   0.391  10.351  1.0381 -0.1605  1.7916
 1900SOL     OW17332   2.646   2.618   4.233  0.4440 -0.4857  0.2415
 1900SOL    HW117333   2.568   2.616   4.177  1.6967 -1.8035 -1.4541
 1900SOL    HW217334   2.705   2.577   4.170  1.1225  0.7641  0.0551
 1901SOL     OW17335   3.756   3.016  11.484 -0.4152  0.0871  0.1702
 1901SOL    HW117336   3.718   3.100  11.512  1.3625  0.3605  1.7439
 1901SOL    HW217337   3.708   2.995  11.404 -1.7135 -2.9105  1.7418
 1902SOL     OW17338   0.723   3.268   8.074  0.2836  0.1006 -0.5605
 1902SOL    HW117339   0.753   3.178   8.059 -1.3765 -0.7769  1.3297
 1902SOL    HW217340   0.628   3.252   8.069  0.8775 -3.9296  0.7885
 1903SOL     OW17341   0.359   1.526  10.197 -0.6613  0.4054 -0.0659
 1903SOL    HW117342   0.408   1.600  10.160 -0.7342  0.9243  0.8855
 1903SOL    HW217343   0.432   1.487  10.246  0.3575  1.1051 -1.0310
 1904SOL     OW17344   2.856   0.154  15.804 -0.2507  0.2405  0.2134
 1904SOL    HW117345   2.820   0.130  15.889 -2.6505 -1.5526 -1.3154
 1904SOL    HW217346   2.796   0.106  15.747 -0.8943  1.5728 -0.2327
 1905SOL     OW17347   1.851   2.427   8.509 -0.1282  0.0248  0.2696
 1905SOL    HW117348   1.793   2.401   8.437  3.1755 -1.5570 -1.8289
 1905SOL    HW217349   1.857   2.357   8.574  0.2258 -0.5679 -0.4014
 1906SOL     OW17350   3.325   3.104   4.744  0.9424 -0.1065 -0.1089
 1906SOL    HW117351   3.348   3.011   4.743  0.3281 -0.2681  0.1907
 1906SOL    HW217352   3.337   3.132   4.835  1.4562  0.0439 -0.2233
 1907SOL     OW17353   1.786   4.014   5.054 -0.5713  0.4910  0.4406
 1907SOL    HW117354   1.794   3.928   5.095  0.4364  0.3864  0.0165
 1907SOL    HW217355   1.852   4.071   5.093  0.6735 -1.1004  0.6764
 1908SOL     OW17356   1.834   1.741   7.597  0.3415 -0.2979 -0.2766
 1908SOL    HW117357   1.868   1.781   7.517 -0.9893  0.8619 -0.2727
 1908SOL    HW217358   1.874   1.796   7.665 -2.1424 -0.0664  1.0382
 1909SOL     OW17359   3.111   4.089   8.894 -0.2802 -0.0809  0.1239
 1909SOL    HW117360   3.029   4.047   8.921 -0.0152 -0.9429 -0.4243
 1909SOL    HW217361   3.167   4.014   8.873  1.7016  1.8885 -1.6696
 1910SOL     OW17362   2.020   0.179   0.162 -0.2311  0.2820 -0.0081
 1910SOL    HW117363   2.039   0.247   0.227  2.9585  0.0034 -0.6316
 1910SOL    HW217364   1.942   0.223   0.129 -0.8905 -0.6082  0.3476
 1911SOL     OW17365   3.836   1.035   8.001  0.1675 -0.0323 -0.3480
 1911SOL    HW117366   3.773   1.044   7.929  2.0107  1.6113 -1.7947
 1911SOL    HW217367   3.816   0.956   8.049  1.1720 -0.1372 -0.1006
 1912SOL     OW17368   0.133   4.031   6.585  0.2434 -0.0159  0.2772
 1912SOL    HW117369   0.042   4.017   6.561 -0.2780 -0.9186  2.7467
 1912SOL    HW217370   0.164   3.943   6.562 -1.1431  0.0941 -1.9773
 1913SOL     OW17371   0.347   4.190  10.003 -0.3853 -0.5422 -0.5684
 1913SOL    HW117372   0.308   4.103  10.015 -0.1233 -0.1722  2.7247
 1913SOL    HW217373   0.325   4.244  10.078  3.4665 -1.9951  1.6038
 1914SOL     OW17374   0.968   2.596   8.040 -0.0594  0.2698 -0.6253
 1914SOL    HW117375   1.042   2.542   8.065  0.5690  1.9359  1.1004
 1914SOL    HW217376   0.999   2.674   8.086 -3.1991  0.2409  1.6042
 1915SOL     OW17377   0.907   1.602   0.995  0.3456  0.3345  0.4340
 1915SOL    HW117378   0.919   1.606   0.900 -1.4185 -2.7191  0.0707
 1915SOL    HW217379   0.841   1.669   1.009 -2.0155 -1.5193 -1.8035
 1916SOL     OW17380   3.323   2.474   4.206 -0.3367 -0.4612 -1.1669
 1916SOL    HW117381   3.317   2.462   4.112  1.8238 -0.5641 -1.2977
 1916SOL    HW217382   3.410   2.434   4.211 -0.7329 -0.9741  1.8195
 1917SOL     OW17383   3.049   4.213   8.644 -0.2941 -0.1485  0.1049
 1917SOL    HW117384   3.090   4.188   8.726  1.2014 -0.3862 -0.7159
 1917SOL    HW217385   3.113   4.180   8.581  0.0941  1.5264 -0.3695
 1918SOL     OW17386   3.990   2.811   5.988 -0.2704  0.2830  0.6754
 1918SOL    HW117387   3.950   2.797   5.902  1.5569 -1.0106  0.0380
 1918SOL    HW217388   4.049   2.883   5.966  1.4715 -0.3248  3.3368
 1919SOL     OW17389   1.168   4.587   2.854 -0.0613  0.5604  0.2399
 1919SOL    HW117390   1.085   4.544   2.836 -0.5366  1.5091  0.1333
 1919SOL    HW217391   1.200   4.589   2.764 -1.5825  0.1856 -0.3177
 1920SOL     OW17392   3.515   2.348   3.316  0.3365  0.1660 -0.0892
 1920SOL    HW117393   3.602   2.374   3.347  1.1217 -0.4135 -1.8305
 1920SOL    HW217394   3.519   2.374   3.224  0.3548  0.1936 -0.0808
 1921SOL     OW17395   2.371   3.309   1.567  0.1761 -0.2028  0.3850
 1921SOL    HW117396   2.382   3.218   1.539  0.5652 -0.6161  1.8883
 1921SOL    HW217397   2.300   3.313   1.631  0.4515  2.2018  0.5381
 1922SOL     OW17398   3.587   0.313   0.708 -0.2615  0.0081  0.4595
 1922SOL    HW117399   3.555   0.265   0.632  1.4631 -0.5901  0.0907
 1922SOL    HW217400   3.661   0.256   0.731  1.2075  1.0182 -1.8284
 1923SOL     OW17401   3.140   0.532   2.192 -0.8776 -0.4446 -0.8481
 1923SOL    HW117402   3.119   0.615   2.234  2.2961  0.8831 -1.9430
 1923SOL    HW217403   3.098   0.472   2.254  1.9906 -4.4959 -2.7796
 1924SOL     OW17404   0.207   1.768   4.400 -0.2058 -0.1918  0.1149
 1924SOL    HW117405   0.284   1.780   4.345 -0.3516 -1.1107 -0.2895
 1924SOL    HW217406   0.171   1.855   4.385  2.6540  1.1201  0.7444
 1925SOL     OW17407   0.161   4.476   5.100 -0.0113  0.0172  0.0672
 1925SOL    HW117408   0.090   4.523   5.145  1.3767  1.7595  0.4193
 1925SOL    HW217409   0.183   4.416   5.171 -1.7874 -1.6109 -0.7421
 1926SOL     OW17410   4.535   4.204   7.766  0.4042  0.0570 -0.1773
 1926SOL    HW117411   4.591   4.250   7.703  2.0486  0.1866  1.4022
 1926SOL    HW217412   4.498   4.139   7.706  0.1008  0.4954 -0.4731
 1927SOL     OW17413   3.570   1.473   9.899 -0.2804  0.2736  0.1827
 1927SOL    HW117414   3.608   1.402   9.847 -1.7206 -2.1697  2.4538
 1927SOL    HW217415   3.634   1.541   9.877  1.4869 -1.6191 -0.5888
 1928SOL     OW17416   2.750   0.901   4.802  0.5781  0.3707 -0.4212
 1928SOL    HW117417   2.797   0.935   4.726 -0.9193 -0.8819 -1.9089
 1928SOL    HW217418   2.793   0.956   4.868  2.2953 -0.6507 -0.6755
 1929SOL     OW17419   1.764   0.191  12.622  0.2395 -0.3005  0.6024
 1929SOL    HW117420   1.711   0.116  12.651  1.4848 -2.0616 -1.7365
 1929SOL    HW217421   1.700   0.236  12.566 -0.0924  0.3376  1.4783
 1930SOL     OW17422   2.813   0.368   0.090 -0.1614 -0.0271  0.3670
 1930SOL    HW117423   2.785   0.371  17.728  1.1805 -0.4118 -0.0478
 1930SOL    HW217424   2.773   0.450   0.119 -2.2904  0.0907 -2.8682
 1931SOL     OW17425   4.198   3.198  11.965 -0.4156 -0.1234  0.8913
 1931SOL    HW117426   4.187   3.193  12.060 -1.2265 -1.6685  0.7280
 1931SOL    HW217427   4.167   3.288  11.957  3.1168  0.9348 -0.9425
 1932SOL     OW17428   2.327   2.985   3.510 -0.3628 -0.4364  0.2125
 1932SOL    HW117429   2.249   2.940   3.541 -0.8226  0.8629  0.9668
 1932SOL    HW217430   2.302   2.999   3.419  1.6258  1.1275 -0.1031
 1933SOL     OW17431   0.445   2.332  16.788  0.3496 -0.3698  0.2144
 1933SOL    HW117432   0.470   2.302  16.700  0.3457  0.6788 -0.1434
 1933SOL    HW217433   0.529   2.370  16.813 -0.2919  0.2780  1.3605
 1934SOL     OW17434   1.231   2.323   7.171  0.4132  0.4314 -0.5436
 1934SOL    HW117435   1.218   2.396   7.111 -0.6819  0.4521 -0.2767
 1934SOL    HW217436   1.191   2.361   7.249 -1.1520  0.1170 -1.1981
 1935SOL     OW17437   2.840   1.181   2.599  0.7021  0.1956 -0.1940
 1935SOL    HW117438   2.917   1.137   2.563 -0.0328 -1.6693  0.5232
 1935SOL    HW217439   2.778   1.174   2.526 -0.1702 -1.2375  0.6982
 1936SOL     OW17440   0.144   3.215  16.376  0.2498  0.5558 -1.0104
 1936SOL    HW117441   0.084   3.212  16.301 -1.3468  0.4470  0.2506
 1936SOL    HW217442   0.131   3.306  16.400  1.4615 -0.2506  2.7316
 1937SOL     OW17443   4.468   4.323   4.321 -0.1260  0.3905  0.9447
 1937SOL    HW117444   4.477   4.284   4.408 -1.5450 -0.1248  0.8592
 1937SOL    HW217445   4.561   4.340   4.302  0.1968 -0.5796  1.6086
 1938SOL     OW17446   1.479   2.109   8.049 -0.3340 -0.0885  0.1268
 1938SOL    HW117447   1.459   2.202   8.037 -0.1163 -0.1246 -0.5370
 1938SOL    HW217448   1.570   2.105   8.020 -0.9183 -0.5754 -1.6796
 1939SOL     OW17449   2.567   3.011   7.072  0.0614  0.8983 -0.1409
 1939SOL    HW117450   2.630   2.944   7.044 -0.9504 -0.0723 -0.1084
 1939SOL    HW217451   2.520   2.966   7.142 -1.1988  2.8149  0.2349
 1940SOL     OW17452   3.256   0.566   3.612  0.4649  0.0511  0.3515
 1940SOL    HW117453   3.344   0.538   3.587  1.2165  1.6314  1.1947
 1940SOL    HW217454   3.263   0.559   3.708  2.3488  0.3774  0.2419
 1941SOL     OW17455   3.906   1.942   5.930  0.2116 -0.7043 -0.1629
 1941SOL    HW117456   3.843   1.997   5.976  0.3194 -2.8617  2.5646
 1941SOL    HW217457   3.922   1.990   5.849  1.0078 -1.3851 -0.4152
 1942SOL     OW17458   0.096   3.699   6.173 -0.1579  0.0716  0.4131
 1942SOL    HW117459   0.167   3.636   6.161 -0.2307  0.6086 -3.0140
 1942SOL    HW217460   0.042   3.653   6.237 -0.7899 -0.6038 -0.6072
 1943SOL     OW17461   2.233   4.374   4.664 -0.1226 -0.1497 -0.7684
 1943SOL    HW117462   2.249   4.467   4.677 -0.7256 -0.3137  1.1889
 1943SOL    HW217463   2.181   4.351   4.742  0.8125 -0.8465 -0.3508
 1944SOL     OW17464   1.622   3.019   7.069  0.6055 -0.0109  0.4650
 1944SOL    HW117465   1.637   2.942   7.014 -0.6221 -0.3562  0.6191
 1944SOL    HW217466   1.540   3.047   7.028  0.9987  0.3919 -0.0656
 1945SOL     OW17467   0.597   3.209   7.048 -0.0749  0.6504 -0.1195
 1945SOL    HW117468   0.567   3.128   7.007  0.5786  1.1638 -1.6446
 1945SOL    HW217469   0.684   3.186   7.079 -0.5904 -0.9044  0.1908
 1946SOL     OW17470   1.711   3.180   5.496 -0.2435 -0.3069 -0.0845
 1946SOL    HW117471   1.633   3.233   5.481  0.2572 -0.4800 -3.2728
 1946SOL    HW217472   1.763   3.183   5.416  1.6475  0.1881  1.1544
 1947SOL     OW17473   2.014   2.256   6.682 -0.0542 -0.0797 -0.7188
 1947SOL    HW117474   2.008   2.249   6.777 -1.4802 -0.2410 -0.8133
 1947SOL    HW217475   1.998   2.168   6.648  0.1821  0.8693 -3.2474
 1948SOL     OW17476   1.700   4.297   2.197  0.0768  0.0956 -0.0496
 1948SOL    HW117477   1.736   4.225   2.145  1.1702  1.3427 -1.0148
 1948SOL    HW217478   1.780   4.345   2.218  0.3077  0.2140 -1.2107
 1949SOL     OW17479   0.903   4.584   3.535 -0.4739 -0.1068  0.8704
 1949SOL    HW117480   0.944   4.511   3.489  3.1458  0.9882  2.3316
 1949SOL    HW217481   0.880   4.636   3.458  3.7800 -1.3088 -1.1856
 1950SOL     OW17482   0.268   0.869   3.838 -0.0952 -0.0046 -0.3437
 1950SOL    HW117483   0.290   0.939   3.777  1.1297 -1.3785 -1.4878
 1950SOL    HW217484   0.185   0.837   3.801 -0.3081 -2.7904  2.5964
 1951SOL     OW17485   4.683   3.147   4.514 -0.0923 -0.1796  0.4548
 1951SOL    HW117486   4.593   3.120   4.530 -0.3231 -0.1952 -0.8469
 1951SOL    HW217487   4.725   3.076   4.563 -3.8432 -1.4242  1.8959
 1952SOL     OW17488   4.347   3.628   3.151  0.2064  0.0288  0.1397
 1952SOL    HW117489   4.395   3.634   3.234  1.5440  2.3650 -0.7905
 1952SOL    HW217490   4.263   3.589   3.174  1.2103  0.0083  3.7700
 1953SOL     OW17491   0.166   2.145   2.837 -0.0188 -0.0119  0.0087
 1953SOL    HW117492   0.085   2.194   2.852 -1.1868 -1.5597 -1.2708
 1953SOL    HW217493   0.152   2.052   2.858  1.2458 -0.6542 -1.9600
 1954SOL     OW17494   1.833   1.693   4.279 -0.3562  0.1383  0.1254
 1954SOL    HW117495   1.900   1.648   4.331 -0.4580  1.5333  1.4639
 1954SOL    HW217496   1.765   1.689   4.346 -0.2039  0.4144  0.2956
 1955SOL     OW17497   1.424   2.511  16.219  0.0064 -0.2405  0.2976
 1955SOL    HW117498   1.400   2.431  16.173  1.1137 -0.3528 -0.0937
 1955SOL    HW217499   1.459   2.559  16.143 -1.0633  1.4869  0.8933
 1956SOL     OW17500   4.592   2.172  15.788  0.0320 -0.4353  0.1558
 1956SOL    HW117501   4.560   2.248  15.740  1.0950  0.0320  0.1915
 1956SOL    HW217502   4.664   2.145  15.731 -0.4849 -0.9044 -0.2826
 1957SOL     OW17503   1.572   2.695   9.016  0.2147 -0.3820  0.0279
 1957SOL    HW117504   1.562   2.786   9.041 -5.1255 -0.6121 -1.1676
 1957SOL    HW217505   1.658   2.698   8.973 -0.4073 -1.1683 -1.3017
 1958SOL     OW17506   0.561   2.360   5.964 -0.1617  0.3381  0.5808
 1958SOL    HW117507   0.621   2.400   5.900 -0.2979 -2.2630 -1.1746
 1958SOL    HW217508   0.627   2.311   6.012  0.8251  1.4254  0.3337
 1959SOL     OW17509   0.965   4.407   5.077 -0.0689 -0.1890 -0.1821
 1959SOL    HW117510   0.926   4.417   5.164 -0.6741  0.2109 -0.5015
 1959SOL    HW217511   0.970   4.312   5.070  1.3496 -0.0647 -0.7492
 1960SOL     OW17512   0.516   4.340  13.172 -0.8872  0.2665  0.2314
 1960SOL    HW117513   0.464   4.391  13.233  2.1686  1.9618  1.4178
 1960SOL    HW217514   0.486   4.255  13.206  1.1379 -0.9403 -0.9668
 1961SOL     OW17515   0.263   2.942   6.663  0.3820  0.2257 -0.0012
 1961SOL    HW117516   0.234   2.852   6.676  0.9894 -0.1700 -1.4556
 1961SOL    HW217517   0.345   2.914   6.624  0.5720  0.6530  0.0949
 1962SOL     OW17518   2.660   1.019   7.862  0.2625  0.2313 -0.4996
 1962SOL    HW117519   2.730   0.964   7.827  0.0866 -0.7769  0.7077
 1962SOL    HW217520   2.596   0.952   7.886  1.8657 -0.7571  1.0828
 1963SOL     OW17521   1.622   3.154   2.258 -0.2556  0.3870  0.6198
 1963SOL    HW117522   1.577   3.201   2.189 -1.7110  0.3380  1.5452
 1963SOL    HW217523   1.658   3.225   2.312 -0.1947  0.6226  0.2692
 1964SOL     OW17524   3.474   3.704   5.858  0.2435 -0.0180 -0.0830
 1964SOL    HW117525   3.560   3.688   5.897  0.6667  0.2381 -0.9184
 1964SOL    HW217526   3.419   3.716   5.935  0.9425 -0.9767  0.5765
 1965SOL     OW17527   1.000   2.189  14.244  0.2807 -0.0995 -0.5670
 1965SOL    HW117528   1.062   2.237  14.190  2.0527 -0.2199  1.3808
 1965SOL    HW217529   0.948   2.260  14.282  1.6908  1.0774 -0.8626
 1966SOL     OW17530   3.807   1.613   1.176  0.8115  0.5094  0.1317
 1966SOL    HW117531   3.758   1.691   1.149  0.7218  0.2945 -0.3129
 1966SOL    HW217532   3.822   1.567   1.094  0.9482  0.2766  0.2868
 1967SOL     OW17533   3.659   1.864  17.192  0.2408  0.1142  0.4252
 1967SOL    HW117534   3.628   1.833  17.278  0.9394 -0.5529  0.4410
 1967SOL    HW217535   3.591   1.924  17.162  1.9327  1.2978 -1.0080
 1968SOL     OW17536   4.375   4.447   7.989  0.3746  0.0281 -0.1397
 1968SOL    HW117537   4.381   4.536   8.023  1.0665  0.0288 -0.2602
 1968SOL    HW217538   4.425   4.453   7.907  0.6213  0.0397  0.0104
 1969SOL     OW17539   2.948   0.377   4.050  0.4380 -0.4064 -0.5490
 1969SOL    HW117540   3.008   0.425   3.992  1.1937 -0.9080 -0.1802
 1969SOL    HW217541   2.883   0.346   3.988 -0.8231  0.3210  0.3990
 1970SOL     OW17542   2.389   3.667   5.206 -0.0207  0.2711  0.2506
 1970SOL    HW117543   2.424   3.601   5.146 -0.2678 -0.1262  0.5443
 1970SOL    HW217544   2.318   3.626   5.256  1.8523 -1.8513  1.1382
 1971SOL     OW17545   3.635   2.787   7.374 -0.3288 -0.0441 -0.0758
 1971SOL    HW117546   3.676   2.835   7.303 -2.6895 -0.0765 -1.4603
 1971SOL    HW217547   3.711   2.743   7.411  0.5278  0.0514 -1.7158
 1972SOL     OW17548   2.863   3.001   5.387 -0.3808  0.0032 -0.2535
 1972SOL    HW117549   2.843   3.046   5.305  0.8641 -1.9952 -1.6717
 1972SOL    HW217550   2.794   3.030   5.446 -1.1949 -0.3487 -1.0383
 1973SOL     OW17551   1.611   2.235   2.475 -0.2123 -0.5187  0.3050
 1973SOL    HW117552   1.647   2.202   2.558  1.2273  0.9620  0.2727
 1973SOL    HW217553   1.578   2.155   2.433  0.8118 -0.3708 -0.7766
 1974SOL     OW17554   0.916   1.523   5.272  0.3895 -0.4235  0.1150
 1974SOL    HW117555   0.859   1.600   5.263 -0.3418 -0.8637  1.0543
 1974SOL    HW217556   0.982   1.556   5.210 -1.7043  0.7725 -1.4665
 1975SOL     OW17557   1.951   2.254   7.937  0.1615 -0.2098  0.2712
 1975SOL    HW117558   1.990   2.277   8.022  1.4935 -0.9550 -0.1443
 1975SOL    HW217559   2.029   2.253   7.882  1.7058  0.7476  2.4311
 1976SOL     OW17560   2.396   0.473   2.111 -0.1298 -0.1912 -0.2190
 1976SOL    HW117561   2.469   0.421   2.076 -0.8403 -1.4369  0.1619
 1976SOL    HW217562   2.429   0.500   2.197  0.5897  0.6335 -0.7485
 1977SOL     OW17563   1.001   0.748  10.970  0.3614 -0.3918 -0.2263
 1977SOL    HW117564   0.914   0.752  10.930 -1.1511  1.4613  3.1898
 1977SOL    HW217565   0.974   0.695  11.046  0.0137 -0.8319 -0.6592
 1978SOL     OW17566   2.509   0.301  16.015  0.4637 -0.3379 -0.2615
 1978SOL    HW117567   2.521   0.361  16.089 -1.4849  3.3147 -2.8686
 1978SOL    HW217568   2.568   0.235  16.049 -0.8482 -0.7703  1.1990
 1979SOL     OW17569   3.400   1.432   7.093 -0.0303 -0.3485  0.1195
 1979SOL    HW117570   3.430   1.492   7.161 -0.4738  1.5648 -1.3366
 1979SOL    HW217571   3.479   1.390   7.059  1.1986  1.5474  0.6218
 1980SOL     OW17572   2.555   1.954   5.342  0.4973  0.3539  0.0971
 1980SOL    HW117573   2.646   1.927   5.351  0.2008 -0.6294  0.1520
 1980SOL    HW217574   2.566   2.049   5.347  2.1310  0.1202  0.7212
 1981SOL     OW17575   2.457   0.267  11.631 -0.3581  0.0549 -0.1682
 1981SOL    HW117576   2.524   0.328  11.663 -0.1586  0.5183 -1.4417
 1981SOL    HW217577   2.400   0.333  11.592 -1.2168  0.1111  1.1797
 1982SOL     OW17578   3.292   2.596  12.707  0.2961  0.1706  0.1969
 1982SOL    HW117579   3.358   2.545  12.659 -0.0670  0.7366 -0.9024
 1982SOL    HW217580   3.323   2.684  12.688  0.8585 -0.0859 -0.0778
 1983SOL     OW17581   3.344   0.176   7.868  0.3033 -0.9128  0.1487
 1983SOL    HW117582   3.330   0.127   7.787  0.4113  1.8460 -1.5588
 1983SOL    HW217583   3.299   0.116   7.928  2.6641 -0.7792  2.0658
 1984SOL     OW17584   4.108   1.111  12.850  0.1261 -0.1572  0.4223
 1984SOL    HW117585   4.158   1.029  12.846  0.8753  0.4675 -3.1604
 1984SOL    HW217586   4.051   1.098  12.926  0.9308  1.4644  1.2964
 1985SOL     OW17587   1.770   0.270  15.205  0.3515 -0.4138  0.2022
 1985SOL    HW117588   1.859   0.277  15.169 -0.5480 -0.4413 -2.0080
 1985SOL    HW217589   1.786   0.191  15.258  0.1577 -0.5796  0.0142
 1986SOL     OW17590   2.485   0.033   2.200  0.3341 -0.5205  0.2959
 1986SOL    HW117591   2.473   4.674   2.227  1.0847 -0.0746  2.1893
 1986SOL    HW217592   2.395   0.050   2.171  0.5116 -0.9467 -0.5069
 1987SOL     OW17593   1.865   3.229   5.262  0.6605 -0.5065 -0.0123
 1987SOL    HW117594   1.772   3.251   5.254  0.3639 -1.3505  1.1237
 1987SOL    HW217595   1.891   3.321   5.257  0.6940 -0.6289 -2.1205
 1988SOL     OW17596   3.665   1.842   8.097 -0.1211  0.0276  0.3634
 1988SOL    HW117597   3.760   1.846   8.081 -0.1591 -2.4879 -0.5310
 1988SOL    HW217598   3.656   1.767   8.156  0.7234 -2.0459 -2.1359
 1989SOL     OW17599   1.645   0.279   2.615 -0.2641  0.1825  0.1133
 1989SOL    HW117600   1.656   0.204   2.674  3.1619  0.5794 -0.0436
 1989SOL    HW217601   1.567   0.320   2.652 -0.4769 -1.9389  2.0676
 1990SOL     OW17602   3.490   1.510  16.416  0.3721  0.6746  0.0225
 1990SOL    HW117603   3.417   1.537  16.361  0.7545  0.4483 -0.5975
 1990SOL    HW217604   3.503   1.597  16.455  0.9194 -0.6329  2.7590
 1991SOL     OW17605   4.210   0.945   2.803 -0.4254  0.7570 -0.0641
 1991SOL    HW117606   4.180   0.863   2.763  0.1667  1.8776 -2.8087
 1991SOL    HW217607   4.142   0.965   2.867 -0.1445 -0.9313  0.7748
 1992SOL     OW17608   1.432   3.872   3.845 -0.1043  0.4194 -0.5098
 1992SOL    HW117609   1.504   3.809   3.837 -0.8107 -0.3532 -0.7860
 1992SOL    HW217610   1.458   3.920   3.923  0.1331  1.8393 -1.4751
 1993SOL     OW17611   0.264   4.514  12.419 -0.0683 -0.1086 -0.3245
 1993SOL    HW117612   0.323   4.493  12.492 -2.0253  1.2547  1.6534
 1993SOL    HW217613   0.303   4.596  12.391  0.0860  0.2877  1.0454
 1994SOL     OW17614   1.603   3.512   2.593  0.3728 -0.0874 -0.2658
 1994SOL    HW117615   1.651   3.594   2.585 -0.5460  0.7336  2.5475
 1994SOL    HW217616   1.623   3.474   2.507 -0.8879  1.3363 -1.1819
 1995SOL     OW17617   0.070   4.462   3.439 -0.5028 -0.1565  0.1421
 1995SOL    HW117618   0.101   4.550   3.461  5.8227 -2.0615 -1.0954
 1995SOL    HW217619   4.718   4.462   3.483 -1.0467 -0.2062 -0.8914
 1996SOL     OW17620   2.342   2.347   4.569 -0.0113  0.5474  0.3408
 1996SOL    HW117621   2.417   2.298   4.602 -0.2158 -1.1836 -1.6889
 1996SOL    HW217622   2.391   2.412   4.520  0.2853  0.0580 -0.0177
 1997SOL     OW17623   0.161   0.405   7.063 -0.6062 -0.2766 -0.1865
 1997SOL    HW117624   0.215   0.378   7.137  0.3874  1.6973 -0.1984
 1997SOL    HW217625   0.202   0.373   6.982  2.0854 -1.2610  1.5558
 1998SOL     OW17626   4.646   0.664   7.395  0.0285 -0.1193  0.0003
 1998SOL    HW117627   4.558   0.697   7.377  0.0979 -0.3328 -0.7042
 1998SOL    HW217628   4.694   0.712   7.327  0.0708 -0.4025 -0.1684
 1999SOL     OW17629   1.797   3.908  17.713  0.0585 -0.1411  0.2249
 1999SOL    HW117630   1.720   3.949  17.674 -0.9281 -0.1828  2.1471
 1999SOL    HW217631   1.822   3.979   0.042 -1.2893  0.2625  0.2959
 2000SOL     OW17632   2.020   1.986   9.928 -0.3123  0.0930 -0.0396
 2000SOL    HW117633   2.095   1.932   9.905  0.1010  0.3033  0.8283
 2000SOL    HW217634   1.957   1.917   9.949 -2.8234  1.9766 -1.2769
 2001SOL     OW17635   1.677   0.414   0.484  0.2603 -0.3473 -0.2159
 2001SOL    HW117636   1.598   0.370   0.454 -1.9028  2.4876  1.3261
 2001SOL    HW217637   1.651   0.505   0.471  0.9863 -0.0694  0.3149
 2002SOL     OW17638   3.857   2.139   3.124 -0.1192  0.4466 -0.0169
 2002SOL    HW117639   3.861   2.081   3.048  0.5830  2.8270 -1.7862
 2002SOL    HW217640   3.810   2.214   3.088  1.1179  0.8444 -0.8207
 2003SOL     OW17641   0.254   4.485   5.597  0.6155  0.5398  0.3102
 2003SOL    HW117642   0.178   4.496   5.541 -1.2854 -1.9519  2.4377
 2003SOL    HW217643   0.289   4.574   5.586 -1.1883  0.8508 -2.9074
 2004SOL     OW17644   4.331   2.484  12.075  0.5482 -0.0451  0.4711
 2004SOL    HW117645   4.306   2.562  12.125 -1.2981 -0.8472  0.7784
 2004SOL    HW217646   4.324   2.518  11.986 -3.0792  0.1050  0.8450
 2005SOL     OW17647   2.273   1.017   7.861 -0.4694 -0.6243 -0.3797
 2005SOL    HW117648   2.328   1.026   7.784 -2.1610 -0.3158 -1.5611
 2005SOL    HW217649   2.206   0.954   7.833 -2.1141  0.3160  1.4106
 2006SOL     OW17650   1.691   0.231   0.855 -0.1922 -0.1025  0.3484
 2006SOL    HW117651   1.682   0.318   0.815 -0.7478  0.7572  2.3162
 2006SOL    HW217652   1.766   0.254   0.910 -1.6277  0.5097  2.0395
 2007SOL     OW17653   2.047   1.390  10.498  1.0283 -0.0802 -0.5569
 2007SOL    HW117654   2.082   1.314  10.452 -0.0152  1.4000 -3.7440
 2007SOL    HW217655   1.953   1.371  10.497  0.9333  0.4458 -1.4308
 2008SOL     OW17656   4.287   2.472   2.283  0.0739  0.0688  0.3963
 2008SOL    HW117657   4.263   2.525   2.208  1.2831  1.8698  1.2736
 2008SOL    HW217658   4.348   2.531   2.329  0.9375 -1.7383  1.5936
 2009SOL     OW17659   0.775   1.760   5.243  0.4536  0.0996  0.2173
 2009SOL    HW117660   0.789   1.826   5.176 -1.8147  1.6390  1.2515
 2009SOL    HW217661   0.792   1.813   5.321  2.0196  1.2542 -0.9245
 2010SOL     OW17662   2.268   2.781  10.472 -0.0311 -0.4209 -0.5332
 2010SOL    HW117663   2.291   2.866  10.509  3.4018 -2.6899  2.5350
 2010SOL    HW217664   2.199   2.798  10.408 -0.0954  1.4868  0.0372
 2011SOL     OW17665   4.297   3.050   0.395  0.9457  0.2609  0.2094
 2011SOL    HW117666   4.316   3.048   0.301  0.2537 -1.9805  0.1105
 2011SOL    HW217667   4.224   2.990   0.410  0.9965 -0.7620 -3.6872
 2012SOL     OW17668   0.062   2.286   5.199 -0.3534  0.1794  0.3456
 2012SOL    HW117669   0.041   2.358   5.257 -0.5527  1.3369 -1.1626
 2012SOL    HW217670   4.720   2.283   5.140 -0.4620 -1.6738  0.5504
 2013SOL     OW17671   1.396   0.514   9.276  0.4525 -0.1101 -0.5064
 2013SOL    HW117672   1.401   0.604   9.309  0.0337 -0.1243 -0.4068
 2013SOL    HW217673   1.310   0.494   9.313 -0.6408  2.9237 -1.3936
 2014SOL     OW17674   3.840   4.504   7.337 -0.7213  0.0993 -0.0671
 2014SOL    HW117675   3.822   4.573   7.401  2.0235  1.1321 -0.4040
 2014SOL    HW217676   3.870   4.437   7.397  0.9988  0.1235 -0.9066
 2015SOL     OW17677   3.540   1.056   7.538 -0.9391  0.0867  0.4799
 2015SOL    HW117678   3.576   0.968   7.551 -0.6892  0.4748  2.3715
 2015SOL    HW217679   3.546   1.063   7.443  0.1741 -0.9157  0.4715
 2016SOL     OW17680   1.721   0.966   4.085  0.7819 -0.0615 -0.0608
 2016SOL    HW117681   1.795   1.014   4.048  0.7911 -1.2863 -1.6201
 2016SOL    HW217682   1.682   0.913   4.015 -1.9545  0.5424  1.0192
 2017SOL     OW17683   0.390   0.584   5.480 -0.3696  0.0507 -0.4621
 2017SOL    HW117684   0.307   0.538   5.468 -1.0764  1.9269 -3.0093
 2017SOL    HW217685   0.458   0.527   5.444 -0.1953 -0.4507  0.6711
 2018SOL     OW17686   1.070   3.354  14.572 -1.1454  0.9323 -0.0846
 2018SOL    HW117687   1.119   3.298  14.632  0.7898  0.3884 -2.2108
 2018SOL    HW217688   1.030   3.292  14.511  1.8603 -0.0928 -0.9867
 2019SOL     OW17689   3.999   2.850  12.470  0.5901  0.4280 -0.2140
 2019SOL    HW117690   4.038   2.937  12.483  3.3011 -1.0979  1.8640
 2019SOL    HW217691   3.999   2.839  12.375 -3.2012 -0.2988 -0.1392
 2020SOL     OW17692   2.787   3.731   4.559  0.4098 -0.1723  0.4181
 2020SOL    HW117693   2.692   3.733   4.569  0.5385  2.2229  1.2283
 2020SOL    HW217694   2.802   3.640   4.535  1.6367  0.7764 -2.4064
 2021SOL     OW17695   3.465   2.837  12.331 -0.3853  0.2148  0.5014
 2021SOL    HW117696   3.547   2.857  12.376  0.0781 -1.7960  0.5594
 2021SOL    HW217697   3.418   2.792  12.402  2.1767 -3.3637 -0.0879
 2022SOL     OW17698   4.299   3.730   8.576  0.2409  0.2139 -0.5144
 2022SOL    HW117699   4.242   3.766   8.508  0.8340 -0.9524 -1.6375
 2022SOL    HW217700   4.278   3.774   8.658  0.3795  1.1212 -0.9693
 2023SOL     OW17701   3.639   2.176   8.833 -0.0558  0.3849 -0.3176
 2023SOL    HW117702   3.653   2.181   8.738 -0.4460  0.6647 -0.3604
 2023SOL    HW217703   3.677   2.256   8.869  1.7281 -1.2899  1.4852
 2024SOL     OW17704   0.314   3.039   5.771  0.5834  0.0651  0.4541
 2024SOL    HW117705   0.224   3.059   5.748  1.1923  1.3262 -0.8279
 2024SOL    HW217706   0.357   3.087   5.700  1.9543 -0.6359  0.8183
 2025SOL     OW17707   2.754   4.368   7.612  0.7786 -0.0541 -0.1422
 2025SOL    HW117708   2.682   4.405   7.561  0.9575  1.3764  0.6433
 2025SOL    HW217709   2.718   4.377   7.700  2.0015  0.5524  0.2948
 2026SOL     OW17710   2.778   2.769  10.238  0.2982 -0.1379  0.0922
 2026SOL    HW117711   2.699   2.785  10.289  0.0294  1.4463 -0.8294
 2026SOL    HW217712   2.814   2.857  10.227 -0.3974  0.0241 -0.9227
 2027SOL     OW17713   4.448   4.701   4.245  0.3236 -0.6187 -0.7781
 2027SOL    HW117714   4.377   4.667   4.299 -0.4780  0.1008 -1.3742
 2027SOL    HW217715   4.408   4.689   4.159 -2.2964 -1.2893  0.5274
 2028SOL     OW17716   2.212   4.433   4.113 -0.6004 -0.2606  0.1871
 2028SOL    HW117717   2.246   4.426   4.202  0.1815 -2.3003 -0.2735
 2028SOL    HW217718   2.173   4.521   4.115 -2.1646 -0.9184 -1.1579
 2029SOL     OW17719   2.610   0.730   1.581  0.2899  0.4016 -0.4162
 2029SOL    HW117720   2.648   0.817   1.596 -1.2865  0.5079  2.8668
 2029SOL    HW217721   2.584   0.727   1.489  0.5043 -1.1201 -0.4135
 2030SOL     OW17722   3.125   2.752  11.664  0.1601  0.1956  0.4294
 2030SOL    HW117723   3.181   2.744  11.741  1.7602  0.1950 -0.7423
 2030SOL    HW217724   3.171   2.695  11.603 -0.2308 -0.7138  0.9733
 2031SOL     OW17725   3.983   1.883   6.449 -0.1503  0.0996  0.4000
 2031SOL    HW117726   4.045   1.949   6.416  2.5677 -2.3719  0.5860
 2031SOL    HW217727   3.943   1.842   6.372  0.1052 -1.6339  1.2116
 2032SOL     OW17728   0.924   3.853  12.330  0.9040 -0.7655  0.4556
 2032SOL    HW117729   0.903   3.760  12.338 -1.4463 -0.1798  1.0476
 2032SOL    HW217730   0.870   3.882  12.404  1.0607  0.0245  0.2642
 2033SOL     OW17731   2.504   3.129  11.002  0.0792  0.5073  0.0745
 2033SOL    HW117732   2.414   3.108  11.026 -0.1937 -0.6902 -1.9071
 2033SOL    HW217733   2.553   3.053  11.035 -2.4414 -1.4557 -0.7031
 2034SOL     OW17734   3.620   3.785  14.912 -0.2437 -0.1577 -0.0378
 2034SOL    HW117735   3.530   3.756  14.927 -0.3338 -0.7837 -1.7983
 2034SOL    HW217736   3.605   3.793  14.818 -1.4848 -2.2877 -0.0110
 2035SOL     OW17737   4.667   0.281   3.848 -0.2626 -0.2444  0.5144
 2035SOL    HW117738   4.649   0.187   3.856  0.3486 -0.2821  1.4278
 2035SOL    HW217739   4.586   0.322   3.878 -0.7151 -1.7460  1.3823
 2036SOL     OW17740   4.533   3.545   5.614  0.2771 -0.4241 -0.4203
 2036SOL    HW117741   4.485   3.624   5.641 -0.4323 -1.5028  1.4585
 2036SOL    HW217742   4.507   3.548   5.522  1.3429  0.7011 -0.6804
 2037SOL     OW17743   0.283   1.947   7.220  0.1704  0.2527  0.2223
 2037SOL    HW117744   0.271   1.950   7.125 -0.0719  1.1834  0.2821
 2037SOL    HW217745   0.195   1.944   7.255  0.6078 -0.7995  1.2402
 2038SOL     OW17746   2.355   2.791   6.733  0.6777 -0.5741  0.0032
 2038SOL    HW117747   2.337   2.790   6.827  1.1036 -3.3521  0.0448
 2038SOL    HW217748   2.438   2.839   6.732 -0.4872  1.5279  3.0668
 2039SOL     OW17749   2.317   0.006   2.855  0.2990  0.0452  0.0601
 2039SOL    HW117750   2.326   4.658   2.805  1.1573  0.1213  0.0845
 2039SOL    HW217751   2.227   0.035   2.841  0.3561  0.4838  0.5981
 2040SOL     OW17752   1.929   2.311   8.968 -0.4055  0.4041  0.4508
 2040SOL    HW117753   2.005   2.253   8.974  1.2876  2.5268 -0.3688
 2040SOL    HW217754   1.927   2.336   9.060 -0.4229  0.0102  0.5581
 2041SOL     OW17755   3.202   2.918   9.962 -0.1359 -0.1313  0.0121
 2041SOL    HW117756   3.240   2.848   9.909  0.5647 -1.0873  1.7786
 2041SOL    HW217757   3.208   2.883  10.051  1.5638  1.2364  0.4547
 2042SOL     OW17758   3.162   3.304   4.276  0.1922 -0.0663 -0.3686
 2042SOL    HW117759   3.170   3.210   4.289 -0.0812  0.1484  1.3558
 2042SOL    HW217760   3.081   3.315   4.227  1.7152  0.7403 -2.7125
 2043SOL     OW17761   2.579   4.041  10.238  0.0913  0.6686  0.0255
 2043SOL    HW117762   2.595   4.045  10.144  1.2338  2.2830  0.3021
 2043SOL    HW217763   2.568   3.946  10.244  3.2650  0.2828 -0.0486
 2044SOL     OW17764   3.425   3.687   6.527 -0.0065  0.5815 -0.0927
 2044SOL    HW117765   3.465   3.734   6.454  1.3656 -1.3268 -0.5700
 2044SOL    HW217766   3.393   3.611   6.479 -1.9250  0.1829  1.8083
 2045SOL     OW17767   4.100   2.528   5.145  0.4003  0.0040 -0.2933
 2045SOL    HW117768   4.069   2.477   5.219  0.8426  1.6876  1.0584
 2045SOL    HW217769   4.057   2.614   5.149  1.2366  0.4619 -1.0730
 2046SOL     OW17770   1.334   0.403   4.451 -0.9372 -0.8821  0.4975
 2046SOL    HW117771   1.357   0.451   4.531 -1.8551  2.0536 -0.9959
 2046SOL    HW217772   1.270   0.339   4.483  0.0085 -2.3500 -0.5264
 2047SOL     OW17773   1.014   0.425   9.724 -0.5696 -0.0953 -0.5074
 2047SOL    HW117774   0.975   0.377   9.797  2.3682  0.3810  1.3472
 2047SOL    HW217775   0.932   0.472   9.704  0.6276  3.5901  3.3022
 2048SOL     OW17776   0.602   2.697   8.200  0.1395  0.0526 -0.2137
 2048SOL    HW117777   0.663   2.766   8.224 -1.1320  0.6131  1.4184
 2048SOL    HW217778   0.628   2.627   8.260 -0.6435  0.1995  0.2890
 2049SOL     OW17779   2.247   4.021   7.238  0.6865  0.1647 -0.3507
 2049SOL    HW117780   2.163   4.031   7.283 -0.2889  1.8886 -2.5739
 2049SOL    HW217781   2.227   3.951   7.176 -1.1179  0.6499 -0.2991
 2050SOL     OW17782   2.181   4.398   8.155 -0.2215 -0.1923 -0.8671
 2050SOL    HW117783   2.168   4.479   8.205  2.6425 -1.1808  1.4737
 2050SOL    HW217784   2.134   4.409   8.072  1.8804  0.8272 -1.9287
 2051SOL     OW17785   0.422   0.745   8.386  0.4305 -0.1688  0.6616
 2051SOL    HW117786   0.480   0.809   8.427  0.8502  0.9254 -1.6907
 2051SOL    HW217787   0.354   0.737   8.453  0.1788 -1.9654  0.2168
 2052SOL     OW17788   4.676   4.717  11.079 -0.2383 -0.1011 -0.3294
 2052SOL    HW117789   4.709   0.071  11.104  4.9131 -1.7487 -1.3588
 2052SOL    HW217790   4.595   4.713  11.128  0.8864 -0.2047  1.5265
 2053SOL     OW17791   3.514   0.607   5.696  0.0238  0.2212 -0.4133
 2053SOL    HW117792   3.569   0.645   5.764  1.8772 -0.6501 -1.4341
 2053SOL    HW217793   3.458   0.681   5.669  0.0129 -0.0769 -1.2070
 2054SOL     OW17794   2.529   2.939   5.257  0.9534 -0.2158 -0.2666
 2054SOL    HW117795   2.555   2.984   5.177 -1.1588  0.6527 -0.4796
 2054SOL    HW217796   2.503   2.853   5.223  0.6954 -0.2292 -0.0331
 2055SOL     OW17797   1.598   4.145   1.805 -0.2933  0.3687 -0.5040
 2055SOL    HW117798   1.624   4.230   1.841 -0.8933  0.9740 -1.4820
 2055SOL    HW217799   1.509   4.159   1.773 -0.4345  0.7714  0.0663
 2056SOL     OW17800   1.166   2.099   5.667 -0.0082  0.4810 -0.2689
 2056SOL    HW117801   1.178   2.012   5.629  0.7624  0.2236  0.5772
 2056SOL    HW217802   1.153   2.162   5.596  2.9238  1.4112 -0.0002
 2057SOL     OW17803   1.399   3.992   5.211  0.5164 -0.7663  0.5354
 2057SOL    HW117804   1.407   4.082   5.244  0.9222  0.3699 -2.6365
 2057SOL    HW217805   1.318   3.969   5.257 -0.6302  1.1685 -0.4970
 2058SOL     OW17806   1.723   1.277   8.323 -0.0693 -0.0007 -0.3989
 2058SOL    HW117807   1.748   1.369   8.314  0.7410 -0.0519  1.3135
 2058SOL    HW217808   1.667   1.288   8.400 -0.2078  0.0794 -0.5123
 2059SOL     OW17809   0.883   3.223  13.317  0.2273  0.5633 -0.1835
 2059SOL    HW117810   0.874   3.307  13.362  2.7567  0.7632 -0.0241
 2059SOL    HW217811   0.900   3.251  13.228  0.2104 -0.9992 -0.6793
 2060SOL     OW17812   2.556   4.126   3.404  0.0538  0.6789  0.6100
 2060SOL    HW117813   2.564   4.046   3.457 -0.4018  0.1585 -0.1141
 2060SOL    HW217814   2.623   4.105   3.339 -0.5421  4.1915 -1.0951
 2061SOL     OW17815   2.303   3.324   9.386 -0.3201 -0.4180 -0.0243
 2061SOL    HW117816   2.374   3.308   9.448  1.8973  1.1716 -2.1368
 2061SOL    HW217817   2.320   3.265   9.313 -0.4854  0.0879 -0.4721
 2062SOL     OW17818   2.133   2.163   1.459  0.0277 -0.3776 -0.1837
 2062SOL    HW117819   2.105   2.079   1.424  2.1298 -0.2926 -2.0455
 2062SOL    HW217820   2.180   2.200   1.384  0.3048 -0.7800 -0.2098
 2063SOL     OW17821   1.469   1.454   2.573 -0.0055  0.4774 -0.3106
 2063SOL    HW117822   1.381   1.438   2.607  0.2739 -2.2845 -0.8931
 2063SOL    HW217823   1.441   1.514   2.505 -1.1156 -0.6798 -0.8735
 2064SOL     OW17824   3.967   1.818  16.241 -0.0439 -0.1823  0.2328
 2064SOL    HW117825   3.973   1.762  16.163  0.2488  0.7787 -0.4336
 2064SOL    HW217826   3.944   1.760  16.314  0.3685  1.7891  1.9336
 2065SOL     OW17827   1.463   1.463   4.511 -0.3559 -0.1433  0.2735
 2065SOL    HW117828   1.402   1.462   4.438 -1.3744 -1.0988  1.1410
 2065SOL    HW217829   1.516   1.385   4.494 -0.9745 -0.6828  0.8401
 2066SOL     OW17830   4.492   2.826   0.099  0.3008 -0.1353 -0.4104
 2066SOL    HW117831   4.403   2.859   0.106 -0.0453 -0.8050 -1.6105
 2066SOL    HW217832   4.515   2.878   0.022  0.4416 -1.5299 -1.3119
 2067SOL     OW17833   1.059   0.451   5.967  0.2936  0.3525  0.1605
 2067SOL    HW117834   1.000   0.378   5.987  1.0047 -0.0492  0.8016
 2067SOL    HW217835   1.017   0.481   5.886  0.3141 -3.4265 -1.2615
 2068SOL     OW17836   2.265   0.778   2.639  0.5558 -0.3068  0.4177
 2068SOL    HW117837   2.179   0.821   2.633  0.6954 -0.0478  0.3069
 2068SOL    HW217838   2.237   0.692   2.671 -0.6975 -0.3690 -0.8393
 2069SOL     OW17839   0.449   1.745   8.803  0.7381 -0.0873 -0.0737
 2069SOL    HW117840   0.491   1.767   8.720 -2.9309 -1.6155 -2.3228
 2069SOL    HW217841   0.429   1.652   8.790 -0.6224  0.4447 -1.7422
 2070SOL     OW17842   1.961   1.846   8.841 -0.4474  0.8663  0.1934
 2070SOL    HW117843   1.919   1.802   8.767 -2.0665  1.1345  0.9428
 2070SOL    HW217844   1.892   1.863   8.905  0.0190  0.8272  0.7113
 2071SOL     OW17845   0.844   0.419   6.899  0.5260  0.1917 -0.0322
 2071SOL    HW117846   0.867   0.416   6.991  3.2742  1.7736 -0.6824
 2071SOL    HW217847   0.751   0.395   6.892  0.4323 -0.2080  2.6286
 2072SOL     OW17848   2.516   0.824   2.763  0.0775 -0.4844 -0.6890
 2072SOL    HW117849   2.434   0.815   2.714 -0.7357  1.8801  0.2343
 2072SOL    HW217850   2.508   0.742   2.812 -0.0396 -0.2517 -0.3201
 2073SOL     OW17851   1.099   4.305   7.829 -0.0332 -0.7349 -0.5527
 2073SOL    HW117852   1.171   4.355   7.868 -1.9794  0.8827  0.9478
 2073SOL    HW217853   1.102   4.219   7.870 -0.6056  0.6375  2.3624
 2074SOL     OW17854   1.269   4.643   3.820  0.3171  0.7532 -0.3017
 2074SOL    HW117855   1.231   4.588   3.888 -2.3283  2.4145 -0.4321
 2074SOL    HW217856   1.363   4.624   3.819  0.1651  0.0201 -1.4791
 2075SOL     OW17857   3.364   0.827   2.108 -0.1540 -0.3792 -0.3470
 2075SOL    HW117858   3.354   0.854   2.199  2.8753 -0.1382 -0.0739
 2075SOL    HW217859   3.273   0.842   2.082 -0.7287  1.6734  2.9312
 2076SOL     OW17860   4.416   3.152  10.055  0.4227 -0.0286 -0.6936
 2076SOL    HW117861   4.391   3.230  10.104  0.2012 -1.1253  0.9671
 2076SOL    HW217862   4.341   3.139   9.998  0.4390  0.1567 -0.7563
 2077SOL     OW17863   0.783   0.794  17.650 -0.0703  0.1097  0.5617
 2077SOL    HW117864   0.745   0.877  17.624 -1.6623 -2.2610 -4.8186
 2077SOL    HW217865   0.825   0.820   0.001  0.1152 -1.9134  1.1325
 2078SOL     OW17866   1.860   1.884   7.344  0.3348  0.1501  0.0363
 2078SOL    HW117867   1.798   1.836   7.290 -0.1872  2.7166 -1.6540
 2078SOL    HW217868   1.943   1.842   7.323  0.4183 -0.4492  1.5568
 2079SOL     OW17869   3.361   0.232   4.844  0.5437 -0.1499 -0.5359
 2079SOL    HW117870   3.352   0.309   4.899 -0.9075  0.1219 -1.1371
 2079SOL    HW217871   3.270   0.209   4.822 -0.0868  1.4558  0.3784
 2080SOL     OW17872   4.028   3.923   4.118  0.0698 -0.2777 -0.3533
 2080SOL    HW117873   4.082   3.877   4.055 -0.4928 -1.8163  0.2942
 2080SOL    HW217874   4.023   3.858   4.188 -0.4537  0.8999  0.7061
 2081SOL     OW17875   2.124   1.505   6.615 -0.2562 -0.5851 -0.2297
 2081SOL    HW117876   2.168   1.423   6.589  0.0361 -0.9194  1.2639
 2081SOL    HW217877   2.103   1.540   6.529  1.2983 -0.3227 -0.5135
 2082SOL     OW17878   0.313   0.699   4.879 -0.0929 -0.9634  0.5774
 2082SOL    HW117879   0.347   0.619   4.838  0.7297 -2.0161  3.3075
 2082SOL    HW217880   0.235   0.664   4.922 -0.9797 -0.2971 -0.5118
 2083SOL     OW17881   3.140   2.704   3.533  0.3777 -0.1670  0.0618
 2083SOL    HW117882   3.161   2.738   3.446 -0.5856 -0.5013 -0.3067
 2083SOL    HW217883   3.054   2.747   3.539  0.8321  0.5708  1.2797
 2084SOL     OW17884   1.488   4.322   4.720 -0.0110 -0.4676  0.6068
 2084SOL    HW117885   1.578   4.330   4.688 -0.6839 -1.6227 -1.6017
 2084SOL    HW217886   1.450   4.284   4.640 -1.7154 -0.7517  1.5647
 2085SOL     OW17887   1.350   0.674  10.759  0.2388 -0.0499 -0.1485
 2085SOL    HW117888   1.420   0.724  10.802  0.2530 -0.4865  0.3216
 2085SOL    HW217889   1.300   0.748  10.723  2.2781  0.7449 -1.4277
 2086SOL     OW17890   1.610   2.969  11.387  0.5113  1.4164  0.0290
 2086SOL    HW117891   1.674   2.901  11.368  0.0840  0.9332  0.3071
 2086SOL    HW217892   1.539   2.931  11.335  1.6698  2.7022 -2.5051
 2087SOL     OW17893   2.757   1.704   3.843 -0.3253 -0.3892 -0.1135
 2087SOL    HW117894   2.840   1.713   3.890 -1.0472  2.7894  0.5050
 2087SOL    HW217895   2.702   1.670   3.913  0.8228 -0.3967  0.7917
 2088SOL     OW17896   3.813   4.402  11.779 -0.2416  0.2638  0.0252
 2088SOL    HW117897   3.778   4.349  11.850 -0.0305 -0.6576 -0.5597
 2088SOL    HW217898   3.732   4.421  11.731 -1.6879  1.0495  2.8015
 2089SOL     OW17899   4.257   0.581   7.574 -0.2367  0.1472  0.0031
 2089SOL    HW117900   4.226   0.670   7.593  2.3393  1.5563 -2.2928
 2089SOL    HW217901   4.226   0.536   7.652 -1.3120 -0.3813 -0.7292
 2090SOL     OW17902   3.237   3.270   9.247 -1.1130  0.0850 -0.0855
 2090SOL    HW117903   3.188   3.194   9.215 -2.4281  0.3142  1.3465
 2090SOL    HW217904   3.169   3.305   9.305 -1.2444 -1.4513  0.7053
 2091SOL     OW17905   2.122   0.284  11.065  0.0613 -0.5725 -0.0175
 2091SOL    HW117906   2.130   0.369  11.022  0.3119 -0.0248  1.1264
 2091SOL    HW217907   2.095   0.306  11.154 -2.8764  0.2352 -1.0856
 2092SOL     OW17908   1.571   3.535   2.043 -0.7568  0.0435  0.4455
 2092SOL    HW117909   1.481   3.531   2.074 -0.6366 -0.1116  0.7788
 2092SOL    HW217910   1.594   3.442   2.037  0.4160  0.3928 -0.5265
 2093SOL     OW17911   1.348   2.119   6.387  0.5736  0.3222  0.2141
 2093SOL    HW117912   1.293   2.148   6.459 -1.6142  0.7710 -1.6283
 2093SOL    HW217913   1.299   2.038   6.373 -1.2893  1.6745 -0.9698
 2094SOL     OW17914   2.535   3.371  16.046  0.0316  0.7997  0.2602
 2094SOL    HW117915   2.603   3.433  16.071  0.2902  0.5722  0.1223
 2094SOL    HW217916   2.463   3.404  16.100 -1.9019  0.4765 -2.0899
 2095SOL     OW17917   0.307   3.588   0.691 -0.0734  0.5441  0.2160
 2095SOL    HW117918   0.345   3.609   0.776  1.5526  0.3055 -0.4663
 2095SOL    HW217919   0.241   3.523   0.718 -0.1269  1.0833  1.3759
 2096SOL     OW17920   1.705   3.110   4.106  0.4468  0.7005 -0.0066
 2096SOL    HW117921   1.701   3.119   4.011  1.5709 -0.3445 -0.1521
 2096SOL    HW217922   1.612   3.089   4.114  0.2518  1.3450 -0.5761
 2097SOL     OW17923   3.196   4.220   3.125  0.6433  0.1966  0.1515
 2097SOL    HW117924   3.232   4.177   3.203 -1.0061 -0.3151  0.6321
 2097SOL    HW217925   3.276   4.217   3.074  0.0861  0.8600 -0.7597
 2098SOL     OW17926   0.908   2.768   4.549  0.1828 -0.2046  0.0507
 2098SOL    HW117927   0.924   2.812   4.465  0.7146 -1.6458 -0.5920
 2098SOL    HW217928   0.922   2.840   4.611  0.7569 -1.4117  1.3375
 2099SOL     OW17929   4.448   3.511  12.684  0.5648  0.7271  0.1215
 2099SOL    HW117930   4.499   3.462  12.749 -0.8906 -1.8459 -0.6784
 2099SOL    HW217931   4.388   3.447  12.646  0.7663  0.6739 -0.1058
 2100SOL     OW17932   3.513   1.327   8.660 -0.9436 -0.6239  0.0141
 2100SOL    HW117933   3.503   1.380   8.581 -0.2043 -1.9762 -0.9896
 2100SOL    HW217934   3.429   1.340   8.705  0.0918  1.3204  1.3435
 2101SOL     OW17935   1.613   4.514   6.796 -0.2711 -0.4135  0.1597
 2101SOL    HW117936   1.526   4.546   6.770  0.3263  1.2043  0.1434
 2101SOL    HW217937   1.651   4.600   6.814 -0.2423 -0.8011  1.9401
 2102SOL     OW17938   3.264   3.321   6.506  0.3187 -0.1851  0.4217
 2102SOL    HW117939   3.331   3.377   6.467  0.3368 -0.7438 -0.3466
 2102SOL    HW217940   3.282   3.323   6.600 -0.7129  0.0447  0.6191
 2103SOL     OW17941   2.959   2.660   4.172 -0.5225 -0.2946 -0.2121
 2103SOL    HW117942   2.940   2.698   4.257  2.3893  0.2795  0.1805
 2103SOL    HW217943   2.917   2.574   4.172  1.8982 -1.4877 -1.3272
 2104SOL     OW17944   1.108   0.218  10.691  0.3367 -0.4209  0.3769
 2104SOL    HW117945   1.101   0.156  10.617  0.5181 -0.6745  0.5722
 2104SOL    HW217946   1.169   0.280  10.652  0.5431  0.6011  2.3364
 2105SOL     OW17947   2.799   0.129   1.963 -0.4480  0.1089 -0.0762
 2105SOL    HW117948   2.791   0.035   1.946  1.3520 -0.5679  2.8205
 2105SOL    HW217949   2.851   0.127   2.043  0.0642  0.3571 -0.4067
 2106SOL     OW17950   2.001   1.417   7.621 -0.1464 -0.5202  0.2953
 2106SOL    HW117951   1.969   1.447   7.706  0.3473 -0.0062  0.2978
 2106SOL    HW217952   1.927   1.454   7.573  0.1191 -0.5210 -0.1178
 2107SOL     OW17953   1.035   0.665  16.039  0.4458  0.0864  0.0772
 2107SOL    HW117954   0.963   0.720  16.009  1.2930  0.9392 -0.3877
 2107SOL    HW217955   1.020   0.597  15.973  0.6176  0.9311 -0.8209
 2108SOL     OW17956   3.000   0.701   6.732  0.3794  0.4485  0.5166
 2108SOL    HW117957   2.917   0.732   6.697 -0.0584 -1.5586 -0.2210
 2108SOL    HW217958   3.044   0.785   6.748  1.4851 -0.1719  0.7567
 2109SOL     OW17959   2.636   0.509   3.131 -0.1359  0.0075  0.5883
 2109SOL    HW117960   2.606   0.485   3.218 -1.9589 -1.3361 -0.3978
 2109SOL    HW217961   2.724   0.472   3.139 -0.6774 -1.2916  0.5646
 2110SOL     OW17962   1.080   2.181   5.919 -0.0965  0.4319 -0.8652
 2110SOL    HW117963   1.112   2.146   5.836 -1.4230 -1.3912 -0.6061
 2110SOL    HW217964   1.161   2.182   5.970 -0.9878 -0.7784  0.5929
 2111SOL     OW17965   0.485   3.217  16.232  0.7093  0.8020  0.6585
 2111SOL    HW117966   0.553   3.149  16.230 -0.3595 -0.3290  1.9370
 2111SOL    HW217967   0.461   3.197  16.142  1.6530  0.7934  0.4100
 2112SOL     OW17968   2.709   4.129   7.291 -0.2291  0.2151 -0.3616
 2112SOL    HW117969   2.649   4.070   7.245  0.0659  0.3388 -0.8987
 2112SOL    HW217970   2.679   4.126   7.382  0.7999 -0.4306 -0.0485
 2113SOL     OW17971   2.973   2.407   5.943  0.0884 -0.0671 -0.0190
 2113SOL    HW117972   2.897   2.399   5.886 -0.1137  1.3177  0.0633
 2113SOL    HW217973   3.032   2.344   5.901 -2.2132 -2.1572 -0.1147
 2114SOL     OW17974   1.904   1.113   5.589 -0.6705 -0.1271  0.2114
 2114SOL    HW117975   1.999   1.103   5.593 -0.5648  1.2795  1.4371
 2114SOL    HW217976   1.892   1.101   5.495 -1.9878 -0.7940  0.4663
 2115SOL     OW17977   3.618   0.014   5.564  0.4693  0.8441 -0.1385
 2115SOL    HW117978   3.609   0.031   5.470  0.0887 -0.1225 -0.2730
 2115SOL    HW217979   3.528   4.729   5.590  0.4789 -0.1258 -0.7807
 2116SOL     OW17980   0.375   2.775   3.940  0.5373  0.0601  0.0050
 2116SOL    HW117981   0.403   2.858   3.978  1.0516  0.2103 -0.7089
 2116SOL    HW217982   0.392   2.789   3.847 -0.7188 -1.4748 -0.4557
 2117SOL     OW17983   0.186   3.649  15.091 -0.5046  0.3024 -0.0800
 2117SOL    HW117984   0.120   3.717  15.079  0.4226  1.3610  0.8644
 2117SOL    HW217985   0.267   3.699  15.096  0.3638 -1.2680  1.5229
 2118SOL     OW17986   2.734   3.902   5.439 -0.6193 -0.3253 -0.2592
 2118SOL    HW117987   2.651   3.946   5.423  0.3920  1.7904  0.2794
 2118SOL    HW217988   2.692   3.818   5.426 -1.2515  0.1022 -0.9810
 2119SOL     OW17989   0.673   3.598   5.687 -0.1346  0.3145 -0.4205
 2119SOL    HW117990   0.721   3.605   5.770  0.4023  2.4067 -0.8984
 2119SOL    HW217991   0.665   3.692   5.672  0.3643  0.6421  1.2818
 2120SOL     OW17992   4.219   3.024   3.171  0.7592  0.0303  0.1075
 2120SOL    HW117993   4.163   3.100   3.153  0.3223 -0.1099  0.8790
 2120SOL    HW217994   4.187   3.005   3.259  0.3991 -0.1500 -0.0618
 2121SOL     OW17995   1.517   3.878  17.586 -0.0138  0.1426 -0.3688
 2121SOL    HW117996   1.480   3.904  17.671  0.2047  0.3005 -0.3215
 2121SOL    HW217997   1.434   3.864  17.541  0.3327 -1.8309 -0.3871
 2122SOL     OW17998   1.476   4.464   7.759 -0.0861  0.2398  0.0124
 2122SOL    HW117999   1.429   4.547   7.751 -0.3459  0.2078  1.1646
 2122SOL    HW218000   1.420   4.417   7.821 -0.8593  2.7610  1.1966
 2123SOL     OW18001   3.429   1.250   5.707 -0.3551  0.3111  0.3894
 2123SOL    HW118002   3.514   1.239   5.751 -0.2462  2.4331  0.7218
 2123SOL    HW218003   3.462   1.308   5.638  2.2502  0.3815  1.6989
 2124SOL     OW18004   1.496   1.129   6.978  0.1897  0.5291 -0.0446
 2124SOL    HW118005   1.414   1.172   7.003 -0.5620 -0.8576 -0.0823
 2124SOL    HW218006   1.466   1.057   6.922 -1.2026  1.4957 -0.5505
 2125SOL     OW18007   1.027   4.335  12.000 -0.0883  0.2050  0.1899
 2125SOL    HW118008   0.998   4.408  11.945 -2.3833 -0.7238  0.1753
 2125SOL    HW218009   1.107   4.311  11.952  0.6689  3.2160 -0.0335
 2126SOL     OW18010   1.072   0.789   2.156 -1.1556 -0.3224  0.2524
 2126SOL    HW118011   0.983   0.788   2.119 -1.1284  1.3290  0.1567
 2126SOL    HW218012   1.124   0.762   2.080 -0.2316  0.5924  0.5673
 2127SOL     OW18013   3.389   3.398   5.995  0.0986 -0.4321  0.6474
 2127SOL    HW118014   3.388   3.494   5.993 -1.2665 -0.5016 -1.3109
 2127SOL    HW218015   3.314   3.388   5.937 -0.7248  1.1551  1.4305
 2128SOL     OW18016   2.366   0.993   1.098  1.0549  0.2440  0.4843
 2128SOL    HW118017   2.326   0.982   1.184  0.2268 -1.2203 -0.0875
 2128SOL    HW218018   2.302   1.043   1.047 -0.4750 -1.4541  0.7007
 2129SOL     OW18019   0.547   4.686   6.435 -0.0206 -0.3879  0.2560
 2129SOL    HW118020   0.524   4.608   6.384  0.9014 -2.1329  2.5371
 2129SOL    HW218021   0.535   4.659   6.526 -1.8856 -1.5038 -0.3298
 2130SOL     OW18022   1.969   0.428   5.019 -0.6238 -0.1585 -0.0787
 2130SOL    HW118023   1.911   0.503   5.007  0.1191  0.3754 -0.4063
 2130SOL    HW218024   2.003   0.447   5.106 -1.9105 -2.3443  0.8774
 2131SOL     OW18025   2.940   0.213   1.720 -0.3225 -0.1672  0.3114
 2131SOL    HW118026   2.907   0.192   1.807  0.1270 -0.7108  0.3505
 2131SOL    HW218027   2.975   0.129   1.692  1.4922  1.1280 -1.2825
 2132SOL     OW18028   1.544   3.608   6.164 -0.3634 -0.6782 -0.5007
 2132SOL    HW118029   1.455   3.590   6.134 -0.8198 -0.6454  0.8339
 2132SOL    HW218030   1.544   3.701   6.187  0.3490 -1.0564  1.0514
 2133SOL     OW18031   3.800   4.585   4.769  0.3044  0.1528  0.0295
 2133SOL    HW118032   3.851   4.665   4.757  0.0343  0.1186 -1.3191
 2133SOL    HW218033   3.729   4.619   4.825  0.1519 -3.1577  1.8493
 2134SOL     OW18034   0.769   0.665   7.128  0.0871 -0.2806 -0.1149
 2134SOL    HW118035   0.709   0.678   7.054  1.3050  0.5156 -0.9548
 2134SOL    HW218036   0.770   0.748   7.175  1.1725 -1.5619  2.1168
 2135SOL     OW18037   2.656   4.697   2.693  0.1150  0.2064 -0.0465
 2135SOL    HW118038   2.671   4.632   2.624  1.1142 -0.3703  0.7211
 2135SOL    HW218039   2.569   0.002   2.676  0.0751  0.1996  0.1485
 2136SOL     OW18040   0.869   1.931  13.122  0.2806  0.2846  0.2755
 2136SOL    HW118041   0.962   1.944  13.140 -0.3739  0.7421  3.4125
 2136SOL    HW218042   0.858   1.993  13.049 -1.3856 -0.7789 -0.3590
 2137SOL     OW18043   0.701   1.766   9.907  0.4189 -0.2927 -0.0685
 2137SOL    HW118044   0.738   1.725   9.985 -0.4442 -1.3173 -0.2007
 2137SOL    HW218045   0.700   1.860   9.929 -2.2021 -0.7333  1.7395
 2138SOL     OW18046   2.108   3.487   6.728 -0.3639  0.4672  0.3713
 2138SOL    HW118047   2.028   3.514   6.773 -1.2686  0.0328 -0.9724
 2138SOL    HW218048   2.105   3.391   6.726  0.9729  0.4157  0.2933
 2139SOL     OW18049   1.223   0.953  10.725  0.2602  0.6916 -0.3727
 2139SOL    HW118050   1.221   0.996  10.639 -1.0472  0.9056 -0.2239
 2139SOL    HW218051   1.282   1.019  10.763 -0.3415  0.5300  0.8343
 2140SOL     OW18052   0.601   3.912   3.142  0.2895  0.3003 -0.1520
 2140SOL    HW118053   0.543   3.900   3.067  1.2211 -1.4925 -0.5791
 2140SOL    HW218054   0.639   3.824   3.139  0.3660  0.2477  3.1350
 2141SOL     OW18055   3.939   4.024   5.086 -0.4676 -0.0021 -0.3628
 2141SOL    HW118056   3.949   4.071   5.168 -0.9084 -2.8527  1.3406
 2141SOL    HW218057   3.847   4.000   5.084 -1.0238  2.2378 -0.9630
 2142SOL     OW18058   4.409   4.292   8.296  0.3097  0.0464 -0.2054
 2142SOL    HW118059   4.341   4.272   8.231 -0.2126  2.1233 -0.3067
 2142SOL    HW218060   4.350   4.281   8.370 -2.8405  1.5804 -2.4765
 2143SOL     OW18061   0.701   1.976   5.720 -0.7250  0.4114 -0.5437
 2143SOL    HW118062   0.740   2.049   5.767 -2.7046  1.1873 -0.1362
 2143SOL    HW218063   0.613   2.008   5.738 -0.7025 -1.8695  3.5606
 2144SOL     OW18064   3.320   1.488   2.202 -0.0513  0.3348  0.4975
 2144SOL    HW118065   3.386   1.470   2.269 -1.6336  1.0867  2.2586
 2144SOL    HW218066   3.371   1.506   2.123  1.0077 -3.9496  0.2006
 2145SOL     OW18067   0.102   0.085   2.319 -0.3218  0.1263  0.1598
 2145SOL    HW118068   0.195   0.076   2.303 -0.3095  1.5324 -0.5174
 2145SOL    HW218069   0.091   0.177   2.340 -4.3424  0.2396 -2.3933
 2146SOL     OW18070   1.086   0.628   6.991 -0.8337 -0.4513  0.4409
 2146SOL    HW118071   1.141   0.575   6.933 -0.6372 -0.5327  0.7012
 2146SOL    HW218072   1.008   0.650   6.941  1.1427  0.4403 -2.2818
 2147SOL     OW18073   0.964   1.219   7.776  0.3727  0.1910 -0.5751
 2147SOL    HW118074   0.999   1.290   7.723  0.0986 -1.4195 -2.9099
 2147SOL    HW218075   0.919   1.172   7.705  1.4540 -0.0662 -1.0995
 2148SOL     OW18076   4.553   0.134  13.629  0.3307  0.0167 -0.6889
 2148SOL    HW118077   4.534   0.085  13.709 -0.6689 -2.3590 -2.3865
 2148SOL    HW218078   4.523   0.221  13.657 -0.1886 -0.4130  0.0902
 2149SOL     OW18079   1.584   1.700   8.443 -0.2738  0.5764  0.1280
 2149SOL    HW118080   1.533   1.775   8.413 -0.4387  0.7440  0.8435
 2149SOL    HW218081   1.626   1.738   8.519  2.1691 -1.2245 -0.3175
 2150SOL     OW18082   4.135   3.052   5.936  0.3995 -0.5687 -0.8092
 2150SOL    HW118083   4.073   3.114   5.973  0.0326 -1.0037 -0.6983
 2150SOL    HW218084   4.214   3.094   5.972  0.8226  0.7338 -3.2639
 2151SOL     OW18085   3.507   1.528   3.693  0.1851 -0.0827  0.0597
 2151SOL    HW118086   3.443   1.597   3.676  1.9318  0.6451 -3.4850
 2151SOL    HW218087   3.560   1.587   3.747  0.1115  0.8604 -0.9043
 2152SOL     OW18088   4.239   2.865   0.708  0.1834 -0.0182  0.2061
 2152SOL    HW118089   4.312   2.919   0.676  0.3268 -1.8747 -2.6404
 2152SOL    HW218090   4.174   2.928   0.738 -1.3933 -2.3107  1.6192
 2153SOL     OW18091   3.379   3.512   4.637  0.0823 -0.9587  0.0518
 2153SOL    HW118092   3.379   3.457   4.558 -2.4183 -1.9150  0.7139
 2153SOL    HW218093   3.440   3.462   4.691  0.7677  0.0768  0.2367
 2154SOL     OW18094   1.481   1.208   3.867 -0.4393  0.3510 -0.3200
 2154SOL    HW118095   1.387   1.192   3.874 -0.6853  2.7249  1.5675
 2154SOL    HW218096   1.496   1.247   3.953  1.7349 -2.4095  0.5690
 2155SOL     OW18097   2.168   1.296   9.529  0.3255  0.2903  0.2015
 2155SOL    HW118098   2.252   1.251   9.521 -0.2869 -0.5848 -1.4326
 2155SOL    HW218099   2.118   1.226   9.487  0.8662 -0.4691  0.8292
 2156SOL     OW18100   2.121   2.015   7.267 -0.2930 -0.0041  0.3499
 2156SOL    HW118101   2.041   2.035   7.218 -0.0783  0.9820  0.4052
 2156SOL    HW218102   2.142   2.106   7.290  1.3196 -0.5060  0.8774
 2157SOL     OW18103   3.179   4.634   6.113 -0.3077  0.3783 -0.1376
 2157SOL    HW118104   3.152   4.589   6.034 -1.6685  1.4457 -0.2631
 2157SOL    HW218105   3.255   4.581   6.139  0.7504  1.4369 -1.1010
 2158SOL     OW18106   4.472   2.734  11.629  0.2421  0.2441 -0.1772
 2158SOL    HW118107   4.497   2.707  11.718 -0.3911  1.7899  0.4788
 2158SOL    HW218108   4.442   2.652  11.590  1.4601 -0.1529 -0.2954
 2159SOL     OW18109   3.351   3.288   9.006 -0.1425  0.3648  0.1837
 2159SOL    HW118110   3.358   3.365   8.949 -1.8183 -0.6437 -1.3975
 2159SOL    HW218111   3.300   3.325   9.078 -0.4311 -1.0124  0.6836
 2160SOL     OW18112   2.374   0.316   3.259  0.3025  0.0348 -0.3544
 2160SOL    HW118113   2.441   0.252   3.281  0.9396  0.5095 -0.9286
 2160SOL    HW218114   2.387   0.375   3.332 -0.6515  1.5410 -1.3972
 2161SOL     OW18115   1.156   2.487  12.264 -0.2525 -0.2571  0.0970
 2161SOL    HW118116   1.162   2.480  12.169 -0.0770 -1.4332  0.2026
 2161SOL    HW218117   1.195   2.402  12.283 -1.8067 -0.9154  0.3269
 2162SOL     OW18118   2.376   1.665   9.517 -0.0902 -0.1255 -0.5458
 2162SOL    HW118119   2.358   1.618   9.598  1.0720 -0.9532 -0.7774
 2162SOL    HW218120   2.291   1.653   9.475  0.0903  0.0632 -0.9679
 2163SOL     OW18121   0.563   4.029   4.742 -1.0833  0.7264 -0.5035
 2163SOL    HW118122   0.534   4.094   4.678  0.7465  1.0593 -1.0078
 2163SOL    HW218123   0.549   4.077   4.824 -1.2989  0.0852 -0.1647
 2164SOL     OW18124   0.369   4.361   1.724 -0.9585 -0.1505  0.0954
 2164SOL    HW118125   0.362   4.280   1.773 -0.2274  0.0143  0.4790
 2164SOL    HW218126   0.305   4.424   1.756  0.5977  1.0575  0.8488
 2165SOL     OW18127   2.167   4.648   3.326  0.2087  1.0219 -0.0036
 2165SOL    HW118128   2.243   4.605   3.366 -1.0465 -0.7343  0.4984
 2165SOL    HW218129   2.099   4.583   3.343 -0.0765  1.2330 -0.3422
 2166SOL     OW18130   4.380   3.978   8.783 -0.4106 -0.0438  0.0784
 2166SOL    HW118131   4.305   3.919   8.795 -0.7110  0.3037 -0.0929
 2166SOL    HW218132   4.401   4.015   8.869  0.1443 -2.5174  1.0070
 2167SOL     OW18133   2.403   0.433   5.958 -0.4974  0.1635  0.8136
 2167SOL    HW118134   2.378   0.492   5.887 -3.3849 -1.0378  0.8080
 2167SOL    HW218135   2.385   0.343   5.931 -4.6386  1.1295  0.3042
 2168SOL     OW18136   1.472   2.018   9.877 -0.2416  0.4388 -0.8078
 2168SOL    HW118137   1.470   1.977   9.964 -1.6509 -1.5291 -1.7726
 2168SOL    HW218138   1.425   2.100   9.893 -1.3790 -0.2619 -0.5203
 2169SOL     OW18139   2.913   1.033   4.958  0.0578 -0.8198  0.1492
 2169SOL    HW118140   2.943   1.109   5.008 -0.3575 -0.7299  0.2622
 2169SOL    HW218141   2.977   0.966   4.982  1.8776  1.0989  0.6193
 2170SOL     OW18142   1.862   0.122   5.109  0.4495 -0.0019  0.4164
 2170SOL    HW118143   1.814   0.039   5.115  1.7888 -0.8976 -1.0499
 2170SOL    HW218144   1.787   0.178   5.090 -0.0849 -1.3141 -1.3571
 2171SOL     OW18145   1.769   3.659   8.072 -0.1766  0.3432 -0.2332
 2171SOL    HW118146   1.833   3.712   8.025 -0.7380  0.5753 -0.7295
 2171SOL    HW218147   1.762   3.711   8.152 -0.0237  1.2407 -0.8092
 2172SOL     OW18148   0.672   0.271   5.899  0.1562 -0.4005  0.7090
 2172SOL    HW118149   0.579   0.291   5.909  0.0351 -0.9008  0.5412
 2172SOL    HW218150   0.703   0.294   5.811 -2.3599 -1.3865 -0.4388
 2173SOL     OW18151   3.931   2.909   9.537  0.3231 -0.1677  0.5625
 2173SOL    HW118152   3.979   2.827   9.526 -0.1445 -0.1247 -1.7568
 2173SOL    HW218153   3.901   2.928   9.448 -0.7722 -1.8411  0.5800
 2174SOL     OW18154   3.914   1.219   2.848 -0.0545  0.2770  0.3625
 2174SOL    HW118155   3.894   1.235   2.940  1.6344  0.7484  0.6520
 2174SOL    HW218156   4.007   1.195   2.851 -0.7484 -2.3200  0.9329
 2175SOL     OW18157   2.511   2.170   0.564 -0.3685 -0.0396 -0.0964
 2175SOL    HW118158   2.433   2.119   0.543 -0.6204 -0.3414  1.5603
 2175SOL    HW218159   2.498   2.192   0.656 -0.6323 -0.5410 -0.0136
 2176SOL     OW18160   4.686   4.166  13.389 -0.7238 -0.0477  0.5135
 2176SOL    HW118161   4.616   4.127  13.441 -0.6890  0.1786  0.7341
 2176SOL    HW218162   4.690   4.110  13.312  2.3254  0.7428  0.0737
 2177SOL     OW18163   1.729   3.898  10.426 -0.5066 -0.0778 -0.2552
 2177SOL    HW118164   1.695   3.965  10.367  1.2024 -0.7957 -2.0287
 2177SOL    HW218165   1.819   3.894  10.394 -0.3837 -0.4363  0.1281
 2178SOL     OW18166   2.426   3.207   5.306 -0.0584 -0.5068  0.1144
 2178SOL    HW118167   2.346   3.229   5.257 -0.3501  0.4863  1.0397
 2178SOL    HW218168   2.441   3.115   5.285  0.0334 -0.2033 -1.1545
 2179SOL     OW18169   3.125   2.951   8.223 -0.5144 -0.3187 -0.0992
 2179SOL    HW118170   3.042   2.962   8.177  0.2045 -2.2705 -1.8122
 2179SOL    HW218171   3.156   2.878   8.170  1.1571 -0.0286  0.4831
 2180SOL     OW18172   2.427   2.205  13.557 -0.1591 -0.9367 -0.1831
 2180SOL    HW118173   2.401   2.269  13.491  3.2188  0.5690 -0.0592
 2180SOL    HW218174   2.454   2.269  13.624 -1.8248  1.6004 -1.9485
 2181SOL     OW18175   4.082   1.662   4.952  0.2645  0.5297 -0.3067
 2181SOL    HW118176   4.057   1.633   4.864  0.4064  0.4302 -0.3150
 2181SOL    HW218177   4.168   1.703   4.939  0.5994  0.9423  3.2155
 2182SOL     OW18178   3.402   3.111   3.318 -0.4285 -0.1475  0.9332
 2182SOL    HW118179   3.332   3.127   3.254 -0.3247 -0.6424  0.7014
 2182SOL    HW218180   3.483   3.132   3.272 -0.9682 -2.1798 -0.9312
 2183SOL     OW18181   1.803   3.094   8.628  0.5410  0.2455 -0.3941
 2183SOL    HW118182   1.808   3.083   8.723  2.3622  0.5219 -0.4648
 2183SOL    HW218183   1.893   3.069   8.608  0.2118 -0.7284 -0.6771
 2184SOL     OW18184   1.264   4.632   7.435 -0.5279 -0.2706  0.0554
 2184SOL    HW118185   1.353   4.650   7.405 -0.7802 -1.2143 -1.2311
 2184SOL    HW218186   1.278   4.626   7.530 -2.0097  1.6214  0.4055
 2185SOL     OW18187   2.643   4.196   3.708 -0.0750  0.0806  0.1564
 2185SOL    HW118188   2.702   4.223   3.778 -0.5772 -0.7559  0.9032
 2185SOL    HW218189   2.609   4.280   3.677 -0.5225 -0.5225 -0.9684
 2186SOL     OW18190   1.794   0.319   9.576  0.1634 -0.2681  0.0404
 2186SOL    HW118191   1.858   0.385   9.604  2.2929 -1.0869 -2.8501
 2186SOL    HW218192   1.718   0.369   9.546  0.5335  1.7581  2.4166
 2187SOL     OW18193   1.251   0.665  11.029  0.0523 -0.1581 -0.1715
 2187SOL    HW118194   1.164   0.692  10.999 -0.3266 -0.0934  0.9856
 2187SOL    HW218195   1.307   0.686  10.954  0.8629 -0.2727  0.4093
 2188SOL     OW18196   1.799   3.604   4.412 -1.4940  0.2733  0.1305
 2188SOL    HW118197   1.885   3.575   4.382 -0.6875  0.8387  1.8874
 2188SOL    HW218198   1.786   3.556   4.494 -0.0647 -2.4985 -1.2425
 2189SOL     OW18199   1.804   2.863  14.150  0.0987 -0.3291  0.0339
 2189SOL    HW118200   1.849   2.783  14.123  1.3326  0.1844  0.5912
 2189SOL    HW218201   1.875   2.913  14.189 -1.2330  1.2325  0.4767
 2190SOL     OW18202   1.418   2.022   9.583  0.1241 -0.2973  0.1932
 2190SOL    HW118203   1.324   2.019   9.568 -0.1296  0.7862  1.5824
 2190SOL    HW218204   1.435   2.014   9.677  2.6080 -0.2275 -0.2489
 2191SOL     OW18205   0.626   1.137   3.543 -0.3642 -0.1142 -0.2163
 2191SOL    HW118206   0.566   1.176   3.480  0.8384  0.9361 -0.7013
 2191SOL    HW218207   0.663   1.066   3.491  1.2679 -0.4525  1.3913
 2192SOL     OW18208   1.906   2.667  10.004 -0.0490  0.0137  0.2190
 2192SOL    HW118209   1.846   2.652  10.077 -0.7343  2.2985  0.1388
 2192SOL    HW218210   1.936   2.578   9.989  0.4682  0.0242  1.2123
 2193SOL     OW18211   3.570   1.238   8.277 -0.1746 -0.1336  0.3217
 2193SOL    HW118212   3.568   1.180   8.353  0.7217 -0.7436 -0.1220
 2193SOL    HW218213   3.486   1.223   8.233 -0.7063  0.5418  1.1073
 2194SOL     OW18214   1.030   3.039   5.728  0.1261  0.3034 -0.2085
 2194SOL    HW118215   1.092   3.047   5.656 -1.3269 -0.2304 -1.5211
 2194SOL    HW218216   0.949   3.054   5.679 -0.3068 -0.6018  0.2250
 2195SOL     OW18217   2.635   2.310   6.504  0.3717  0.3284  0.3386
 2195SOL    HW118218   2.709   2.309   6.565 -0.3470 -0.4313  1.2172
 2195SOL    HW218219   2.664   2.239   6.447 -2.0679  0.3040 -0.8768
 2196SOL     OW18220   3.812   0.020  17.049  0.0992  0.6415  0.4511
 2196SOL    HW118221   3.780   0.093  16.995  0.6130  0.6472  0.1452
 2196SOL    HW218222   3.728   4.723  17.083  0.9931 -0.8170  1.3638
 2197SOL     OW18223   1.930   0.995   2.905 -0.5762  0.3272  0.3145
 2197SOL    HW118224   1.865   0.943   2.951 -1.6797  0.9085 -0.5822
 2197SOL    HW218225   1.963   0.927   2.846  0.2901 -1.2179  2.5792
 2198SOL     OW18226   3.567   4.408   4.929 -0.0295 -0.1287  0.1443
 2198SOL    HW118227   3.638   4.468   4.952  0.8051 -1.0256 -0.1228
 2198SOL    HW218228   3.601   4.319   4.921  0.7142  0.0992  0.7207
 2199SOL     OW18229   0.290   4.621   9.966  1.0149 -0.0459  0.2036
 2199SOL    HW118230   0.295   4.591   9.875 -0.5960 -0.4291  0.2353
 2199SOL    HW218231   0.195   4.625   9.964  0.9329 -1.1954  2.0640
 2200SOL     OW18232   4.325   1.775   4.141 -0.5005 -0.6224 -0.5799
 2200SOL    HW118233   4.234   1.803   4.153  0.1943  0.9733  1.0361
 2200SOL    HW218234   4.310   1.681   4.131 -2.6782 -0.4281  0.7128
 2201SOL     OW18235   1.642   0.764  16.021 -0.2608  0.0514 -0.2720
 2201SOL    HW118236   1.721   0.710  16.018 -0.6465 -0.5398  0.1409
 2201SOL    HW218237   1.608   0.743  15.933  0.0130 -0.7989 -0.1759
 2202SOL     OW18238   4.414   3.898  17.064 -0.7326 -0.4908  0.2337
 2202SOL    HW118239   4.455   3.846  16.995  1.1983  1.4535 -0.1000
 2202SOL    HW218240   4.418   3.831  17.133 -1.4276 -0.4090  0.3548
 2203SOL     OW18241   0.214   1.796  10.179 -0.4206 -0.1801  0.3790
 2203SOL    HW118242   0.307   1.774  10.185 -0.0603  0.3772 -2.8107
 2203SOL    HW218243   0.183   1.722  10.126 -0.5084  1.0220 -1.2741
 2204SOL     OW18244   1.088   3.197   6.197 -0.3210 -0.0201 -0.7002
 2204SOL    HW118245   1.102   3.150   6.115 -0.5989 -1.6474  0.1879
 2204SOL    HW218246   0.994   3.212   6.186 -0.2465  2.0548  1.4520
 2205SOL     OW18247   4.084   0.764   0.513 -0.2877  0.2866 -0.2167
 2205SOL    HW118248   4.069   0.697   0.580  2.0853 -0.1653 -0.1651
 2205SOL    HW218249   4.072   0.846   0.560 -0.4114 -0.2697  0.7220
 2206SOL     OW18250   0.967   3.486   9.686 -0.1368  0.5989  0.5344
 2206SOL    HW118251   0.893   3.532   9.645 -0.6322 -0.6903 -0.0558
 2206SOL    HW218252   1.043   3.529   9.648 -0.7155 -0.8597 -2.2992
 2207SOL     OW18253   2.653   1.605   6.653  0.3623 -0.0772 -0.1052
 2207SOL    HW118254   2.644   1.666   6.726 -0.0858  2.4147 -2.1985
 2207SOL    HW218255   2.686   1.664   6.584 -0.1128  0.9366  0.5263
 2208SOL     OW18256   1.666   3.965  13.975  0.1264 -0.6611 -0.4204
 2208SOL    HW118257   1.660   3.926  14.062  2.1657  2.8653  1.2729
 2208SOL    HW218258   1.648   4.057  13.993  0.3326 -0.8970  0.9523
 2209SOL     OW18259   3.670   3.499   5.238 -0.1508  0.2502 -0.2647
 2209SOL    HW118260   3.575   3.488   5.244  0.1242 -2.3766 -0.5739
 2209SOL    HW218261   3.699   3.416   5.275  1.1666  0.7338 -0.2431
 2210SOL     OW18262   4.449   2.307  12.247  0.3527  0.5312  0.2885
 2210SOL    HW118263   4.501   2.374  12.292  2.0328  0.0629 -1.0006
 2210SOL    HW218264   4.413   2.358  12.174  2.4972 -0.3999 -1.3999
 2211SOL     OW18265   3.507   0.215   2.247  0.0337  0.3865  0.1400
 2211SOL    HW118266   3.503   0.230   2.152  3.4147 -0.0470 -0.0549
 2211SOL    HW218267   3.460   0.290   2.283  0.9077  0.9186  0.1618
 2212SOL     OW18268   3.845   0.567   2.399  0.2804  0.3520  0.0037
 2212SOL    HW118269   3.790   0.541   2.326  1.6284 -1.0948 -0.4806
 2212SOL    HW218270   3.854   0.662   2.388  1.1311  0.8695  4.8939
 2213SOL     OW18271   2.502   3.938   5.274 -0.8423 -0.4823  0.2367
 2213SOL    HW118272   2.475   3.855   5.234 -2.4536 -0.9120  2.2129
 2213SOL    HW218273   2.419   3.961   5.316 -1.1333 -0.0820 -0.5619
 2214SOL     OW18274   2.220   3.820  16.796 -0.0045  0.7645  0.0449
 2214SOL    HW118275   2.153   3.838  16.861 -1.4239 -0.7321 -1.0163
 2214SOL    HW218276   2.217   3.901  16.745 -0.3526  0.0381 -1.0935
 2215SOL     OW18277   1.988   0.081   6.174  1.0399 -0.3184  0.5220
 2215SOL    HW118278   2.077   0.115   6.177  0.6141  0.8761 -0.3951
 2215SOL    HW218279   1.993   0.018   6.246  0.0128 -0.5258  0.4154
 2216SOL     OW18280   2.144   1.161   2.525  0.2442 -0.0038  0.0431
 2216SOL    HW118281   2.049   1.166   2.530  0.3987  1.4283  1.7743
 2216SOL    HW218282   2.176   1.195   2.442  1.7964  0.3993  0.7930
 2217SOL     OW18283   4.346   1.080   6.567 -0.0402  0.7483  0.2695
 2217SOL    HW118284   4.327   1.060   6.476  1.2953  1.9104 -0.2692
 2217SOL    HW218285   4.322   0.995   6.605  1.0848  1.3196  2.2576
 2218SOL     OW18286   0.029   1.035   0.154 -0.0363 -0.2810 -0.3087
 2218SOL    HW118287   0.118   1.004   0.138 -0.4903 -1.2727 -0.8840
 2218SOL    HW218288   0.028   1.077   0.240 -1.6574 -1.5207  0.2741
 2219SOL     OW18289   1.662   0.654  10.412  0.0927 -0.3632 -0.2531
 2219SOL    HW118290   1.703   0.729  10.370  1.6983 -1.6376 -0.9841
 2219SOL    HW218291   1.572   0.673  10.387 -1.0000 -2.2640  2.2110
 2220SOL     OW18292   0.965   1.234   3.322  0.3515 -0.4622  0.0019
 2220SOL    HW118293   1.013   1.207   3.401 -1.5210  0.1306  1.3314
 2220SOL    HW218294   1.022   1.249   3.246 -0.5874  1.8224 -0.2287
 2221SOL     OW18295   2.180   1.115   8.364 -0.0189  0.1468 -0.3832
 2221SOL    HW118296   2.192   1.069   8.447  0.7885  2.1946  0.6397
 2221SOL    HW218297   2.086   1.136   8.364 -0.2651 -0.9510  1.3363
 2222SOL     OW18298   1.176   0.574   6.216  0.3249  0.8897 -0.7155
 2222SOL    HW118299   1.193   0.480   6.224 -0.0271  0.9794  1.1816
 2222SOL    HW218300   1.095   0.568   6.165 -1.3450 -2.4700  2.3280
 2223SOL     OW18301   2.051   0.622   3.395 -0.6500 -0.1894 -0.2644
 2223SOL    HW118302   2.024   0.700   3.346  0.6800  0.1875 -0.4062
 2223SOL    HW218303   2.037   0.550   3.334  1.5210 -1.1102  0.3033
 2224SOL     OW18304   4.309   3.279   1.721  0.5965  0.0355 -0.1538
 2224SOL    HW118305   4.294   3.355   1.777  0.2671 -0.0955 -0.0626
 2224SOL    HW218306   4.403   3.276   1.734  0.6411 -0.1466 -0.5161
 2225SOL     OW18307   0.313   3.473   9.522 -0.2740 -0.2399 -0.4842
 2225SOL    HW118308   0.294   3.389   9.564 -1.0588 -0.1545 -0.6616
 2225SOL    HW218309   0.236   3.526   9.540 -0.6720 -0.6762 -0.8743
 2226SOL     OW18310   4.593   2.103  17.451  0.0368 -0.4267 -0.6593
 2226SOL    HW118311   4.544   2.022  17.434 -1.6874  0.9323 -2.1559
 2226SOL    HW218312   4.551   2.156  17.383 -2.0226 -1.4417 -0.1876
 2227SOL     OW18313   2.005   1.224   3.363  0.2747 -0.2356  0.0445
 2227SOL    HW118314   1.958   1.205   3.282 -2.1110 -1.2774  1.6740
 2227SOL    HW218315   1.968   1.306   3.395  0.2325 -0.9678  1.8696
 2228SOL     OW18316   0.558   2.385   5.608  0.3887 -0.2117  0.2842
 2228SOL    HW118317   0.601   2.325   5.547  1.2390 -0.6289  1.2879
 2228SOL    HW218318   0.626   2.398   5.674 -0.2561  0.1076  0.8941
 2229SOL     OW18319   4.422   4.345  14.131  0.4207 -0.0716  0.1097
 2229SOL    HW118320   4.348   4.317  14.185 -0.2406  3.6874  1.1477
 2229SOL    HW218321   4.458   4.416  14.184  1.1092 -0.8496  0.6782
 2230SOL     OW18322   3.450   4.072   7.576  0.4674  0.2524  0.0966
 2230SOL    HW118323   3.534   4.072   7.530  0.7549 -0.0185  0.6107
 2230SOL    HW218324   3.406   4.149   7.541  1.1154 -0.3003 -1.9609
 2231SOL     OW18325   3.954   1.523   4.740 -0.0245 -0.1363  0.4054
 2231SOL    HW118326   4.040   1.518   4.698  0.5505  2.4135  1.2548
 2231SOL    HW218327   3.941   1.431   4.763 -0.3585 -0.1785  0.0378
 2232SOL     OW18328   2.239   1.070  12.302  0.1816  0.1294  0.1092
 2232SOL    HW118329   2.204   1.015  12.232 -0.1183  0.7014 -0.1794
 2232SOL    HW218330   2.334   1.067  12.291  0.0926  1.6435 -0.9552
 2233SOL     OW18331   3.396   0.380   3.318  0.3545  0.7383 -0.1472
 2233SOL    HW118332   3.414   0.286   3.309  1.3335  0.8697  0.5126
 2233SOL    HW218333   3.475   0.409   3.362 -0.4432  2.8951 -0.1270
 2234SOL     OW18334   3.069   2.444   4.843  0.2219 -0.3291 -0.0883
 2234SOL    HW118335   3.132   2.510   4.814 -0.2156  0.0316 -0.2079
 2234SOL    HW218336   3.108   2.374   4.791 -1.3949 -0.6691 -0.8490
 2235SOL     OW18337   2.188   0.711   1.461  0.0626 -0.0695  0.6156
 2235SOL    HW118338   2.240   0.640   1.500  2.0298  0.2529 -1.4473
 2235SOL    HW218339   2.141   0.735   1.541 -1.5753 -1.2174 -0.0098
 2236SOL     OW18340   0.490   0.798   6.762  1.2440 -0.0863  0.7145
 2236SOL    HW118341   0.559   0.799   6.696  0.6905 -2.9041  0.1104
 2236SOL    HW218342   0.462   0.890   6.755 -0.8963 -0.7298  0.7682
 2237SOL     OW18343   0.624   2.808   2.950  0.3373 -0.2226 -0.3128
 2237SOL    HW118344   0.694   2.790   3.013 -1.4288  0.6061  1.8991
 2237SOL    HW218345   0.662   2.817   2.863  0.5642  1.5365 -0.0212
 2238SOL     OW18346   3.963   3.887   9.765 -0.0366 -0.1043 -0.1791
 2238SOL    HW118347   3.982   3.980   9.753 -1.7444  0.4161  1.1634
 2238SOL    HW218348   4.046   3.843   9.785 -0.4716 -2.1546 -2.9952
 2239SOL     OW18349   4.522   4.590   6.160 -0.4124  0.6432 -0.2307
 2239SOL    HW118350   4.597   4.589   6.100 -0.0783 -0.0171  0.2020
 2239SOL    HW218351   4.563   4.637   6.232  0.3766 -2.7557  1.5279
 2240SOL     OW18352   0.196   4.196  10.283  0.2714 -0.6077  0.1277
 2240SOL    HW118353   0.282   4.182  10.321 -0.5819  0.7327  2.5556
 2240SOL    HW218354   0.198   4.290  10.299  0.0237 -0.4152 -0.9957
 2241SOL     OW18355   2.958   2.461   2.352  0.5683 -0.2779 -0.2559
 2241SOL    HW118356   2.895   2.430   2.418  1.2815  0.5153  0.7910
 2241SOL    HW218357   2.966   2.400   2.278 -2.3732 -1.1640  0.1354
 2242SOL     OW18358   3.575   0.775   7.564 -0.1722 -0.3656  0.0509
 2242SOL    HW118359   3.556   0.724   7.643  1.7903 -0.2230  0.6200
 2242SOL    HW218360   3.661   0.739   7.546 -0.0985  0.0872 -0.4906
 2243SOL     OW18361   4.318   4.688  17.074  0.2041 -0.0049 -0.2175
 2243SOL    HW118362   4.222   4.693  17.066  0.2065  0.2125 -0.1187
 2243SOL    HW218363   4.338   4.725  16.988  1.9548 -1.7399 -0.5519
 2244SOL     OW18364   0.199   0.954   3.550 -0.7921  0.1378 -1.0899
 2244SOL    HW118365   0.140   0.882   3.567  2.1563 -2.0668 -0.1369
 2244SOL    HW218366   0.150   1.020   3.501  1.4842  0.8487 -2.4219
 2245SOL     OW18367   0.470   3.072   3.083  0.1098  0.5395  0.2551
 2245SOL    HW118368   0.418   3.047   3.159 -2.0481 -1.3502 -1.8233
 2245SOL    HW218369   0.500   2.996   3.033 -2.7122  0.0118 -0.6961
 2246SOL     OW18370   4.554   0.914  15.247 -0.3255 -0.1513 -0.7120
 2246SOL    HW118371   4.568   0.877  15.334  2.1117 -0.5453 -1.2858
 2246SOL    HW218372   4.605   0.847  15.200 -0.1332  0.4339 -1.3376
 2247SOL     OW18373   3.922   3.490   5.568 -0.2509  0.1176  0.2282
 2247SOL    HW118374   3.930   3.399   5.599 -1.1549  0.0909  0.3785
 2247SOL    HW218375   3.836   3.513   5.603 -0.8897  1.0606 -1.9986
 2248SOL     OW18376   1.686   0.782   2.355 -0.2477 -0.5371 -0.3672
 2248SOL    HW118377   1.666   0.863   2.309 -1.0396 -0.1438  0.6474
 2248SOL    HW218378   1.596   0.755   2.373 -0.4985  0.0010 -0.8516
 2249SOL     OW18379   2.584   2.601   7.396 -0.2343 -0.0530 -0.0877
 2249SOL    HW118380   2.570   2.600   7.491  3.4172  0.7255  0.4554
 2249SOL    HW218381   2.667   2.554   7.401 -0.4298  0.0972  4.3278
 2250SOL     OW18382   4.666   2.333  15.302  0.2048  0.0181 -0.6746
 2250SOL    HW118383   4.595   2.310  15.242 -0.1076  0.0354 -0.3142
 2250SOL    HW218384   4.655   2.271  15.374 -1.3608  0.7680 -0.2595
 2251SOL     OW18385   1.991   1.998   4.955  0.2504 -0.4694  0.6419
 2251SOL    HW118386   1.916   1.938   4.957 -1.1852  1.3964  2.4952
 2251SOL    HW218387   1.939   2.045   5.020 -0.5509 -0.7526  0.2127
 2252SOL     OW18388   4.203   2.873   7.936 -0.6338 -0.1864  0.5551
 2252SOL    HW118389   4.194   2.783   7.966  1.6007 -0.8566 -0.8145
 2252SOL    HW218390   4.298   2.875   7.944 -0.3332 -0.2814 -2.7221
 2253SOL     OW18391   3.741   3.585   4.388 -0.6333 -0.0155 -0.0946
 2253SOL    HW118392   3.757   3.591   4.482  1.1257  0.5630 -0.4431
 2253SOL    HW218393   3.735   3.671   4.347 -0.1801  0.0468 -0.0267
 2254SOL     OW18394   4.334   0.024   5.918 -0.4943 -0.1621 -0.5851
 2254SOL    HW118395   4.289   0.032   6.002  0.6940 -0.8234  0.1053
 2254SOL    HW218396   4.418   4.721   5.946  0.0006  0.0398 -1.8186
 2255SOL     OW18397   4.145   1.142   2.625 -0.3427  0.2882  0.5536
 2255SOL    HW118398   4.192   1.063   2.600  1.0635  1.0463  0.7615
 2255SOL    HW218399   4.216   1.166   2.685 -1.7471  0.9298  1.9295
 2256SOL     OW18400   3.613   3.637   2.340  0.3369 -0.4632  0.1479
 2256SOL    HW118401   3.633   3.710   2.280 -1.3645  0.1712  0.3519
 2256SOL    HW218402   3.679   3.666   2.402 -0.0559  0.1167  0.3008
 2257SOL     OW18403   1.200   1.870   5.495  0.4656  0.3421 -0.2342
 2257SOL    HW118404   1.286   1.888   5.456  0.2950 -0.1349 -0.8295
 2257SOL    HW218405   1.144   1.885   5.418  0.1238 -3.1409 -0.6574
 2258SOL     OW18406   3.179   3.396   5.602 -0.3852 -1.0387  0.0630
 2258SOL    HW118407   3.176   3.355   5.688  0.1353  1.1757  1.1362
 2258SOL    HW218408   3.087   3.381   5.579  0.2090 -0.9216 -2.4629
 2259SOL     OW18409   3.368   2.107  10.803 -0.7836 -0.3498 -0.2498
 2259SOL    HW118410   3.443   2.088  10.746 -0.4204 -1.3516  0.5599
 2259SOL    HW218411   3.336   2.017  10.813  2.3472 -1.2071  1.9205
 2260SOL     OW18412   4.035   3.175   4.505 -0.1993  0.4254 -0.2266
 2260SOL    HW118413   3.968   3.107   4.512  0.0593  0.2731  0.7478
 2260SOL    HW218414   3.991   3.255   4.477  1.9840  1.5108 -0.5967
 2261SOL     OW18415   2.624   4.421   4.564 -0.4047  0.0643  0.2603
 2261SOL    HW118416   2.597   4.502   4.521 -0.9173 -0.8304 -1.0842
 2261SOL    HW218417   2.563   4.401   4.635  1.1513  0.4173  1.6965
 2262SOL     OW18418   4.136   2.510   4.445  0.5383  0.0943  0.2074
 2262SOL    HW118419   4.107   2.419   4.439 -0.1746  0.2268  1.6906
 2262SOL    HW218420   4.231   2.503   4.445  0.5101 -0.2979  0.0452
 2263SOL     OW18421   1.622   1.099   9.623 -0.1057 -0.3921 -0.0878
 2263SOL    HW118422   1.616   1.121   9.530  0.8352  0.2002 -0.0139
 2263SOL    HW218423   1.608   1.188   9.657 -1.1435  0.0719 -1.7164
 2264SOL     OW18424   0.055   1.720  13.474 -0.3069 -0.5952  1.0161
 2264SOL    HW118425   0.012   1.806  13.470  0.2531 -0.3779 -0.1435
 2264SOL    HW218426   0.139   1.744  13.514  0.1456 -0.9960  0.2948
 2265SOL     OW18427   3.553   1.377  13.989 -0.3474 -0.1886  0.2135
 2265SOL    HW118428   3.626   1.325  14.023 -0.0602  1.0330  1.4845
 2265SOL    HW218429   3.563   1.379  13.894  0.6838 -1.3315  0.2959
 2266SOL     OW18430   1.099   2.184   8.692  0.4536 -0.1753 -0.4379
 2266SOL    HW118431   1.102   2.088   8.689  0.4910 -0.2575  2.1904
 2266SOL    HW218432   1.147   2.203   8.612  2.0831 -0.5499  0.4465
 2267SOL     OW18433   2.244   2.204   3.064 -0.0370  0.4026 -0.5033
 2267SOL    HW118434   2.226   2.293   3.094  0.6448  0.7639 -1.1689
 2267SOL    HW218435   2.176   2.189   2.998  1.0240 -2.7579 -0.8659
 2268SOL     OW18436   2.344   1.592  11.534 -0.0603 -0.0540 -0.3720
 2268SOL    HW118437   2.419   1.644  11.506 -1.3816  1.3989 -1.1960
 2268SOL    HW218438   2.315   1.542  11.458 -0.2911  1.2002 -1.1032
 2269SOL     OW18439   4.541   3.123   3.138 -0.0506 -0.3951 -0.1661
 2269SOL    HW118440   4.563   3.194   3.198  0.7282 -1.1630  0.4567
 2269SOL    HW218441   4.612   3.114   3.074 -0.9910  0.0529 -1.2684
 2270SOL     OW18442   1.846   1.395   6.311  0.0883 -0.0614 -0.0056
 2270SOL    HW118443   1.850   1.353   6.397 -0.9121 -1.3313 -0.5752
 2270SOL    HW218444   1.761   1.438   6.318  0.4468  0.5747  0.4246
 2271SOL     OW18445   0.353   4.468  13.339  0.4281 -0.1685 -0.1584
 2271SOL    HW118446   0.321   4.486  13.427  0.5356 -0.5874 -0.0341
 2271SOL    HW218447   0.273   4.425  13.306  1.0019 -2.0722  0.9525
 2272SOL     OW18448   1.146   0.100   5.287 -0.2802 -0.0213 -0.1806
 2272SOL    HW118449   1.060   0.058   5.299 -1.1913  1.0983 -2.5901
 2272SOL    HW218450   1.179   0.047   5.214  1.5208 -0.8357  1.2241
 2273SOL     OW18451   2.757   3.677   6.577 -0.2043  0.2117  0.1538
 2273SOL    HW118452   2.739   3.608   6.512 -0.9132  0.6673 -0.1425
 2273SOL    HW218453   2.690   3.744   6.562 -1.7235 -0.8429  2.2084
 2274SOL     OW18454   2.081   1.314  14.187 -0.5398 -0.5552 -0.5479
 2274SOL    HW118455   2.144   1.328  14.257 -0.1556 -1.7981 -0.6404
 2274SOL    HW218456   2.000   1.336  14.233 -1.7262 -1.4361 -2.1751
 2275SOL     OW18457   3.175   1.690   3.263  0.8222  0.2401  0.2328
 2275SOL    HW118458   3.149   1.776   3.295 -2.1037 -1.3239  2.0826
 2275SOL    HW218459   3.130   1.628   3.321  0.2325 -0.9373 -1.4570
 2276SOL     OW18460   0.743   3.187   3.108  0.0616 -0.0025 -0.8372
 2276SOL    HW118461   0.721   3.095   3.121 -0.9469  0.1134 -1.6829
 2276SOL    HW218462   0.690   3.217   3.035 -0.6446  0.9582  0.0650
 2277SOL     OW18463   1.896   2.549  12.530 -0.5190 -0.5241 -0.1412
 2277SOL    HW118464   1.952   2.473  12.543  0.9231  0.8173  1.5802
 2277SOL    HW218465   1.903   2.589  12.617  0.9095 -0.0471 -0.4791
 2278SOL     OW18466   4.635   3.184  14.828 -0.8909 -0.4014  0.7960
 2278SOL    HW118467   4.634   3.100  14.782  1.8579 -1.4909  2.7069
 2278SOL    HW218468   4.655   3.239  14.752  1.0805 -2.0734  0.0903
 2279SOL     OW18469   1.379   2.416   2.936  0.0286  0.5889 -0.2726
 2279SOL    HW118470   1.362   2.330   2.897 -1.5340  1.0713 -0.6413
 2279SOL    HW218471   1.460   2.440   2.891  1.4114 -1.3785  1.1432
 2280SOL     OW18472   2.949   1.489   3.377 -0.2809 -0.5489  0.5613
 2280SOL    HW118473   2.926   1.532   3.458 -1.0208  1.1795 -0.5760
 2280SOL    HW218474   2.860   1.480   3.344  1.1788  0.4778 -3.7532
 2281SOL     OW18475   2.744   1.091  13.852 -0.4750 -0.0551 -0.3556
 2281SOL    HW118476   2.664   1.141  13.869  0.0151  0.4052  0.6000
 2281SOL    HW218477   2.748   1.105  13.757 -1.1222 -1.1227 -0.5284
 2282SOL     OW18478   3.851   0.431  16.981  0.3842 -0.2527  0.0028
 2282SOL    HW118479   3.832   0.443  17.074  0.7346  2.7144 -0.3056
 2282SOL    HW218480   3.864   0.520  16.948 -0.2806 -0.7980 -1.7318
 2283SOL     OW18481   2.128   1.157  10.379 -0.6446 -0.2578  0.0982
 2283SOL    HW118482   2.068   1.084  10.389 -0.4887 -0.3099  0.6643
 2283SOL    HW218483   2.203   1.110  10.343 -2.5058 -1.8356 -1.7188
 2284SOL     OW18484   1.390   0.262   2.740 -0.1569  0.5322 -0.3518
 2284SOL    HW118485   1.298   0.287   2.751 -0.3110 -0.0683 -0.3051
 2284SOL    HW218486   1.409   0.272   2.834 -1.4892 -1.2543  0.1033
 2285SOL     OW18487   4.702   0.535   6.063 -0.2543  0.3918  0.2146
 2285SOL    HW118488   0.054   0.540   6.018 -0.5184  2.5906 -0.0632
 2285SOL    HW218489   4.702   0.441   6.076 -0.3330  0.5496  1.3763
 2286SOL     OW18490   3.264   2.369   7.874  0.1926  0.3558 -0.3170
 2286SOL    HW118491   3.311   2.420   7.807  1.8132  0.0359  0.5714
 2286SOL    HW218492   3.177   2.410   7.869  0.4329  0.8404 -0.5369
 2287SOL     OW18493   2.221   1.171   9.780 -0.6140  0.1239 -0.6640
 2287SOL    HW118494   2.294   1.208   9.730 -1.3346  1.3320 -0.8252
 2287SOL    HW218495   2.267   1.173   9.864 -0.1759 -1.0726 -0.8642
 2288SOL     OW18496   1.132   3.151  12.551  0.0938 -0.2749  0.2310
 2288SOL    HW118497   1.143   3.136  12.645  4.5895  4.8178  0.5292
 2288SOL    HW218498   1.123   3.247  12.554 -0.3357 -0.3097  0.0179
 2289SOL     OW18499   4.671   4.173   3.327 -0.8049 -0.3770 -0.0323
 2289SOL    HW118500   4.622   4.255   3.319 -0.0244  0.1441  0.5820
 2289SOL    HW218501   0.013   4.200   3.381 -1.9300  3.0849 -0.2158
 2290SOL     OW18502   3.585   4.065   5.422 -0.5001  0.2961  0.5468
 2290SOL    HW118503   3.650   4.002   5.392 -0.9741  0.5828 -1.0815
 2290SOL    HW218504   3.624   4.149   5.395 -1.8721  0.7933  0.1181
 2291SOL     OW18505   4.662   2.635   6.828 -0.3636  0.3580 -0.5032
 2291SOL    HW118506   4.595   2.595   6.773  1.4213 -2.9592 -0.2396
 2291SOL    HW218507   4.668   2.574   6.902 -1.8735  0.8576  0.0439
 2292SOL     OW18508   4.717   2.227   3.248 -0.1268 -0.4177  0.2770
 2292SOL    HW118509   4.712   2.216   3.343 -0.0739  0.2741  0.3556
 2292SOL    HW218510   0.076   2.253   3.239 -0.2724  0.5145  1.4858
 2293SOL     OW18511   2.409   3.171   4.713 -0.0298  0.1638  0.0314
 2293SOL    HW118512   2.430   3.143   4.624 -1.7263  0.5134 -0.4817
 2293SOL    HW218513   2.374   3.259   4.699  0.8113  0.3257 -1.0361
 2294SOL     OW18514   3.425   3.893   8.564 -0.1852  0.5604 -0.2524
 2294SOL    HW118515   3.475   3.825   8.519 -3.1480 -1.5408 -0.3634
 2294SOL    HW218516   3.485   3.912   8.636 -1.3983  0.4215  0.7974
 2295SOL     OW18517   0.539   0.313   7.839 -0.1566  0.0123 -0.1247
 2295SOL    HW118518   0.451   0.278   7.830 -0.6776  1.2515  0.1391
 2295SOL    HW218519   0.542   0.316   7.934  0.2231 -1.4141 -0.0894
 2296SOL     OW18520   1.486   2.617  11.781  0.0375 -0.2825 -0.1718
 2296SOL    HW118521   1.526   2.686  11.727 -0.3909 -0.8777 -1.2397
 2296SOL    HW218522   1.442   2.566  11.713  0.7671  2.3223 -2.5938
 2297SOL     OW18523   2.508   1.474  11.726 -0.7275 -0.4426  0.3264
 2297SOL    HW118524   2.459   1.414  11.783 -0.1203 -0.5679  0.7224
 2297SOL    HW218525   2.446   1.500  11.659  0.7426 -1.0764 -1.2855
 2298SOL     OW18526   3.048   4.194   5.188  0.5961 -0.4158  0.1731
 2298SOL    HW118527   3.078   4.128   5.125  1.7415 -0.0566  0.3440
 2298SOL    HW218528   2.988   4.137   5.237  1.3950 -1.4383 -0.0364
 2299SOL     OW18529   0.076   0.061   6.329  0.0201 -0.2037 -0.0169
 2299SOL    HW118530   0.061   0.079   6.421 -1.5507  1.7640 -0.6744
 2299SOL    HW218531   0.050   0.147   6.297  0.6353  0.2067  0.6021
 2300SOL     OW18532   2.975   4.269   6.690  0.3943 -0.2998  0.2238
 2300SOL    HW118533   2.919   4.224   6.626 -1.7599  1.9580  0.5007
 2300SOL    HW218534   2.915   4.337   6.721 -0.6336 -0.6275 -1.0262
 2301SOL     OW18535   3.838   4.017   3.185  0.0541  0.3437 -0.2355
 2301SOL    HW118536   3.813   4.107   3.207  1.4253  0.4410  0.9029
 2301SOL    HW218537   3.862   3.972   3.266 -2.2879 -0.7580 -0.1553
 2302SOL     OW18538   0.149   1.650   7.132 -0.1493 -0.0949  1.0260
 2302SOL    HW118539   0.145   1.730   7.185 -0.1914  0.8136 -0.3546
 2302SOL    HW218540   0.120   1.582   7.193 -1.1208  2.4179  3.3761
 2303SOL     OW18541   3.844   1.691   3.665  0.3791  0.5218 -0.0049
 2303SOL    HW118542   3.929   1.735   3.662  1.0723 -0.8068  0.4823
 2303SOL    HW218543   3.799   1.728   3.741  2.7269 -1.7472  2.4887
 2304SOL     OW18544   0.209   0.201   4.712 -0.1153 -0.0334  0.8269
 2304SOL    HW118545   0.170   0.150   4.783 -2.2800 -1.4948 -1.3581
 2304SOL    HW218546   0.210   0.128   4.650 -1.8274 -0.6393  1.5107
 2305SOL     OW18547   3.253   1.677  16.370 -0.0488 -0.0538  0.9426
 2305SOL    HW118548   3.266   1.715  16.457  1.1797  0.8170  0.3919
 2305SOL    HW218549   3.186   1.740  16.344  1.5410  0.8758 -0.8910
 2306SOL     OW18550   2.788   1.058   3.466  0.1196 -0.1014  0.0924
 2306SOL    HW118551   2.705   1.107   3.469 -0.7282 -1.6520  1.9409
 2306SOL    HW218552   2.840   1.114   3.524  1.1804 -0.8173 -0.1786
 2307SOL     OW18553   1.066   4.355   7.556 -0.5941 -0.1078 -0.3794
 2307SOL    HW118554   0.975   4.344   7.529 -0.1427  0.2258 -2.0620
 2307SOL    HW218555   1.059   4.355   7.651  0.4259 -0.7997 -0.3055
 2308SOL     OW18556   1.264   1.695  11.764  0.9343  0.1864 -0.2200
 2308SOL    HW118557   1.320   1.740  11.828  1.6121  0.9070 -1.3303
 2308SOL    HW218558   1.242   1.619  11.820 -0.0187 -0.7888 -1.9178
 2309SOL     OW18559   1.471   3.501   9.406 -0.7599  0.4678  0.0523
 2309SOL    HW118560   1.565   3.518   9.400 -0.6231 -0.4492 -0.4742
 2309SOL    HW218561   1.473   3.417   9.361  0.0758  0.9160 -0.7405
 2310SOL     OW18562   4.234   4.047   6.172 -0.1641 -0.1125  0.2707
 2310SOL    HW118563   4.240   4.034   6.267 -2.1527  0.6725  0.4963
 2310SOL    HW218564   4.179   4.125   6.179  2.3900  1.6268  0.9081
 2311SOL     OW18565   2.596   0.438  15.727  0.0881  0.0541 -0.4563
 2311SOL    HW118566   2.536   0.486  15.670 -0.7248  0.5609  0.8336
 2311SOL    HW218567   2.537   0.402  15.794  1.4898  1.4125  1.5089
 2312SOL     OW18568   1.336   1.601   0.081 -0.5811 -0.6854 -0.1393
 2312SOL    HW118569   1.354   1.638  17.725 -1.5327  0.4775  0.1608
 2312SOL    HW218570   1.274   1.658   0.127 -1.9951 -0.1842 -2.6615
 2313SOL     OW18571   4.266   1.507   4.095 -0.1793 -0.9339 -0.2242
 2313SOL    HW118572   4.248   1.537   4.006  1.5018  1.1306  0.1399
 2313SOL    HW218573   4.350   1.469   4.069 -0.6591 -1.9111 -0.3388
 2314SOL     OW18574   3.404   2.959   8.091  0.0399  0.1054  0.0171
 2314SOL    HW118575   3.419   2.987   8.181 -0.5596  1.2692 -0.2508
 2314SOL    HW218576   3.489   2.932   8.055  0.9696  1.2150  1.4004
 2315SOL     OW18577   1.369   4.228   2.622  0.0998  0.1326 -0.3550
 2315SOL    HW118578   1.448   4.205   2.573  0.0569 -0.4948 -0.1285
 2315SOL    HW218579   1.406   4.270   2.699 -0.7142  2.6263 -1.3352
 2316SOL     OW18580   1.699   2.427  14.563  0.9262  0.0227  0.1879
 2316SOL    HW118581   1.635   2.381  14.618  1.9160 -1.5196  0.0613
 2316SOL    HW218582   1.775   2.383  14.600  2.3387  2.5121  0.2652
 2317SOL     OW18583   4.430   2.962   5.427 -0.0561  0.0612  0.5415
 2317SOL    HW118584   4.350   2.919   5.457  0.9738 -2.7512 -0.7436
 2317SOL    HW218585   4.457   2.912   5.350  0.2352  0.4738  0.3771
 2318SOL     OW18586   3.065   3.038   6.783  1.0181  0.2094 -0.1273
 2318SOL    HW118587   3.124   3.065   6.853 -2.4580  1.0033  2.5046
 2318SOL    HW218588   3.101   2.953   6.759  1.1669  0.3289 -0.3309
 2319SOL     OW18589   3.092   3.856   0.424  0.6013  0.6703  0.2695
 2319SOL    HW118590   3.117   3.944   0.453  1.9489  0.4625 -0.2632
 2319SOL    HW218591   2.999   3.867   0.407  0.5304  1.5326  1.1805
 2320SOL     OW18592   2.175   4.541   6.198 -1.0544  0.0362 -0.1540
 2320SOL    HW118593   2.116   4.561   6.271  0.7583 -0.1067  1.3393
 2320SOL    HW218594   2.229   4.471   6.234 -1.6061 -0.8691 -1.0857
 2321SOL     OW18595   4.688   1.560   2.858 -0.0662  0.2223  0.4033
 2321SOL    HW118596   4.727   1.497   2.918 -0.0938  0.8440  1.0859
 2321SOL    HW218597   4.671   1.519   2.773 -0.9136  1.4297 -0.0123
 2322SOL     OW18598   0.357   0.285   5.786 -0.4647  0.1314  0.1634
 2322SOL    HW118599   0.306   0.264   5.708  2.9691  1.0812 -2.3595
 2322SOL    HW218600   0.289   0.316   5.845 -0.8876  0.7187 -0.6319
 2323SOL     OW18601   2.875   0.309  14.173 -0.5000  0.0712  0.1881
 2323SOL    HW118602   2.955   0.332  14.125 -2.2694 -0.6144 -3.0468
 2323SOL    HW218603   2.814   0.380  14.155  0.6861  0.7946 -0.9227
 2324SOL     OW18604   2.720   1.160   1.247 -0.0375 -0.0618 -0.2705
 2324SOL    HW118605   2.658   1.216   1.294  0.5592 -2.4938  3.3937
 2324SOL    HW218606   2.682   1.168   1.160  0.8801  2.4786 -0.4207
 2325SOL     OW18607   4.674   4.388   2.051  0.2248  0.2781  0.4275
 2325SOL    HW118608   4.635   4.460   2.002  1.0219  0.4197 -0.0136
 2325SOL    HW218609   4.727   4.436   2.114  1.0323 -2.2250  1.6536
 2326SOL     OW18610   2.966   4.439   5.980 -0.1421  0.3966  0.3835
 2326SOL    HW118611   2.929   4.407   5.898 -2.8730  0.5484  1.5302
 2326SOL    HW218612   2.983   4.528   5.948  0.8686  1.0631  2.7376
 2327SOL     OW18613   0.791   1.509   5.805 -0.2730  0.2542 -0.2453
 2327SOL    HW118614   0.732   1.461   5.747  0.2442  0.1724 -0.6998
 2327SOL    HW218615   0.810   1.586   5.752  2.5627  1.8193  3.0628
 2328SOL     OW18616   4.272   4.503  13.671  0.3136  0.3323 -0.1946
 2328SOL    HW118617   4.344   4.465  13.620  0.4338 -0.8724  0.8744
 2328SOL    HW218618   4.231   4.562  13.607 -1.6192 -1.2543 -0.4251
 2329SOL     OW18619   2.988   2.006  12.253 -0.5612  0.0768 -0.4790
 2329SOL    HW118620   3.029   1.962  12.180 -2.4306 -3.3567  0.5572
 2329SOL    HW218621   2.963   2.094  12.224 -2.1409  0.3820  1.8020
 2330SOL     OW18622   0.237   0.205   9.631  0.4257  0.4386  0.1734
 2330SOL    HW118623   0.279   0.260   9.565  0.7960 -1.7936 -1.4230
 2330SOL    HW218624   0.309   0.153   9.666  1.4370  0.6499 -1.5877
 2331SOL     OW18625   2.961   2.716   7.698  0.4417 -0.4198 -0.8596
 2331SOL    HW118626   2.990   2.771   7.771 -0.1655 -1.3003  0.0337
 2331SOL    HW218627   2.959   2.629   7.737  1.4643 -0.0876 -0.0616
 2332SOL     OW18628   1.835   2.049   1.198  0.1699 -0.4817 -0.3709
 2332SOL    HW118629   1.752   2.059   1.244  0.4723 -0.1491  0.0982
 2332SOL    HW218630   1.893   2.102   1.253  0.2006 -1.3292  0.4224
 2333SOL     OW18631   0.395   4.054   7.888  0.2904 -0.9452  0.0134
 2333SOL    HW118632   0.375   4.087   7.976  2.0483  4.3942 -1.6087
 2333SOL    HW218633   0.446   4.130   7.861  0.2914 -1.6209 -1.8811
 2334SOL     OW18634   2.025   3.196   3.031 -0.2815  0.1144  0.0761
 2334SOL    HW118635   1.968   3.197   2.954  0.7443  0.9483 -0.6719
 2334SOL    HW218636   2.030   3.102   3.047  0.5949  0.3724  1.3091
 2335SOL     OW18637   0.081   3.434  10.404  0.4210  0.4618 -0.7888
 2335SOL    HW118638   0.089   3.455  10.497  0.0416 -1.8804 -0.2245
 2335SOL    HW218639   0.065   3.340  10.408  2.0154  0.2324  0.4890
 2336SOL     OW18640   2.182   4.591   3.840 -0.1573  0.2038 -0.2591
 2336SOL    HW118641   2.193   4.566   3.931  1.0954 -2.5016 -1.1583
 2336SOL    HW218642   2.110   4.537   3.809  0.5125 -0.1473 -1.1917
 2337SOL     OW18643   2.238   2.796   6.090  0.5269 -0.4908  0.5802
 2337SOL    HW118644   2.263   2.797   6.182  2.0135  3.4667  0.1527
 2337SOL    HW218645   2.183   2.874   6.099  1.7065  0.4977 -0.6744
 2338SOL     OW18646   0.044   3.361   4.675  0.2130 -0.4250  0.4325
 2338SOL    HW118647   4.725   3.439   4.655 -0.5062 -1.3221 -1.2099
 2338SOL    HW218648   0.003   3.306   4.607 -0.4311 -1.5166  1.7068
 2339SOL     OW18649   0.270   2.202  14.381  0.0360  0.5097  0.4477
 2339SOL    HW118650   0.190   2.156  14.405  0.9057 -1.2975 -0.1094
 2339SOL    HW218651   0.297   2.157  14.301  0.5996 -0.2637  1.0636
 2340SOL     OW18652   0.285   1.192  10.371 -0.1618  0.6381 -0.0675
 2340SOL    HW118653   0.318   1.176  10.282  1.0457 -0.8999  0.6676
 2340SOL    HW218654   0.224   1.120  10.386 -1.6071  2.3805  2.4563
 2341SOL     OW18655   0.791   3.450   7.900 -0.2015  0.2502 -0.0592
 2341SOL    HW118656   0.711   3.488   7.938 -1.2502 -1.6585 -0.3856
 2341SOL    HW218657   0.795   3.378   7.963  3.5373  1.2295  0.8130
 2342SOL     OW18658   4.642   3.701   6.618 -0.1030 -0.1273 -0.2329
 2342SOL    HW118659   4.725   3.745   6.602 -1.7408  3.7961  1.9176
 2342SOL    HW218660   4.611   3.753   6.692 -0.5510 -0.3136 -0.2913
 2343SOL     OW18661   2.876   4.027  12.691  0.0417 -0.1545 -0.4922
 2343SOL    HW118662   2.814   4.069  12.751 -0.5619 -1.3687 -0.2676
 2343SOL    HW218663   2.944   4.001  12.752 -0.8527 -0.9590  0.1624
 2344SOL     OW18664   4.217   0.265   1.911  0.1149  0.3025 -0.4700
 2344SOL    HW118665   4.267   0.247   1.991  2.1394 -0.1005 -1.8209
 2344SOL    HW218666   4.135   0.220   1.933  0.0015  0.2900 -0.9263
 2345SOL     OW18667   3.680   0.757  11.550 -0.5152  0.1512  0.2269
 2345SOL    HW118668   3.658   0.818  11.621 -1.6698  0.2972 -0.2675
 2345SOL    HW218669   3.750   0.807  11.507 -0.1395 -1.7442 -1.3382
 2346SOL     OW18670   3.517   4.688   2.189 -0.0213  0.8053  0.1582
 2346SOL    HW118671   3.499   0.044   2.217  1.2165  0.5992  1.5794
 2346SOL    HW218672   3.458   4.679   2.114  2.0760  1.5149 -1.5851
 2347SOL     OW18673   1.804   2.560  15.266  0.3047 -0.3127 -0.1982
 2347SOL    HW118674   1.809   2.514  15.350 -1.8772  0.4757  0.3647
 2347SOL    HW218675   1.887   2.529  15.230  0.3038 -0.8753  0.2937
 2348SOL     OW18676   2.675   1.258   6.946 -0.1060  0.0289  0.1291
 2348SOL    HW118677   2.733   1.295   6.879 -1.0489  0.9317 -0.1712
 2348SOL    HW218678   2.646   1.339   6.988  1.2892  1.1361 -1.0283
 2349SOL     OW18679   3.654   2.929  10.795  0.6449 -0.0978  0.3208
 2349SOL    HW118680   3.665   2.877  10.875 -0.9829  0.1254  0.6811
 2349SOL    HW218681   3.625   3.012  10.833  0.8055  0.4463 -0.7393
 2350SOL     OW18682   4.704   2.030   7.652  0.1448  0.7845  0.0562
 2350SOL    HW118683   0.043   2.093   7.659 -0.1234  1.1902 -0.9154
 2350SOL    HW218684   4.630   2.078   7.689  0.4811  0.9091  0.5862
 2351SOL     OW18685   4.479   2.424   8.144 -0.3376 -0.0842 -0.1914
 2351SOL    HW118686   4.516   2.353   8.197 -1.2890 -0.1897  0.3426
 2351SOL    HW218687   4.550   2.445   8.083 -0.3314 -4.6402 -1.8314
 2352SOL     OW18688   2.236   3.732   4.904 -0.5853  0.3424 -0.4835
 2352SOL    HW118689   2.229   3.772   4.992 -1.0021  0.9808 -0.8025
 2352SOL    HW218690   2.273   3.793   4.840 -0.8232  0.1338 -0.8188
 2353SOL     OW18691   3.975   1.311  12.704 -0.0906  0.2232  0.2656
 2353SOL    HW118692   4.013   1.248  12.765  1.5886  0.2621 -0.7100
 2353SOL    HW218693   3.898   1.261  12.676 -0.6139  1.4674 -0.5079
 2354SOL     OW18694   1.885   0.992  11.548  0.2817 -0.3912 -0.0676
 2354SOL    HW118695   1.861   1.081  11.571 -1.0773 -0.1988 -2.1673
 2354SOL    HW218696   1.878   0.946  11.631  4.3884 -0.1929  0.3755
 2355SOL     OW18697   1.596   2.556   2.828  0.7635  0.1967 -0.8027
 2355SOL    HW118698   1.634   2.470   2.843 -0.2098 -0.0230  0.3892
 2355SOL    HW218699   1.670   2.598   2.784  0.5712  0.9962 -0.3677
 2356SOL     OW18700   3.917   2.203   4.297  0.0395 -0.2644  0.1999
 2356SOL    HW118701   3.946   2.237   4.213 -0.0116 -2.2105 -0.6019
 2356SOL    HW218702   4.002   2.205   4.343  0.7289 -1.2950 -1.0125
 2357SOL     OW18703   0.289   0.025   9.380 -0.4672 -0.5206  0.1486
 2357SOL    HW118704   0.265   4.672   9.344 -3.3658  1.1152 -1.8165
 2357SOL    HW218705   0.375   0.009   9.417 -0.6991 -0.1148  0.8698
 2358SOL     OW18706   3.438   3.319   2.798  0.2996 -0.6908  0.4498
 2358SOL    HW118707   3.445   3.351   2.708 -1.1952  0.8264  0.8688
 2358SOL    HW218708   3.358   3.268   2.788 -0.9201  1.3919 -0.2631
 2359SOL     OW18709   0.332   4.478   0.468  0.5241  0.0147 -0.2607
 2359SOL    HW118710   0.390   4.467   0.544  0.8021  1.5516 -0.2359
 2359SOL    HW218711   0.278   4.400   0.471  2.8028 -1.5860 -1.0183
 2360SOL     OW18712   3.585   1.600   5.187  0.5911 -0.2192  0.8280
 2360SOL    HW118713   3.607   1.598   5.280 -0.9672 -0.3065  1.1945
 2360SOL    HW218714   3.551   1.688   5.171  1.6799  0.0653  0.0200
 2361SOL     OW18715   4.446   0.556   5.946 -0.0105 -0.7078  0.6290
 2361SOL    HW118716   4.527   0.574   5.994  0.9728  0.2761 -1.4188
 2361SOL    HW218717   4.470   0.484   5.888 -1.6043 -1.3319  0.7274
 2362SOL     OW18718   4.205   0.681   8.245  0.0881 -0.1526 -0.6789
 2362SOL    HW118719   4.135   0.641   8.296  3.2670 -1.1692  2.9747
 2362SOL    HW218720   4.220   0.750   8.310 -4.2812  1.4416 -1.3979
 2363SOL     OW18721   4.522   4.115  17.679 -0.2068 -0.2681  0.3554
 2363SOL    HW118722   4.470   4.043  17.714 -2.9144 -0.3112 -3.6813
 2363SOL    HW218723   4.609   4.081  17.694 -0.9100 -0.8793  3.1008
 2364SOL     OW18724   0.645   4.400   4.934 -0.2965  0.1201  0.3806
 2364SOL    HW118725   0.630   4.460   5.008  0.7257  0.4770  0.3026
 2364SOL    HW218726   0.740   4.400   4.921 -0.7571  2.5411 -2.9444
 2365SOL     OW18727   0.786   2.981   6.097  0.5055  0.1112 -0.0842
 2365SOL    HW118728   0.854   2.937   6.147 -0.2556 -0.2080  0.6561
 2365SOL    HW218729   0.756   2.921   6.028  2.2511  0.6175 -1.3049
 2366SOL     OW18730   0.111   4.043  11.584  0.0665 -0.3277 -0.3603
 2366SOL    HW118731   0.053   4.060  11.658  0.0255  0.6123 -0.6171
 2366SOL    HW218732   0.057   4.060  11.508  0.4698  1.8236 -0.1605
 2367SOL     OW18733   3.615   3.895   3.602  0.4797  0.4346 -0.1119
 2367SOL    HW118734   3.614   3.982   3.563  1.0229  0.4188 -0.1626
 2367SOL    HW218735   3.678   3.857   3.541  0.7944 -1.1651  1.2104
 2368SOL     OW18736   4.104   1.580  11.627  0.1342 -0.2622 -0.2381
 2368SOL    HW118737   4.102   1.667  11.587 -2.8232 -1.9685 -3.7785
 2368SOL    HW218738   4.121   1.609  11.716  0.9473 -0.9432 -0.1689
 2369SOL     OW18739   3.204   3.597   4.045  0.0978  0.2690  0.1511
 2369SOL    HW118740   3.175   3.578   4.134 -0.8169  2.1589  0.2583
 2369SOL    HW218741   3.287   3.551   4.031 -1.5310 -2.8170  0.6912
 2370SOL     OW18742   4.016   3.145  15.219  0.9206  0.3011  0.8002
 2370SOL    HW118743   4.052   3.074  15.165 -0.0411 -0.4891  1.1920
 2370SOL    HW218744   4.014   3.216  15.154  2.6876 -0.0666  0.3480
 2371SOL     OW18745   3.539   1.025   2.887  0.3043  0.4883 -0.2507
 2371SOL    HW118746   3.546   1.109   2.933 -1.9745  0.2793  0.4900
 2371SOL    HW218747   3.445   1.005   2.886  0.5252 -0.5312 -0.5440
 2372SOL     OW18748   0.836   4.613   9.163  0.0606  0.1102 -0.0882
 2372SOL    HW118749   0.814   4.706   9.169 -0.2451 -0.0186  0.8543
 2372SOL    HW218750   0.876   4.587   9.247 -0.3067 -0.7203 -0.1762
 2373SOL     OW18751   2.515   1.306   3.799 -0.4722 -0.1191 -0.1859
 2373SOL    HW118752   2.539   1.214   3.786 -0.5096 -0.2606  0.7542
 2373SOL    HW218753   2.463   1.305   3.878  1.5342 -0.0877  1.1441
 2374SOL     OW18754   2.915   3.746   3.177 -0.1696 -0.2999 -0.0904
 2374SOL    HW118755   2.886   3.754   3.268 -0.6167  2.9821 -0.5127
 2374SOL    HW218756   2.957   3.831   3.163  0.1504  0.3051  4.4655
 2375SOL     OW18757   0.366   1.258   2.944 -0.2471 -0.2266 -0.2374
 2375SOL    HW118758   0.313   1.276   2.866 -0.5218 -1.5904 -0.3539
 2375SOL    HW218759   0.451   1.252   2.901 -1.2677  0.5909 -2.3593
 2376SOL     OW18760   3.686   1.691  10.889 -0.6329  0.1032 -0.0812
 2376SOL    HW118761   3.696   1.598  10.910 -1.4460 -0.1315 -0.7462
 2376SOL    HW218762   3.652   1.694  10.799 -0.9637 -0.6215  0.0212
 2377SOL     OW18763   2.599   0.510   2.332  0.0977 -0.1109  0.3342
 2377SOL    HW118764   2.556   0.505   2.417  0.7133 -0.3142  0.6311
 2377SOL    HW218765   2.634   0.421   2.327  1.4199  0.5161 -1.8126
 2378SOL     OW18766   4.129   4.011  16.958 -0.3571 -0.5009 -0.2631
 2378SOL    HW118767   4.127   3.945  16.889 -1.3506  0.3902 -1.0906
 2378SOL    HW218768   4.205   3.979  17.007  1.0534  2.8641 -0.2995
 2379SOL     OW18769   2.815   3.567   9.041  0.1153  0.7286 -0.3778
 2379SOL    HW118770   2.763   3.489   9.021  0.6071 -0.2979  2.3186
 2379SOL    HW218771   2.899   3.527   9.018  0.4795  2.1819 -1.5472
 2380SOL     OW18772   4.407   2.182   4.343  0.3891  0.5649 -0.2872
 2380SOL    HW118773   4.495   2.184   4.379 -0.0090 -1.4505  0.7937
 2380SOL    HW218774   4.413   2.157   4.251  1.3043 -0.0550 -0.0539
 2381SOL     OW18775   3.415   0.239   5.608 -0.0644  0.3747 -0.2325
 2381SOL    HW118776   3.377   0.246   5.696  2.0441 -0.6074  0.7385
 2381SOL    HW218777   3.352   0.174   5.575  0.5014  0.3467 -1.2571
 2382SOL     OW18778   3.024   1.099   4.352 -0.0644 -0.0100 -0.3253
 2382SOL    HW118779   2.960   1.161   4.388 -1.7604 -1.3946 -0.9434
 2382SOL    HW218780   3.106   1.147   4.358 -0.0666  0.3922 -3.5794
 2383SOL     OW18781   0.447   2.873   0.942 -0.1983  0.9107  0.1292
 2383SOL    HW118782   0.445   2.884   1.037  1.3933 -0.1794  0.3023
 2383SOL    HW218783   0.420   2.963   0.928 -0.5044  1.2419  2.8242
 2384SOL     OW18784   4.332   0.493   2.190  0.5066 -0.2562 -0.2848
 2384SOL    HW118785   4.341   0.400   2.172 -1.1945 -0.0703 -2.0669
 2384SOL    HW218786   4.275   0.516   2.117 -0.3756  0.4753  0.6337
 2385SOL     OW18787   1.805   3.270   9.139 -0.7250 -0.2124  0.2263
 2385SOL    HW118788   1.855   3.245   9.062 -0.3626  2.3882 -0.3854
 2385SOL    HW218789   1.776   3.359   9.117  0.7856  0.3431  0.5110
 2386SOL     OW18790   2.623   4.005   7.533  0.2368  0.5062  0.1297
 2386SOL    HW118791   2.697   4.029   7.588  1.7262  0.0314 -1.6448
 2386SOL    HW218792   2.644   3.915   7.511  0.0508  0.7828 -1.1852
 2387SOL     OW18793   0.147   0.304   9.178 -0.4197 -0.1057 -0.1465
 2387SOL    HW118794   0.160   0.399   9.184 -1.9159  0.0963 -0.2668
 2387SOL    HW218795   0.187   0.272   9.259 -0.1443  0.4225 -0.0693
 2388SOL     OW18796   2.342   1.177   8.157 -0.1746  0.4142  0.1023
 2388SOL    HW118797   2.273   1.191   8.091 -0.5312  0.8262  0.5602
 2388SOL    HW218798   2.289   1.163   8.235 -0.7495 -5.1508 -1.2822
 2389SOL     OW18799   3.033   1.977   9.346  0.0291  0.4840 -0.0653
 2389SOL    HW118800   3.095   1.918   9.389 -1.1135 -1.1004 -0.6009
 2389SOL    HW218801   3.046   1.966   9.252 -2.1766  1.3066 -0.4556
 2390SOL     OW18802   3.443   0.800  13.522 -0.0575  0.0955  0.3443
 2390SOL    HW118803   3.521   0.852  13.541  0.5753 -0.2519 -1.2571
 2390SOL    HW218804   3.474   0.735  13.458 -3.4729 -3.4041  2.2638
 2391SOL     OW18805   0.203   3.640   4.397  0.3407  0.2875 -0.8182
 2391SOL    HW118806   0.113   3.628   4.368  0.5062 -4.0408  0.4724
 2391SOL    HW218807   0.238   3.694   4.326  0.1471  2.5244  0.7738
 2392SOL     OW18808   2.507   1.608  15.748 -0.1336  0.3732  0.1791
 2392SOL    HW118809   2.599   1.634  15.760  1.0943 -2.7741 -2.2689
 2392SOL    HW218810   2.485   1.562  15.829  1.1878  0.3335  0.5191
 2393SOL     OW18811   3.413   2.467  10.239 -0.4082 -0.6916  0.4585
 2393SOL    HW118812   3.415   2.489  10.146  0.7546 -0.4076  0.5552
 2393SOL    HW218813   3.470   2.536  10.273 -0.7587  0.9554 -2.2640
 2394SOL     OW18814   0.122   2.126  11.866  0.5478 -0.5992  0.2346
 2394SOL    HW118815   0.162   2.095  11.947 -0.0496 -0.2643  0.6642
 2394SOL    HW218816   0.029   2.127  11.889  0.5680  0.7609  0.2485
 2395SOL     OW18817   4.382   1.536   8.470  0.3016  0.3445  0.4861
 2395SOL    HW118818   4.449   1.555   8.404  0.4828  3.7761  1.6480
 2395SOL    HW218819   4.328   1.470   8.426 -0.0786  0.7973  0.2748
 2396SOL     OW18820   4.467   4.656   5.621  0.0636 -0.0700  0.6165
 2396SOL    HW118821   4.377   4.687   5.631  0.4004  0.9702  0.3668
 2396SOL    HW218822   4.518   0.004   5.612  0.7240 -0.5691 -0.0795
 2397SOL     OW18823   4.604   2.515   4.317 -1.2151  0.0410 -0.0804
 2397SOL    HW118824   4.679   2.563   4.283 -2.5444  1.6473 -0.7588
 2397SOL    HW218825   4.524   2.563   4.295 -0.6789  0.7156 -0.5381
 2398SOL     OW18826   0.912   2.586   3.983  0.0850  0.5810  0.1309
 2398SOL    HW118827   0.985   2.579   3.921  0.3196 -1.6716  0.6734
 2398SOL    HW218828   0.907   2.681   3.995  2.2450  0.8835 -1.2358
 2399SOL     OW18829   2.799   2.691  16.404  0.0925 -0.1725  0.0512
 2399SOL    HW118830   2.762   2.777  16.425  0.4119 -0.3950  1.5673
 2399SOL    HW218831   2.788   2.688  16.309  0.3126  1.0847 -0.0125
 2400SOL     OW18832   1.910   2.214   0.638 -0.1837  0.7662 -0.4465
 2400SOL    HW118833   1.889   2.221   0.545 -2.7812  0.5567  0.1185
 2400SOL    HW218834   2.000   2.246   0.640  1.3370 -3.3545 -1.8523
 2401SOL     OW18835   3.610   0.736   8.749 -0.1658 -0.3985 -0.0295
 2401SOL    HW118836   3.654   0.689   8.821 -0.0022 -2.0195 -1.1907
 2401SOL    HW218837   3.572   0.657   8.710 -0.7411 -1.1592  2.0379
 2402SOL     OW18838   4.165   4.321   8.150  0.1735  0.2055  0.0760
 2402SOL    HW118839   4.132   4.396   8.200 -0.2102  1.1180 -1.5501
 2402SOL    HW218840   4.086   4.298   8.100  0.0618 -0.2507  0.4594
 2403SOL     OW18841   3.715   4.272   7.652 -0.3044 -0.4064 -0.4392
 2403SOL    HW118842   3.688   4.224   7.574 -0.8346 -1.2960  0.2950
 2403SOL    HW218843   3.667   4.355   7.645  0.4242 -0.0771 -1.5443
 2404SOL     OW18844   0.649   1.549   7.802  0.5900  0.4025 -0.4167
 2404SOL    HW118845   0.584   1.480   7.819 -0.0583  0.6459 -1.9262
 2404SOL    HW218846   0.703   1.527   7.878  0.5823  1.2091 -0.1826
 2405SOL     OW18847   0.936   4.246   9.737  0.0866  0.0091  0.0366
 2405SOL    HW118848   1.017   4.293   9.717  0.3035 -0.3165  0.1556
 2405SOL    HW218849   0.977   4.162   9.758 -0.4499 -0.2574  0.0286
 2406SOL     OW18850   0.670   0.083   5.239 -0.0217 -0.8040 -0.0738
 2406SOL    HW118851   0.726   0.159   5.255 -0.1187 -1.1153  1.6994
 2406SOL    HW218852   0.637   0.105   5.151  3.1996  0.8398 -0.8817
 2407SOL     OW18853   3.088   3.945   3.125  0.3030  0.3662  0.0779
 2407SOL    HW118854   3.071   4.032   3.090  0.5664  0.3749 -0.0300
 2407SOL    HW218855   3.175   3.927   3.089  0.7311 -2.0810  2.3108
 2408SOL     OW18856   3.572   1.440  17.695 -0.5051  0.3724 -0.2996
 2408SOL    HW118857   3.508   1.459  17.626 -1.3431  0.2755  0.4523
 2408SOL    HW218858   3.518   1.406   0.036 -0.5440  0.3613 -0.3342
 2409SOL     OW18859   2.900   3.940   6.827 -0.3012 -0.4753 -0.2304
 2409SOL    HW118860   2.823   3.952   6.882 -0.1025  1.5993 -0.4350
 2409SOL    HW218861   2.938   3.866   6.876 -1.6427 -0.4869  0.8036
 2410SOL     OW18862   0.842   1.358   3.534  0.0731  0.4937 -0.0278
 2410SOL    HW118863   0.828   1.272   3.575  0.7924  0.4803  0.1983
 2410SOL    HW218864   0.856   1.327   3.445 -1.8009  0.1730 -0.2063
 2411SOL     OW18865   0.093   1.606  10.023  0.2818  0.6566 -0.1307
 2411SOL    HW118866   0.002   1.599   9.994 -0.3709  0.8642  1.8808
 2411SOL    HW218867   0.110   1.513  10.039 -0.0500  0.3269 -1.6930
 2412SOL     OW18868   2.879   2.829   3.539 -0.1377  0.9329  0.3034
 2412SOL    HW118869   2.865   2.923   3.532  1.5093  1.0922 -0.7602
 2412SOL    HW218870   2.787   2.805   3.546  0.0859  0.1101  0.4402
 2413SOL     OW18871   2.665   0.900   2.028  0.1383  0.4241  0.3994
 2413SOL    HW118872   2.759   0.918   2.037  0.5940  0.0505 -3.7938
 2413SOL    HW218873   2.644   0.864   2.114  1.7439  1.2996  1.1722
 2414SOL     OW18874   4.100   0.691   5.068 -0.2719  0.1736  0.4152
 2414SOL    HW118875   4.111   0.730   5.155 -2.2515 -0.1008  0.7885
 2414SOL    HW218876   4.006   0.697   5.051 -0.6999 -1.9666  2.0610
 2415SOL     OW18877   0.716   3.013   6.410  0.4623  0.2081 -0.6729
 2415SOL    HW118878   0.787   2.997   6.348  0.1605  0.3583 -1.0508
 2415SOL    HW218879   0.756   3.075   6.471 -0.6277 -0.1756  0.4326
 2416SOL     OW18880   3.831   0.020   3.450  0.4971 -0.1382 -0.1017
 2416SOL    HW118881   3.763   0.015   3.517  1.8310  0.8519  1.3283
 2416SOL    HW218882   3.872   0.106   3.457 -0.1971 -0.1992  4.4596
 2417SOL     OW18883   0.870   1.859  15.279 -0.2187 -0.4630 -0.0031
 2417SOL    HW118884   0.796   1.811  15.242  0.1606 -0.3843 -0.8745
 2417SOL    HW218885   0.903   1.900  15.199  1.1948  1.5810  1.6282
 2418SOL     OW18886   2.882   4.629   4.190 -0.0562  0.8596  0.3664
 2418SOL    HW118887   2.790   4.605   4.203 -0.4311  1.2305 -1.4985
 2418SOL    HW218888   2.876   4.724   4.198 -0.4705  0.9586 -0.9871
 2419SOL     OW18889   0.486   0.807   4.315 -0.8519 -0.3540 -0.2427
 2419SOL    HW118890   0.486   0.900   4.338  0.4512 -0.2791 -0.5894
 2419SOL    HW218891   0.441   0.806   4.231  0.8729  1.1275 -1.1864
 2420SOL     OW18892   2.389   4.190   3.903 -0.3992 -0.0357 -0.0192
 2420SOL    HW118893   2.457   4.171   3.839 -0.4503 -2.4289  0.6656
 2420SOL    HW218894   2.437   4.180   3.985  0.7905 -1.2954 -0.8849
 2421SOL     OW18895   3.692   4.358  16.138  0.1878 -0.6334  0.6057
 2421SOL    HW118896   3.742   4.301  16.196 -0.2959 -0.8884  0.7772
 2421SOL    HW218897   3.715   4.319  16.054  3.9071 -0.2313  1.4317
 2422SOL     OW18898   4.445   0.395   7.470  0.2173 -0.0415 -0.6024
 2422SOL    HW118899   4.397   0.430   7.545  1.0549  0.6943 -0.4092
 2422SOL    HW218900   4.460   0.479   7.426 -4.9441  0.9734 -0.4208
 2423SOL     OW18901   0.841   2.248   9.217 -0.2186  0.6593 -0.2068
 2423SOL    HW118902   0.783   2.190   9.167  0.6728  0.7414 -1.3347
 2423SOL    HW218903   0.795   2.242   9.301  0.9822  1.0903  0.4764
 2424SOL     OW18904   0.990   4.171  17.648  0.4049 -0.4919  0.8648
 2424SOL    HW118905   0.973   4.224  17.726 -0.0834  0.0650  0.3831
 2424SOL    HW218906   0.972   4.238  17.582 -2.5330 -1.4371  0.6585
 2425SOL     OW18907   3.162   3.433  14.796  0.6420 -0.1274  0.6231
 2425SOL    HW118908   3.071   3.410  14.779  0.1980 -0.2960  3.2713
 2425SOL    HW218909   3.146   3.497  14.865  0.3090  0.3395  0.1167
 2426SOL     OW18910   1.104   2.146   9.265 -0.0773  0.0517 -0.1412
 2426SOL    HW118911   1.031   2.198   9.297  0.2759 -0.9619  2.2991
 2426SOL    HW218912   1.048   2.098   9.204 -1.5057  1.3579  0.1513
 2427SOL     OW18913   3.960   0.667   8.089 -0.0224  0.3459 -0.0576
 2427SOL    HW118914   4.043   0.675   8.135 -0.2128  0.0287  0.3382
 2427SOL    HW218915   3.901   0.726   8.137 -0.5263  0.3115 -0.6360
 2428SOL     OW18916   2.388   2.441  12.974  0.5505  0.2346 -0.0924
 2428SOL    HW118917   2.475   2.455  12.937  0.9154  1.1025  1.0989
 2428SOL    HW218918   2.373   2.536  12.980  0.0666  0.1258  0.4000
 2429SOL     OW18919   1.827   0.389   2.445 -0.1227  0.7248  0.0747
 2429SOL    HW118920   1.788   0.341   2.372 -0.1266 -0.1584  0.6678
 2429SOL    HW218921   1.764   0.356   2.510 -1.3126  2.8365  0.0073
 2430SOL     OW18922   3.256   2.754  15.955  0.4097  0.1725  0.0590
 2430SOL    HW118923   3.236   2.803  16.035  0.5433  1.7217 -0.8531
 2430SOL    HW218924   3.304   2.823  15.908  0.9034 -0.1799  0.0460
 2431SOL     OW18925   1.350   1.959   7.876 -0.5613 -0.3779 -0.0081
 2431SOL    HW118926   1.385   2.006   7.800 -0.1179  0.9471  1.0124
 2431SOL    HW218927   1.398   2.002   7.947 -0.9351  1.3015 -0.7608
 2432SOL     OW18928   4.420   4.318   3.313  0.0970 -0.3997  0.1901
 2432SOL    HW118929   4.472   4.365   3.249 -0.4889 -1.3954 -1.0290
 2432SOL    HW218930   4.342   4.373   3.302  0.0720 -0.2343  1.1570
 2433SOL     OW18931   2.898   2.752   3.204 -0.2648 -0.0656 -0.2966
 2433SOL    HW118932   2.912   2.688   3.134 -0.2383 -0.2717 -0.1015
 2433SOL    HW218933   2.827   2.705   3.249  0.3165 -0.6264  0.0240
 2434SOL     OW18934   4.292   3.158  14.590  0.1729 -0.4041  0.5076
 2434SOL    HW118935   4.289   3.247  14.555  1.8906 -0.9483 -1.0225
 2434SOL    HW218936   4.233   3.109  14.532 -2.8923  1.4453  2.1034
 2435SOL     OW18937   0.344   1.892   5.477  0.6466  0.0292  0.3755
 2435SOL    HW118938   0.417   1.832   5.493 -0.0461 -1.9597 -4.0905
 2435SOL    HW218939   0.269   1.855   5.524  0.7955 -1.1219 -0.3200
 2436SOL     OW18940   0.319   1.044   9.963 -0.0062  0.1050 -0.0118
 2436SOL    HW118941   0.409   1.015   9.948  0.2705  0.5447  0.8618
 2436SOL    HW218942   0.314   1.092   9.880 -0.9483 -1.0136 -0.5993
 2437SOL     OW18943   3.257   4.430   2.839 -0.3551  0.0616  0.9127
 2437SOL    HW118944   3.306   4.507   2.813  0.2580 -0.1977  1.2917
 2437SOL    HW218945   3.319   4.368   2.799  0.1563  0.5327  0.9764
 2438SOL     OW18946   4.418   2.519   6.776  0.2348  0.2744 -0.5380
 2438SOL    HW118947   4.328   2.512   6.744 -0.1358  1.0454  0.3323
 2438SOL    HW218948   4.458   2.448   6.727  0.9071  0.7143 -0.6179
 2439SOL     OW18949   1.236   1.140   9.020 -0.2379  0.3382  0.4960
 2439SOL    HW118950   1.267   1.053   8.997  0.0551  0.6732 -0.3678
 2439SOL    HW218951   1.153   1.122   9.065 -0.0320 -0.5663  0.4975
 2440SOL     OW18952   3.082   1.449  10.088  0.2090 -0.2356 -0.3857
 2440SOL    HW118953   3.139   1.513  10.129  1.8278 -0.4370 -2.3503
 2440SOL    HW218954   3.074   1.379  10.153  0.9318 -0.4930 -0.5775
 2441SOL     OW18955   4.612   2.724  13.558  0.5127  0.0964  0.1832
 2441SOL    HW118956   4.697   2.681  13.558 -0.3445 -1.5876 -1.3571
 2441SOL    HW218957   4.548   2.656  13.538 -0.0994  1.4913 -2.6245
 2442SOL     OW18958   1.828   2.183   5.124  0.6702 -0.0229 -0.2073
 2442SOL    HW118959   1.878   2.257   5.090  0.1200  0.0019 -0.9523
 2442SOL    HW218960   1.740   2.193   5.089 -0.3307 -0.6493  2.1556
 2443SOL     OW18961   2.686   2.384  15.188  0.5210  0.3676  0.1060
 2443SOL    HW118962   2.710   2.334  15.109  1.1079 -0.9039  1.0889
 2443SOL    HW218963   2.615   2.441  15.159  0.4179  0.2356  0.0977
 2444SOL     OW18964   2.873   1.101   3.047  0.4225  1.0923 -0.3365
 2444SOL    HW118965   2.898   1.126   3.136 -1.1830 -1.4586  0.8579
 2444SOL    HW218966   2.784   1.072   3.064 -0.3449  3.6957  0.0233
 2445SOL     OW18967   2.800   3.152   3.506  0.0119 -0.0453  0.2659
 2445SOL    HW118968   2.873   3.190   3.555  0.2939  0.9750 -0.9430
 2445SOL    HW218969   2.750   3.230   3.481  0.4657 -0.2713 -1.3929
 2446SOL     OW18970   1.027   2.083   9.868  0.0868 -0.2060  0.1100
 2446SOL    HW118971   1.075   2.158   9.903  2.3683 -0.4304 -2.4919
 2446SOL    HW218972   1.019   2.037   9.951 -0.5132 -1.0081 -0.3945
 2447SOL     OW18973   2.404   3.767   7.966 -0.6471  0.1714 -0.5572
 2447SOL    HW118974   2.459   3.836   7.929  1.9627 -0.5375  2.0486
 2447SOL    HW218975   2.322   3.813   7.983  0.5634  1.8436  0.6570
 2448SOL     OW18976   3.400   0.977   4.169  1.1310 -0.2204 -0.2224
 2448SOL    HW118977   3.342   1.025   4.110  0.4052 -1.8185 -0.8199
 2448SOL    HW218978   3.374   1.006   4.256 -1.3346 -0.9745 -0.7015
 2449SOL     OW18979   2.200   2.981  16.832  0.3027 -0.1948  0.3774
 2449SOL    HW118980   2.247   2.898  16.823 -0.2470 -0.2959 -1.6179
 2449SOL    HW218981   2.108   2.957  16.819  0.2291  0.3639 -0.1263
 2450SOL     OW18982   3.687   0.858   9.469  0.1602  0.2994  0.1359
 2450SOL    HW118983   3.705   0.780   9.521  3.4604  0.3197 -0.9806
 2450SOL    HW218984   3.738   0.832   9.392 -1.5064 -1.0980 -0.4996
 2451SOL     OW18985   2.120   4.660   8.280  0.0178 -0.2267 -0.1509
 2451SOL    HW118986   2.170   4.728   8.235 -0.6416  0.2046 -0.2432
 2451SOL    HW218987   2.079   4.710   8.351  0.4209 -2.1386  1.4323
 2452SOL     OW18988   2.186   2.296   8.778 -0.2647  0.4296  0.0358
 2452SOL    HW118989   2.155   2.215   8.819  2.5359 -0.8992 -0.4932
 2452SOL    HW218990   2.280   2.275   8.775 -0.5740 -0.9569 -0.1855
 2453SOL     OW18991   1.545   3.398   5.776 -0.3018 -0.0756  0.3182
 2453SOL    HW118992   1.480   3.463   5.750  0.3096 -0.1292 -1.3428
 2453SOL    HW218993   1.603   3.406   5.700 -0.6322 -1.6793 -0.1206
 2454SOL     OW18994   2.047   3.926   6.240 -0.2726  0.2880  0.3028
 2454SOL    HW118995   2.068   4.015   6.214 -1.7086  0.2066 -1.1233
 2454SOL    HW218996   1.972   3.939   6.299  0.0669 -0.6931  0.9558
 2455SOL     OW18997   1.349   2.837   5.647  0.0927  0.2572  0.3861
 2455SOL    HW118998   1.325   2.894   5.720 -0.6827  0.7999 -0.2932
 2455SOL    HW218999   1.308   2.753   5.669  1.5961 -0.6265 -0.2118
 2456SOL     OW19000   4.706   0.058   9.436 -0.0138  0.2277 -0.5500
 2456SOL    HW119001   0.060   0.055   9.477 -0.7880  0.2719  1.0654
 2456SOL    HW219002   4.683   0.149   9.454  0.5388 -0.1229  1.8757
 2457SOL     OW19003   2.213   2.879   7.983  0.5011  0.3491  0.4794
 2457SOL    HW119004   2.290   2.834   7.947 -0.8921 -1.9942  0.4703
 2457SOL    HW219005   2.250   2.965   8.002  2.4782  0.3161 -3.1256
 2458SOL     OW19006   2.618   3.073   0.860  0.3648  0.2971  0.0366
 2458SOL    HW119007   2.553   3.041   0.922 -1.5955  2.2129 -1.0386
 2458SOL    HW219008   2.559   3.116   0.797 -1.2965 -3.3027 -0.8894
 2459SOL     OW19009   2.722   1.540   9.075  0.1140 -0.0757  0.1817
 2459SOL    HW119010   2.800   1.487   9.091  0.6082  0.6949  0.2926
 2459SOL    HW219011   2.708   1.561   9.167 -1.7701  1.1381 -0.3767
 2460SOL     OW19012   2.147   4.273   2.465 -0.4423 -0.2678 -0.4372
 2460SOL    HW119013   2.100   4.199   2.504 -2.5089  1.0788 -0.3658
 2460SOL    HW219014   2.128   4.339   2.532 -0.6573 -2.5454  1.7259
 2461SOL     OW19015   3.746   1.687   0.224  0.2660  0.0302 -0.1036
 2461SOL    HW119016   3.739   1.755   0.157  0.3992 -1.5718 -1.7455
 2461SOL    HW219017   3.760   1.728   0.309  0.6583  2.1994 -1.2057
 2462SOL     OW19018   0.846   2.323   9.909  0.3489 -0.5200 -0.0013
 2462SOL    HW119019   0.917   2.376   9.872 -0.5607  0.2619 -0.6372
 2462SOL    HW219020   0.770   2.374   9.881 -0.5046 -1.0136  1.4089
 2463SOL     OW19021   1.755   0.193   7.845  0.1611  0.1399 -0.1495
 2463SOL    HW119022   1.672   0.199   7.893  0.3881  3.5126 -0.1748
 2463SOL    HW219023   1.713   0.174   7.761  1.2115  0.3476 -0.7115
 2464SOL     OW19024   0.024   1.910   8.080  0.0848  0.2673  0.3816
 2464SOL    HW119025   0.020   1.887   7.988 -0.1850 -0.5388  0.5939
 2464SOL    HW219026   0.104   1.962   8.092 -0.5684  1.7101 -1.5845
 2465SOL     OW19027   4.417   1.447  10.462  0.5190 -0.1892  0.9756
 2465SOL    HW119028   4.350   1.499  10.418 -0.5494 -2.1130  0.3022
 2465SOL    HW219029   4.371   1.439  10.545  2.6545  1.0421  2.2633
 2466SOL     OW19030   4.543   1.764   6.610  0.1043  0.1853  0.2307
 2466SOL    HW119031   4.453   1.786   6.584 -0.4928 -2.1687  0.3470
 2466SOL    HW219032   4.567   1.678   6.576 -0.3390 -0.0251  0.4506
 2467SOL     OW19033   0.038   2.857   0.184  0.6193  0.6020  0.3714
 2467SOL    HW119034   4.720   2.776   0.181 -0.3315  1.2214 -0.2107
 2467SOL    HW219035   4.704   2.926   0.179 -2.3073 -2.1532  1.0722
 2468SOL     OW19036   0.136   3.487   1.190 -0.4586 -0.0961 -0.0363
 2468SOL    HW119037   0.081   3.543   1.245  0.5933  1.5486 -0.6755
 2468SOL    HW219038   0.203   3.474   1.257  0.6742 -0.9264 -1.3194
 2469SOL     OW19039   0.567   2.959  15.410 -0.4822  0.0124  0.2874
 2469SOL    HW119040   0.620   2.906  15.351 -1.9750  2.1325 -2.9632
 2469SOL    HW219041   0.508   2.894  15.448 -0.7325 -1.2758 -2.2922
 2470SOL     OW19042   4.698   2.437   7.520 -0.2971 -0.3026  0.2091
 2470SOL    HW119043   4.732   2.483   7.596  1.5757 -2.1874  0.5218
 2470SOL    HW219044   4.617   2.396   7.552 -1.0593  0.3758 -0.8620
 2471SOL     OW19045   4.216   3.001   6.544  0.2560 -0.4117  0.6341
 2471SOL    HW119046   4.241   3.005   6.452  1.8650 -0.8116  1.0444
 2471SOL    HW219047   4.174   2.916   6.559  0.1806 -0.2430  1.3762
 2472SOL     OW19048   4.140   2.081   7.061 -0.4522  0.2576  0.4418
 2472SOL    HW119049   4.218   2.086   7.117 -1.1913 -1.7743  1.6817
 2472SOL    HW219050   4.116   2.173   7.053  4.5653  1.6113  1.2212
 2473SOL     OW19051   1.260   1.908  11.498 -0.0456 -0.2908 -0.1023
 2473SOL    HW119052   1.290   1.933  11.412 -2.9706  1.6111 -0.5747
 2473SOL    HW219053   1.294   1.818  11.494 -0.9029 -0.7089  1.9207
 2474SOL     OW19054   1.800   1.944  11.258  0.3617 -0.0480 -0.3465
 2474SOL    HW119055   1.773   2.034  11.276  0.4814  0.3840 -2.2843
 2474SOL    HW219056   1.824   1.913  11.345  0.5008  0.5742 -0.1664
 2475SOL     OW19057   0.386   2.797   6.292 -0.4011  0.0035 -0.0869
 2475SOL    HW119058   0.324   2.736   6.253  1.1954 -0.9569 -1.1179
 2475SOL    HW219059   0.323   2.835   6.353 -2.2573  1.6208 -3.0515
 2476SOL     OW19060   3.406   4.167   7.871 -0.3470  0.1731 -0.3990
 2476SOL    HW119061   3.439   4.162   7.781 -1.2454  0.1677 -0.7189
 2476SOL    HW219062   3.314   4.149   7.853  0.5610 -2.2625 -2.6248
 2477SOL     OW19063   0.161   2.187  13.979  0.2242  0.1509 -0.2967
 2477SOL    HW119064   0.137   2.226  14.063  2.2765 -2.4517  1.5228
 2477SOL    HW219065   0.075   2.152  13.958  1.0193 -1.8139 -0.2971
 2478SOL     OW19066   1.422   1.856  13.439  0.0066  0.7139  0.3377
 2478SOL    HW119067   1.515   1.832  13.438  0.1314  1.2118  0.1415
 2478SOL    HW219068   1.392   1.819  13.523  2.6715  0.3108  1.1210
 2479SOL     OW19069   1.853   0.158  16.571 -0.6388  0.9608  0.2264
 2479SOL    HW119070   1.869   0.097  16.643 -1.4035 -0.4353 -0.7909
 2479SOL    HW219071   1.763   0.134  16.550 -0.4579  0.6954 -0.2458
 2480SOL     OW19072   4.177   3.963   4.335  0.7836 -0.0940 -0.1136
 2480SOL    HW119073   4.114   3.933   4.400  1.3746  0.6267  0.7989
 2480SOL    HW219074   4.119   3.987   4.263 -0.0182 -0.1480  0.5136
 2481SOL     OW19075   0.474   0.075   9.691 -0.1277  0.0095 -0.8936
 2481SOL    HW119076   0.458   4.713   9.696 -0.4761  0.0002 -2.1737
 2481SOL    HW219077   0.569   0.077   9.684  0.1468  0.5232  2.7111
 2482SOL     OW19078   2.225   1.487  14.920  0.0399 -0.1918  0.4343
 2482SOL    HW119079   2.206   1.535  14.840 -0.9121 -0.4185  0.5275
 2482SOL    HW219080   2.155   1.517  14.979  1.1987  1.6226  0.9016
 2483SOL     OW19081   4.289   0.037   6.541  0.3805 -0.0769  0.3616
 2483SOL    HW119082   4.219   0.103   6.547  1.3167  1.2708 -3.8680
 2483SOL    HW219083   4.247   4.684   6.551 -0.9404  0.3506 -1.4772
 2484SOL     OW19084   2.939   1.021   5.275  0.0462  0.4337  0.0458
 2484SOL    HW119085   2.940   1.034   5.370  1.2854 -0.7787  0.2129
 2484SOL    HW219086   2.958   1.107   5.239  0.6681  0.6696  0.9123
 2485SOL     OW19087   1.537   2.241   8.850 -0.2484 -0.2626 -0.0893
 2485SOL    HW119088   1.602   2.311   8.860 -0.1659 -0.4059  0.3741
 2485SOL    HW219089   1.454   2.288   8.839  1.4691  2.1091 -2.7277
 2486SOL     OW19090   3.486   3.328   1.719 -0.4251  0.0977  0.1953
 2486SOL    HW119091   3.518   3.346   1.631 -0.7937 -1.9755 -0.3538
 2486SOL    HW219092   3.416   3.392   1.733  0.5514  1.1149  0.5219
 2487SOL     OW19093   1.534   2.639   6.762  0.0857 -0.0453  0.0424
 2487SOL    HW119094   1.569   2.708   6.819 -0.7040 -0.1752  0.6884
 2487SOL    HW219095   1.457   2.681   6.724 -0.0032  0.1806  0.4729
 2488SOL     OW19096   2.258   3.864   5.454 -0.4872  0.1160 -0.1174
 2488SOL    HW119097   2.198   3.933   5.483  1.2432  1.8531 -0.7418
 2488SOL    HW219098   2.312   3.858   5.533 -1.5080 -1.4586  0.4619
 2489SOL     OW19099   0.597   4.686   2.884  0.1216  0.4036  0.1344
 2489SOL    HW119100   0.601   0.049   2.884  0.9976  0.3687 -1.2497
 2489SOL    HW219101   0.631   4.670   2.972 -1.4649 -1.0545  0.5007
 2490SOL     OW19102   1.773   0.398  14.442  0.7930  0.0903 -0.0656
 2490SOL    HW119103   1.689   0.397  14.489  0.6325 -1.6671 -0.4008
 2490SOL    HW219104   1.761   0.384  14.348 -2.5865 -0.7264  0.5003
 2491SOL     OW19105   3.024   4.226   3.545 -0.0582  0.0806 -0.6018
 2491SOL    HW119106   2.937   4.259   3.526  0.8116  1.4398 -2.2376
 2491SOL    HW219107   3.007   4.141   3.504 -0.6270 -0.3362  0.4924
 2492SOL     OW19108   0.065   2.368   3.786  0.0739  0.6317  0.2725
 2492SOL    HW119109   0.112   2.289   3.812  0.1247  1.2685  2.1316
 2492SOL    HW219110   4.713   2.323   3.792  1.8212 -2.5088  1.5519
 2493SOL     OW19111   3.805   0.436   5.412 -0.2718  0.2472  0.7425
 2493SOL    HW119112   3.805   0.532   5.420 -0.6955  0.3970 -1.2180
 2493SOL    HW219113   3.714   0.414   5.433 -0.7331  0.9356 -0.5091
 2494SOL     OW19114   3.553   3.235   6.910  0.1197 -0.2315  0.1558
 2494SOL    HW119115   3.645   3.217   6.892 -0.3248  0.7668 -3.1439
 2494SOL    HW219116   3.519   3.147   6.931  3.1819 -1.0110  1.9115
 2495SOL     OW19117   0.949   0.827   9.655 -0.4184  0.4614  0.4163
 2495SOL    HW119118   0.960   0.771   9.578 -0.8513 -0.9868  1.3951
 2495SOL    HW219119   0.892   0.772   9.710  0.2082 -1.2319 -0.6208
 2496SOL     OW19120   3.141   1.878   9.092 -0.3363 -0.6160 -0.1463
 2496SOL    HW119121   3.072   1.863   9.028 -1.0234 -1.4051  0.7827
 2496SOL    HW219122   3.218   1.854   9.041  0.7695 -0.4892  1.4581
 2497SOL     OW19123   2.519   1.187   6.244  0.0536 -0.1636  0.5422
 2497SOL    HW119124   2.554   1.106   6.206 -1.0055 -1.4497  2.2640
 2497SOL    HW219125   2.432   1.166   6.277  0.3573  0.2095  1.6131
 2498SOL     OW19126   4.284   4.664  16.347  0.0121 -0.3362 -0.3406
 2498SOL    HW119127   4.344   4.594  16.320  0.3039  0.8427 -2.7041
 2498SOL    HW219128   4.247   4.701  16.267  1.6059 -3.2843 -2.4253
 2499SOL     OW19129   1.928   3.131   2.771  0.3596  0.2899  0.1158
 2499SOL    HW119130   1.987   3.150   2.697  2.8113  2.4030  2.5865
 2499SOL    HW219131   1.863   3.201   2.763 -0.5395 -0.2674  2.6317
 2500SOL     OW19132   2.085   0.831   7.797  0.2249 -0.7193  0.5161
 2500SOL    HW119133   2.129   0.746   7.795  3.2770  0.9084 -1.3741
 2500SOL    HW219134   2.000   0.818   7.840 -0.4519  4.8606  0.7883
 2501SOL     OW19135   0.421   4.463   0.963 -0.2513 -0.0402  0.0520
 2501SOL    HW119136   0.515   4.455   0.946 -0.3789 -0.3685 -0.4890
 2501SOL    HW219137   0.420   4.536   1.025 -1.3944  0.4863 -0.5884
 2502SOL     OW19138   2.641   4.484   4.140 -0.2600  0.0906  0.2390
 2502SOL    HW119139   2.584   4.490   4.063 -0.4090 -1.4588  0.2305
 2502SOL    HW219140   2.592   4.515   4.216 -1.0326  1.3961 -0.7789
 2503SOL     OW19141   3.139   3.642  17.601  0.6908 -0.5390  0.0542
 2503SOL    HW119142   3.098   3.706  17.542  0.4285 -0.3033  0.4872
 2503SOL    HW219143   3.224   3.683  17.614  0.0825  0.7436  0.0711
 2504SOL     OW19144   0.730   2.063   3.349  0.4374  0.2518 -0.0536
 2504SOL    HW119145   0.824   2.047   3.360  0.4934  0.6251  0.0119
 2504SOL    HW219146   0.688   2.010   3.417  3.3184 -1.2596  0.5460
 2505SOL     OW19147   2.245   0.638   7.187 -0.4252 -0.5564  0.4719
 2505SOL    HW119148   2.241   0.668   7.278 -1.5144  1.5363 -0.2940
 2505SOL    HW219149   2.327   0.679   7.159 -0.6109 -0.4278  0.1249
 2506SOL     OW19150   4.245   0.085   3.812 -0.0028  0.1582 -0.1301
 2506SOL    HW119151   4.150   0.098   3.813  0.2702  2.4093 -3.0900
 2506SOL    HW219152   4.257   0.131   3.729 -0.9815 -0.0787 -0.4093
 2507SOL     OW19153   2.330   0.060   1.873  0.0955 -0.7125  0.5561
 2507SOL    HW119154   2.280   0.142   1.878 -2.0753 -2.0295  0.3310
 2507SOL    HW219155   2.282   0.001   1.932  0.7587 -0.9175  0.8919
 2508SOL     OW19156   0.930   3.067   5.024  0.1480  0.2559  0.0964
 2508SOL    HW119157   0.944   2.974   5.043 -0.9815 -0.5177 -2.8882
 2508SOL    HW219158   0.848   3.065   5.074  0.1324  2.5411  0.1754
 2509SOL     OW19159   1.844   3.601  11.550 -0.4440  0.5509 -0.6627
 2509SOL    HW119160   1.751   3.594  11.571 -0.7695 -0.4104 -2.4220
 2509SOL    HW219161   1.855   3.671  11.615  1.2527  1.6574 -2.1431
 2510SOL     OW19162   3.775   1.296  10.694 -0.4249 -0.2576 -0.2928
 2510SOL    HW119163   3.754   1.213  10.651 -0.8158  0.1554 -0.8929
 2510SOL    HW219164   3.766   1.353  10.618  2.3108  0.8266  0.1884
 2511SOL     OW19165   3.963   0.564   5.648  0.6224 -0.9301 -0.3275
 2511SOL    HW119166   3.887   0.506   5.643 -1.1435  1.4633 -1.1774
 2511SOL    HW219167   4.021   0.509   5.700 -0.0606 -1.9810 -0.6926
 2512SOL     OW19168   4.269   1.255   5.874  0.3498  0.2707 -0.0472
 2512SOL    HW119169   4.268   1.232   5.781  0.5988 -0.5891  0.1614
 2512SOL    HW219170   4.361   1.280   5.885 -0.1300  1.0838  2.0411
 2513SOL     OW19171   3.153   4.160  15.105 -0.9144 -0.1653 -0.0315
 2513SOL    HW119172   3.218   4.152  15.036 -1.4214  0.3252 -0.5629
 2513SOL    HW219173   3.157   4.254  15.124  0.4440 -0.0611 -0.8863
 2514SOL     OW19174   0.996   1.736   4.891 -0.5001  0.0253 -0.0606
 2514SOL    HW119175   1.047   1.788   4.829 -1.0075  0.5152 -0.0669
 2514SOL    HW219176   0.999   1.653   4.845  0.1228 -0.7257  1.3410
 2515SOL     OW19177   1.891   0.728   7.028  0.5830 -0.6835 -0.4528
 2515SOL    HW119178   1.858   0.640   7.005  1.2126 -0.9246 -0.4253
 2515SOL    HW219179   1.942   0.762   6.955 -1.1222  0.1179 -1.2790
 2516SOL     OW19180   3.561   3.790  14.642  0.1306  0.4627  0.4605
 2516SOL    HW119181   3.485   3.813  14.590  0.1622 -1.8636 -0.6031
 2516SOL    HW219182   3.566   3.695  14.630 -0.9317  0.6333 -1.2863
 2517SOL     OW19183   4.455   2.318   3.602  0.7028  0.1909  0.5357
 2517SOL    HW119184   4.386   2.382   3.619  2.1478  2.0527 -0.6018
 2517SOL    HW219185   4.532   2.372   3.583  0.2130  0.8262  0.3832
 2518SOL     OW19186   2.423   2.501   2.932  0.5645 -0.3739 -0.4047
 2518SOL    HW119187   2.420   2.565   3.003  2.2632 -0.9693  0.1985
 2518SOL    HW219188   2.467   2.429   2.977  3.4453  0.9483 -1.0874
 2519SOL     OW19189   1.748   2.882   5.941 -0.1075  0.6209  0.3440
 2519SOL    HW119190   1.694   2.946   5.895 -0.4287 -1.3315 -2.0124
 2519SOL    HW219191   1.679   2.820   5.965 -0.0019 -0.1924 -1.4073
 2520SOL     OW19192   0.744   1.279   8.302  0.2115  0.4756  0.2349
 2520SOL    HW119193   0.836   1.275   8.276 -0.6488 -2.1968 -2.3137
 2520SOL    HW219194   0.749   1.361   8.352  2.5115  0.6411 -0.2710
 2521SOL     OW19195   2.004   0.912  10.261 -0.0525 -0.3697 -0.7102
 2521SOL    HW119196   1.914   0.937  10.240 -0.2311 -0.6259 -0.2532
 2521SOL    HW219197   2.045   0.921  10.175 -0.0308 -1.5290 -0.8155
 2522SOL     OW19198   0.129   4.277   4.374 -0.0732  0.1255 -0.6099
 2522SOL    HW119199   0.137   4.262   4.468  0.9023 -2.2680 -1.0946
 2522SOL    HW219200   0.190   4.210   4.344  0.9286  0.6091  0.3540
 2523SOL     OW19201   3.305   3.531   0.762  0.1071  0.3067 -0.1901
 2523SOL    HW119202   3.293   3.444   0.722  1.4647  0.6948 -1.4523
 2523SOL    HW219203   3.315   3.599   0.695  1.1419  0.8252  0.4989
 2524SOL     OW19204   3.096   1.029  10.797  0.0197  0.2632 -0.4609
 2524SOL    HW119205   3.132   1.103  10.846 -0.0119 -0.6281  0.9155
 2524SOL    HW219206   3.025   1.075  10.753 -0.7109 -0.0472  0.3890
 2525SOL     OW19207   0.381   1.817   1.007  0.1296 -0.0282 -0.0799
 2525SOL    HW119208   0.367   1.883   0.938  0.5887  0.3244  0.1605
 2525SOL    HW219209   0.439   1.864   1.066  1.9040 -0.2757 -1.6357
 2526SOL     OW19210   0.176   2.797  17.695 -0.0202 -0.5286 -0.5762
 2526SOL    HW119211   0.161   2.703  17.698 -1.4144 -0.2464  1.6942
 2526SOL    HW219212   0.137   2.822   0.049  2.0296  0.6439  0.0424
 2527SOL     OW19213   4.292   4.426   6.598  0.0451 -0.3669 -0.1620
 2527SOL    HW119214   4.209   4.459   6.563 -0.6387 -1.1063  0.7667
 2527SOL    HW219215   4.277   4.440   6.691  0.0746  3.1038 -0.6860
 2528SOL     OW19216   3.349   1.494   4.076  0.5180 -0.0467 -0.3219
 2528SOL    HW119217   3.367   1.439   4.153 -2.1475 -0.3938  0.0371
 2528SOL    HW219218   3.262   1.466   4.046  0.9182 -0.9965 -0.6015
 2529SOL     OW19219   0.265   3.640   6.832  0.0949  0.4084  0.2773
 2529SOL    HW119220   0.294   3.549   6.820  1.5241  0.8444  0.3844
 2529SOL    HW219221   0.200   3.646   6.902 -0.1123 -1.2596  0.2410
 2530SOL     OW19222   3.507   0.418   0.963 -0.0623  0.1751  0.0150
 2530SOL    HW119223   3.473   0.505   0.940  0.6976  0.4434 -0.0836
 2530SOL    HW219224   3.561   0.404   0.885 -0.7747 -1.8936 -0.0974
 2531SOL     OW19225   4.717   2.804   4.315  0.3627  0.1848 -0.2618
 2531SOL    HW119226   4.640   2.795   4.258  0.9164  1.2933 -1.1837
 2531SOL    HW219227   0.029   2.877   4.272  2.2899  0.2231  1.8036
 2532SOL     OW19228   3.165   0.352   1.993  0.1722 -0.2354 -0.1003
 2532SOL    HW119229   3.142   0.399   1.913  0.5337  0.4482  0.2038
 2532SOL    HW219230   3.159   0.416   2.064 -1.1963 -1.1093  0.5892
 2533SOL     OW19231   2.023   3.030  14.162  0.0301 -0.0564  0.2186
 2533SOL    HW119232   2.001   3.087  14.235  1.7925  1.9847 -0.8341
 2533SOL    HW219233   2.112   3.064  14.148 -0.1481 -2.9263 -8.2654
 2534SOL     OW19234   1.328   3.016   7.901  0.0520 -0.2385 -1.0114
 2534SOL    HW119235   1.417   3.024   7.934 -0.4706 -2.8626  1.0448
 2534SOL    HW219236   1.332   3.068   7.821 -2.4395  0.3830 -0.7545
 2535SOL     OW19237   1.184   3.067   5.955 -0.6301  0.1440  0.4958
 2535SOL    HW119238   1.126   3.045   5.882  0.2988 -0.5464 -0.0433
 2535SOL    HW219239   1.254   3.110   5.905  3.3503 -5.6994  0.9642
 2536SOL     OW19240   2.444   2.425   6.197 -0.4269  0.7202  0.0583
 2536SOL    HW119241   2.391   2.428   6.117  1.2651 -1.8829 -1.1596
 2536SOL    HW219242   2.532   2.450   6.170  0.1588 -1.3909 -0.0110
 2537SOL     OW19243   2.317   4.151  11.864  0.1999 -0.4988 -0.1663
 2537SOL    HW119244   2.296   4.110  11.780 -1.7781 -0.3053  0.2252
 2537SOL    HW219245   2.261   4.227  11.849  0.0225 -0.5515  0.2321
 2538SOL     OW19246   0.645   4.640   3.675 -0.3346 -0.0741  0.1554
 2538SOL    HW119247   0.641   0.000   3.654 -0.4554 -0.2731 -0.7013
 2538SOL    HW219248   0.723   4.611   3.627  0.6249  0.9026  1.1149
 2539SOL     OW19249   0.148   0.341   6.260  0.6935 -0.3887  0.4091
 2539SOL    HW119250   0.192   0.425   6.269  2.5724 -1.2794 -0.5375
 2539SOL    HW219251   0.105   0.340   6.346  1.7336  2.5432  0.9477
 2540SOL     OW19252   3.483   0.407  14.866  0.3875 -0.5938  0.3815
 2540SOL    HW119253   3.472   0.315  14.842 -2.4077  0.0069 -0.5767
 2540SOL    HW219254   3.397   0.447  14.853  1.9203  2.4058 -0.4918
 2541SOL     OW19255   4.535   0.583   3.259  0.2832 -0.1074  0.0631
 2541SOL    HW119256   4.537   0.667   3.214  0.0007 -0.2696 -0.2552
 2541SOL    HW219257   4.621   0.544   3.248  0.1874 -0.2339 -0.2263
 2542SOL     OW19258   1.433   3.940   5.722  0.4557 -0.2072 -0.5976
 2542SOL    HW119259   1.505   3.877   5.730 -0.0183 -0.7888 -0.9133
 2542SOL    HW219260   1.359   3.886   5.749  0.5607  0.3006  0.6848
 2543SOL     OW19261   3.076   1.331   5.390  0.4547 -0.2095 -0.1139
 2543SOL    HW119262   3.090   1.425   5.393 -0.6602  0.0088 -2.0197
 2543SOL    HW219263   3.162   1.301   5.422 -0.5331 -4.5046 -1.4144
 2544SOL     OW19264   3.265   1.334   4.651  0.1240 -0.0809  0.2658
 2544SOL    HW119265   3.346   1.374   4.682 -0.4680  0.9089  0.5443
 2544SOL    HW219266   3.240   1.287   4.730  2.7307 -0.8397  0.6495
 2545SOL     OW19267   4.275   0.549   9.721  0.4197 -0.2481 -0.2146
 2545SOL    HW119268   4.268   0.644   9.724 -2.1039 -0.3513 -3.5850
 2545SOL    HW219269   4.368   0.536   9.701  0.1876 -1.3871 -0.5717
 2546SOL     OW19270   0.833   4.683  10.999 -0.5327  0.4420  0.1114
 2546SOL    HW119271   0.816   4.695  11.092 -1.7895 -1.1954  0.0865
 2546SOL    HW219272   0.755   4.634  10.974  0.7877 -0.9574 -1.2516
 2547SOL     OW19273   3.118   2.121   4.378  0.0998  0.3723 -0.2525
 2547SOL    HW119274   3.159   2.069   4.447  0.0607  0.7799  0.0791
 2547SOL    HW219275   3.041   2.146   4.429 -0.9032 -0.3081 -1.4272
 2548SOL     OW19276   3.759   4.470   8.231 -0.0729 -0.0284 -0.4613
 2548SOL    HW119277   3.670   4.437   8.242 -0.8125  2.8178  2.0028
 2548SOL    HW219278   3.800   4.438   8.311 -1.3316 -0.0344  0.1867
 2549SOL     OW19279   4.415   4.501   8.955 -0.4584  0.2131  0.3599
 2549SOL    HW119280   4.510   4.516   8.950 -0.7459  1.6674 -0.6600
 2549SOL    HW219281   4.383   4.589   8.972 -1.8066  0.1217 -1.7776
 2550SOL     OW19282   2.290   3.939   4.330 -0.7795 -0.2097 -0.0534
 2550SOL    HW119283   2.279   3.965   4.239 -1.7251  0.8022  0.3488
 2550SOL    HW219284   2.220   3.982   4.379  1.7521  2.4670  1.2072
 2551SOL     OW19285   2.275   4.701   7.339  0.1765 -0.1770  0.1889
 2551SOL    HW119286   2.269   0.056   7.301  2.8332  0.3903  1.0570
 2551SOL    HW219287   2.340   4.712   7.409  0.6594 -1.0783 -0.1160
 2552SOL     OW19288   3.461   1.797   0.945  0.5003  0.0303 -1.0146
 2552SOL    HW119289   3.406   1.756   1.012 -0.0574  1.1156 -0.8016
 2552SOL    HW219290   3.474   1.734   0.874  0.0826 -0.7871 -0.3656
 2553SOL     OW19291   1.535   4.141   5.576 -0.5268  0.2541 -0.4038
 2553SOL    HW119292   1.493   4.069   5.623  1.0888 -0.1376  0.4423
 2553SOL    HW219293   1.617   4.092   5.568  0.1907  1.6525 -1.5972
 2554SOL     OW19294   4.589   2.023   2.195  0.1340  0.4976 -0.1754
 2554SOL    HW119295   4.612   2.071   2.275 -3.5781  2.4411 -0.2734
 2554SOL    HW219296   4.512   2.067   2.159  0.8314  1.4400 -0.4925
 2555SOL     OW19297   0.665   4.255   6.347 -0.1790  0.3996 -0.2408
 2555SOL    HW119298   0.576   4.251   6.313  0.1837 -2.4945 -0.8303
 2555SOL    HW219299   0.669   4.347   6.322  0.3374  0.7271  1.0237
 2556SOL     OW19300   1.113   3.979   9.548  0.4908  0.4130  0.0427
 2556SOL    HW119301   1.167   3.933   9.612  1.2165 -0.7517 -1.4257
 2556SOL    HW219302   1.027   3.953   9.582  0.3596  1.7105  0.7092
 2557SOL     OW19303   2.988   3.999  10.780 -0.0264 -0.6542  0.7981
 2557SOL    HW119304   3.058   4.030  10.721 -0.1811  0.0849  0.9981
 2557SOL    HW219305   2.924   4.069  10.766  1.0014  0.1876  0.2322
 2558SOL     OW19306   3.489   0.278   1.192  0.7783 -0.4783  0.7177
 2558SOL    HW119307   3.535   0.198   1.165 -1.5922 -1.4313 -0.4485
 2558SOL    HW219308   3.475   0.321   1.108 -0.0248 -1.7170  0.2185
 2559SOL     OW19309   1.432   0.093  12.592 -0.4899 -0.0389  0.1633
 2559SOL    HW119310   1.506   0.046  12.630 -1.3783 -1.7649 -0.1995
 2559SOL    HW219311   1.455   0.092  12.499  0.6302 -1.6113  0.4599
 2560SOL     OW19312   3.041   1.347   8.556  0.1608 -0.0100  0.3942
 2560SOL    HW119313   2.985   1.345   8.633 -0.2725 -0.4794  0.0669
 2560SOL    HW219314   3.007   1.276   8.502  1.7921 -1.1642  0.8648
 2561SOL     OW19315   0.175   2.538   2.095 -0.1591  0.2223  0.2308
 2561SOL    HW119316   0.171   2.453   2.138  2.9387 -1.3373 -2.5697
 2561SOL    HW219317   0.164   2.522   2.001  2.3772 -0.7760  0.0987
 2562SOL     OW19318   3.980   0.236   5.479  0.5625 -0.4249 -0.4305
 2562SOL    HW119319   3.996   0.221   5.572  2.3760 -2.1542 -0.9997
 2562SOL    HW219320   3.916   0.306   5.476  2.0244  0.8747 -1.5960
 2563SOL     OW19321   1.461   2.667  10.135  0.6266 -0.2377 -0.1054
 2563SOL    HW119322   1.443   2.680  10.042 -2.2930  2.2106  0.8366
 2563SOL    HW219323   1.535   2.606  10.123  1.5389  1.1421 -1.4631
 2564SOL     OW19324   1.711   4.281   9.122 -0.0310  0.4240  0.2386
 2564SOL    HW119325   1.639   4.222   9.144 -0.5058  1.1035  0.4982
 2564SOL    HW219326   1.713   4.333   9.203  0.9281 -0.2503  0.6528
 2565SOL     OW19327   2.988   1.278   6.114 -0.6461 -0.3101  0.3305
 2565SOL    HW119328   2.937   1.243   6.040 -1.9560  1.8051  0.2317
 2565SOL    HW219329   2.915   1.271   6.177 -0.7182 -2.1577  0.0551
 2566SOL     OW19330   2.653   2.135  10.269  0.1595 -0.5822  0.3256
 2566SOL    HW119331   2.709   2.182  10.330  0.0233  1.2715 -0.9515
 2566SOL    HW219332   2.710   2.141  10.193 -1.8840 -0.1941 -1.1963
 2567SOL     OW19333   2.918   2.772   8.465 -0.2938  0.3264  0.1057
 2567SOL    HW119334   2.853   2.727   8.519  1.9309  0.4689  2.8881
 2567SOL    HW219335   2.854   2.807   8.402  0.3443 -0.1341 -0.8014
 2568SOL     OW19336   1.076   4.272   6.798  0.3837  0.1148  0.1578
 2568SOL    HW119337   1.034   4.203   6.746 -0.8390 -0.4644  1.9046
 2568SOL    HW219338   1.003   4.306   6.849 -0.5233 -0.7293 -0.5784
 2569SOL     OW19339   3.305   0.442   8.481  0.4374  0.5236 -0.4155
 2569SOL    HW119340   3.234   0.490   8.440  0.9771  0.5085 -1.3623
 2569SOL    HW219341   3.326   0.371   8.420  0.6301 -1.7052  2.2391
 2570SOL     OW19342   4.060   4.209   4.569  0.7756 -0.0306  0.0232
 2570SOL    HW119343   4.013   4.287   4.538  2.0422  1.3908  1.6787
 2570SOL    HW219344   4.090   4.163   4.490  1.6813 -2.3052  1.6934
 2571SOL     OW19345   2.343   2.255   6.838 -0.4469 -0.1725  0.0640
 2571SOL    HW119346   2.250   2.238   6.852 -0.1299 -2.2640 -0.3162
 2571SOL    HW219347   2.358   2.336   6.886 -1.0565  0.0088 -0.0475
 2572SOL     OW19348   0.531   0.951   2.233  0.1502 -0.6419  0.3823
 2572SOL    HW119349   0.525   1.046   2.241 -3.4526 -0.8212 -0.3325
 2572SOL    HW219350   0.513   0.920   2.322  0.1149  1.3832  1.0718
 2573SOL     OW19351   2.374   3.171   9.826 -0.0797  0.0422  0.3681
 2573SOL    HW119352   2.288   3.208   9.846  0.5245  3.4853 -3.4380
 2573SOL    HW219353   2.352   3.109   9.756  2.3825 -2.7494  2.0493
 2574SOL     OW19354   2.327   3.296   7.364  0.1283  0.0652 -0.2195
 2574SOL    HW119355   2.406   3.294   7.310 -1.4200  0.2970 -2.5224
 2574SOL    HW219356   2.275   3.247   7.300  0.8011  0.2379 -0.8931
 2575SOL     OW19357   2.173   0.709  10.396 -0.1777 -0.2205 -0.6346
 2575SOL    HW119358   2.117   0.720  10.473 -2.1895 -2.3999 -1.7960
 2575SOL    HW219359   2.142   0.785  10.346 -3.3924 -1.8366 -1.0871
 2576SOL     OW19360   0.694   3.561   7.246  0.4042  0.1221  0.1803
 2576SOL    HW119361   0.638   3.535   7.174  0.7312 -0.7495  0.2401
 2576SOL    HW219362   0.693   3.656   7.231  2.1327  0.0977 -0.1544
 2577SOL     OW19363   3.845   2.997   4.474 -0.1523 -0.2869 -0.5890
 2577SOL    HW119364   3.773   3.012   4.412  0.3136  1.3123 -0.7469
 2577SOL    HW219365   3.851   2.902   4.467  0.3319 -0.2721 -0.3617
 2578SOL     OW19366   0.460   3.292  17.025 -0.2870  0.1966 -0.0010
 2578SOL    HW119367   0.446   3.332  17.110  0.5317 -1.3653  0.8544
 2578SOL    HW219368   0.532   3.340  16.984  1.0241  0.2750  2.4012
 2579SOL     OW19369   2.027   4.072   2.611  0.2798  0.3143 -0.4850
 2579SOL    HW119370   2.081   4.074   2.690 -2.3560  0.2500  1.3023
 2579SOL    HW219371   1.946   4.031   2.639  1.1248  0.5299  2.2271
 2580SOL     OW19372   2.715   1.232   9.595 -0.1215  0.5895  0.2578
 2580SOL    HW119373   2.808   1.241   9.575  0.3097 -1.7007  1.2690
 2580SOL    HW219374   2.700   1.308   9.652  1.2069  2.1464 -1.4716
 2581SOL     OW19375   1.344   2.047   3.630  0.3490 -0.2369  0.2616
 2581SOL    HW119376   1.391   2.060   3.548 -0.2496  1.7286  0.2314
 2581SOL    HW219377   1.370   1.956   3.648 -1.7086 -1.0018 -0.5469
 2582SOL     OW19378   2.895   3.653  14.755  0.3169 -0.1334 -0.0057
 2582SOL    HW119379   2.870   3.580  14.813  1.1648 -0.8074 -0.4945
 2582SOL    HW219380   2.823   3.651  14.692  0.8126  0.0701 -0.5750
 2583SOL     OW19381   4.488   2.933   6.114  0.3682 -0.0803  0.4332
 2583SOL    HW119382   4.464   2.926   6.022 -0.2562 -2.2333  0.7476
 2583SOL    HW219383   4.573   2.889   6.112  0.4767  0.2024 -1.0982
 2584SOL     OW19384   2.345   1.341   3.317  0.4366  0.3314  0.2706
 2584SOL    HW119385   2.277   1.306   3.259  2.5543 -0.5683 -1.6745
 2584SOL    HW219386   2.318   1.432   3.311 -2.1612 -0.5234 -1.2583
 2585SOL     OW19387   0.010   2.615   1.441  0.7411  0.1967 -0.1277
 2585SOL    HW119388   0.103   2.624   1.461 -0.0751 -0.3193  3.9741
 2585SOL    HW219389   4.726   2.522   1.459 -0.5566  0.4462  0.0061
 2586SOL     OW19390   2.831   1.061  12.150  0.2588 -0.1688 -0.0776
 2586SOL    HW119391   2.889   1.115  12.204  0.2049  1.1678 -1.3472
 2586SOL    HW219392   2.815   1.002  12.224 -0.2367 -1.8450 -1.5411
 2587SOL     OW19393   2.319   3.928   9.470 -0.0421  0.0292  1.0658
 2587SOL    HW119394   2.267   3.945   9.549 -1.4534  0.1604  0.1071
 2587SOL    HW219395   2.276   3.971   9.397  3.8134  1.8640 -0.1178
 2588SOL     OW19396   1.271   0.331   8.040 -0.0948 -0.2158 -0.0047
 2588SOL    HW119397   1.177   0.314   8.034 -0.1676  0.2033 -0.0795
 2588SOL    HW219398   1.263   0.357   8.132 -0.1293 -0.8214  0.1656
 2589SOL     OW19399   1.052   2.726  12.893 -0.1392  0.0125  0.4613
 2589SOL    HW119400   0.999   2.663  12.844 -0.8153 -1.2726  2.8621
 2589SOL    HW219401   1.125   2.729  12.831 -1.7863  0.2751 -1.4544
 2590SOL     OW19402   1.839   0.239  16.303  0.2037 -0.3034  0.2728
 2590SOL    HW119403   1.768   0.303  16.314 -0.0483 -0.5184 -0.1297
 2590SOL    HW219404   1.850   0.219  16.396 -0.7228 -0.9571  0.2456
 2591SOL     OW19405   3.219   2.474  12.961  0.3526  0.4448  0.0644
 2591SOL    HW119406   3.268   2.520  12.893  2.0584 -0.3180  0.7809
 2591SOL    HW219407   3.261   2.388  12.952  0.4929  0.7873 -2.5850
 2592SOL     OW19408   3.003   0.204   5.889 -0.2946  0.3791 -0.5950
 2592SOL    HW119409   3.006   0.230   5.797 -1.4562 -0.7799 -0.9540
 2592SOL    HW219410   2.939   0.263   5.931 -0.7667 -0.0266 -0.7443
 2593SOL     OW19411   0.272   3.765   4.170 -0.1511 -1.1832 -0.2493
 2593SOL    HW119412   0.215   3.809   4.108  0.0528 -0.5566  0.0030
 2593SOL    HW219413   0.312   3.699   4.113  0.1783  0.4033 -1.8253
 2594SOL     OW19414   3.500   4.578   6.346 -0.4789 -0.2998  0.0678
 2594SOL    HW119415   3.438   4.651   6.349 -0.3090 -0.0707 -1.9282
 2594SOL    HW219416   3.438   4.509   6.321 -0.4909  0.1929 -1.2843
 2595SOL     OW19417   1.665   3.883  16.932 -0.1788 -0.0345 -0.4451
 2595SOL    HW119418   1.711   3.966  16.920 -0.9896 -0.0972 -3.9380
 2595SOL    HW219419   1.738   3.826  16.907 -1.3256 -0.5840 -2.5391
 2596SOL     OW19420   2.095   0.329   4.776 -0.0609  0.1367 -0.1844
 2596SOL    HW119421   2.057   0.388   4.711 -0.1222 -0.3423 -0.5790
 2596SOL    HW219422   2.087   0.393   4.848  1.9364 -1.8866  1.8618
 2597SOL     OW19423   0.071   3.359   6.043 -0.2684 -0.1988  0.0125
 2597SOL    HW119424   4.722   3.362   5.993  1.2106  2.5613 -2.2848
 2597SOL    HW219425   0.056   3.398   6.129  1.0409  1.4719 -0.4990
 2598SOL     OW19426   2.295   4.129   3.150 -0.0990  0.0864  0.7179
 2598SOL    HW119427   2.222   4.120   3.212  0.9116  0.9361  2.0317
 2598SOL    HW219428   2.363   4.169   3.204  0.1953 -0.3092  0.6348
 2599SOL     OW19429   3.344   3.880   3.074 -0.4324  0.2426  0.0953
 2599SOL    HW119430   3.326   3.833   3.156  0.1647 -0.8889 -0.4258
 2599SOL    HW219431   3.437   3.900   3.066 -0.3578 -0.2193 -0.1349
 2600SOL     OW19432   2.801   3.386   7.616 -0.2854  0.1152  0.5189
 2600SOL    HW119433   2.744   3.426   7.681  0.2560  1.4284  0.1849
 2600SOL    HW219434   2.788   3.444   7.541 -0.4098 -1.0866 -0.3894
 2601SOL     OW19435   1.142   0.836   4.019  0.2103  0.0348  0.2545
 2601SOL    HW119436   1.106   0.771   3.958  2.6655 -0.6349 -0.5253
 2601SOL    HW219437   1.059   0.864   4.055 -1.4493 -3.0813 -1.1059
 2602SOL     OW19438   4.542   0.839  15.501  0.9007 -0.5928 -0.3738
 2602SOL    HW119439   4.554   0.887  15.584 -2.1037  0.1602 -0.3897
 2602SOL    HW219440   4.449   0.824  15.487  0.6812  0.3802  0.0369
 2603SOL     OW19441   1.072   1.747   5.934 -0.1854  0.4578  0.0002
 2603SOL    HW119442   1.129   1.731   5.858  2.7345  2.7888  1.6949
 2603SOL    HW219443   1.067   1.842   5.922  0.9567  0.4988 -0.2035
 2604SOL     OW19444   0.904   3.323  15.080  0.1230 -0.0192 -0.2322
 2604SOL    HW119445   0.905   3.409  15.037  0.4029  0.1383  0.0863
 2604SOL    HW219446   0.811   3.308  15.094  0.5877 -0.6413  2.3398
 2605SOL     OW19447   2.467   0.457  13.389 -0.0446  0.1013 -0.0958
 2605SOL    HW119448   2.457   0.497  13.302 -0.3776  1.8811  0.7539
 2605SOL    HW219449   2.550   0.502  13.408  0.3280 -0.5993 -0.0626
 2606SOL     OW19450   4.324   2.421   0.652 -0.4006  0.3686 -0.1684
 2606SOL    HW119451   4.316   2.501   0.705  1.3725  0.0352  0.6111
 2606SOL    HW219452   4.416   2.407   0.631 -0.5643 -0.0807 -0.5606
 2607SOL     OW19453   3.974   1.696   4.217 -0.5863 -0.2145  0.1354
 2607SOL    HW119454   3.977   1.777   4.268  0.2378 -0.5722  0.6620
 2607SOL    HW219455   3.909   1.719   4.150  0.9973  1.1213 -0.9455
 2608SOL     OW19456   3.439   0.365   7.405 -0.1820  0.2293  0.2327
 2608SOL    HW119457   3.508   0.415   7.362 -0.0492  1.0000  1.3703
 2608SOL    HW219458   3.417   0.427   7.474 -3.2535 -0.0808 -0.4312
 2609SOL     OW19459   1.711   3.816  16.398  0.0319  0.0005  0.2173
 2609SOL    HW119460   1.683   3.752  16.465 -1.5299  2.1255  1.5930
 2609SOL    HW219461   1.770   3.753  16.356  0.1945  0.9100 -0.9050
 2610SOL     OW19462   1.736   1.290   7.043  0.7531  0.5242 -0.2340
 2610SOL    HW119463   1.768   1.234   7.114  0.1156 -2.4351 -2.3075
 2610SOL    HW219464   1.668   1.233   7.008  0.7660  0.0016  0.5907
 2611SOL     OW19465   1.589   2.462   2.327 -0.2401 -0.0889  0.0364
 2611SOL    HW119466   1.595   2.381   2.377 -0.1106 -1.1487 -1.7082
 2611SOL    HW219467   1.638   2.434   2.251  2.6148 -0.9661  2.2176
 2612SOL     OW19468   3.106   0.494  16.866  0.1978  0.5081  0.1292
 2612SOL    HW119469   3.013   0.517  16.865 -0.0004 -0.2890  0.5914
 2612SOL    HW219470   3.146   0.579  16.881  1.5109 -0.1261  0.1924
 2613SOL     OW19471   1.542   2.646   4.801 -0.1023  0.5153 -0.2134
 2613SOL    HW119472   1.583   2.720   4.846 -1.6696  2.0680 -1.3546
 2613SOL    HW219473   1.528   2.685   4.715  0.3230 -0.8969 -0.9217
 2614SOL     OW19474   1.718   3.282   7.720 -0.6759  0.3418  0.2385
 2614SOL    HW119475   1.756   3.329   7.794 -1.0868  1.4579 -0.2597
 2614SOL    HW219476   1.631   3.321   7.707  0.1923  2.7457  1.6321
 2615SOL     OW19477   3.159   4.159   0.813  0.1426 -0.4453 -0.0178
 2615SOL    HW119478   3.080   4.118   0.776  0.6915 -2.4092  0.9797
 2615SOL    HW219479   3.213   4.083   0.834  2.1336  0.2321 -2.6488
 2616SOL     OW19480   0.582   2.049  14.419 -0.3380 -0.1899  0.3101
 2616SOL    HW119481   0.610   2.032  14.329  1.2440  1.0138  0.5575
 2616SOL    HW219482   0.592   1.972  14.475  0.2736 -0.8578 -0.7205
 2617SOL     OW19483   3.835   1.139  16.484 -0.1538  0.1316 -0.0018
 2617SOL    HW119484   3.905   1.087  16.523  0.7380  1.0256 -0.4005
 2617SOL    HW219485   3.780   1.073  16.443  0.2200  0.4418 -0.9934
 2618SOL     OW19486   2.284   1.959   7.723 -1.4031  0.0231 -0.0742
 2618SOL    HW119487   2.310   1.967   7.631 -0.4684 -0.3117  0.1596
 2618SOL    HW219488   2.350   2.007   7.774 -0.6151 -2.0682  0.8740
 2619SOL     OW19489   2.183   4.685   6.968  0.6074 -0.0632  0.1984
 2619SOL    HW119490   2.092   4.679   6.997  1.0105 -0.8601  1.2668
 2619SOL    HW219491   2.207   4.593   6.952 -0.2256 -0.2073 -0.2272
 2620SOL     OW19492   4.508   2.437  11.516 -0.2704  0.1696 -0.1777
 2620SOL    HW119493   4.562   2.450  11.438  0.8786 -2.9154  0.0858
 2620SOL    HW219494   4.419   2.431  11.480 -0.5184  0.9212  0.3170
 2621SOL     OW19495   1.407   4.479   1.690 -0.3495  0.1056  0.7568
 2621SOL    HW119496   1.375   4.394   1.721  0.4920 -0.0770  1.1361
 2621SOL    HW219497   1.500   4.478   1.715  0.8146 -2.8749 -3.7742
 2622SOL     OW19498   1.235   3.201   3.134 -0.7488  0.2731  0.3299
 2622SOL    HW119499   1.226   3.246   3.218  1.7282 -0.3664  0.9570
 2622SOL    HW219500   1.215   3.272   3.073 -1.3650  0.8837  1.2608
 2623SOL     OW19501   2.783   1.993  15.705  0.1442  0.7633 -0.1892
 2623SOL    HW119502   2.821   1.925  15.760 -1.4727 -1.9829 -2.4807
 2623SOL    HW219503   2.688   1.981  15.705  0.3541 -0.9677 -2.3697
 2624SOL     OW19504   3.078   3.618   4.880  0.1417  0.6968  0.0636
 2624SOL    HW119505   3.003   3.573   4.840 -0.5662  0.0096  2.1608
 2624SOL    HW219506   3.072   3.695   4.823  2.5095  0.9531  0.1710
 2625SOL     OW19507   4.338   3.591   2.035 -0.4161 -0.2997 -0.0021
 2625SOL    HW119508   4.366   3.682   2.023 -0.6073 -0.1834  0.4237
 2625SOL    HW219509   4.332   3.572   1.942 -1.5134  0.0713 -0.0114
 2626SOL     OW19510   4.412   4.504  11.838 -0.1692 -0.0907  0.1833
 2626SOL    HW119511   4.405   4.431  11.901 -2.6617 -0.1638 -0.1449
 2626SOL    HW219512   4.323   4.539  11.847  0.5631  1.4136  1.4921
 2627SOL     OW19513   1.852   0.686  10.102  0.2587  0.0712 -0.3426
 2627SOL    HW119514   1.831   0.777  10.120  1.7810  0.6368 -1.4333
 2627SOL    HW219515   1.788   0.670  10.033  2.6859  1.6526 -2.9680
 2628SOL     OW19516   1.259   4.299   2.279  0.1318  0.0695  0.3033
 2628SOL    HW119517   1.290   4.378   2.323 -1.6971  1.2453 -0.5321
 2628SOL    HW219518   1.250   4.323   2.187  0.2883 -1.4146 -0.0952
 2629SOL     OW19519   3.665   2.872  12.510 -0.1431  0.0214 -0.1736
 2629SOL    HW119520   3.714   2.792  12.490  1.2348  0.0797  3.1004
 2629SOL    HW219521   3.625   2.841  12.591 -1.5106 -2.9647 -1.9609
 2630SOL     OW19522   0.334   1.703  15.926  0.2600  0.2101  0.2755
 2630SOL    HW119523   0.385   1.681  15.849  0.2169 -0.1443  0.3489
 2630SOL    HW219524   0.402   1.712  15.993 -0.7944 -0.1635  1.3850
 2631SOL     OW19525   0.829   3.129   8.432 -0.1195 -0.3692 -0.5994
 2631SOL    HW119526   0.840   3.151   8.524 -1.6631 -1.5646 -0.1285
 2631SOL    HW219527   0.889   3.185   8.382 -0.5869  1.0125  0.3698
 2632SOL     OW19528   3.524   4.445   6.638 -0.0279  0.2260 -0.4300
 2632SOL    HW119529   3.508   4.509   6.569 -1.4310  1.0064  0.6001
 2632SOL    HW219530   3.460   4.475   6.703  1.5999  0.9644  0.8458
 2633SOL     OW19531   2.367   0.902   4.964  0.2231  0.7679 -0.6331
 2633SOL    HW119532   2.291   0.903   5.022 -0.6109  1.9215 -1.7338
 2633SOL    HW219533   2.406   0.815   4.975 -1.0995  0.3153  0.4692
 2634SOL     OW19534   2.103   2.919   2.925  0.1439  0.1439 -0.4456
 2634SOL    HW119535   2.188   2.897   2.886  0.3672 -1.3224  0.8515
 2634SOL    HW219536   2.062   2.969   2.855 -0.2102 -0.3653 -0.5982
 2635SOL     OW19537   2.522   1.421   3.073  0.0746 -0.1360 -0.1967
 2635SOL    HW119538   2.495   1.510   3.048  0.8887  0.5011  1.1945
 2635SOL    HW219539   2.436   1.380   3.072  0.4221 -0.7742 -3.2523
 2636SOL     OW19540   1.282   0.740   7.634  0.5739  0.4552 -0.0232
 2636SOL    HW119541   1.368   0.776   7.654  1.6089 -1.2763 -1.3528
 2636SOL    HW219542   1.274   0.677   7.706  1.3535 -0.8614 -1.1049
 2637SOL     OW19543   0.476   3.179   8.119  0.4404  0.0714 -0.0990
 2637SOL    HW119544   0.414   3.239   8.160  1.6588  0.5847  1.0256
 2637SOL    HW219545   0.430   3.097   8.135  0.0600 -0.0402 -1.7773
 2638SOL     OW19546   0.272   1.879   2.744  0.1496  0.2641  0.7119
 2638SOL    HW119547   0.310   1.835   2.820  0.6042 -1.2461 -0.3691
 2638SOL    HW219548   0.344   1.936   2.716  1.6861 -1.2007  1.6746
 2639SOL     OW19549   3.211   4.010   4.962  0.2592 -0.3148 -0.2435
 2639SOL    HW119550   3.150   4.051   4.901  0.7792 -1.2255 -1.3685
 2639SOL    HW219551   3.291   4.016   4.910  1.9011  0.3152  2.3637
 2640SOL     OW19552   2.539   3.092  16.278 -0.2626  0.4529 -0.0975
 2640SOL    HW119553   2.534   3.080  16.183  2.7272  0.5278 -0.2747
 2640SOL    HW219554   2.603   3.163  16.287 -0.0453  0.1819  0.5214
 2641SOL     OW19555   4.407   0.780  13.911 -0.3282  0.2953 -0.2966
 2641SOL    HW119556   4.501   0.796  13.901 -0.5123 -0.9303 -4.0902
 2641SOL    HW219557   4.406   0.694  13.952  0.9494  1.1227  1.4683
 2642SOL     OW19558   3.344   3.116  12.491 -0.1999 -0.3524  0.3684
 2642SOL    HW119559   3.423   3.154  12.531 -0.7862 -0.9394  2.0749
 2642SOL    HW219560   3.353   3.139  12.398 -1.5976 -0.4524  0.2199
 2643SOL     OW19561   2.159   1.248  12.059  0.2987 -0.1772 -0.2533
 2643SOL    HW119562   2.093   1.235  12.127 -1.0075 -0.4261 -1.5639
 2643SOL    HW219563   2.126   1.190  11.991 -0.1076 -0.6382  0.3396
 2644SOL     OW19564   1.695   3.682  15.446  0.2322  0.1243  0.4287
 2644SOL    HW119565   1.781   3.658  15.483  0.8140  1.9115  0.2061
 2644SOL    HW219566   1.671   3.752  15.506 -2.1369 -1.3241  1.1970
 2645SOL     OW19567   4.393   2.732   7.017 -0.1119  0.5246 -0.1105
 2645SOL    HW119568   4.433   2.659   6.969  3.5645  1.5166  1.4582
 2645SOL    HW219569   4.442   2.730   7.099  0.3982  0.3825 -0.4184
 2646SOL     OW19570   2.267   2.007   8.394  0.2395  0.5303  0.2622
 2646SOL    HW119571   2.249   1.965   8.310 -0.0212  1.3818 -0.1028
 2646SOL    HW219572   2.292   1.931   8.446 -1.0123 -0.6883 -0.9072
 2647SOL     OW19573   1.608   0.105   7.585  0.2149  0.9528  0.6326
 2647SOL    HW119574   1.583   0.080   7.496  0.1677  0.5687  0.7562
 2647SOL    HW219575   1.698   0.073   7.585  0.6366  2.1307  1.1575
 2648SOL     OW19576   0.948   3.899   9.317 -0.0703  0.0144  0.2717
 2648SOL    HW119577   1.034   3.873   9.285  0.1085  2.0857 -0.9140
 2648SOL    HW219578   0.978   3.907   9.407 -0.9792  0.3643  0.5452
 2649SOL     OW19579   3.805   3.142   9.598 -0.1051 -0.0603  0.4722
 2649SOL    HW119580   3.832   3.051   9.582  2.4895  0.3428  2.5404
 2649SOL    HW219581   3.887   3.186   9.623  1.6417 -1.9727 -1.8425
 2650SOL     OW19582   0.006   4.405  14.293  0.1491 -0.0824  0.2446
 2650SOL    HW119583   4.652   4.382  14.327 -0.0347  0.5520  0.2116
 2650SOL    HW219584   0.017   4.350  14.216 -2.8321  0.2139 -0.4258
 2651SOL     OW19585   3.699   1.393  10.934  0.2642  0.1386 -0.1913
 2651SOL    HW119586   3.769   1.363  10.992 -2.5294 -0.0396  3.0443
 2651SOL    HW219587   3.724   1.351  10.851  1.6010 -1.4072  0.9905
 2652SOL     OW19588   4.155   3.951  14.418  0.4074  0.5230 -0.3829
 2652SOL    HW119589   4.207   3.945  14.338  1.2429 -1.7242  0.3120
 2652SOL    HW219590   4.222   3.936  14.485 -0.5574 -1.6532  0.0941
 2653SOL     OW19591   1.851   2.972   5.600  0.1486  0.2366  0.2549
 2653SOL    HW119592   1.891   3.006   5.680  0.3404 -1.7643  0.9929
 2653SOL    HW219593   1.805   3.054   5.583  0.5248  0.5797  0.8772
 2654SOL     OW19594   2.629   1.362   1.643  0.2767  0.1177 -0.5109
 2654SOL    HW119595   2.706   1.414   1.668  0.3293  0.6134 -1.7167
 2654SOL    HW219596   2.580   1.378   1.724  0.2502 -0.7016 -0.3602
 2655SOL     OW19597   1.614   0.194   9.334  0.2924  0.3563  0.3748
 2655SOL    HW119598   1.613   0.271   9.276 -1.7969  0.5823  0.7082
 2655SOL    HW219599   1.634   0.234   9.418  0.3085  1.4160 -0.1262
 2656SOL     OW19600   1.878   1.247   4.846  0.1363  0.0604  0.3056
 2656SOL    HW119601   1.937   1.238   4.921  2.2230  1.1616 -1.2121
 2656SOL    HW219602   1.916   1.183   4.786  1.0777  1.5070 -0.6407
 2657SOL     OW19603   0.935   0.909  10.272 -0.3482 -0.1966 -0.1855
 2657SOL    HW119604   0.987   0.942  10.198 -0.4317 -0.9971 -0.6069
 2657SOL    HW219605   0.850   0.899  10.229 -0.6791  0.5293  0.3161
 2658SOL     OW19606   1.557   1.231   7.432 -0.4592 -0.3342  0.2904
 2658SOL    HW119607   1.587   1.152   7.476 -0.3855  0.8443  2.3505
 2658SOL    HW219608   1.473   1.243   7.476  0.7734 -0.2173  2.5883
 2659SOL     OW19609   2.145   1.046   5.618  0.0482  0.1684  0.3024
 2659SOL    HW119610   2.144   0.963   5.667 -0.1650  0.2622  0.4507
 2659SOL    HW219611   2.234   1.075   5.640  1.2015 -1.5325 -2.0161
 2660SOL     OW19612   1.179   2.066   3.131 -0.2801 -0.2389  0.5603
 2660SOL    HW119613   1.153   2.141   3.077  0.8242  0.1654  0.5978
 2660SOL    HW219614   1.239   2.019   3.074 -0.5866  0.4020 -0.2829
 2661SOL     OW19615   3.459   2.326  17.547 -0.3659 -0.3626 -0.0347
 2661SOL    HW119616   3.449   2.297  17.456  0.0698  1.7867 -0.7718
 2661SOL    HW219617   3.553   2.314  17.553  0.3884  4.4491 -2.1421
 2662SOL     OW19618   0.265   3.651  12.274 -0.4023 -0.2983 -0.1371
 2662SOL    HW119619   0.180   3.616  12.300  0.0722 -0.7656  0.7838
 2662SOL    HW219620   0.233   3.708  12.204  2.2852  0.8276 -0.4440
 2663SOL     OW19621   3.601   3.818   0.291  0.1577  0.2513  0.1595
 2663SOL    HW119622   3.587   3.913   0.288 -2.9018 -0.2284 -1.5783
 2663SOL    HW219623   3.578   3.798   0.382 -0.9272 -1.9405 -0.5963
 2664SOL     OW19624   1.789   1.278   8.047  0.0271 -0.3489 -0.0869
 2664SOL    HW119625   1.777   1.267   8.141 -1.7825  0.5275 -0.2054
 2664SOL    HW219626   1.717   1.220   8.020 -0.6080  0.6744 -0.5804
 2665SOL     OW19627   2.496   1.429  14.901  0.2406  0.2864 -0.5549
 2665SOL    HW119628   2.478   1.389  14.816 -1.1752 -0.3363  0.0518
 2665SOL    HW219629   2.411   1.464  14.926 -0.3506 -2.2016  0.8556
 2666SOL     OW19630   4.561   1.547  10.002 -0.1289 -0.4668 -0.3067
 2666SOL    HW119631   4.544   1.463   9.959 -1.5782  0.3092 -1.2760
 2666SOL    HW219632   4.553   1.535  10.096 -1.0961 -0.1831 -0.3525
 2667SOL     OW19633   0.864   1.989   4.086 -0.0871 -0.0844  0.0249
 2667SOL    HW119634   0.905   2.073   4.069 -0.5640 -0.3543 -2.4205
 2667SOL    HW219635   0.903   1.935   4.017  0.2570  0.1080  0.0682
 2668SOL     OW19636   2.363   0.238  12.389  0.2685 -0.1778  0.4871
 2668SOL    HW119637   2.278   0.277  12.369  0.1884 -2.5489 -3.7764
 2668SOL    HW219638   2.380   0.178  12.317 -0.5326  0.5001 -0.2524
 2669SOL     OW19639   3.070   0.239   0.101 -0.0920 -0.3998  0.0405
 2669SOL    HW119640   3.004   0.308   0.103  1.8392  1.4899 -0.9292
 2669SOL    HW219641   3.095   0.255   0.009 -0.2616 -1.4490 -0.1813
 2670SOL     OW19642   0.666   2.998   7.372 -0.4428  0.1293  0.1371
 2670SOL    HW119643   0.662   2.969   7.463 -0.0517  1.1182  0.4756
 2670SOL    HW219644   0.625   3.085   7.368  1.1496  0.9856  2.8243
 2671SOL     OW19645   3.036   0.862  11.130  0.2298  0.6724 -0.2364
 2671SOL    HW119646   3.094   0.845  11.204 -1.6714 -1.9502  0.6272
 2671SOL    HW219647   2.951   0.886  11.166  0.5529  1.2910  0.1086
 2672SOL     OW19648   0.956   3.032   7.822  0.4988  0.2097  0.5524
 2672SOL    HW119649   0.995   2.956   7.778 -1.8748 -0.9962  0.5533
 2672SOL    HW219650   0.912   3.068   7.745  2.3428 -0.8312 -0.9994
 2673SOL     OW19651   0.034   0.646   7.660  0.1401  0.4313  0.5176
 2673SOL    HW119652   4.731   0.734   7.666  1.1116  0.9122 -0.7148
 2673SOL    HW219653   0.005   0.617   7.574  2.4122 -0.0599 -0.0796
 2674SOL     OW19654   4.690   2.586  12.650  0.0825  0.3013  0.1766
 2674SOL    HW119655   4.616   2.607  12.708  0.2378  2.3559 -0.3716
 2674SOL    HW219656   0.007   2.668  12.645  1.0218 -0.2459  0.6698
 2675SOL     OW19657   3.090   0.418   3.408 -0.1434  0.3525 -0.3045
 2675SOL    HW119658   3.167   0.427   3.351  0.2049 -1.6314 -0.1640
 2675SOL    HW219659   3.118   0.459   3.490 -0.0932 -1.3672  0.5438
 2676SOL     OW19660   0.566   0.530   3.122 -0.2639 -0.4469 -0.1923
 2676SOL    HW119661   0.494   0.517   3.061 -0.3575  2.2048 -0.6500
 2676SOL    HW219662   0.648   0.511   3.076 -0.2968 -0.8210 -0.0941
 2677SOL     OW19663   4.255   3.216   4.632 -0.3853  0.1797 -0.1433
 2677SOL    HW119664   4.318   3.155   4.593 -1.1664 -1.0510  0.5280
 2677SOL    HW219665   4.180   3.206   4.575 -0.2230  0.6875 -0.4542
 2678SOL     OW19666   1.234   2.779   8.755 -0.3252  0.0418 -0.8169
 2678SOL    HW119667   1.316   2.730   8.759  0.0387  0.7505  0.1386
 2678SOL    HW219668   1.270   2.856   8.712 -0.5580  0.2722 -0.6010
 2679SOL     OW19669   4.265   2.087  13.493 -0.0575 -0.0261  0.1986
 2679SOL    HW119670   4.192   2.143  13.517 -0.1721 -0.0568 -0.0729
 2679SOL    HW219671   4.337   2.129  13.540 -0.3007  0.0286  0.5206
 2680SOL     OW19672   1.880   1.336   9.552  0.1210  0.2350 -0.3626
 2680SOL    HW119673   1.881   1.396   9.478  0.2871  1.9639  1.0462
 2680SOL    HW219674   1.963   1.353   9.596  1.0929 -1.9348 -1.3788
 2681SOL     OW19675   3.482   1.494   4.778  0.0988  0.5638 -0.5780
 2681SOL    HW119676   3.403   1.546   4.796  1.4330  1.9560  1.1970
 2681SOL    HW219677   3.552   1.557   4.764  0.2257  0.0392 -2.2411
 2682SOL     OW19678   3.593   3.060  17.566  0.4294  0.1328 -0.3065
 2682SOL    HW119679   3.526   2.996  17.591  1.9940 -1.6414 -0.5961
 2682SOL    HW219680   3.625   3.090  17.651 -1.6632 -0.6093  0.7461
 2683SOL     OW19681   3.219   1.137  13.246  0.6428  0.5204  0.7243
 2683SOL    HW119682   3.266   1.054  13.256  2.1118  1.1139 -1.3621
 2683SOL    HW219683   3.187   1.127  13.157 -0.5729 -2.5776  1.4878
 2684SOL     OW19684   0.011   3.226   6.317 -0.4456  0.5427  0.5975
 2684SOL    HW119685   0.028   3.188   6.403 -3.4638 -0.3055  0.8371
 2684SOL    HW219686   0.070   3.301   6.314 -1.6612  1.4748  0.0269
 2685SOL     OW19687   3.350   3.580   4.973 -0.4322  0.0613  0.5421
 2685SOL    HW119688   3.254   3.580   4.964 -0.2230 -2.5267 -1.7938
 2685SOL    HW219689   3.371   3.662   4.928  0.8077 -0.7580 -0.3642
 2686SOL     OW19690   0.915   2.240  16.311  0.0626 -0.2642 -0.4020
 2686SOL    HW119691   0.955   2.324  16.290  0.3386  0.2086  1.9893
 2686SOL    HW219692   0.935   2.187  16.234  1.5931 -2.5138  1.5358
 2687SOL     OW19693   4.732   2.830   6.085  0.2108  0.1954 -0.1005
 2687SOL    HW119694   0.051   2.910   6.082  0.2958  0.2270  1.8171
 2687SOL    HW219695   0.041   2.780   6.155  1.8615  0.7413 -0.7155
 2688SOL     OW19696   2.212   1.932  16.834 -0.2632 -0.9883 -0.3654
 2688SOL    HW119697   2.134   1.896  16.791  0.1960 -1.0851 -1.1274
 2688SOL    HW219698   2.274   1.861  16.817 -0.2758 -1.2056  0.5317
 2689SOL     OW19699   2.754   4.281   3.183 -0.0196 -0.6677 -0.2675
 2689SOL    HW119700   2.774   4.360   3.132 -0.3640 -0.3576  0.0816
 2689SOL    HW219701   2.783   4.213   3.122  0.8865  2.0129 -2.8517
 2690SOL     OW19702   0.957   1.874  15.851  0.6258  0.4135 -0.1658
 2690SOL    HW119703   1.049   1.857  15.871 -0.2227 -3.4155  0.4571
 2690SOL    HW219704   0.944   1.875  15.757  0.6550 -0.7852 -0.1858
 2691SOL     OW19705   1.465   3.679  12.544  0.3954 -0.3965  0.1358
 2691SOL    HW119706   1.445   3.670  12.637 -0.5589  0.1499 -0.0224
 2691SOL    HW219707   1.373   3.681  12.520 -0.0012 -3.1801  1.3245
 2692SOL     OW19708   0.022   0.729   9.840 -0.0777  0.2932  0.0517
 2692SOL    HW119709   0.012   0.666   9.912  1.2478 -1.0975 -1.0046
 2692SOL    HW219710   0.042   0.809   9.888  0.7377  0.3924 -0.4589
 2693SOL     OW19711   4.007   2.810   8.256  0.0643  0.2153 -0.2063
 2693SOL    HW119712   4.041   2.811   8.166  0.3915 -1.2602 -0.0878
 2693SOL    HW219713   3.920   2.775   8.240  0.9900 -2.5704  0.9857
 2694SOL     OW19714   0.046   2.895   7.000  0.0028  0.1389 -0.1863
 2694SOL    HW119715   0.054   2.807   6.963  2.1244  0.2186  0.1327
 2694SOL    HW219716   0.139   2.915   7.004 -0.0562  0.3379  0.2669
 2695SOL     OW19717   0.979   2.952   4.714 -0.2234 -0.4544 -0.5624
 2695SOL    HW119718   1.058   2.998   4.739  0.6151 -3.2907  2.1232
 2695SOL    HW219719   0.913   3.006   4.757 -0.5318 -0.3141 -1.2097
 2696SOL     OW19720   2.766   2.171   6.286  0.1761  0.3090  0.4819
 2696SOL    HW119721   2.820   2.242   6.321 -1.8068  2.3209 -0.5052
 2696SOL    HW219722   2.765   2.203   6.196  0.3838 -1.3987 -0.1219
 2697SOL     OW19723   1.058   0.291   2.333 -0.1843  0.1192 -0.2079
 2697SOL    HW119724   1.027   0.279   2.243  2.5408 -1.1602 -0.9851
 2697SOL    HW219725   1.032   0.382   2.346 -0.1950  0.3955 -2.0524
 2698SOL     OW19726   1.351   0.916   8.888  0.2106 -0.4625 -0.9465
 2698SOL    HW119727   1.418   0.849   8.900  1.0094  0.5908  0.4379
 2698SOL    HW219728   1.379   0.963   8.809 -1.4061  1.5557 -0.3034
 2699SOL     OW19729   0.260   1.117   4.292  0.4808 -0.0756 -0.1450
 2699SOL    HW119730   0.177   1.131   4.248  0.6545 -0.2585 -0.5356
 2699SOL    HW219731   0.222   1.052   4.351  1.2927 -0.7580 -0.3682
 2700SOL     OW19732   1.145   1.850   4.642  0.2536 -0.6437 -0.0481
 2700SOL    HW119733   1.126   1.778   4.581 -0.9707 -0.7599  0.4750
 2700SOL    HW219734   1.079   1.912   4.614  0.0581 -0.5563  0.6106
 2701SOL     OW19735   0.233   1.110   9.661  0.0933  0.0566  0.1075
 2701SOL    HW119736   0.245   1.015   9.663 -2.0363 -0.2413 -1.3656
 2701SOL    HW219737   0.149   1.120   9.705  0.6681  2.0651  0.7128
 2702SOL     OW19738   3.459   2.543   0.222 -0.0398  0.6343  0.1207
 2702SOL    HW119739   3.452   2.632   0.188 -1.9466  1.6005  2.9805
 2702SOL    HW219740   3.553   2.525   0.223 -0.2532 -0.4781 -0.4865
 2703SOL     OW19741   0.392   2.143  14.165  0.3592 -0.1877  0.6370
 2703SOL    HW119742   0.327   2.144  14.095 -0.0184  0.1852  0.9927
 2703SOL    HW219743   0.475   2.129  14.120  0.9516  0.1180  1.6485
 2704SOL     OW19744   1.899   1.083   7.856 -0.0502 -0.4894  0.2047
 2704SOL    HW119745   1.837   1.010   7.849 -1.5913  0.6970  1.4631
 2704SOL    HW219746   1.888   1.106   7.948  0.4286 -0.1263  0.1656
 2705SOL     OW19747   0.979   1.415   4.919 -0.7863  0.3895 -0.8892
 2705SOL    HW119748   0.988   1.342   4.981  2.1381  0.3159 -1.4090
 2705SOL    HW219749   1.056   1.470   4.923  1.1663 -2.3219 -0.8494
 2706SOL     OW19750   0.623   0.002   7.330  0.7189 -0.6421  0.4444
 2706SOL    HW119751   0.644   0.063   7.259 -0.1388  0.1790  0.8973
 2706SOL    HW219752   0.651   0.044   7.412 -0.9976  2.3523 -0.5105
 2707SOL     OW19753   2.910   2.407   5.596  0.4390  0.4988 -0.4550
 2707SOL    HW119754   2.859   2.446   5.666  0.9119  1.4183 -0.6174
 2707SOL    HW219755   2.859   2.426   5.518 -0.3054 -3.1938 -0.8545
 2708SOL     OW19756   3.409   2.755   3.105 -0.4557  0.2202 -0.7104
 2708SOL    HW119757   3.445   2.788   3.023  2.6458 -0.7085  0.2938
 2708SOL    HW219758   3.448   2.668   3.107 -0.7876  0.0770 -0.2594
 2709SOL     OW19759   0.922   2.466  17.457  0.4493 -0.0835  0.2259
 2709SOL    HW119760   0.992   2.451  17.521 -0.0888 -1.6308  0.4642
 2709SOL    HW219761   0.877   2.381  17.456  1.9626 -0.8850  0.9976
 2710SOL     OW19762   2.145   3.738   6.638 -0.2431 -0.1583  0.1074
 2710SOL    HW119763   2.054   3.762   6.657 -0.8646  0.7460 -3.9453
 2710SOL    HW219764   2.144   3.643   6.647 -1.1742 -0.0377  1.2910
 2711SOL     OW19765   3.445   2.861   4.772  0.0641 -0.2184  0.0913
 2711SOL    HW119766   3.524   2.913   4.758 -1.4312  1.8719 -0.5905
 2711SOL    HW219767   3.476   2.792   4.832 -0.5660  1.3320  2.2243
 2712SOL     OW19768   0.422   4.139   8.992 -0.4664  0.3737  0.7388
 2712SOL    HW119769   0.379   4.073   8.937 -0.7775  1.8039 -0.7276
 2712SOL    HW219770   0.459   4.077   9.055 -0.0564 -0.7130 -0.5727
 2713SOL     OW19771   4.068   2.695  16.843  0.1788  1.0262  0.5092
 2713SOL    HW119772   4.141   2.645  16.880 -1.1773  0.0302  1.8761
 2713SOL    HW219773   3.991   2.644  16.869 -0.3475  1.1815 -0.7532
 2714SOL     OW19774   4.189   2.379   9.412 -0.1051  0.3736  0.2398
 2714SOL    HW119775   4.164   2.323   9.486 -0.8079 -0.2804 -0.4928
 2714SOL    HW219776   4.114   2.439   9.411 -1.0701 -0.8858 -2.6196
 2715SOL     OW19777   2.258   3.532  16.753  0.8215 -0.2058 -0.2554
 2715SOL    HW119778   2.302   3.517  16.670 -0.7496 -0.9557 -0.9392
 2715SOL    HW219779   2.259   3.628  16.756  0.6771 -0.1667 -1.5121
 2716SOL     OW19780   3.658   0.598   6.684 -0.0059 -0.2179  0.9303
 2716SOL    HW119781   3.677   0.534   6.615  1.2487  0.9765  0.1523
 2716SOL    HW219782   3.572   0.567   6.713 -0.0333 -1.2768 -0.2840
 2717SOL     OW19783   4.467   1.143   9.691 -0.4206  0.1424  0.1152
 2717SOL    HW119784   4.394   1.187   9.648  0.9787 -0.5176 -2.9099
 2717SOL    HW219785   4.474   1.069   9.631 -1.8072  0.4162 -0.3856
 2718SOL     OW19786   4.335   1.096   8.556 -0.0087 -0.2995 -0.3671
 2718SOL    HW119787   4.284   1.159   8.607 -2.4798 -2.4366 -0.1945
 2718SOL    HW219788   4.403   1.065   8.616 -3.0654 -1.8140  2.3337
 2719SOL     OW19789   0.338   0.858   4.669 -0.1892  0.1695 -0.3925
 2719SOL    HW119790   0.276   0.829   4.602 -0.2886  0.0999 -0.2693
 2719SOL    HW219791   0.327   0.802   4.746 -0.0425 -0.5316 -0.8831
 2720SOL     OW19792   2.853   0.958   4.160  0.0887 -0.3134  0.2314
 2720SOL    HW119793   2.765   0.996   4.170  1.4838  2.3028  2.4872
 2720SOL    HW219794   2.909   1.014   4.214 -0.2185  0.4676 -0.2622
 2721SOL     OW19795   2.740   1.380  17.430  0.2952 -0.5537 -0.1764
 2721SOL    HW119796   2.796   1.367  17.353  1.6360  0.1866  0.6576
 2721SOL    HW219797   2.730   1.475  17.426  0.6570 -0.5044  0.0467
 2722SOL     OW19798   3.902   3.321   6.527  0.4274 -0.3422  0.2329
 2722SOL    HW119799   3.845   3.355   6.596  1.2726 -0.7754  1.1389
 2722SOL    HW219800   3.896   3.398   6.470 -2.8389 -2.0618 -1.6951
 2723SOL     OW19801   0.243   4.501   9.337 -0.2028 -0.0319 -0.3620
 2723SOL    HW119802   0.164   4.476   9.385  0.9563 -2.5891  0.2472
 2723SOL    HW219803   0.261   4.416   9.296  0.4103 -1.0731  2.0420
 2724SOL     OW19804   4.244   0.613   7.995 -0.2602  0.0260  0.1021
 2724SOL    HW119805   4.275   0.683   7.937  0.1021 -0.0324  0.2222
 2724SOL    HW219806   4.246   0.644   8.086 -2.7177  1.0885 -0.2245
 2725SOL     OW19807   2.786   3.239  12.373 -0.3907  0.2135  0.2548
 2725SOL    HW119808   2.786   3.319  12.321 -0.6961  0.4190  0.5764
 2725SOL    HW219809   2.867   3.208  12.331 -0.2440  1.0749 -0.0895
 2726SOL     OW19810   1.478   0.965   3.227 -0.3056 -0.4032 -0.1702
 2726SOL    HW119811   1.386   0.970   3.254 -0.1659  0.1060  0.2148
 2726SOL    HW219812   1.497   0.875   3.254  2.7413  0.6463  1.2862
 2727SOL     OW19813   2.326   2.334   8.022 -0.2805  0.2197 -0.3319
 2727SOL    HW119814   2.290   2.402   7.966  2.8160  1.3862 -0.9075
 2727SOL    HW219815   2.320   2.372   8.110  1.9330  0.3058 -0.2277
 2728SOL     OW19816   2.469   4.453   3.613  0.9861  0.2319  0.4559
 2728SOL    HW119817   2.386   4.430   3.571  1.4597  0.3617 -0.5701
 2728SOL    HW219818   2.473   4.545   3.586  1.4184  0.5857  1.7153
 2729SOL     OW19819   2.730   0.864   1.191  0.1820 -0.5170  0.0994
 2729SOL    HW119820   2.651   0.843   1.242  0.1035  0.2518  0.3071
 2729SOL    HW219821   2.732   0.960   1.193  1.7404 -0.5147 -1.4477
 2730SOL     OW19822   4.109   0.802  13.975  0.1532 -0.5110  0.5386
 2730SOL    HW119823   4.106   0.710  13.948 -0.2336 -0.4452  0.3622
 2730SOL    HW219824   4.202   0.823  13.960 -0.6246  0.4939 -2.8600
 2731SOL     OW19825   0.394   2.432   3.342 -0.1435  0.1353  0.4778
 2731SOL    HW119826   0.324   2.396   3.288  0.9355 -1.1854 -0.0675
 2731SOL    HW219827   0.431   2.491   3.276 -2.6244 -0.0641 -1.0821
 2732SOL     OW19828   0.841   2.028  16.454  0.0131  0.2440 -0.4194
 2732SOL    HW119829   0.849   2.113  16.411  1.6352  0.5996  0.5864
 2732SOL    HW219830   0.799   2.058  16.535  0.6696  0.7253 -0.2604
 2733SOL     OW19831   2.245   0.484   0.038 -0.0076  0.0351 -0.5850
 2733SOL    HW119832   2.208   0.540   0.106 -0.3884  2.2100 -2.6067
 2733SOL    HW219833   2.253   0.397   0.077  0.8686 -0.6707 -2.3472
 2734SOL     OW19834   3.423   3.022   8.399  0.1857  0.5200  0.4482
 2734SOL    HW119835   3.371   2.978   8.467 -0.0921 -3.9621 -2.6925
 2734SOL    HW219836   3.363   3.095   8.384  0.8689  0.3162 -3.1140
 2735SOL     OW19837   3.762   3.247   9.360  0.3853  0.0879  0.2033
 2735SOL    HW119838   3.778   3.198   9.441 -1.6331  0.8670  1.0545
 2735SOL    HW219839   3.670   3.229   9.342  0.0979  1.1806  0.5811
 2736SOL     OW19840   2.978   0.177   7.345 -0.3102  0.4980 -0.0408
 2736SOL    HW119841   3.073   0.171   7.334 -0.5319 -0.4649 -1.3858
 2736SOL    HW219842   2.961   0.267   7.372  0.4829  0.6958 -0.2232
 2737SOL     OW19843   0.341   0.695   2.262  0.7295  0.2298  0.4791
 2737SOL    HW119844   0.287   0.618   2.283 -1.0482  0.7720 -2.1464
 2737SOL    HW219845   0.422   0.654   2.293  1.5519  1.1987 -0.4270
 2738SOL     OW19846   2.233   2.297   3.830  0.3378 -0.2444  0.2244
 2738SOL    HW119847   2.231   2.202   3.818 -1.0411 -0.0430 -1.1483
 2738SOL    HW219848   2.176   2.326   3.759 -1.5305 -3.6192  0.3636
 2739SOL     OW19849   1.874   1.202   9.018  0.0758 -0.4466 -0.2313
 2739SOL    HW119850   1.864   1.204   9.114 -0.0715 -0.1610 -0.2511
 2739SOL    HW219851   1.797   1.251   8.991  0.0014 -0.7259 -0.5196
 2740SOL     OW19852   1.116   0.058   1.874  0.2105 -0.1144 -0.5516
 2740SOL    HW119853   1.207   0.029   1.878 -0.0048 -0.3865  2.5391
 2740SOL    HW219854   1.108   0.127   1.808 -1.3901  0.4247  0.1923
 2741SOL     OW19855   1.976   3.263   9.825 -0.1369 -0.0044 -0.1396
 2741SOL    HW119856   2.033   3.298   9.894 -1.7236 -1.1525  1.7508
 2741SOL    HW219857   2.021   3.290   9.745 -0.8277 -0.8177 -0.7948
 2742SOL     OW19858   0.493   3.261  12.494  0.4190  0.1599 -0.0368
 2742SOL    HW119859   0.405   3.229  12.515 -0.0102  0.6791 -1.0461
 2742SOL    HW219860   0.540   3.243  12.575 -2.6988 -0.3416  1.6657
 2743SOL     OW19861   3.568   4.406   2.911 -0.2159 -0.2214  0.4601
 2743SOL    HW119862   3.575   4.465   2.986  0.2874  0.9805 -0.5304
 2743SOL    HW219863   3.512   4.337   2.946 -0.7368  0.5768  1.2214
 2744SOL     OW19864   0.163   1.315   1.739  0.0790  0.1503 -0.4164
 2744SOL    HW119865   0.093   1.312   1.674  0.1112 -2.3809 -0.3354
 2744SOL    HW219866   0.236   1.302   1.679 -1.3032  1.4776 -2.4109
 2745SOL     OW19867   3.772   1.963   4.847 -0.0663 -0.3957 -0.0997
 2745SOL    HW119868   3.787   2.039   4.903 -0.7834  0.7462 -1.4661
 2745SOL    HW219869   3.729   2.004   4.772  1.1509  1.3965  0.1775
 2746SOL     OW19870   0.864   3.218   6.614 -0.2603  0.1663  0.2471
 2746SOL    HW119871   0.908   3.289   6.660  2.7119  0.2780 -2.7608
 2746SOL    HW219872   0.937   3.188   6.560 -3.3508 -0.4992 -3.6233
 2747SOL     OW19873   2.222   1.377   7.372 -0.2743 -0.4060  0.0127
 2747SOL    HW119874   2.140   1.420   7.398 -0.2714 -1.0856  1.1521
 2747SOL    HW219875   2.256   1.353   7.458 -1.6527 -1.1624  0.3505
 2748SOL     OW19876   2.987   2.679   2.615  0.4342  0.3318  0.2396
 2748SOL    HW119877   2.892   2.690   2.609  0.4554  0.6556  0.4993
 2748SOL    HW219878   3.023   2.744   2.675  0.2539  1.7179 -1.1586
 2749SOL     OW19879   1.446   2.251   3.363 -0.0573  0.1557  0.5785
 2749SOL    HW119880   1.358   2.265   3.399 -1.4712 -0.1958 -2.8285
 2749SOL    HW219881   1.457   2.340   3.329  0.6053 -0.4085 -0.6648
 2750SOL     OW19882   0.304   3.222   4.175  0.3170  0.3177  0.3533
 2750SOL    HW119883   0.211   3.243   4.175 -0.0918 -1.5024  2.7250
 2750SOL    HW219884   0.332   3.288   4.238 -0.4324 -0.3227  1.3437
 2751SOL     OW19885   0.941   1.626   3.500 -0.0425 -0.2067 -0.6803
 2751SOL    HW119886   0.913   1.535   3.498 -0.8684  0.0402 -0.2419
 2751SOL    HW219887   1.032   1.621   3.531  0.2883  0.0702 -1.6048
 2752SOL     OW19888   1.893   4.673   4.527  0.2934 -0.1421  0.1653
 2752SOL    HW119889   1.884   4.599   4.467  0.5257  0.3920 -0.5286
 2752SOL    HW219890   1.973   4.707   4.487 -0.6404  1.5955 -0.2261
 2753SOL     OW19891   4.531   3.976  15.082  0.2186  0.4212 -0.2821
 2753SOL    HW119892   4.530   4.004  15.174 -1.2929  2.8202 -1.0221
 2753SOL    HW219893   4.467   4.039  15.049  1.3408  1.6406 -0.1136
 2754SOL     OW19894   0.411   2.577  11.827 -0.1772 -0.1393 -0.5039
 2754SOL    HW119895   0.380   2.640  11.762  0.8007 -1.2985 -2.0899
 2754SOL    HW219896   0.329   2.528  11.838  0.2333 -1.2020 -2.1876
 2755SOL     OW19897   2.253   2.765   8.271  0.6241  0.5071 -0.0013
 2755SOL    HW119898   2.238   2.810   8.187 -1.6387 -1.7317 -0.8312
 2755SOL    HW219899   2.340   2.800   8.288  1.2181 -1.6877  1.5307
 2756SOL     OW19900   2.194   3.331  15.140 -0.5493 -0.7683  0.5051
 2756SOL    HW119901   2.130   3.346  15.210  0.0605  0.4802  0.7958
 2756SOL    HW219902   2.266   3.283  15.180 -0.5889  0.3011  1.8810
 2757SOL     OW19903   4.667   3.237   3.796  0.2890  0.4116 -0.3256
 2757SOL    HW119904   4.645   3.321   3.756  2.0822  1.3462  0.6979
 2757SOL    HW219905   0.013   3.264   3.843 -1.0739  1.2640  1.4525
 2758SOL     OW19906   4.032   3.830  14.107 -0.4174 -0.0475 -0.2650
 2758SOL    HW119907   4.069   3.755  14.153  0.6546  0.6574  0.0290
 2758SOL    HW219908   4.090   3.903  14.128  0.7065 -0.9910 -0.0943
 2759SOL     OW19909   1.780   1.974   9.665 -0.5585  0.7725 -1.0549
 2759SOL    HW119910   1.824   1.993   9.582  2.5185 -0.1539  0.3670
 2759SOL    HW219911   1.741   2.062   9.667 -1.3904  0.3628  0.3946
 2760SOL     OW19912   0.680   4.542   7.583 -0.3494  0.3004 -0.3588
 2760SOL    HW119913   0.598   4.518   7.626  0.1251 -0.6584  0.0206
 2760SOL    HW219914   0.698   4.624   7.630  0.5878 -0.3764  0.4605
 2761SOL     OW19915   0.660   2.390  10.448 -0.1270  0.2193  0.0780
 2761SOL    HW119916   0.581   2.338  10.429 -0.3954  0.9979 -0.9232
 2761SOL    HW219917   0.628   2.475  10.417  1.9573  2.1763  3.3589
 2762SOL     OW19918   1.391   2.891   2.652 -0.2397 -0.6360  0.0637
 2762SOL    HW119919   1.411   2.984   2.665 -0.5852 -0.4119 -1.0623
 2762SOL    HW219920   1.373   2.884   2.559 -1.9840  0.2497  0.3362
 2763SOL     OW19921   1.238   0.445   6.807  0.0258  0.1579  0.3637
 2763SOL    HW119922   1.170   0.378   6.798 -0.6437  1.1879 -2.3663
 2763SOL    HW219923   1.264   0.451   6.715 -0.0335  0.4262  0.3635
 2764SOL     OW19924   4.599   2.934  17.612  0.2709 -0.3310  0.0532
 2764SOL    HW119925   4.550   2.919  17.532  1.1252  2.3667 -0.9773
 2764SOL    HW219926   4.671   2.870  17.606 -0.3809 -1.0858  0.3461
 2765SOL     OW19927   1.090   3.941   0.106  0.0943 -0.0008  0.6454
 2765SOL    HW119928   1.051   3.930   0.192  0.1761  0.3178  0.7232
 2765SOL    HW219929   1.037   4.013   0.073 -1.3482 -2.1248 -1.6719
 2766SOL     OW19930   1.211   0.514  11.342  0.1642  0.0987 -0.3150
 2766SOL    HW119931   1.248   0.438  11.387  0.6787  1.3557  1.3775
 2766SOL    HW219932   1.279   0.530  11.276  1.5476 -1.0630  0.8128
 2767SOL     OW19933   2.153   3.739   1.609  0.3936 -0.8336  0.0072
 2767SOL    HW119934   2.205   3.681   1.664 -0.4481 -2.1536 -0.6104
 2767SOL    HW219935   2.106   3.796   1.671 -0.0237 -1.2898  0.1097
 2768SOL     OW19936   3.125   0.636  15.058  0.1516  0.2253  0.0737
 2768SOL    HW119937   3.052   0.588  15.019 -1.5272  1.6867  1.4535
 2768SOL    HW219938   3.074   0.702  15.104  0.9116  1.8160 -1.3857
 2769SOL     OW19939   4.237   1.143   7.797 -0.6203  0.3434 -0.2873
 2769SOL    HW119940   4.292   1.153   7.875  1.3548 -2.3841 -1.3333
 2769SOL    HW219941   4.303   1.114   7.735  0.6355  1.4717  0.5387
 2770SOL     OW19942   0.515   2.255   5.244  0.4880  0.4537 -0.7418
 2770SOL    HW119943   0.532   2.202   5.167  1.4864 -0.6516  0.2364
 2770SOL    HW219944   0.591   2.228   5.296 -1.7155 -3.7407  0.2760
 2771SOL     OW19945   1.040   1.127   5.716 -0.2710 -0.0519  0.1734
 2771SOL    HW119946   1.091   1.116   5.636 -1.1263  3.5486 -0.9024
 2771SOL    HW219947   1.036   1.223   5.726  0.4949 -0.1328  1.1749
 2772SOL     OW19948   1.745   0.033   3.735 -0.1544  0.1985  0.0027
 2772SOL    HW119949   1.828   0.011   3.694  0.5990  0.2028  1.5211
 2772SOL    HW219950   1.761   0.125   3.756  2.5067  0.0177 -1.3271
 2773SOL     OW19951   2.687   1.452   3.289 -0.8236  0.8313 -0.1086
 2773SOL    HW119952   2.713   1.361   3.274  0.2264  1.2564 -0.8641
 2773SOL    HW219953   2.613   1.467   3.230 -1.4130 -1.4815  0.0517
 2774SOL     OW19954   3.173   4.407   6.580 -0.0462  0.2470 -0.8175
 2774SOL    HW119955   3.235   4.404   6.653  0.6215  0.3775 -1.3895
 2774SOL    HW219956   3.089   4.373   6.611 -0.5619  2.6040  0.3784
 2775SOL     OW19957   4.118   2.994  11.802  0.4349 -0.5411  0.1141
 2775SOL    HW119958   4.147   3.071  11.851  1.0622  0.8167 -2.3974
 2775SOL    HW219959   4.090   3.036  11.721  1.2862 -0.1397  0.0261
 2776SOL     OW19960   0.260   2.268  13.466  0.0005 -0.1439  0.5249
 2776SOL    HW119961   0.337   2.253  13.520 -1.1952 -1.2406  1.9425
 2776SOL    HW219962   0.194   2.231  13.526 -0.1662 -1.9193 -0.7622
 2777SOL     OW19963   0.662   3.506  12.131  0.1704 -0.2632  0.3813
 2777SOL    HW119964   0.599   3.570  12.163  0.1635  0.2419 -0.6292
 2777SOL    HW219965   0.610   3.426  12.142 -0.9727  0.1720 -1.7575
 2778SOL     OW19966   1.185   1.158   3.902 -0.1480  0.1107 -0.0764
 2778SOL    HW119967   1.197   1.095   3.832  0.3630  0.4148 -0.2683
 2778SOL    HW219968   1.091   1.154   3.922 -0.0666 -0.9830  0.0719
 2779SOL     OW19969   1.047   2.102   7.131  0.3999  0.0840  0.4097
 2779SOL    HW119970   0.979   2.169   7.132  1.6179  1.3253 -0.3342
 2779SOL    HW219971   1.120   2.163   7.118  0.0691  0.1433 -1.1858
 2780SOL     OW19972   4.389   4.259   0.181 -0.0815  0.5676 -0.4462
 2780SOL    HW119973   4.470   4.223   0.143 -0.1476  0.0259 -0.0691
 2780SOL    HW219974   4.332   4.251   0.104 -0.8794  0.1706  0.1918
 2781SOL     OW19975   1.636   1.573   9.501 -0.0612  0.7050 -0.0570
 2781SOL    HW119976   1.700   1.586   9.571 -0.3695 -1.5746  0.6460
 2781SOL    HW219977   1.699   1.572   9.429 -1.2094 -0.3888 -1.0525
 2782SOL     OW19978   1.421   0.910   6.838  0.4124  0.0435 -0.1125
 2782SOL    HW119979   1.361   0.837   6.854  0.3003 -0.1780 -1.4911
 2782SOL    HW219980   1.388   0.946   6.755  0.3897 -0.2643 -0.2375
 2783SOL     OW19981   1.586   2.785  11.593  0.0879 -0.1953 -0.2682
 2783SOL    HW119982   1.539   2.809  11.512  0.3823 -1.3481 -0.7707
 2783SOL    HW219983   1.568   2.863  11.646 -2.2352 -0.1800 -1.0737
 2784SOL     OW19984   4.164   2.684   0.482 -0.2002  0.0767 -0.5070
 2784SOL    HW119985   4.197   2.747   0.547 -1.6068  1.9488 -1.6267
 2784SOL    HW219986   4.104   2.734   0.427 -0.8814 -2.3192 -1.9268
 2785SOL     OW19987   0.020   3.772  16.508 -0.2799  0.9808  0.2480
 2785SOL    HW119988   4.683   3.815  16.458 -1.2653 -0.9361 -0.0070
 2785SOL    HW219989   4.706   3.752  16.589 -2.1351  1.6436 -0.6503
 2786SOL     OW19990   2.028   2.241   0.898  0.0764  0.0526  0.4499
 2786SOL    HW119991   2.004   2.333   0.903  2.3247  0.7157 -1.0011
 2786SOL    HW219992   1.956   2.218   0.840  1.8203 -3.2407 -0.4140
 2787SOL     OW19993   2.383   4.341   6.299 -0.2744  0.1031  0.7127
 2787SOL    HW119994   2.462   4.381   6.337 -0.1501  0.4905  0.0412
 2787SOL    HW219995   2.350   4.292   6.374  0.0113 -0.5734  0.4001
 2788SOL     OW19996   3.705   4.203   4.757 -0.0580 -0.2826 -0.1862
 2788SOL    HW119997   3.793   4.166   4.758 -0.0326 -0.1481  2.6127
 2788SOL    HW219998   3.733   4.292   4.735  1.4345 -0.4062  1.2434
 2789SOL     OW19999   0.311   0.354   7.278  0.5105  0.7889  0.2355
 2789SOL    HW120000   0.364   0.282   7.246 -0.0975  0.3113  0.2944
 2789SOL    HW220001   0.318   0.350   7.373  0.5315 -1.5834  0.1213
 2790SOL     OW20002   0.905   2.115   5.189 -0.0236 -0.4148  0.3366
 2790SOL    HW120003   0.930   2.157   5.107  0.6092 -0.3053  0.5838
 2790SOL    HW220004   0.865   2.191   5.232 -0.6522  1.0005 -2.7499
 2791SOL     OW20005   2.535   3.631   9.970 -0.3501  0.2252 -0.0061
 2791SOL    HW120006   2.574   3.582   9.898 -0.7823  1.2169 -0.9092
 2791SOL    HW220007   2.470   3.677   9.917  0.2443  0.3901 -0.5856
 2792SOL     OW20008   2.721   1.345   2.880 -0.0898  0.2096  0.3377
 2792SOL    HW120009   2.769   1.268   2.912  2.1768  0.3784 -2.7614
 2792SOL    HW220010   2.653   1.351   2.948 -1.0151 -2.3108 -0.3590
 2793SOL     OW20011   0.931   4.718   2.685  0.8219  0.2737 -0.3419
 2793SOL    HW120012   0.843   0.009   2.657  0.0133 -1.2572  0.8490
 2793SOL    HW220013   0.921   4.648   2.750 -1.1929 -0.2434 -1.2194
 2794SOL     OW20014   4.404   0.223   6.233  0.1693  0.5798 -0.4003
 2794SOL    HW120015   4.411   0.261   6.320 -2.3554  0.1660 -0.0221
 2794SOL    HW220016   4.313   0.193   6.224  0.6526 -1.8723  3.1610
 2795SOL     OW20017   2.209   0.124   2.195 -0.1661 -0.6337  0.0780
 2795SOL    HW120018   2.164   0.186   2.253  1.6828  0.1505  0.6462
 2795SOL    HW220019   2.213   0.177   2.115  1.6161  0.7773  1.0908
 2796SOL     OW20020   0.426   1.811   4.812  0.8451  0.1902  0.3268
 2796SOL    HW120021   0.465   1.894   4.840  0.5316 -0.2169  1.9477
 2796SOL    HW220022   0.389   1.788   4.897  1.0635 -2.4026 -0.2818
 2797SOL     OW20023   4.616   3.828   2.871  0.4498 -0.2164 -0.1959
 2797SOL    HW120024   4.639   3.805   2.781  0.4645  1.1372 -0.5432
 2797SOL    HW220025   4.546   3.764   2.884 -1.1109  0.7491 -3.5813
 2798SOL     OW20026   2.251   2.486   8.256  0.3779  0.2461 -1.0500
 2798SOL    HW120027   2.258   2.582   8.261  1.6309  0.1710 -1.2921
 2798SOL    HW220028   2.276   2.451   8.341  0.7271 -0.7570 -1.5734
 2799SOL     OW20029   1.603   3.146   6.243 -0.0412 -0.2521 -0.3143
 2799SOL    HW120030   1.595   3.168   6.150  0.4834  1.4232  0.0390
 2799SOL    HW220031   1.514   3.168   6.269 -0.0241  2.1215 -2.1807
 2800SOL     OW20032   2.587   2.282  13.208 -0.2018  0.2077 -0.0610
 2800SOL    HW120033   2.673   2.300  13.170 -1.6238 -0.5688 -3.7226
 2800SOL    HW220034   2.527   2.292  13.134  0.0824  0.8463 -0.2030
 2801SOL     OW20035   2.319   2.673  14.839  0.2098  0.5944 -0.0645
 2801SOL    HW120036   2.330   2.667  14.744 -1.2805 -1.7462 -0.0958
 2801SOL    HW220037   2.258   2.747  14.843 -0.1239  0.3376 -0.3429
 2802SOL     OW20038   4.290   2.573   2.795  0.3142  0.0825  0.0461
 2802SOL    HW120039   4.312   2.507   2.862 -0.1705  1.7556  1.8371
 2802SOL    HW220040   4.206   2.544   2.760  1.5954  1.7117 -4.3543
 2803SOL     OW20041   0.369   2.225   2.180 -0.2205 -0.0720 -0.5648
 2803SOL    HW120042   0.313   2.155   2.214  0.5024  0.0745  0.9306
 2803SOL    HW220043   0.329   2.301   2.221 -0.4474 -1.5301  1.9285
 2804SOL     OW20044   1.911   0.517   3.600 -0.5216 -0.1357 -0.2515
 2804SOL    HW120045   1.941   0.564   3.521  0.2302  0.5754  0.4565
 2804SOL    HW220046   1.997   0.485   3.626 -0.3122  0.6769  0.0776
 2805SOL     OW20047   1.116   3.889   8.957 -0.0632 -0.7663 -0.3076
 2805SOL    HW120048   1.027   3.924   8.954  0.2082 -0.1225 -0.8570
 2805SOL    HW220049   1.123   3.831   8.881 -1.0237 -2.0932  0.6243
 2806SOL     OW20050   4.248   3.723  15.064 -0.2905 -0.9923  0.3740
 2806SOL    HW120051   4.251   3.715  15.159  0.2934  3.4964  0.7033
 2806SOL    HW220052   4.153   3.708  15.056 -0.5217  0.3021  0.8150
 2807SOL     OW20053   4.465   2.391  14.524 -0.4586  0.9201 -0.0560
 2807SOL    HW120054   4.539   2.451  14.536  0.8503 -0.6289 -0.3640
 2807SOL    HW220055   4.491   2.349  14.442 -2.1257 -2.0536  0.9607
 2808SOL     OW20056   4.665   4.284   2.677 -0.1955  0.1303  0.2941
 2808SOL    HW120057   0.001   4.348   2.697 -1.8481  1.0511  2.9989
 2808SOL    HW220058   4.718   4.206   2.662 -0.1488  0.2407 -0.1327
 2809SOL     OW20059   1.762   0.084   4.750 -0.4516  0.0606 -0.3118
 2809SOL    HW120060   1.820   0.058   4.679 -1.3285  2.2821 -1.8678
 2809SOL    HW220061   1.828   0.071   4.817 -1.2542  0.5335  0.5721
 2810SOL     OW20062   1.262   3.451   9.914  0.6271  0.0092  0.4414
 2810SOL    HW120063   1.174   3.423   9.889  1.0127  2.4037 -3.6421
 2810SOL    HW220064   1.313   3.381   9.872  1.2445  1.1516 -0.7118
 2811SOL     OW20065   4.663   3.436  17.128 -0.5549  0.4711  0.3181
 2811SOL    HW120066   4.731   3.491  17.168  1.0872 -0.7583 -0.7731
 2811SOL    HW220067   4.625   3.410  17.212 -0.0209  0.0110  0.4157
 2812SOL     OW20068   2.022   1.425   8.069  0.2104 -0.2227 -0.2248
 2812SOL    HW120069   1.940   1.376   8.056 -0.7833  1.1188  1.0202
 2812SOL    HW220070   2.078   1.365   8.020 -2.4340 -3.2999  0.5484
 2813SOL     OW20071   0.687   3.205   5.370  0.5994  0.0822  0.1513
 2813SOL    HW120072   0.670   3.273   5.305 -0.5737 -0.7875 -0.4546
 2813SOL    HW220073   0.652   3.241   5.451  0.0948  0.8325 -0.3978
 2814SOL     OW20074   4.103   1.946   2.304 -0.2453 -0.2010 -0.2580
 2814SOL    HW120075   4.168   1.943   2.375  0.0582  0.6220 -0.5086
 2814SOL    HW220076   4.115   2.039   2.284 -4.5445  0.5141  0.5362
 2815SOL     OW20077   0.143   4.557  13.976  0.3373  0.0001 -0.0974
 2815SOL    HW120078   0.067   4.545  13.920  1.1147 -1.9864 -0.7530
 2815SOL    HW220079   0.134   4.483  14.036 -4.2086  1.4700  1.0344
 2816SOL     OW20080   4.129   0.995   0.686  0.0407 -0.4661  0.1428
 2816SOL    HW120081   4.217   1.026   0.708  0.7534 -2.4979  0.1803
 2816SOL    HW220082   4.131   1.014   0.592  0.7616 -1.3840 -0.0226
 2817SOL     OW20083   3.648   2.491   5.559  0.6448  0.7662 -0.1404
 2817SOL    HW120084   3.629   2.569   5.508 -1.3004 -0.6021 -1.5068
 2817SOL    HW220085   3.603   2.504   5.643 -1.5375 -1.0637 -1.0206
 2818SOL     OW20086   3.210   1.405  16.762  0.0526  0.3527  0.2376
 2818SOL    HW120087   3.296   1.389  16.723 -0.1420  0.9554 -0.4344
 2818SOL    HW220088   3.221   1.499  16.773  1.6634  0.3142 -1.0037
 2819SOL     OW20089   3.522   1.624   5.709 -0.3843 -0.4015 -0.5002
 2819SOL    HW120090   3.444   1.633   5.764  0.8028 -4.3780  1.8744
 2819SOL    HW220091   3.551   1.534   5.728  1.7706  0.6937  1.3217
 2820SOL     OW20092   2.715   1.614  17.208 -0.1050 -0.5931  0.8673
 2820SOL    HW120093   2.675   1.698  17.233  0.5689 -0.1424  0.4443
 2820SOL    HW220094   2.637   1.559  17.201  0.6859 -1.3286 -2.0707
 2821SOL     OW20095   1.895   3.459   8.821 -0.3650  0.8292 -0.6763
 2821SOL    HW120096   1.867   3.444   8.731 -0.4703 -3.0447  0.0155
 2821SOL    HW220097   1.930   3.548   8.821 -0.9144  1.0439  1.0811
 2822SOL     OW20098   2.548   3.669   4.709 -0.0074  0.0195 -0.4692
 2822SOL    HW120099   2.499   3.751   4.706  2.0579  1.1820 -2.6925
 2822SOL    HW220100   2.491   3.613   4.657 -2.3224  2.8653 -0.9746
 2823SOL     OW20101   1.344   2.607   6.376  0.7029 -0.4117  0.0398
 2823SOL    HW120102   1.366   2.593   6.468 -1.5639  0.0308  0.6389
 2823SOL    HW220103   1.428   2.598   6.331  0.1134  0.5355 -1.2326
 2824SOL     OW20104   0.364   0.580   6.107  0.0138  0.2574  0.0314
 2824SOL    HW120105   0.397   0.491   6.119  0.4785  0.2048 -1.6916
 2824SOL    HW220106   0.333   0.600   6.196 -2.8253 -0.5221 -0.7748
 2825SOL     OW20107   2.776   3.266   3.928 -0.2894 -0.2566  0.0678
 2825SOL    HW120108   2.689   3.270   3.888 -0.7292  0.1200  1.0503
 2825SOL    HW220109   2.832   3.240   3.855  0.7508  2.7742 -0.1904
 2826SOL     OW20110   1.651   2.516  10.058  0.0722  0.4236 -0.4896
 2826SOL    HW120111   1.695   2.434  10.082 -0.9548 -0.3817 -1.3622
 2826SOL    HW220112   1.620   2.484   9.973  0.1885  1.4651 -0.9166
 2827SOL     OW20113   3.352   0.666  15.190  0.3159  0.1953  0.5452
 2827SOL    HW120114   3.413   0.604  15.151 -0.5233 -0.3806  0.1528
 2827SOL    HW220115   3.284   0.672  15.123  1.7006 -1.9968 -1.0520
 2828SOL     OW20116   2.091   0.930   9.686 -0.2933  0.2823  0.6148
 2828SOL    HW120117   2.139   0.984   9.623 -0.1950 -1.0675 -0.4750
 2828SOL    HW220118   2.153   0.932   9.759  2.9074 -1.8860 -2.0327
 2829SOL     OW20119   1.270   3.314   4.914  0.4043  0.5592 -0.3233
 2829SOL    HW120120   1.288   3.395   4.961  0.0199 -0.3326  1.3538
 2829SOL    HW220121   1.278   3.345   4.824  3.3384 -2.0861 -0.9694
 2830SOL     OW20122   3.928   2.600   7.517 -0.0069  0.5062 -0.0565
 2830SOL    HW120123   4.002   2.540   7.527 -1.4920 -1.0931  1.2732
 2830SOL    HW220124   3.909   2.617   7.609  3.0504 -0.4218  0.7301
 2831SOL     OW20125   2.694   1.408   8.457 -0.8459 -0.1864  0.1548
 2831SOL    HW120126   2.783   1.393   8.423 -1.2672  0.8974 -1.4022
 2831SOL    HW220127   2.642   1.385   8.380  1.7131 -0.6174 -1.4637
 2832SOL     OW20128   0.808   1.551   4.766  0.6255  0.0023  0.5591
 2832SOL    HW120129   0.847   1.482   4.819  0.7358  1.0268  1.8110
 2832SOL    HW220130   0.737   1.582   4.822  0.2640 -1.9436  1.1743
 2833SOL     OW20131   0.864   4.425   6.956 -0.4289 -0.4727 -0.3789
 2833SOL    HW120132   0.797   4.396   6.894 -1.6226  1.4434  0.0195
 2833SOL    HW220133   0.816   4.440   7.037  0.3873  0.0428  0.0036
 2834SOL     OW20134   3.946   2.827  14.020 -0.6264  0.4708  0.6825
 2834SOL    HW120135   3.917   2.877  13.943 -0.4023 -1.0836 -0.4049
 2834SOL    HW220136   4.038   2.814  13.999 -0.6658  0.6714  0.3904
 2835SOL     OW20137   0.273   0.379  16.379 -0.2426 -0.0370  0.4507
 2835SOL    HW120138   0.271   0.297  16.329  1.1254 -0.1634  0.5860
 2835SOL    HW220139   0.229   0.438  16.318  0.1461 -0.9352 -0.7175
 2836SOL     OW20140   2.684   2.881   4.278 -0.2185  0.3117 -0.7204
 2836SOL    HW120141   2.753   2.865   4.343  0.3674 -0.9267 -1.6444
 2836SOL    HW220142   2.689   2.799   4.229  0.9798  0.8673 -1.5434
 2837SOL     OW20143   3.081   0.372   8.114  0.2712  0.3520 -0.2141
 2837SOL    HW120144   3.168   0.410   8.115  0.6730 -0.5312 -1.3325
 2837SOL    HW220145   3.054   0.376   8.022 -0.1507  1.2117 -0.0519
 2838SOL     OW20146   1.748   2.531   4.406 -0.5192 -0.1017 -1.2102
 2838SOL    HW120147   1.822   2.521   4.346  0.2134 -0.7023 -0.1908
 2838SOL    HW220148   1.774   2.606   4.459 -2.1457 -0.2911 -0.1605
 2839SOL     OW20149   1.145   2.774   2.772  0.1456  0.0142 -0.7101
 2839SOL    HW120150   1.145   2.826   2.852 -0.1581 -3.1899  1.3981
 2839SOL    HW220151   1.234   2.793   2.743 -0.0317  2.8346  0.6403
 2840SOL     OW20152   0.780   0.091   6.475 -0.4721 -0.1906  0.2960
 2840SOL    HW120153   0.709   0.044   6.432 -1.8677  2.2596 -0.0451
 2840SOL    HW220154   0.761   0.076   6.568  2.1477 -3.3739  0.3209
 2841SOL     OW20155   1.201   0.581   6.494 -0.2182  0.5052 -0.1908
 2841SOL    HW120156   1.229   0.671   6.505  0.7230 -0.0669  1.9467
 2841SOL    HW220157   1.209   0.582   6.398 -0.5787  2.1913 -0.1973
 2842SOL     OW20158   4.731   2.790   9.346  0.0274 -0.4251 -0.0868
 2842SOL    HW120159   0.058   2.728   9.387  1.8647  0.2975 -1.6871
 2842SOL    HW220160   0.028   2.793   9.255  0.7927  0.8174  0.2142
 2843SOL     OW20161   4.622   4.400   7.581  0.1777 -0.2236 -0.3141
 2843SOL    HW120162   4.529   4.394   7.559  0.0891  1.7507 -0.4772
 2843SOL    HW220163   4.662   4.415   7.495 -0.6607  0.3866 -0.6001
 2844SOL     OW20164   1.011   2.769   7.384  0.4410 -0.2462 -0.1554
 2844SOL    HW120165   1.013   2.865   7.373 -0.4462 -0.4687 -2.2558
 2844SOL    HW220166   1.095   2.746   7.344 -0.5158 -1.6241 -1.3805
 2845SOL     OW20167   3.213   0.226  14.976 -0.2163 -0.5920  0.3833
 2845SOL    HW120168   3.168   0.171  14.911 -1.8687  3.8210 -2.2271
 2845SOL    HW220169   3.210   0.307  14.926 -0.4129 -1.7339 -1.4567
 2846SOL     OW20170   3.167   3.179   8.347 -0.3479  0.4138  0.1187
 2846SOL    HW120171   3.090   3.188   8.403 -0.7046 -1.9791  0.0064
 2846SOL    HW220172   3.157   3.088   8.318  0.6164  0.2994  0.1601
 2847SOL     OW20173   4.008   0.701   9.382 -0.2963  0.2158  0.2573
 2847SOL    HW120174   4.073   0.631   9.391 -0.6753  0.0399  1.7074
 2847SOL    HW220175   4.030   0.750   9.461  3.0472 -2.8712  1.2544
 2848SOL     OW20176   0.487   4.133   5.944  0.5040 -0.8999 -0.1242
 2848SOL    HW120177   0.440   4.181   5.876 -1.1620 -2.9400 -0.3805
 2848SOL    HW220178   0.418   4.129   6.010 -0.0560 -0.6430 -0.6919
 2849SOL     OW20179   4.550   1.332   6.170 -0.0763  0.0165  0.5407
 2849SOL    HW120180   4.569   1.426   6.173 -0.1070  0.0455 -0.3444
 2849SOL    HW220181   4.515   1.323   6.082  0.6883  0.5748  0.1764
 2850SOL     OW20182   3.679   0.586   9.938  0.1188 -0.1940 -0.2348
 2850SOL    HW120183   3.634   0.595  10.022 -1.0540 -0.3531 -0.8338
 2850SOL    HW220184   3.770   0.596   9.967  0.2862 -1.8552 -0.1892
 2851SOL     OW20185   4.504   1.444   9.118 -0.2538  0.3143  0.5666
 2851SOL    HW120186   4.413   1.432   9.144 -0.7472 -1.5019 -2.0146
 2851SOL    HW220187   4.493   1.486   9.033 -1.0220  0.0682  0.5498
 2852SOL     OW20188   0.727   4.528   7.181  0.3719 -0.3592  0.3187
 2852SOL    HW120189   0.698   4.617   7.202  1.5604  0.3252 -0.9755
 2852SOL    HW220190   0.706   4.488   7.266 -0.4654  0.4566  0.5047
 2853SOL     OW20191   4.149   2.832   9.211  0.0372 -0.1087 -0.4142
 2853SOL    HW120192   4.087   2.800   9.146 -0.4087 -0.6284  0.2686
 2853SOL    HW220193   4.090   2.890   9.258  1.9081  0.5364  1.1501
 2854SOL     OW20194   4.160   4.457  16.896 -0.2369  0.2955 -0.2249
 2854SOL    HW120195   4.212   4.491  16.824 -0.9599  0.2825 -0.7476
 2854SOL    HW220196   4.125   4.538  16.934 -0.2745 -0.0084  0.4037
 2855SOL     OW20197   3.078   0.183   4.823  0.2489  0.4969  0.1535
 2855SOL    HW120198   3.085   0.197   4.728  3.3910 -0.0433  0.3153
 2855SOL    HW220199   2.985   0.191   4.842  0.1219 -1.3638  0.3828
 2856SOL     OW20200   0.025   2.027   6.349  0.5170  0.5679 -0.2585
 2856SOL    HW120201   0.026   2.049   6.256  1.0142  0.0724 -0.3706
 2856SOL    HW220202   0.110   1.985   6.364  0.2391 -0.1691 -0.7467
 2857SOL     OW20203   3.617   3.027   5.236 -0.5062 -0.0798  0.2057
 2857SOL    HW120204   3.673   3.085   5.288 -1.4424 -1.1219  2.3213
 2857SOL    HW220205   3.670   3.013   5.157  0.8804 -0.2984  1.1748
 2858SOL     OW20206   3.542   3.720  12.663  0.2335 -0.4854  0.6500
 2858SOL    HW120207   3.565   3.795  12.718 -0.5040 -0.3488  0.7843
 2858SOL    HW220208   3.475   3.677  12.718  0.3592  0.0026  1.1916
 2859SOL     OW20209   0.206   2.387   3.134  0.2406 -0.5382  0.1467
 2859SOL    HW120210   0.250   2.375   3.049 -1.4519  0.2633 -0.8419
 2859SOL    HW220211   0.129   2.440   3.117  1.1045  1.3146  2.1004
 2860SOL     OW20212   2.039   1.583   8.290 -0.3546  0.2449 -0.2932
 2860SOL    HW120213   2.026   1.541   8.204  0.2914 -0.2621 -0.1455
 2860SOL    HW220214   1.945   1.573   8.306  0.0402 -1.4221  1.0205
 2861SOL     OW20215   4.459   2.698   6.320  0.5578 -0.4028 -0.0163
 2861SOL    HW120216   4.429   2.710   6.230  1.1662 -2.0811 -0.4471
 2861SOL    HW220217   4.491   2.609   6.308  1.3093 -0.1568  0.1506
 2862SOL     OW20218   0.896   1.865   7.035  0.1163  0.1895  0.3922
 2862SOL    HW120219   0.951   1.940   7.057  3.2827 -1.1571 -2.7638
 2862SOL    HW220220   0.823   1.887   7.092 -0.7618  0.0956 -0.6975
 2863SOL     OW20221   1.399   0.087   8.225 -0.5105  0.6336 -0.1165
 2863SOL    HW120222   1.327   0.135   8.267 -1.4124 -0.0116 -0.8979
 2863SOL    HW220223   1.353   0.004   8.212 -0.4377  0.8313 -1.7035
 2864SOL     OW20224   1.509   1.007   4.486 -0.4462 -0.1412 -0.4625
 2864SOL    HW120225   1.458   0.926   4.492  0.7412 -0.8305  0.5056
 2864SOL    HW220226   1.499   1.010   4.391 -0.1276  1.2622 -0.4538
 2865SOL     OW20227   1.722   0.372  10.206  0.3565  0.1123  0.7295
 2865SOL    HW120228   1.645   0.346  10.257 -1.5380  0.1053 -2.1580
 2865SOL    HW220229   1.766   0.429  10.269  0.4513 -1.4838  2.0843
 2866SOL     OW20230   1.085   0.863  17.227  0.8608 -0.0451 -0.6960
 2866SOL    HW120231   1.049   0.853  17.315 -1.1032  4.0712 -1.0323
 2866SOL    HW220232   1.177   0.877  17.252 -0.2880  2.3533  2.2806
 2867SOL     OW20233   4.124   1.846  11.507  0.0711 -0.6011 -0.0842
 2867SOL    HW120234   4.090   1.931  11.534 -0.5113 -0.9923  0.4178
 2867SOL    HW220235   4.208   1.843  11.552 -1.1724  1.4850  2.3424
 2868SOL     OW20236   4.139   3.709   7.157  0.4788 -0.3897  0.2060
 2868SOL    HW120237   4.127   3.631   7.212 -4.6768 -0.3213 -0.7873
 2868SOL    HW220238   4.133   3.664   7.073  0.7590 -1.2906  0.6677
 2869SOL     OW20239   2.548   0.696  12.138 -0.4260 -0.2483  0.4172
 2869SOL    HW120240   2.529   0.789  12.155 -0.7948  0.3403 -3.0604
 2869SOL    HW220241   2.610   0.703  12.065  0.5596  1.2867  1.3979
 2870SOL     OW20242   4.198   1.479   4.638 -0.2810  0.2080  0.1353
 2870SOL    HW120243   4.241   1.448   4.558 -0.3928 -0.8396  0.4726
 2870SOL    HW220244   4.250   1.557   4.651  1.9017 -1.2186 -0.0640
 2871SOL     OW20245   4.556   1.676   2.369  0.3612 -0.1507  0.6777
 2871SOL    HW120246   4.556   1.763   2.409 -0.0958  0.3574 -0.4299
 2871SOL    HW220247   4.502   1.688   2.291 -1.8522 -0.5472  2.1643
 2872SOL     OW20248   3.184   1.146   2.349 -0.0774  0.7540  0.4068
 2872SOL    HW120249   3.119   1.128   2.418  1.6376  0.6144  1.9721
 2872SOL    HW220250   3.186   1.062   2.302 -3.0560  0.1632  1.2848
 2873SOL     OW20251   4.498   0.540  17.637  0.2046 -0.0623 -0.1799
 2873SOL    HW120252   4.451   0.535  17.720  1.2688 -0.3280  0.3894
 2873SOL    HW220253   4.524   0.632  17.634  0.7214 -0.1959  0.3495
 2874SOL     OW20254   2.529   4.488  13.241 -0.1460  0.4072 -0.3736
 2874SOL    HW120255   2.481   4.427  13.296 -0.0645  0.1871 -0.5480
 2874SOL    HW220256   2.484   4.572  13.257  1.2745  0.9945  0.5626
 2875SOL     OW20257   3.790   1.058  10.567  0.3811  0.1782 -0.0903
 2875SOL    HW120258   3.749   1.028  10.648  2.8909 -1.4242  0.5577
 2875SOL    HW220259   3.782   0.989  10.502 -0.7051 -3.2241  3.6489
 2876SOL     OW20260   3.281   3.041   8.930 -0.0864 -0.4080 -0.7505
 2876SOL    HW120261   3.298   3.123   8.976  2.2392 -1.2652 -0.0361
 2876SOL    HW220262   3.363   2.998   8.956 -0.9839 -1.6419  0.0547
 2877SOL     OW20263   3.730   1.983   5.200 -0.2245 -0.2713 -0.8479
 2877SOL    HW120264   3.736   2.053   5.134 -0.3857  0.6496  0.1054
 2877SOL    HW220265   3.754   2.031   5.279 -0.0419 -2.7381  0.5682
 2878SOL     OW20266   2.817   2.524   4.874  0.2649 -0.1798  0.5964
 2878SOL    HW120267   2.907   2.491   4.872  0.4730  0.5251 -1.9553
 2878SOL    HW220268   2.780   2.442   4.908 -0.3812 -0.0772  0.1621
 2879SOL     OW20269   4.624   2.184  15.512  0.3476 -0.1522 -0.6922
 2879SOL    HW120270   4.534   2.156  15.526  0.4185  0.0961  0.2008
 2879SOL    HW220271   4.665   2.104  15.544  1.3211  0.1483 -1.1670
 2880SOL     OW20272   4.321   2.444   8.672 -0.1510  0.2634  0.0543
 2880SOL    HW120273   4.278   2.419   8.754  1.3747  0.8900  1.0291
 2880SOL    HW220274   4.251   2.491   8.625  1.8550  0.7801 -2.3822
 2881SOL     OW20275   1.323   1.235   7.573  0.0248 -0.4139 -0.0015
 2881SOL    HW120276   1.245   1.184   7.554 -1.0867  0.6877  1.6251
 2881SOL    HW220277   1.318   1.307   7.510 -0.4537 -0.1570  0.3292
 2882SOL     OW20278   0.054   4.420  16.497 -0.1890 -0.7208 -0.0166
 2882SOL    HW120279   0.140   4.449  16.468 -1.1290  0.8126 -1.2481
 2882SOL    HW220280   0.029   4.474  16.573 -0.1349 -0.5004 -0.1573
 2883SOL     OW20281   0.623   2.759  14.873 -0.4216  0.3120 -0.8352
 2883SOL    HW120282   0.581   2.780  14.789  3.3477 -1.3361 -3.1368
 2883SOL    HW220283   0.575   2.678  14.888  0.8582 -0.8441 -3.1096
 2884SOL     OW20284   2.306   4.194   8.470 -0.1664 -0.6529  0.4298
 2884SOL    HW120285   2.288   4.287   8.456 -0.7471 -0.7468  0.5318
 2884SOL    HW220286   2.362   4.194   8.548 -1.0187  0.9258  1.0523
 2885SOL     OW20287   0.444   3.951   6.862 -0.0948 -0.4260  0.5186
 2885SOL    HW120288   0.532   3.914   6.862  0.9859  2.1074  1.4273
 2885SOL    HW220289   0.447   4.013   6.789  1.2229 -2.4368 -1.1231
 2886SOL     OW20290   2.414   0.670  17.636 -0.1966  0.5599 -0.1367
 2886SOL    HW120291   2.406   0.606  17.707 -0.5098 -0.6152 -1.2331
 2886SOL    HW220292   2.409   0.610  17.562 -0.2906  0.1350  0.2137
 2887SOL     OW20293   2.948   4.633   5.624  0.0506  0.1925 -0.6757
 2887SOL    HW120294   2.865   4.591   5.601  0.8835 -2.0979  0.6125
 2887SOL    HW220295   2.954   4.687   5.545  0.9245  0.0497 -0.7059
 2888SOL     OW20296   0.713   0.090  10.505 -0.4164  0.3204  0.4660
 2888SOL    HW120297   0.745   0.154  10.569 -0.5883  1.6651 -0.8145
 2888SOL    HW220298   0.778   0.022  10.520  0.8095  1.4292  0.1381
 2889SOL     OW20299   4.146   0.742   6.357 -0.2868 -0.6489  0.0752
 2889SOL    HW120300   4.191   0.657   6.362  0.9839  0.0383  0.3034
 2889SOL    HW220301   4.220   0.802   6.349 -1.1173  0.6151  1.7840
 2890SOL     OW20302   1.857   2.208   3.835 -0.7270  0.7425  0.0229
 2890SOL    HW120303   1.798   2.151   3.884 -1.1568 -1.2022 -2.7443
 2890SOL    HW220304   1.846   2.290   3.883 -0.0645 -0.0356  1.5148
 2891SOL     OW20305   3.152   3.940   3.766 -0.7534  0.2607  0.0844
 2891SOL    HW120306   3.084   4.007   3.778  0.4261  1.5494 -0.4600
 2891SOL    HW220307   3.187   3.997   3.698  1.9015 -1.9262 -0.3606
 2892SOL     OW20308   1.673   1.017   3.408  0.3159 -0.1629  0.0021
 2892SOL    HW120309   1.627   1.003   3.325 -1.9691 -1.2355  1.4829
 2892SOL    HW220310   1.695   0.930   3.439  1.2843 -0.1596 -0.6437
 2893SOL     OW20311   2.841   4.260  10.762 -0.0971  0.2687 -0.1047
 2893SOL    HW120312   2.932   4.290  10.766  0.0761 -0.0984 -1.4325
 2893SOL    HW220313   2.798   4.342  10.788 -1.2062 -0.6000  0.7582
 2894SOL     OW20314   2.087   0.676   0.229  0.2191 -0.0510  0.4575
 2894SOL    HW120315   2.020   0.654   0.164 -0.1856 -0.4280  1.0082
 2894SOL    HW220316   2.046   0.658   0.313 -0.2430 -0.2701  0.1801
 2895SOL     OW20317   3.133   1.589   5.852 -0.1864  0.1084  0.0451
 2895SOL    HW120318   3.039   1.587   5.868 -0.5697 -0.9149 -2.4047
 2895SOL    HW220319   3.160   1.509   5.897  0.4710  0.5119  0.3729
 2896SOL     OW20320   3.977   2.214   9.231 -0.2200 -0.1765 -0.2700
 2896SOL    HW120321   3.928   2.217   9.313  0.1895  2.5950 -0.1413
 2896SOL    HW220322   4.048   2.275   9.250 -2.4073  2.4763 -0.7046
 2897SOL     OW20323   1.933   0.985   8.709  0.2298 -0.8328  0.0246
 2897SOL    HW120324   1.881   0.907   8.690 -0.4563 -0.0205 -1.4693
 2897SOL    HW220325   1.869   1.052   8.683 -0.1730 -1.9347 -1.8479
 2898SOL     OW20326   2.437   2.363  14.652  0.1301 -0.3987  0.2766
 2898SOL    HW120327   2.447   2.269  14.635  2.7185 -0.3895  1.7552
 2898SOL    HW220328   2.426   2.392  14.562 -0.0565  1.6433  0.9616
 2899SOL     OW20329   0.357   0.317   4.220 -0.2041 -0.1723  0.1509
 2899SOL    HW120330   0.328   0.232   4.188 -0.0734 -0.4796  0.8410
 2899SOL    HW220331   0.374   0.309   4.314 -0.1074  0.3166  0.1742
 2900SOL     OW20332   0.391   1.491   4.916 -0.0139  0.1027 -0.1097
 2900SOL    HW120333   0.475   1.538   4.920 -0.1482  0.2053  1.3230
 2900SOL    HW220334   0.362   1.508   5.005 -0.6319  0.3954 -0.3659
 2901SOL     OW20335   1.772   4.617   1.954 -0.5198  0.0087 -0.6100
 2901SOL    HW120336   1.812   4.654   2.033 -0.3544  0.9099 -1.1145
 2901SOL    HW220337   1.858   4.598   1.916  1.0045  0.5516  2.5261
 2902SOL     OW20338   1.483   3.869  16.629  0.3997 -0.2905 -0.4029
 2902SOL    HW120339   1.551   3.802  16.624  1.3928  0.6178  0.9542
 2902SOL    HW220340   1.402   3.821  16.611  1.4355 -2.4239  0.6881
 2903SOL     OW20341   2.487   1.925   5.061 -0.2016  0.0740 -0.2054
 2903SOL    HW120342   2.478   1.942   5.155  0.5437 -2.9380  0.4147
 2903SOL    HW220343   2.401   1.946   5.025 -1.0589 -2.5308  0.3354
 2904SOL     OW20344   4.006   0.159   7.156  0.4344  0.4597  0.2854
 2904SOL    HW120345   3.945   0.196   7.093  0.4739  1.0891  0.6171
 2904SOL    HW220346   4.085   0.192   7.113 -0.4032  0.4570 -1.2551
 2905SOL     OW20347   3.648   4.403  12.264 -0.0505 -0.3549 -0.1896
 2905SOL    HW120348   3.622   4.358  12.183 -1.1245  0.5126 -0.3278
 2905SOL    HW220349   3.568   4.432  12.307 -1.8478 -1.2900 -2.8651
 2906SOL     OW20350   4.383   2.883   9.343 -0.3481 -0.0332 -0.1744
 2906SOL    HW120351   4.407   2.796   9.374 -0.2852 -0.3664 -1.1448
 2906SOL    HW220352   4.314   2.867   9.279 -1.4310  1.6027  0.5984
 2907SOL     OW20353   1.225   1.686   9.533  0.4929 -0.4520 -0.5037
 2907SOL    HW120354   1.255   1.736   9.457 -0.6015  2.7997  1.1733
 2907SOL    HW220355   1.156   1.631   9.497 -0.2920  0.2538 -0.0788
 2908SOL     OW20356   0.847   4.013   6.903  0.2955  0.4693  0.0591
 2908SOL    HW120357   0.761   4.042   6.870  1.0494  1.5655 -0.9367
 2908SOL    HW220358   0.840   3.923   6.936 -1.6083  0.5398 -0.1453
 2909SOL     OW20359   0.777   0.728   2.650  0.7694  0.8174  0.2187
 2909SOL    HW120360   0.685   0.746   2.669 -0.2116 -1.1861 -2.4688
 2909SOL    HW220361   0.801   0.690   2.734 -0.5074  2.0050  1.1112
 2910SOL     OW20362   3.208   4.553   7.816 -0.2030 -0.1986  0.3093
 2910SOL    HW120363   3.164   4.487   7.870  0.0761  0.3274  1.1785
 2910SOL    HW220364   3.162   4.544   7.732  3.7276 -3.0509 -1.5175
 2911SOL     OW20365   1.346   0.848   0.586  0.1575  0.1352  0.0194
 2911SOL    HW120366   1.366   0.912   0.655  0.3589 -1.8006  1.7611
 2911SOL    HW220367   1.345   0.765   0.633  0.0394 -0.6407 -1.3661
 2912SOL     OW20368   3.602   3.388  16.445 -0.2989 -0.6365 -0.5567
 2912SOL    HW120369   3.612   3.423  16.356  0.2901  1.9392  0.5239
 2912SOL    HW220370   3.631   3.297  16.435  1.8471 -0.2323  2.1751
 2913SOL     OW20371   1.329   1.663   2.028 -0.1043  0.3179 -0.2417
 2913SOL    HW120372   1.394   1.593   2.035 -1.6071 -1.0495  0.0137
 2913SOL    HW220373   1.271   1.616   1.968 -1.2267  0.9234  0.3587
 2914SOL     OW20374   2.943   4.520   1.129 -0.2051 -0.4195  0.2560
 2914SOL    HW120375   2.990   4.474   1.059  2.2929  0.5708  1.2856
 2914SOL    HW220376   2.925   4.607   1.093  2.7493 -0.1922 -0.7142
 2915SOL     OW20377   0.215   3.995   4.324 -0.4821 -0.0202  0.1918
 2915SOL    HW120378   0.139   3.986   4.381 -0.8231 -1.1789 -0.4460
 2915SOL    HW220379   0.240   3.906   4.301  2.0339  0.7199  0.0227
 2916SOL     OW20380   4.002   0.216   7.896  0.1179 -0.1606 -0.0562
 2916SOL    HW120381   4.026   0.216   7.989 -1.8634  2.7639  0.4653
 2916SOL    HW220382   3.943   0.142   7.909  2.7369 -1.8558  2.2380
 2917SOL     OW20383   1.327   2.845   4.071 -0.3372  0.1897 -0.0137
 2917SOL    HW120384   1.248   2.867   4.021 -0.4423  4.0718  1.9103
 2917SOL    HW220385   1.392   2.873   4.007 -0.6809  1.5309  0.2182
 2918SOL     OW20386   0.800   1.096   6.184  0.8289 -0.2436 -0.4735
 2918SOL    HW120387   0.828   1.177   6.141  1.7125 -0.8736 -1.0557
 2918SOL    HW220388   0.798   1.039   6.108 -2.9164 -0.3489 -0.3101
 2919SOL     OW20389   1.246   3.426   7.110  0.9765 -0.3234 -0.1579
 2919SOL    HW120390   1.223   3.459   7.197  0.0590 -1.8296  0.1756
 2919SOL    HW220391   1.338   3.405   7.122  0.0354 -2.9880  2.3196
 2920SOL     OW20392   4.687   2.463   5.367 -0.0399  0.1579 -0.9586
 2920SOL    HW120393   4.611   2.520   5.378  0.2141 -0.1584  2.4715
 2920SOL    HW220394   4.652   2.396   5.425 -1.6254  1.2319 -0.6903
 2921SOL     OW20395   4.102   3.181  11.335  0.4810 -0.7819 -0.4394
 2921SOL    HW120396   4.098   3.153  11.244  1.2670 -0.4166 -0.5925
 2921SOL    HW220397   4.194   3.187  11.362  0.8395 -0.9324 -1.6163
 2922SOL     OW20398   4.628   3.961   6.450 -0.0911  0.0827 -0.1972
 2922SOL    HW120399   4.608   3.869   6.468 -1.6933  0.7828  1.6531
 2922SOL    HW220400   4.576   4.002   6.519 -0.8134 -1.7419  0.3441
 2923SOL     OW20401   4.019   0.830   3.685  0.2297  0.5026 -0.3138
 2923SOL    HW120402   4.078   0.769   3.641  0.1430  1.4426 -1.7441
 2923SOL    HW220403   4.083   0.899   3.669  0.8936 -0.4995 -1.9340
 2924SOL     OW20404   2.535   2.924   2.645 -0.2667  0.6140 -0.0945
 2924SOL    HW120405   2.607   2.930   2.582  2.4763 -1.5862  2.8147
 2924SOL    HW220406   2.592   2.925   2.721 -0.5093 -2.5096  0.1089
 2925SOL     OW20407   3.313   3.867  13.634  0.1740  0.3501  0.4572
 2925SOL    HW120408   3.224   3.835  13.646  0.1112  0.0626 -0.8671
 2925SOL    HW220409   3.359   3.812  13.698  0.6682 -0.2799 -0.4442
 2926SOL     OW20410   4.155   2.403  17.142  0.7371 -0.2520  0.1350
 2926SOL    HW120411   4.091   2.339  17.111 -0.3646  1.2131 -0.6180
 2926SOL    HW220412   4.229   2.400  17.082  0.7491 -0.2070  0.1472
 2927SOL     OW20413   2.183   3.145   3.809 -0.5365 -0.2431 -0.0571
 2927SOL    HW120414   2.174   3.118   3.901  0.5383 -2.1279 -0.5065
 2927SOL    HW220415   2.102   3.114   3.768 -0.7133 -1.3973  1.1502
 2928SOL     OW20416   3.376   2.919   9.231 -0.0817  0.0903 -0.5873
 2928SOL    HW120417   3.301   2.896   9.177  0.4934 -0.9253 -0.9417
 2928SOL    HW220418   3.446   2.865   9.195  2.7140  1.5140  2.6565
 2929SOL     OW20419   2.496   3.710   7.354  0.2679  0.1401 -0.0771
 2929SOL    HW120420   2.421   3.684   7.301 -1.4173 -0.9937  2.8303
 2929SOL    HW220421   2.459   3.705   7.442  1.1687  0.2713  0.3132
 2930SOL     OW20422   2.381   4.248  12.253 -0.5898 -0.0327 -0.6250
 2930SOL    HW120423   2.392   4.250  12.348 -2.7325  0.2239 -0.3891
 2930SOL    HW220424   2.292   4.281  12.244 -0.7916 -0.7470 -1.1925
 2931SOL     OW20425   4.091   0.734  16.753  0.3270 -0.4586 -0.2735
 2931SOL    HW120426   4.019   0.731  16.817  2.1224  0.4097  1.7993
 2931SOL    HW220427   4.060   0.811  16.704 -0.1479 -1.9093 -2.2239
 2932SOL     OW20428   4.622   1.528   3.522  0.4383 -0.0110 -0.2135
 2932SOL    HW120429   4.581   1.453   3.566  1.2320 -0.9104 -1.0319
 2932SOL    HW220430   4.714   1.502   3.527  0.1974 -0.6471  0.8411
 2933SOL     OW20431   2.876   3.645   7.825 -0.1335  0.0634  0.2284
 2933SOL    HW120432   2.850   3.737   7.821  2.0167  0.6679 -0.0003
 2933SOL    HW220433   2.966   3.651   7.856  0.6984 -3.2432 -1.4293
 2934SOL     OW20434   0.641   0.907   5.296 -0.2091  0.4183 -0.1643
 2934SOL    HW120435   0.681   0.855   5.366 -0.8365  0.4278  0.2029
 2934SOL    HW220436   0.555   0.926   5.334  0.5222  2.5733  0.3907
 2935SOL     OW20437   0.008   0.495   4.110 -0.4023  0.4030  0.2154
 2935SOL    HW120438   0.028   0.403   4.129  1.7458  0.4622 -1.7471
 2935SOL    HW220439   0.058   0.512   4.030  1.6430 -1.5522  1.0704
 2936SOL     OW20440   1.840   1.026   2.032 -0.4584 -0.1411  0.1564
 2936SOL    HW120441   1.760   1.003   1.985 -0.8160 -0.2533  0.8252
 2936SOL    HW220442   1.899   0.953   2.010 -1.5335 -1.4306  1.5600
 2937SOL     OW20443   0.544   0.600   2.439 -0.4346 -0.4594  0.3301
 2937SOL    HW120444   0.580   0.515   2.465  2.8530  1.4494  2.0326
 2937SOL    HW220445   0.569   0.655   2.513 -0.9402  0.8953 -0.5162
 2938SOL     OW20446   3.478   1.555   3.382  0.0379 -0.4528  0.5190
 2938SOL    HW120447   3.413   1.604   3.432 -1.0590 -0.0853 -1.2888
 2938SOL    HW220448   3.556   1.565   3.437  0.8154  0.7235 -0.7719
 2939SOL     OW20449   2.557   2.505  12.652 -0.3896 -0.4661 -0.3845
 2939SOL    HW120450   2.524   2.426  12.695 -1.1963 -0.6219 -1.3094
 2939SOL    HW220451   2.633   2.529  12.706  0.8866 -1.1067 -1.9045
 2940SOL     OW20452   4.446   2.229  14.268  0.5332 -0.2012 -0.0218
 2940SOL    HW120453   4.407   2.151  14.229 -0.3306 -0.2457  0.9180
 2940SOL    HW220454   4.363   2.267  14.295  0.0732 -1.2500  0.0411
 2941SOL     OW20455   3.175   0.000   8.003  0.2693  0.2168  0.0759
 2941SOL    HW120456   3.185   4.655   8.057 -0.9202  0.0259  0.0133
 2941SOL    HW220457   3.177   4.691   7.917  0.4115  0.9548 -0.2829
 2942SOL     OW20458   2.638   0.393  17.001 -0.5854  0.1955  0.2823
 2942SOL    HW120459   2.644   0.485  17.024  0.8970 -0.4217  2.3362
 2942SOL    HW220460   2.548   0.388  16.967 -0.6841 -0.0281  0.5749
 2943SOL     OW20461   0.934   0.134  10.286  0.4182 -0.0967  0.0363
 2943SOL    HW120462   0.854   0.125  10.234 -0.5949  0.0141  1.5852
 2943SOL    HW220463   0.915   0.218  10.326  0.3714  0.0166 -0.2262
 2944SOL     OW20464   3.656   1.061   2.522  0.1155  0.9175 -0.1482
 2944SOL    HW120465   3.735   1.018   2.555 -0.8664 -0.0331  0.9569
 2944SOL    HW220466   3.685   1.074   2.431  1.6452 -3.8446 -0.3213
 2945SOL     OW20467   2.088   1.368   5.314  0.0601 -0.3742  0.0434
 2945SOL    HW120468   2.171   1.404   5.284 -0.0609 -0.1063  0.0363
 2945SOL    HW220469   2.073   1.294   5.255  1.5825 -1.2627  0.7820
 2946SOL     OW20470   0.156   3.610   7.413 -0.0636  0.1398 -0.0640
 2946SOL    HW120471   0.113   3.583   7.494 -1.0598  1.4978 -0.1341
 2946SOL    HW220472   0.076   3.642   7.371  0.5786  1.9905  0.1202
 2947SOL     OW20473   1.830   1.141  16.746  0.6492 -0.3896  0.7133
 2947SOL    HW120474   1.831   1.092  16.664 -0.4838 -1.2777  1.2327
 2947SOL    HW220475   1.847   1.069  16.806  2.3324 -0.8938 -0.3615
 2948SOL     OW20476   1.270   4.644  11.196  0.4860 -0.5662 -0.3935
 2948SOL    HW120477   1.264   4.658  11.291 -0.6242 -0.4207 -0.4798
 2948SOL    HW220478   1.183   4.621  11.163 -0.7974 -1.5801  3.7070
 2949SOL     OW20479   4.086   1.226  10.188  0.0840 -0.1958  0.4608
 2949SOL    HW120480   4.086   1.208  10.282 -1.3401  2.6223  0.9700
 2949SOL    HW220481   4.162   1.282  10.178 -0.1252  0.1435  0.8066
 2950SOL     OW20482   4.550   3.663   3.395  0.1506  0.0412 -0.3919
 2950SOL    HW120483   4.464   3.698   3.416  0.7039  1.2733 -0.1804
 2950SOL    HW220484   4.587   3.737   3.347 -1.8064 -0.3405 -2.4646
 2951SOL     OW20485   0.028   3.314  15.705 -0.7330  0.0237  0.2498
 2951SOL    HW120486   0.028   3.333  15.799  1.6114 -1.1538  0.5069
 2951SOL    HW220487   0.013   3.404  15.677 -1.5689 -0.3774 -0.5804
 2952SOL     OW20488   0.632   2.595  11.972 -0.9255 -0.1036  0.0713
 2952SOL    HW120489   0.553   2.569  11.924 -2.7170  1.0881  2.3675
 2952SOL    HW220490   0.618   2.689  11.963 -2.1367 -0.3639 -0.7947
 2953SOL     OW20491   4.519   3.455  17.398 -0.1001 -0.0456 -0.4632
 2953SOL    HW120492   4.505   3.383  17.460  0.0597 -1.3442 -1.9109
 2953SOL    HW220493   4.584   3.511  17.440  0.3871 -1.4656  0.6794
 2954SOL     OW20494   2.370   3.659   8.635  0.3456  0.1037  0.2284
 2954SOL    HW120495   2.302   3.602   8.601  0.7441 -0.9911  1.2565
 2954SOL    HW220496   2.362   3.743   8.590 -0.0411 -0.4332 -0.6759
 2955SOL     OW20497   4.530   4.260   6.804 -0.3741  0.5194 -0.1927
 2955SOL    HW120498   4.573   4.339   6.772 -1.7763  0.4592 -2.2204
 2955SOL    HW220499   4.555   4.261   6.896  2.4189 -1.1336 -0.9216
 2956SOL     OW20500   0.784   2.487   2.740  0.3358 -0.0659  0.1164
 2956SOL    HW120501   0.703   2.444   2.709  0.5537 -0.7034  0.4326
 2956SOL    HW220502   0.764   2.569   2.694 -0.2496  0.0855  0.6453
 2957SOL     OW20503   4.029   1.253   2.208  0.3676  0.1436 -0.5364
 2957SOL    HW120504   4.120   1.257   2.236  0.1264 -0.7852  0.3441
 2957SOL    HW220505   4.001   1.343   2.227  0.1960 -0.0596  0.1421
 2958SOL     OW20506   1.901   3.192   4.555 -0.3343 -0.3564  0.4515
 2958SOL    HW120507   1.928   3.281   4.533 -2.6718  0.4821  0.9320
 2958SOL    HW220508   1.826   3.184   4.496  0.9300 -1.2155 -1.0397
 2959SOL     OW20509   0.086   4.686   7.812  0.5778 -0.6040 -0.5296
 2959SOL    HW120510   0.057   0.043   7.829 -2.1360 -1.4549 -0.7367
 2959SOL    HW220511   0.142   4.711   7.738  0.7743  2.4331  0.6797
 2960SOL     OW20512   3.898   2.395   2.870 -0.7255 -0.1206 -0.1530
 2960SOL    HW120513   3.988   2.368   2.884 -0.8725 -0.1723  0.7372
 2960SOL    HW220514   3.859   2.308   2.866  0.8231 -0.8598  1.2452
 2961SOL     OW20515   0.537   4.185   1.105 -0.4522 -0.6500  0.1130
 2961SOL    HW120516   0.509   4.254   1.045 -1.3929 -1.4959 -0.4247
 2961SOL    HW220517   0.575   4.117   1.050  0.4135 -1.0565  1.2178
 2962SOL     OW20518   0.489   3.527   1.828 -0.0405 -0.5578 -0.0247
 2962SOL    HW120519   0.502   3.467   1.902  0.4845  0.4494  0.7072
 2962SOL    HW220520   0.394   3.521   1.817 -0.0039  0.3382 -0.8072
 2963SOL     OW20521   0.184   0.250   6.010 -0.0256 -0.1159  0.3519
 2963SOL    HW120522   0.095   0.255   5.975 -0.7592 -2.6510  1.8583
 2963SOL    HW220523   0.168   0.269   6.102  1.3839 -2.5113  1.0963
 2964SOL     OW20524   2.083   2.868   9.508  0.2241 -0.0611  0.0783
 2964SOL    HW120525   2.024   2.937   9.480 -1.9922 -2.5032 -1.2925
 2964SOL    HW220526   2.016   2.822   9.559 -0.3082  0.2842 -0.3184
 2965SOL     OW20527   2.732   2.488   3.507  0.2185  0.0143 -0.1890
 2965SOL    HW120528   2.797   2.436   3.459  2.0064 -0.6805  3.0260
 2965SOL    HW220529   2.699   2.552   3.443  1.1772  1.5692  0.8889
 2966SOL     OW20530   2.021   0.193  16.088 -0.2504 -0.1270  0.2470
 2966SOL    HW120531   2.026   0.271  16.033  2.2968  1.4103  2.6610
 2966SOL    HW220532   1.947   0.214  16.145 -0.7898 -3.3569  0.7073
 2967SOL     OW20533   3.799   4.130   4.166  0.0988  0.5294 -0.0854
 2967SOL    HW120534   3.793   4.046   4.120  1.2227  0.4440 -0.0702
 2967SOL    HW220535   3.705   4.152   4.160  0.0901  0.5550  0.1623
 2968SOL     OW20536   4.158   3.840   3.189  0.2776 -0.3273 -1.0724
 2968SOL    HW120537   4.233   3.797   3.148  1.8883  0.4507  1.0919
 2968SOL    HW220538   4.178   3.933   3.196 -1.8737 -0.0761  1.5916
 2969SOL     OW20539   2.461   1.702   3.002  0.0118 -0.7561  0.1398
 2969SOL    HW120540   2.550   1.717   2.970 -0.8286  1.0201 -1.3500
 2969SOL    HW220541   2.451   1.761   3.076  1.0622  1.4636 -1.5067
 2970SOL     OW20542   3.563   2.378  17.054  0.1599  0.6887 -0.2301
 2970SOL    HW120543   3.575   2.471  17.036  0.2157  0.6319 -0.4877
 2970SOL    HW220544   3.526   2.349  16.970 -1.7742  0.1450  0.8196
 2971SOL     OW20545   4.571   3.413   4.226 -0.2515 -0.6271  0.3480
 2971SOL    HW120546   4.640   3.351   4.201  0.8986  0.7053  0.2315
 2971SOL    HW220547   4.492   3.361   4.209  0.5410 -0.9019 -2.5540
 2972SOL     OW20548   0.292   2.831   0.548 -0.1537  0.8153 -0.6586
 2972SOL    HW120549   0.365   2.888   0.525  1.4871 -0.7191  0.7555
 2972SOL    HW220550   0.253   2.864   0.629  2.5502 -2.9482  2.1855
 2973SOL     OW20551   3.221   4.713   1.351  0.7103 -0.7807 -0.6870
 2973SOL    HW120552   3.200   4.632   1.305 -0.9442 -1.3544  1.0716
 2973SOL    HW220553   3.217   4.692   1.444  3.0333 -0.0679 -0.4333
 2974SOL     OW20554   2.857   3.878   4.353 -0.4629 -0.1847 -0.3391
 2974SOL    HW120555   2.923   3.812   4.335  0.1355  0.3365 -0.0242
 2974SOL    HW220556   2.842   3.842   4.440  0.1586  0.8940  0.2156
 2975SOL     OW20557   3.636   0.067   6.553 -0.2674 -0.4108 -0.0885
 2975SOL    HW120558   3.555   0.029   6.587  0.1977 -0.2451  1.1957
 2975SOL    HW220559   3.688   4.721   6.537 -0.6132 -1.3848  3.6388
 2976SOL     OW20560   4.671   1.843   4.548  0.4090  0.5955 -0.9005
 2976SOL    HW120561   0.020   1.850   4.597  0.0267 -1.7074  0.0639
 2976SOL    HW220562   4.700   1.817   4.460  1.3554 -0.1729 -0.3527
 2977SOL     OW20563   3.266   3.529  10.989  0.0323  0.0749 -0.1236
 2977SOL    HW120564   3.172   3.516  11.002 -0.2766  0.3483 -2.1535
 2977SOL    HW220565   3.254   3.619  10.959 -2.0268 -0.4947 -1.0021
 2978SOL     OW20566   1.487   2.210  17.575  0.2316  0.1985 -0.4077
 2978SOL    HW120567   1.540   2.269  17.628 -0.4512  0.2146  0.2424
 2978SOL    HW220568   1.546   2.191  17.502 -1.0033  0.4129 -1.4630
 2979SOL     OW20569   1.215   1.546  17.423  0.2423 -0.1599 -0.0831
 2979SOL    HW120570   1.264   1.596  17.488 -0.8627  0.5452  0.2025
 2979SOL    HW220571   1.203   1.603  17.347  0.2314  0.2206  0.2085
 2980SOL     OW20572   4.041   2.220  13.558  0.2912 -0.5446  0.5060
 2980SOL    HW120573   4.000   2.258  13.480  1.5471  0.3185  0.2679
 2980SOL    HW220574   3.997   2.271  13.626  1.7512 -0.8884  1.6878
 2981SOL     OW20575   1.002   0.572   5.676 -0.5464  0.4258 -0.4877
 2981SOL    HW120576   0.970   0.661   5.666  0.5556  0.9620  0.8391
 2981SOL    HW220577   1.078   0.567   5.618  1.3348  0.9787  1.9092
 2982SOL     OW20578   2.332   1.974   7.428  0.1047  0.6299  0.4036
 2982SOL    HW120579   2.372   1.888   7.439  1.2182  1.2631  1.2495
 2982SOL    HW220580   2.249   1.948   7.388  1.1591  0.1840 -1.4822
 2983SOL     OW20581   1.300   0.952   0.166  0.3067 -0.2370 -0.1662
 2983SOL    HW120582   1.226   0.923   0.113  0.5516  0.4575 -0.8806
 2983SOL    HW220583   1.340   1.012   0.104  1.2908 -0.1400  0.5549
 2984SOL     OW20584   4.485   0.332  16.805 -0.1645  0.3630 -0.5172
 2984SOL    HW120585   4.508   0.335  16.712 -2.1575 -1.9407 -1.0987
 2984SOL    HW220586   4.436   0.249  16.805 -0.5209  0.5655  0.3616
 2985SOL     OW20587   3.295   0.028   8.756  0.1179  0.4654  0.7188
 2985SOL    HW120588   3.274   0.121   8.756 -0.7111  0.2843  2.3893
 2985SOL    HW220589   3.351   0.022   8.834 -0.7131 -0.3109  1.2564
 2986SOL     OW20590   3.894   1.280   5.543 -0.0877 -0.2483 -0.3478
 2986SOL    HW120591   3.896   1.325   5.458 -1.9716 -3.1188 -1.9217
 2986SOL    HW220592   3.894   1.188   5.515 -0.5931 -0.3817  0.1008
 2987SOL     OW20593   1.668   1.304   7.723 -0.0755 -0.2610 -0.5347
 2987SOL    HW120594   1.687   1.331   7.633  1.7245 -1.0492 -0.3876
 2987SOL    HW220595   1.735   1.361   7.760 -1.4813  1.2088 -0.2501
 2988SOL     OW20596   1.200   1.279   2.519 -0.1554  0.4973  0.1314
 2988SOL    HW120597   1.120   1.232   2.542  0.2477 -0.4405 -0.4133
 2988SOL    HW220598   1.171   1.337   2.448  0.5530  1.1867  0.4009
 2989SOL     OW20599   1.450   2.342   9.775  0.0752 -0.2651  0.0246
 2989SOL    HW120600   1.366   2.362   9.733  0.9715 -1.3910 -2.3103
 2989SOL    HW220601   1.473   2.430   9.804  0.4883 -0.7192  1.0413
 2990SOL     OW20602   1.928   3.310   4.111  0.1264 -0.6168 -0.5055
 2990SOL    HW120603   1.881   3.227   4.119  0.1150 -0.7162 -1.6872
 2990SOL    HW220604   1.880   3.346   4.037 -1.1378  1.5768  1.3774
 2991SOL     OW20605   0.424   1.343   4.138 -0.1728 -0.0389  0.3510
 2991SOL    HW120606   0.435   1.254   4.102 -1.6076  0.5330 -1.5012
 2991SOL    HW220607   0.346   1.336   4.193  1.2899 -0.1244  2.4272
 2992SOL     OW20608   2.679   0.935  14.731  0.4758 -0.1211 -0.0296
 2992SOL    HW120609   2.662   0.877  14.806  0.6918  0.1904  0.2621
 2992SOL    HW220610   2.587   0.957  14.716  0.3563 -0.7262 -0.1939
 2993SOL     OW20611   4.301   0.098   5.309  0.0593 -0.4092 -0.4343
 2993SOL    HW120612   4.329   0.081   5.219 -0.3639 -1.5274 -0.3560
 2993SOL    HW220613   4.208   0.078   5.303  0.0744 -0.5513 -0.1802
 2994SOL     OW20614   0.820   4.046   2.654 -0.4918 -0.1125  0.0149
 2994SOL    HW120615   0.869   4.037   2.572 -0.9821 -1.1330 -0.1556
 2994SOL    HW220616   0.862   4.105   2.718  0.1520 -0.5049 -0.0483
 2995SOL     OW20617   1.944   0.697   5.314  0.0176  0.0728 -0.5460
 2995SOL    HW120618   2.008   0.636   5.277 -1.5440 -1.5688 -0.5379
 2995SOL    HW220619   2.000   0.728   5.385 -1.2660 -0.0663  0.5226
 2996SOL     OW20620   1.913   3.524   6.937 -0.3055  0.3382 -0.8399
 2996SOL    HW120621   1.990   3.478   6.969 -1.0330 -1.1736 -1.2478
 2996SOL    HW220622   1.886   3.557   7.023  0.5168  0.5702 -0.6763
 2997SOL     OW20623   2.344   0.193   5.836  0.3975  0.0887  0.3993
 2997SOL    HW120624   2.258   0.153   5.853  0.6922 -1.4579 -1.8273
 2997SOL    HW220625   2.340   0.201   5.741 -2.6695 -1.0498  0.4257
 2998SOL     OW20626   0.302   2.514  16.983 -0.1217  0.0588  0.2011
 2998SOL    HW120627   0.280   2.541  16.893  0.1129 -0.8336 -0.1259
 2998SOL    HW220628   0.382   2.468  16.960 -0.8944 -2.2338  2.1346
 2999SOL     OW20629   4.148   3.414   4.795 -0.7360  0.2423  0.0095
 2999SOL    HW120630   4.065   3.392   4.751  0.4021 -1.1193 -1.4422
 2999SOL    HW220631   4.212   3.365   4.744 -1.5976 -1.2923  0.4129
 3000SOL     OW20632   2.542   0.321   4.052  0.1242  0.4370 -0.0005
 3000SOL    HW120633   2.594   0.296   3.976  0.7306 -1.4214  1.0216
 3000SOL    HW220634   2.598   0.299   4.127  0.7933 -1.0148 -0.9273
 3001SOL     OW20635   0.711   3.384   9.778  0.1172 -0.0113 -0.1521
 3001SOL    HW120636   0.649   3.328   9.731  0.4743 -1.8131  1.5471
 3001SOL    HW220637   0.795   3.350   9.747 -1.0787 -2.1072 -1.1000
 3002SOL     OW20638   1.157   3.977   5.356  0.3106 -0.4077  0.4505
 3002SOL    HW120639   1.126   3.912   5.420 -2.8984  1.5945  0.8773
 3002SOL    HW220640   1.127   3.938   5.274 -1.1035  0.0467  0.7501
 3003SOL     OW20641   4.649   0.920  12.447  0.2253  0.8621 -0.6677
 3003SOL    HW120642   4.580   0.941  12.510  0.5439 -0.4545  0.1322
 3003SOL    HW220643   4.714   0.977  12.488  0.6189  0.2449 -0.4196
 3004SOL     OW20644   3.609   0.435   4.958  0.4253  0.5128  0.1769
 3004SOL    HW120645   3.517   0.434   4.934  0.4172  0.8932  0.1958
 3004SOL    HW220646   3.616   0.472   5.046 -1.1155 -1.4008  1.1041
 3005SOL     OW20647   2.235   2.588   6.601 -0.4858  0.1677 -0.3407
 3005SOL    HW120648   2.303   2.523   6.586 -0.5649 -0.0393  0.2236
 3005SOL    HW220649   2.284   2.641   6.664  0.4061 -0.1052 -0.8088
 3006SOL     OW20650   1.913   1.573   5.850  0.0859  0.0424  0.0558
 3006SOL    HW120651   1.875   1.503   5.903  0.1664 -0.6927 -0.8721
 3006SOL    HW220652   1.999   1.573   5.892  0.4379  1.2366 -0.6662
 3007SOL     OW20653   1.041   4.177  16.921 -0.5313  0.1815 -0.6240
 3007SOL    HW120654   0.982   4.109  16.888 -0.3957 -0.5448  0.6573
 3007SOL    HW220655   1.094   4.187  16.842  1.4150 -0.6032  0.5888
 3008SOL     OW20656   1.138   2.431   6.775  0.2524 -0.1207 -0.8076
 3008SOL    HW120657   1.185   2.456   6.854 -0.5377  2.0839 -1.0205
 3008SOL    HW220658   1.054   2.469   6.799 -0.0626 -0.8977 -0.6690
 3009SOL     OW20659   0.705   3.745   2.089 -0.4545 -0.2202 -0.1111
 3009SOL    HW120660   0.645   3.817   2.068 -0.8415 -0.2162  1.0215
 3009SOL    HW220661   0.788   3.751   2.040  0.2692  2.4780  1.4199
 3010SOL     OW20662   0.215   2.931   9.870  0.7279  0.7760  0.1139
 3010SOL    HW120663   0.230   2.901   9.780  0.2469  0.2204  0.2173
 3010SOL    HW220664   0.253   2.854   9.912  0.5810 -0.6367 -2.3501
 3011SOL     OW20665   4.668   4.070  13.131 -0.3119 -0.2640 -0.0762
 3011SOL    HW120666   4.611   4.005  13.091 -1.2638 -0.0413  0.9086
 3011SOL    HW220667   0.017   4.027  13.106 -1.4955 -0.8080 -2.9445
 3012SOL     OW20668   3.682   1.611   6.571 -0.3896  0.2083 -0.2729
 3012SOL    HW120669   3.738   1.581   6.498 -2.6372 -0.7994 -1.6052
 3012SOL    HW220670   3.598   1.602   6.526 -1.0527  1.8795  0.6477
 3013SOL     OW20671   2.299   0.052   5.356 -0.2293  0.4410  0.3007
 3013SOL    HW120672   2.312   4.694   5.326 -0.9816  0.6185 -0.5790
 3013SOL    HW220673   2.207   0.041   5.379  0.0817  0.4834  1.5327
 3014SOL     OW20674   0.963   3.211   8.703  0.5548  0.3451 -0.0460
 3014SOL    HW120675   1.015   3.269   8.758  1.3657 -1.2323  0.8452
 3014SOL    HW220676   0.956   3.136   8.762 -0.9725 -0.0977 -0.8040
 3015SOL     OW20677   2.404   1.963   3.405 -0.4129 -0.9174 -0.0077
 3015SOL    HW120678   2.455   1.914   3.470  4.0380  0.7547 -2.2292
 3015SOL    HW220679   2.418   2.052   3.436  2.5061 -1.4035  0.0269
 3016SOL     OW20680   1.022   3.206   8.249 -0.6073  0.2339  0.4510
 3016SOL    HW120681   1.023   3.206   8.153 -1.5947 -1.8974  0.4290
 3016SOL    HW220682   0.995   3.293   8.279 -2.2019 -1.1437  2.9589
 3017SOL     OW20683   3.947   2.100   6.667  0.0120 -0.1197 -0.0869
 3017SOL    HW120684   3.864   2.093   6.714 -0.2544 -0.6337 -0.6412
 3017SOL    HW220685   3.947   2.028   6.605  1.6345 -0.7691  0.6937
 3018SOL     OW20686   3.371   4.042   6.215  0.2306  0.1790 -0.2613
 3018SOL    HW120687   3.340   4.043   6.305  1.0219  1.1981 -0.0006
 3018SOL    HW220688   3.459   4.079   6.223  0.5115 -0.9473  1.9131
 3019SOL     OW20689   0.216   2.997  15.851  0.0497 -0.0975 -0.6658
 3019SOL    HW120690   0.240   2.909  15.879 -2.3398 -0.4938  0.1538
 3019SOL    HW220691   0.216   3.008  15.756  0.9272  0.5453 -0.5918
 3020SOL     OW20692   2.101   0.353   9.005  0.0593  0.0899  0.1978
 3020SOL    HW120693   2.017   0.322   9.037 -0.9848  1.8231 -0.7933
 3020SOL    HW220694   2.159   0.277   9.008 -0.4383 -0.3117 -0.4677
 3021SOL     OW20695   0.074   1.083  12.656  0.0255 -0.2299  0.6086
 3021SOL    HW120696   0.089   1.176  12.674 -2.0490  0.7743 -2.8804
 3021SOL    HW220697   0.148   1.066  12.597  1.1283 -0.2706  1.9839
 3022SOL     OW20698   4.308   0.416  10.328 -0.4085 -0.6976  0.0402
 3022SOL    HW120699   4.401   0.397  10.341 -0.1642  1.2139  1.1027
 3022SOL    HW220700   4.318   0.511  10.336 -0.7604 -0.6699  0.1385
 3023SOL     OW20701   0.921   2.532   6.912  0.2049 -0.5695 -0.0408
 3023SOL    HW120702   0.860   2.515   6.840 -0.1261  0.3831  0.0123
 3023SOL    HW220703   0.890   2.617   6.944 -0.0168 -0.9388  0.7377
 3024SOL     OW20704   1.124   0.412  10.320 -0.1926  0.1050  0.3464
 3024SOL    HW120705   1.157   0.485  10.268 -1.2660 -1.9653 -3.2311
 3024SOL    HW220706   1.168   0.431  10.403  3.6466 -2.3342 -1.1559
 3025SOL     OW20707   4.090   3.365  15.047 -0.2593  0.1100 -0.2286
 3025SOL    HW120708   4.026   3.437  15.049 -0.9727 -0.5918  3.1414
 3025SOL    HW220709   4.166   3.411  15.012 -0.2464  0.3608  0.1273
 3026SOL     OW20710   2.445   0.707   3.375 -0.4691  0.0053  0.2081
 3026SOL    HW120711   2.474   0.793   3.344  0.1901 -0.3821 -0.2605
 3026SOL    HW220712   2.526   0.657   3.364  0.9575  2.1378  1.0303
 3027SOL     OW20713   0.650   1.850  16.338  0.9454  0.3005 -0.0115
 3027SOL    HW120714   0.734   1.879  16.375  1.5362 -3.2310  1.4260
 3027SOL    HW220715   0.607   1.844  16.424  0.1907 -1.4136 -0.5089
 3028SOL     OW20716   2.994   3.655   4.354 -0.0195 -0.3967  0.3906
 3028SOL    HW120717   3.065   3.678   4.414  1.5089 -1.5198 -1.0094
 3028SOL    HW220718   2.941   3.598   4.410  0.3294 -1.3184 -0.2107
 3029SOL     OW20719   0.766   1.479   9.094  0.4873 -0.5174 -0.1959
 3029SOL    HW120720   0.774   1.483   9.189 -1.1247 -0.2875 -0.0810
 3029SOL    HW220721   0.696   1.542   9.076  0.3844 -0.7606 -0.6456
 3030SOL     OW20722   0.989   3.735   2.397 -0.0418  0.1749 -0.0944
 3030SOL    HW120723   1.005   3.731   2.492  1.7925  1.1928 -0.3723
 3030SOL    HW220724   0.949   3.822   2.394 -1.7635 -0.6394 -0.3115
 3031SOL     OW20725   1.279   1.519   5.245  0.0130 -0.2242 -0.1117
 3031SOL    HW120726   1.253   1.482   5.330 -0.9757  2.6845  0.8489
 3031SOL    HW220727   1.202   1.571   5.222 -1.4238 -2.5995 -0.7108
 3032SOL     OW20728   4.697   2.447   7.045 -0.2098  0.1062 -0.0564
 3032SOL    HW120729   0.000   2.475   7.129  2.7631  0.4038 -1.4334
 3032SOL    HW220730   0.020   2.375   7.016  2.0062  0.8777  2.2586
 3033SOL     OW20731   1.491   3.000   0.419  0.1766 -0.7292 -0.2197
 3033SOL    HW120732   1.426   2.935   0.391 -1.4432  1.9429 -2.6863
 3033SOL    HW220733   1.470   3.071   0.358  0.2279  1.3828  2.2059
 3034SOL     OW20734   3.756   2.148   7.465  0.5700  0.5748  0.0426
 3034SOL    HW120735   3.726   2.108   7.383  1.2503  1.0825 -0.4495
 3034SOL    HW220736   3.849   2.155   7.445  0.9026  0.0635  1.4478
 3035SOL     OW20737   4.487   1.185  16.947  0.2425  0.7966  0.3357
 3035SOL    HW120738   4.435   1.260  16.976 -2.2663 -0.4546 -0.9943
 3035SOL    HW220739   4.570   1.231  16.933  1.3913 -2.5626 -3.9164
 3036SOL     OW20740   4.729   0.012  14.517 -0.1295 -0.5113 -0.4547
 3036SOL    HW120741   0.065   4.682  14.495  1.7020  1.2296  0.3986
 3036SOL    HW220742   4.653   4.696  14.485  2.2663 -3.0154 -2.3074
 3037SOL     OW20743   4.133   3.821   7.816 -0.2578  0.4183  0.4993
 3037SOL    HW120744   4.136   3.821   7.721  1.6393 -2.5877  0.5774
 3037SOL    HW220745   4.191   3.745   7.825 -0.8684 -0.2241 -1.0539
 3038SOL     OW20746   0.461   4.693  13.245 -0.1446  0.6353  0.0088
 3038SOL    HW120747   0.409   4.619  13.277  0.9177  0.9634  2.4771
 3038SOL    HW220748   0.544   4.657  13.275 -0.3082  2.1871  2.2937
 3039SOL     OW20749   3.743   2.238  17.493 -0.1012  0.5454 -0.5886
 3039SOL    HW120750   3.765   2.167  17.433  0.4138 -0.6351  1.0195
 3039SOL    HW220751   3.797   2.214  17.568  0.6008  0.6099 -1.0755
 3040SOL     OW20752   0.928   3.574  14.953  0.0708  0.6225  0.1526
 3040SOL    HW120753   0.953   3.568  14.861 -0.8318  1.0625 -0.1295
 3040SOL    HW220754   0.949   3.666  14.970  2.9860  0.1004 -0.7499
 3041SOL     OW20755   2.167   1.839   3.345 -0.2812  0.2082  0.0006
 3041SOL    HW120756   2.115   1.898   3.290  0.3946  0.9677  0.1720
 3041SOL    HW220757   2.244   1.894   3.361  1.2518 -1.8759 -0.1798
 3042SOL     OW20758   0.888   3.749   3.951  0.0583  0.0410 -0.5808
 3042SOL    HW120759   0.868   3.784   4.038  1.3031 -0.1945 -0.1911
 3042SOL    HW220760   0.846   3.820   3.903 -0.2017  2.7528  3.5803
 3043SOL     OW20761   3.241   4.226   3.708  0.5122  0.6643 -0.4859
 3043SOL    HW120762   3.159   4.233   3.659  0.1641 -3.4056 -0.5444
 3043SOL    HW220763   3.233   4.311   3.750 -1.3537  1.9128 -3.3727
 3044SOL     OW20764   2.180   4.007   8.982  0.5442  0.1957 -0.0301
 3044SOL    HW120765   2.122   3.944   9.026  0.0240  0.6601 -0.0652
 3044SOL    HW220766   2.261   4.002   9.033 -0.9223  2.1928  2.5106
 3045SOL     OW20767   4.197   3.073   5.137 -0.6109 -1.0276 -0.7272
 3045SOL    HW120768   4.177   3.083   5.044 -0.2587  1.4203 -0.5332
 3045SOL    HW220769   4.287   3.103   5.137 -1.4017  1.3018  0.8318
 3046SOL     OW20770   1.193   3.056   8.381  0.0174  0.3045  0.8099
 3046SOL    HW120771   1.266   3.039   8.321  1.8933  1.5101  2.7814
 3046SOL    HW220772   1.133   3.100   8.321  0.2732  0.1637  0.4453
 3047SOL     OW20773   1.137   3.587   3.600 -0.4446 -0.7872  0.8806
 3047SOL    HW120774   1.042   3.581   3.611 -0.3696 -1.3739  1.1994
 3047SOL    HW220775   1.166   3.651   3.664 -0.0065 -0.7426  0.6362
 3048SOL     OW20776   3.307   0.595   1.601  0.1567  0.3054  0.0357
 3048SOL    HW120777   3.257   0.543   1.537  0.9134 -2.3201  1.5517
 3048SOL    HW220778   3.327   0.664   1.538  1.6408 -1.5362 -1.5510
 3049SOL     OW20779   1.134   0.004   9.537  0.5892  0.2501  0.1919
 3049SOL    HW120780   1.177   4.672   9.481  1.1435  0.1904  0.6824
 3049SOL    HW220781   1.146   0.085   9.487  0.3654  0.5309  0.5969
 3050SOL     OW20782   0.010   1.003  13.202  0.3644  0.1036 -0.1303
 3050SOL    HW120783   4.671   0.951  13.239  0.6427 -0.7340 -0.7636
 3050SOL    HW220784   4.695   1.060  13.142 -0.9570 -0.8756 -0.0313
 3051SOL     OW20785   1.631   1.217   6.753 -0.0523  0.4178 -0.0841
 3051SOL    HW120786   1.601   1.196   6.841 -0.7085  1.1922 -0.1167
 3051SOL    HW220787   1.564   1.191   6.691  2.3533 -1.3252 -1.9579
 3052SOL     OW20788   0.408   1.975   3.444 -0.2911 -1.2758  0.3835
 3052SOL    HW120789   0.346   2.044   3.420 -0.4516 -1.1364  1.1871
 3052SOL    HW220790   0.461   2.009   3.516  2.9321  1.7508 -3.4064
 3053SOL     OW20791   0.599   3.473   2.121 -0.4321 -0.1260 -0.2658
 3053SOL    HW120792   0.612   3.567   2.110 -0.1222 -0.0984  0.3094
 3053SOL    HW220793   0.591   3.460   2.216 -0.0511  0.0194 -0.2151
 3054SOL     OW20794   2.789   0.695   5.004  0.2848  0.1707 -0.0689
 3054SOL    HW120795   2.762   0.762   4.942 -1.3557 -0.1051  0.3394
 3054SOL    HW220796   2.857   0.749   5.044  1.2632 -1.0541 -0.0798
 3055SOL     OW20797   4.185   1.197   6.942 -0.4190  0.4436  0.0526
 3055SOL    HW120798   4.139   1.134   6.997  0.4101  0.2756  0.5576
 3055SOL    HW220799   4.154   1.177   6.853  0.8838  2.2071 -0.7933
 3056SOL     OW20800   4.482   1.783   9.805  0.2632 -0.4019 -0.1394
 3056SOL    HW120801   4.492   1.700   9.852  3.3735 -0.0875 -0.2648
 3056SOL    HW220802   4.387   1.796   9.804  0.0046 -2.4747 -1.7642
 3057SOL     OW20803   3.851   2.886   1.157 -0.4138  0.2712  0.4418
 3057SOL    HW120804   3.773   2.900   1.211 -0.7609 -1.8284  0.4678
 3057SOL    HW220805   3.917   2.876   1.224  0.6717  0.2346 -0.6290
 3058SOL     OW20806   1.402   0.095  17.199  0.2699  0.8823  0.2641
 3058SOL    HW120807   1.463   0.027  17.225  1.8696  1.9066 -0.7905
 3058SOL    HW220808   1.354   0.056  17.125 -0.3383 -0.9476  1.6294
 3059SOL     OW20809   4.011   3.619   7.589  0.0276 -0.0087  0.4454
 3059SOL    HW120810   3.995   3.539   7.639 -0.8150  1.0252  1.8364
 3059SOL    HW220811   3.922   3.653   7.604  0.3855 -0.3626  3.3337
 3060SOL     OW20812   3.898   1.302  11.117  0.9521  0.1031  0.3210
 3060SOL    HW120813   3.863   1.336  11.200  1.3009 -1.2899  1.0516
 3060SOL    HW220814   3.958   1.230  11.137 -1.3156 -1.5685  1.3101
 3061SOL     OW20815   3.998   2.847   4.783  0.5305 -0.2904  0.0688
 3061SOL    HW120816   3.962   2.784   4.720  1.2939 -0.6833  0.0227
 3061SOL    HW220817   4.048   2.784   4.834  1.9139  1.1311  0.4465
 3062SOL     OW20818   3.110   3.423   7.916  0.4685 -0.1227 -0.2136
 3062SOL    HW120819   3.166   3.346   7.930  1.1930  0.7466  1.6570
 3062SOL    HW220820   3.045   3.413   7.986  1.1608  1.5207  0.6496
 3063SOL     OW20821   2.383   0.752   7.546  0.0703  0.2203 -0.2153
 3063SOL    HW120822   2.322   0.823   7.529  1.1194  1.3813  0.8802
 3063SOL    HW220823   2.468   0.794   7.533 -0.1115  0.6889  0.0897
 3064SOL     OW20824   0.477   4.053   7.530  0.0012 -0.1684  0.2476
 3064SOL    HW120825   0.493   3.968   7.488  1.7745 -2.1519  4.9134
 3064SOL    HW220826   0.386   4.043   7.556 -0.3568 -0.4008 -1.1130
 3065SOL     OW20827   4.483   1.773   7.153 -0.3749 -0.1140 -0.0161
 3065SOL    HW120828   4.492   1.867   7.168 -0.4503 -0.5425  2.7771
 3065SOL    HW220829   4.533   1.773   7.072 -0.0337  0.1220  0.1933
 3066SOL     OW20830   4.146   0.827   8.473  0.0766  0.4829  0.5694
 3066SOL    HW120831   4.108   0.766   8.536 -0.1413  1.3278  1.2628
 3066SOL    HW220832   4.228   0.851   8.516  0.0517 -0.7556  1.3187
 3067SOL     OW20833   0.131   2.256   9.887 -0.0201 -0.1282  0.3693
 3067SOL    HW120834   0.223   2.236   9.908  0.1010  0.4576  0.3853
 3067SOL    HW220835   0.131   2.345   9.921  2.2021  0.2955 -0.7239
 3068SOL     OW20836   1.398   4.204   8.899 -0.5801  0.0321  0.0130
 3068SOL    HW120837   1.394   4.111   8.875  0.9850  0.1166 -0.5593
 3068SOL    HW220838   1.329   4.208   8.965 -1.0436  0.4590 -0.4958
 3069SOL     OW20839   4.299   4.159   4.923  0.4956 -0.1587 -0.5758
 3069SOL    HW120840   4.219   4.110   4.941 -0.7339  1.9796 -0.1236
 3069SOL    HW220841   4.264   4.241   4.886  1.7193  0.1461 -1.0665
 3070SOL     OW20842   1.930   1.419   2.492 -0.1937 -0.0162  0.0821
 3070SOL    HW120843   2.004   1.465   2.530  1.3366  0.0164 -2.8903
 3070SOL    HW220844   1.962   1.390   2.406 -0.4889 -1.0710  0.3214
 3071SOL     OW20845   3.640   1.029  14.504  0.3364 -0.3387 -0.2566
 3071SOL    HW120846   3.626   1.060  14.593  0.8958 -1.3646  0.1897
 3071SOL    HW220847   3.559   1.048  14.456  0.8122 -1.9101 -1.6997
 3072SOL     OW20848   1.012   0.349   8.693  0.9666 -0.0495 -0.5493
 3072SOL    HW120849   1.025   0.266   8.647 -0.3705 -0.1081 -0.8105
 3072SOL    HW220850   0.968   0.314   8.770  1.2716 -3.7450 -2.0676
 3073SOL     OW20851   4.565   1.764  13.126  0.4402  0.0561 -0.0388
 3073SOL    HW120852   4.525   1.790  13.210  0.1667 -0.3487 -0.0399
 3073SOL    HW220853   4.597   1.849  13.097  1.3629  0.6263  2.6189
 3074SOL     OW20854   2.231   2.823   5.479  0.3943 -0.3899 -0.0848
 3074SOL    HW120855   2.253   2.844   5.570 -2.7757  2.3060  0.0350
 3074SOL    HW220856   2.197   2.909   5.455  0.4311 -0.5787 -0.8099
 3075SOL     OW20857   0.933   4.101   6.618 -0.1319 -0.1488 -0.5279
 3075SOL    HW120858   0.876   4.039   6.572 -1.5561  0.2931  0.6263
 3075SOL    HW220859   0.985   4.032   6.660  0.1594 -0.7939 -1.9589
 3076SOL     OW20860   3.412   2.484   6.048 -0.2336 -0.2063  0.1778
 3076SOL    HW120861   3.465   2.487   6.128  0.6551 -0.4681 -0.3916
 3076SOL    HW220862   3.395   2.578   6.054  0.6217  0.1140 -2.4273
 3077SOL     OW20863   4.045   4.283   2.736 -0.0559 -0.0977  0.4255
 3077SOL    HW120864   3.970   4.223   2.739 -0.3641  0.1543 -1.6505
 3077SOL    HW220865   3.993   4.358   2.706  2.2220  1.7790  1.1516
 3078SOL     OW20866   0.714   3.036  14.052 -0.8907 -0.4536  0.1777
 3078SOL    HW120867   0.795   3.083  14.033 -0.4485 -1.3218 -0.0957
 3078SOL    HW220868   0.661   3.074  13.982 -0.3032  0.4311  0.2163
 3079SOL     OW20869   1.636   3.077  14.071 -0.9081 -0.5440 -0.5962
 3079SOL    HW120870   1.684   3.105  14.149  2.8377 -1.8750 -2.4272
 3079SOL    HW220871   1.650   2.984  14.088  1.1178  0.0636  1.0099
 3080SOL     OW20872   4.543   4.728  13.205 -0.0402  0.3294 -0.0127
 3080SOL    HW120873   4.633   4.697  13.209 -0.5143 -1.2283 -1.7975
 3080SOL    HW220874   4.529   0.007  13.111  3.3037 -2.1469 -0.7976
 3081SOL     OW20875   1.518   4.037   1.028 -0.2843  0.2468 -0.2851
 3081SOL    HW120876   1.585   4.098   1.059  1.0250 -0.8907 -0.8400
 3081SOL    HW220877   1.489   3.980   1.099 -1.7049 -0.3232 -1.3255
 3082SOL     OW20878   4.387   4.631   3.957 -0.3300  0.0744 -0.3996
 3082SOL    HW120879   4.322   4.561   3.962 -3.4339  3.0529  0.5110
 3082SOL    HW220880   4.340   4.694   3.903  1.0467  0.6719 -0.9245
 3083SOL     OW20881   3.333   1.115  10.220 -0.0561 -0.5552 -0.0284
 3083SOL    HW120882   3.409   1.147  10.267 -0.8967  0.1489  0.8574
 3083SOL    HW220883   3.343   1.022  10.241  0.4871  0.3230  3.5935
 3084SOL     OW20884   0.758   2.714   2.584 -0.3039 -0.2850 -0.3390
 3084SOL    HW120885   0.839   2.766   2.587  0.2912 -1.1664 -1.2110
 3084SOL    HW220886   0.721   2.743   2.501  0.1297 -0.7307 -0.6826
 3085SOL     OW20887   3.834   1.793  12.688  0.3031 -0.0110  0.1573
 3085SOL    HW120888   3.855   1.705  12.718 -0.7255 -0.0350  0.8253
 3085SOL    HW220889   3.920   1.808  12.650 -0.0226 -0.2086 -0.6514
 3086SOL     OW20890   3.648   3.666   2.675  0.3128  0.2913 -0.3063
 3086SOL    HW120891   3.741   3.659   2.651  1.1306  2.7420  2.1594
 3086SOL    HW220892   3.669   3.699   2.762  4.2164 -0.9363 -0.7670
 3087SOL     OW20893   3.566   4.293   7.021 -0.2907 -0.0422 -0.3079
 3087SOL    HW120894   3.566   4.358   7.091 -0.8353  1.4057 -1.6644
 3087SOL    HW220895   3.490   4.320   6.969 -0.4187 -0.8480 -0.5371
 3088SOL     OW20896   2.945   1.966   7.153  0.5208  0.2948  0.3933
 3088SOL    HW120897   2.973   1.937   7.240 -1.3341 -0.9430  0.5964
 3088SOL    HW220898   3.006   1.913   7.102 -1.8494 -1.1975 -0.8771
 3089SOL     OW20899   0.186   0.290  10.566 -0.1374 -0.1532  0.3056
 3089SOL    HW120900   0.250   0.220  10.582  0.0835  0.5012  2.2430
 3089SOL    HW220901   0.140   0.281  10.650  1.2969  0.3446  1.1439
 3090SOL     OW20902   4.346   4.596  11.196 -0.2644 -0.6395 -0.0902
 3090SOL    HW120903   4.379   4.683  11.218  0.7456 -1.3863  1.4006
 3090SOL    HW220904   4.287   4.585  11.271  1.7083  0.0813  1.5801
 3091SOL     OW20905   4.651   3.481   3.616  0.1404  0.0699 -0.0915
 3091SOL    HW120906   4.646   3.567   3.574 -0.0639 -0.4570 -1.1558
 3091SOL    HW220907   4.668   3.510   3.705  1.8765  2.0380 -1.0586
 3092SOL     OW20908   3.460   2.036   8.024  0.0736 -0.6557 -0.1069
 3092SOL    HW120909   3.387   1.999   7.974 -0.3962  1.5674 -1.0713
 3092SOL    HW220910   3.511   1.958   8.045 -0.5987 -0.8693  0.7171
 3093SOL     OW20911   2.957   0.508   3.713 -0.0285  0.3688 -0.5750
 3093SOL    HW120912   3.008   0.574   3.760 -0.2158  1.0748 -1.3872
 3093SOL    HW220913   3.013   0.434   3.740 -1.7341 -0.2188  1.3746
 3094SOL     OW20914   1.584   3.227   9.629 -0.1989  0.2578  1.1568
 3094SOL    HW120915   1.670   3.187   9.643 -0.2786 -0.3388 -0.0653
 3094SOL    HW220916   1.585   3.231   9.533 -1.1926 -0.1645  1.1255
 3095SOL     OW20917   4.592   3.290   5.325  0.3630  0.0700 -0.2959
 3095SOL    HW120918   4.573   3.384   5.319 -1.5565 -0.3687 -1.0943
 3095SOL    HW220919   4.678   3.296   5.282  0.7900  0.6042  0.6337
 3096SOL     OW20920   0.461   3.437   5.954  0.4028  0.0730 -0.6127
 3096SOL    HW120921   0.454   3.342   5.958  0.0673  0.0582 -1.4458
 3096SOL    HW220922   0.555   3.449   5.936  0.9719  0.5410  2.6245
 3097SOL     OW20923   4.391   0.857   7.430  0.0473  0.0197 -0.0123
 3097SOL    HW120924   4.365   0.943   7.397  1.4205  0.3337 -0.2792
 3097SOL    HW220925   4.316   0.842   7.488 -1.1827  1.8691 -1.1315
 3098SOL     OW20926   2.830   1.469   8.070  0.8164  0.1330  0.0426
 3098SOL    HW120927   2.749   1.510   8.099  1.3198  0.9954  0.2044
 3098SOL    HW220928   2.788   1.390   8.035  1.0829  0.8578 -1.9008
 3099SOL     OW20929   2.561   1.189   3.393 -0.2572 -0.2870  0.1803
 3099SOL    HW120930   2.524   1.201   3.480  1.7991  2.3552  0.6950
 3099SOL    HW220931   2.495   1.236   3.341 -1.6622 -1.6239  0.7531
 3100SOL     OW20932   4.490   3.988   8.211 -0.7606  0.1666  0.3559
 3100SOL    HW120933   4.471   4.041   8.133 -3.2906  0.0152  0.8746
 3100SOL    HW220934   4.447   4.044   8.276  1.0029  3.0781 -0.9532
 3101SOL     OW20935   1.732   3.505  15.100  0.6652 -0.5674  0.4490
 3101SOL    HW120936   1.774   3.585  15.133 -0.5513 -0.4018  1.5921
 3101SOL    HW220937   1.702   3.458  15.178  1.5096 -0.4022  0.8679
 3102SOL     OW20938   3.470   1.283  13.242  0.2854  0.9175  0.3457
 3102SOL    HW120939   3.449   1.366  13.285 -2.3546 -0.1102  1.0471
 3102SOL    HW220940   3.444   1.216  13.304  0.4626  0.0804 -0.4874
 3103SOL     OW20941   1.992   4.278  13.227 -0.0211  0.0122 -0.3080
 3103SOL    HW120942   1.976   4.230  13.146  2.1326 -0.1828 -0.6142
 3103SOL    HW220943   2.044   4.349  13.190 -3.5552  2.5706 -0.4262
 3104SOL     OW20944   4.122   1.991  15.120 -0.1281 -0.7839 -0.0432
 3104SOL    HW120945   4.111   2.053  15.192  0.9859 -0.4362 -0.1748
 3104SOL    HW220946   4.193   2.032  15.072  1.5332 -0.3920  2.7644
 3105SOL     OW20947   4.607   3.820   4.126  0.6265 -0.1063  0.2155
 3105SOL    HW120948   4.591   3.913   4.140  1.2153 -0.0606  0.6127
 3105SOL    HW220949   4.536   3.798   4.066  0.1650  0.8243  0.4320
 3106SOL     OW20950   3.316   2.085   8.997 -0.1027  0.4416 -0.0545
 3106SOL    HW120951   3.231   2.049   9.023  0.2803  0.4175  1.1448
 3106SOL    HW220952   3.296   2.092   8.904 -1.9672 -0.0552  0.2983
 3107SOL     OW20953   1.246   2.317   4.949 -0.6834 -1.0063  0.2596
 3107SOL    HW120954   1.229   2.249   4.885  0.4770  0.1325 -1.2513
 3107SOL    HW220955   1.252   2.398   4.899 -1.0663  0.1724  2.1326
 3108SOL     OW20956   1.157   4.715   3.278  0.0650 -0.3140  0.3186
 3108SOL    HW120957   1.243   0.013   3.307  0.3784  1.2042 -2.2220
 3108SOL    HW220958   1.179   4.625   3.299 -2.1284 -0.7526  0.7523
 3109SOL     OW20959   2.583   1.835   7.709  0.1498 -0.3901 -0.7790
 3109SOL    HW120960   2.595   1.893   7.784  0.7245  0.0085 -1.1830
 3109SOL    HW220961   2.597   1.747   7.744 -0.4524 -0.9420 -1.9291
 3110SOL     OW20962   2.288   3.599  15.850 -0.0666 -0.3712  0.1004
 3110SOL    HW120963   2.382   3.605  15.867 -0.1298 -2.8149  1.2580
 3110SOL    HW220964   2.267   3.686  15.816  1.4383  0.4295  1.2254
 3111SOL     OW20965   3.072   3.689   9.249 -0.2797  0.7270  0.6102
 3111SOL    HW120966   2.995   3.649   9.289 -0.8294 -1.0083 -2.1673
 3111SOL    HW220967   3.141   3.688   9.314 -0.6900  0.7958  1.0487
 3112SOL     OW20968   1.374   3.005   9.273  0.5814  0.1088  0.2990
 3112SOL    HW120969   1.458   3.034   9.237  1.0044 -0.6673  0.6606
 3112SOL    HW220970   1.365   3.067   9.345 -2.2368  1.0336 -0.8486
 3113SOL     OW20971   3.730   1.084  11.905 -0.1069  0.4837 -0.1004
 3113SOL    HW120972   3.667   1.021  11.941  0.0652  2.7253  4.2158
 3113SOL    HW220973   3.801   1.071  11.968 -0.3452 -0.4775 -0.0228
 3114SOL     OW20974   3.703   1.683   1.838 -0.0839  0.1758 -0.6548
 3114SOL    HW120975   3.683   1.640   1.755 -1.7019  0.1296 -0.2338
 3114SOL    HW220976   3.728   1.772   1.811 -0.2738  0.6290  0.6430
 3115SOL     OW20977   3.120   3.433   3.788  0.2715 -0.3713 -0.8712
 3115SOL    HW120978   3.036   3.478   3.782  2.3999  4.0059  2.0673
 3115SOL    HW220979   3.100   3.355   3.736  0.1455 -1.0537  0.1971
 3116SOL     OW20980   1.819   0.854   9.645 -0.0019  0.4713  0.0012
 3116SOL    HW120981   1.907   0.884   9.671  0.7794 -0.2890 -1.7739
 3116SOL    HW220982   1.767   0.934   9.634 -0.0453  0.7995  2.5136
 3117SOL     OW20983   2.751   4.580   8.119 -0.3453 -0.3341 -0.3783
 3117SOL    HW120984   2.817   4.556   8.184 -1.1758 -3.2284 -0.6215
 3117SOL    HW220985   2.786   4.669   8.106 -0.4472  0.0310  1.8120
 3118SOL     OW20986   2.589   3.165   0.209 -0.2555  0.6138  0.1912
 3118SOL    HW120987   2.593   3.089   0.152  0.9770  0.9595 -0.1666
 3118SOL    HW220988   2.634   3.126   0.284 -0.4857  0.9416  0.5042
 3119SOL     OW20989   4.002   2.615   3.489  0.4215  0.3674  0.6539
 3119SOL    HW120990   3.950   2.539   3.513  1.1218  0.1286  1.3898
 3119SOL    HW220991   3.954   2.626   3.407 -0.2807 -3.1728  0.5776
 3120SOL     OW20992   3.805   1.018   8.506  0.4834 -0.0314  0.1489
 3120SOL    HW120993   3.735   1.082   8.514  0.3029 -0.1167 -0.7696
 3120SOL    HW220994   3.750   0.940   8.502  0.7054 -0.2286  0.9174
 3121SOL     OW20995   1.030   1.627   8.517  0.6198  0.4007 -0.3160
 3121SOL    HW120996   1.017   1.627   8.612 -2.1139 -0.6466 -0.6927
 3121SOL    HW220997   1.120   1.594   8.517  0.3839 -0.2336 -2.5236
 3122SOL     OW20998   2.219   1.041   3.903 -0.2324  0.1295  0.0652
 3122SOL    HW120999   2.199   0.994   3.822  1.3264 -1.9271  0.8875
 3122SOL    HW221000   2.256   1.122   3.869 -0.3676 -0.7689 -2.2217
 3123SOL     OW21001   1.284   1.866   6.717 -0.3131 -0.1911 -0.5681
 3123SOL    HW121002   1.228   1.868   6.640 -1.0604 -3.6725 -0.1203
 3123SOL    HW221003   1.367   1.830   6.685 -0.2399 -0.6253  0.1309
 3124SOL     OW21004   0.602   1.233   2.351 -0.2827  0.5683 -0.8427
 3124SOL    HW121005   0.676   1.288   2.325  0.7605 -0.4669 -0.0695
 3124SOL    HW221006   0.547   1.296   2.398  0.0080 -0.2059  0.5498
 3125SOL     OW21007   1.916   3.313  10.578  0.0437  0.6713 -0.3071
 3125SOL    HW121008   1.939   3.400  10.612 -0.9642  0.5579  0.6567
 3125SOL    HW221009   1.838   3.291  10.629  0.5952  0.4325  0.4283
 3126SOL     OW21010   0.986   0.538  10.699 -0.2168  0.2843  0.1694
 3126SOL    HW121011   0.893   0.534  10.720 -0.2386  0.1265  0.0408
 3126SOL    HW221012   0.989   0.633  10.691  1.1189  0.2355  0.0658
 3127SOL     OW21013   4.473   3.020   8.219  0.1098  0.0389 -0.7983
 3127SOL    HW121014   4.535   3.010   8.292 -1.6646 -3.4932  0.2470
 3127SOL    HW221015   4.410   2.954   8.248 -0.2921 -0.0055 -1.7724
 3128SOL     OW21016   3.713   4.708  14.047 -0.1724 -0.4222 -0.1061
 3128SOL    HW121017   3.666   0.050  14.085  0.2718 -0.8086  1.2081
 3128SOL    HW221018   3.648   4.639  14.060 -0.7564  0.1826  0.1946
 3129SOL     OW21019   1.138   0.111  17.359 -0.5395 -0.0805 -0.2502
 3129SOL    HW121020   1.071   0.173  17.384  0.4287  1.4298 -1.4029
 3129SOL    HW221021   1.138   0.128  17.265 -2.2167  1.2953  0.0152
 3130SOL     OW21022   0.529   4.709   4.470  0.6691 -0.2047  0.4100
 3130SOL    HW121023   0.462   4.642   4.459 -0.2904  0.5844  1.4413
 3130SOL    HW221024   0.571   4.711   4.385  0.8147 -0.8116  0.4693
 3131SOL     OW21025   2.843   1.285  17.150 -0.1377  0.0498  0.5141
 3131SOL    HW121026   2.833   1.217  17.083 -1.3651 -0.8776  1.6560
 3131SOL    HW221027   2.908   1.338  17.104  1.4600  0.1269  2.8651
 3132SOL     OW21028   3.469   3.120  13.490 -0.4762  0.0560 -0.4726
 3132SOL    HW121029   3.489   3.180  13.562 -0.5497 -0.9088  0.3461
 3132SOL    HW221030   3.488   3.178  13.416  3.6044 -0.0405  0.4884
 3133SOL     OW21031   0.683   3.797   4.687  0.0135  0.0886 -0.8051
 3133SOL    HW121032   0.618   3.728   4.697  1.1777 -1.1685 -1.7427
 3133SOL    HW221033   0.639   3.873   4.724 -0.8596  0.1468 -1.9776
 3134SOL     OW21034   2.718   3.213   2.760 -0.5706  0.5938 -0.2543
 3134SOL    HW121035   2.805   3.207   2.800  0.2066  1.3757 -1.7965
 3134SOL    HW221036   2.746   3.204   2.668  0.6357 -0.5539  0.2221
 3135SOL     OW21037   2.405   1.877   5.710 -0.2919  0.1873  0.1756
 3135SOL    HW121038   2.499   1.892   5.712 -0.1453 -0.7871  0.8099
 3135SOL    HW221039   2.376   1.947   5.651 -0.1686  0.3791  0.3460
 3136SOL     OW21040   1.913   1.097   8.350 -0.2759 -0.2103  0.1371
 3136SOL    HW121041   1.836   1.153   8.358  0.1105 -0.0840  2.9200
 3136SOL    HW221042   1.876   1.018   8.310  0.7263 -0.0055 -1.2165
 3137SOL     OW21043   0.518   0.925   6.383 -0.8093  0.3706 -0.1136
 3137SOL    HW121044   0.559   0.845   6.416  0.0171  0.8025 -0.0891
 3137SOL    HW221045   0.523   0.989   6.454 -0.1259 -0.1870  0.3422
 3138SOL     OW21046   3.796   0.617   7.072  0.1898  0.1760  0.6434
 3138SOL    HW121047   3.879   0.647   7.110  0.1152  1.3420 -0.1419
 3138SOL    HW221048   3.799   0.662   6.988  3.1334  0.0166  0.6476
 3139SOL     OW21049   2.821   0.464  11.575  0.0107  0.1065  0.6381
 3139SOL    HW121050   2.896   0.429  11.527 -1.4571 -1.2746 -0.6551
 3139SOL    HW221051   2.835   0.445  11.668  2.1093 -1.0393  0.1062
 3140SOL     OW21052   4.433   4.384  13.855  0.0902  0.4842 -0.3122
 3140SOL    HW121053   4.415   4.391  13.949  0.3636  1.7606 -0.3619
 3140SOL    HW221054   4.362   4.423  13.804 -0.3397 -1.5762 -1.2925
 3141SOL     OW21055   0.646   4.540  15.981  0.3231 -0.1432  0.0351
 3141SOL    HW121056   0.576   4.605  15.977 -0.6108 -1.2607 -1.7888
 3141SOL    HW221057   0.713   4.582  16.035  0.9106 -0.3025 -0.5713
 3142SOL     OW21058   2.629   3.473   5.660 -0.4457 -0.2427 -0.3552
 3142SOL    HW121059   2.551   3.447   5.709  0.5021 -2.6194 -0.1538
 3142SOL    HW221060   2.597   3.437   5.577 -2.4706 -0.3775  0.4815
 3143SOL     OW21061   4.331   1.329   7.358 -0.4006 -0.1436  0.2794
 3143SOL    HW121062   4.241   1.351   7.334 -0.8315 -2.5474 -0.4055
 3143SOL    HW221063   4.317   1.234   7.362  1.9040 -0.3706  2.2882
 3144SOL     OW21064   2.118   4.234   3.898 -0.2413  0.1966  0.0730
 3144SOL    HW121065   2.211   4.212   3.890 -0.8287 -2.1712 -0.3716
 3144SOL    HW221066   2.120   4.310   3.957 -2.3207 -0.0215  0.4189
 3145SOL     OW21067   0.763   2.358   5.771 -0.0046  0.6541 -0.2223
 3145SOL    HW121068   0.827   2.327   5.708  1.8273 -1.9465  2.8870
 3145SOL    HW221069   0.824   2.388   5.839 -0.6259 -0.7959  0.9932
 3146SOL     OW21070   1.746   4.630   7.327  0.3696  0.3425 -0.7767
 3146SOL    HW121071   1.684   4.694   7.292 -1.2597  0.3090  2.0377
 3146SOL    HW221072   1.820   4.685   7.353  0.9553 -0.6925 -0.2555
 3147SOL     OW21073   4.497   0.002   8.677 -0.8488 -0.3316 -0.1424
 3147SOL    HW121074   4.577   4.701   8.637 -1.4310 -0.9741 -0.7521
 3147SOL    HW221075   4.527   0.052   8.754  1.5369 -1.3522 -0.4046
 3148SOL     OW21076   2.986   2.696  10.439  0.6268 -0.0484  0.7337
 3148SOL    HW121077   2.916   2.694  10.373  0.7159  0.7330  0.6094
 3148SOL    HW221078   2.945   2.720  10.522  1.3547  1.4440  0.6559
 3149SOL     OW21079   0.158   2.607   5.097  0.7539 -0.1867 -0.2769
 3149SOL    HW121080   0.253   2.614   5.095  0.5952  1.4793 -2.5940
 3149SOL    HW221081   0.137   2.628   5.188 -1.9891  0.4605 -1.0610
 3150SOL     OW21082   2.069   0.313   6.426 -0.1397 -0.0014 -0.7760
 3150SOL    HW121083   1.980   0.328   6.395 -0.9724 -1.3487  0.9440
 3150SOL    HW221084   2.128   0.291   6.354  1.7653 -1.9333  1.3637
 3151SOL     OW21085   1.001   3.592  14.660  0.6082 -0.0039 -0.6864
 3151SOL    HW121086   1.015   3.506  14.619  1.8502  0.4403 -1.1832
 3151SOL    HW221087   0.906   3.586  14.658  0.6664 -1.0169 -0.4546
 3152SOL     OW21088   1.914   3.522  11.301  0.2895 -0.6549 -0.6929
 3152SOL    HW121089   1.906   3.545  11.394 -0.1024  2.2084 -1.4315
 3152SOL    HW221090   1.841   3.460  11.300 -1.6545  1.5963  3.4851
 3153SOL     OW21091   1.944   3.482  11.034 -0.1728 -0.2262 -0.2762
 3153SOL    HW121092   1.954   3.564  10.984  1.5180  0.9068  1.8873
 3153SOL    HW221093   1.931   3.528  11.117  0.9797 -0.3061 -0.0429
 3154SOL     OW21094   2.204   2.384   0.338  0.1941  0.3839 -0.3140
 3154SOL    HW121095   2.297   2.387   0.362  0.1039 -2.5425  0.4286
 3154SOL    HW221096   2.174   2.358   0.425 -1.0885  0.6840 -0.6788
 3155SOL     OW21097   1.118   0.445  15.790  0.1032  0.2741  0.7067
 3155SOL    HW121098   1.191   0.493  15.830 -0.7361  0.6536  1.7812
 3155SOL    HW221099   1.168   0.371  15.756  0.0856  0.9787 -0.8989
 3156SOL     OW21100   1.238   4.144   9.150  0.3812  0.3978 -0.4281
 3156SOL    HW121101   1.158   4.179   9.110 -1.3279 -3.1963 -0.1413
 3156SOL    HW221102   1.222   4.160   9.243  1.8483  2.2686 -0.4953
 3157SOL     OW21103   0.123   2.245  12.248  0.7287 -0.6149 -0.1217
 3157SOL    HW121104   0.143   2.282  12.334  0.0832 -2.1417  0.6797
 3157SOL    HW221105   0.212   2.215  12.232  1.3192  0.1343  1.6689
 3158SOL     OW21106   0.398   3.969  12.992 -0.4289 -0.4227 -0.2742
 3158SOL    HW121107   0.416   3.895  13.051 -0.2463 -0.2815 -0.1544
 3158SOL    HW221108   0.483   3.965  12.949  0.4039  1.5126  1.1780
 3159SOL     OW21109   3.982   1.887   9.605 -0.4383  0.1434  0.4147
 3159SOL    HW121110   4.068   1.850   9.585  0.4675  2.1721  0.6553
 3159SOL    HW221111   3.960   1.828   9.677 -0.4429 -1.5976 -1.0102
 3160SOL     OW21112   2.341   1.098  16.068  0.2592 -0.7022 -0.7432
 3160SOL    HW121113   2.326   1.149  16.147  3.0888 -0.2865 -0.4652
 3160SOL    HW221114   2.332   1.166  16.001 -0.4784 -2.0417 -2.0168
 3161SOL     OW21115   3.453   2.948   6.246 -0.2425  0.2325  0.2787
 3161SOL    HW121116   3.367   2.981   6.274 -0.7379  0.4550 -1.5207
 3161SOL    HW221117   3.502   3.030   6.257  3.1366 -1.7300 -0.2365
 3162SOL     OW21118   1.196   3.720  12.526  0.0083 -0.6526 -0.4790
 3162SOL    HW121119   1.148   3.761  12.598 -0.2131 -2.7292  0.5358
 3162SOL    HW221120   1.218   3.799  12.476 -0.5850 -0.7878 -0.9519
 3163SOL     OW21121   3.082   2.946  13.339  0.3164 -0.5100 -0.0660
 3163SOL    HW121122   3.034   2.870  13.371  2.1363 -0.1443  3.5381
 3163SOL    HW221123   3.035   2.966  13.258  0.8660  2.9899  0.5017
 3164SOL     OW21124   3.076   0.860  15.592 -0.0066  0.1796 -0.4250
 3164SOL    HW121125   3.072   0.764  15.594 -0.4156  0.1846 -0.9133
 3164SOL    HW221126   3.076   0.888  15.684 -3.6004  1.4617 -0.7967
 3165SOL     OW21127   1.891   1.286   6.563 -0.1959  0.7418  0.1190
 3165SOL    HW121128   1.943   1.340   6.622 -0.7680  0.3766  0.9523
 3165SOL    HW221129   1.819   1.253   6.617 -0.2596 -0.6620 -0.8264
 3166SOL     OW21130   0.081   2.012   6.726 -0.3594  0.0808  0.4297
 3166SOL    HW121131   4.723   2.041   6.711  0.4097  2.0125 -0.5317
 3166SOL    HW221132   0.075   1.925   6.686 -1.5443  1.0731 -1.5762
 3167SOL     OW21133   3.947   4.335   4.282 -0.3621 -0.1067 -0.3437
 3167SOL    HW121134   3.887   4.271   4.243 -0.7239 -0.4090  0.6989
 3167SOL    HW221135   4.022   4.343   4.224  0.4920  3.1805  1.2026
 3168SOL     OW21136   0.603   3.392   2.405  0.1047  0.1362 -0.2789
 3168SOL    HW121137   0.568   3.475   2.439  1.0278  1.6315 -2.9940
 3168SOL    HW221138   0.674   3.382   2.469  0.0727  1.4121 -0.0305
 3169SOL     OW21139   2.416   2.956  10.210  0.4018 -0.4634 -0.0354
 3169SOL    HW121140   2.370   3.036  10.235  2.7191  1.4568 -1.8964
 3169SOL    HW221141   2.483   2.994  10.154 -0.1920  1.3470  0.4909
 3170SOL     OW21142   1.842   3.914   3.756 -0.5742 -0.0821  0.2981
 3170SOL    HW121143   1.783   3.989   3.744  0.4658  0.6202 -0.4211
 3170SOL    HW221144   1.909   3.932   3.691 -0.8615 -0.5610 -0.1413
 3171SOL     OW21145   0.854   4.575   1.666  0.0554 -0.0295  0.5575
 3171SOL    HW121146   0.931   4.580   1.608 -0.3244  2.5113  0.2925
 3171SOL    HW221147   0.790   4.635   1.629 -1.3599 -0.7312  1.8687
 3172SOL     OW21148   1.883   1.165   2.253  0.0142 -0.4048  0.3579
 3172SOL    HW121149   1.875   1.111   2.175 -0.9506 -0.1169  0.2637
 3172SOL    HW221150   1.914   1.247   2.215  2.1427 -1.6664 -0.6152
 3173SOL     OW21151   2.342   3.746   5.924  0.3348 -0.1704  0.0165
 3173SOL    HW121152   2.261   3.795   5.911  1.0370  1.5244  2.0325
 3173SOL    HW221153   2.385   3.803   5.988 -0.1128 -0.4021  0.5278
 3174SOL     OW21154   2.963   0.665   4.692 -0.1959  0.3701 -0.0637
 3174SOL    HW121155   2.996   0.685   4.780 -0.1249  1.7131 -0.4011
 3174SOL    HW221156   3.040   0.634   4.643 -1.3759  0.7133 -2.1341
 3175SOL     OW21157   1.161   4.098  14.393  0.0189  0.2207  0.1245
 3175SOL    HW121158   1.124   4.035  14.455 -2.5261  0.8762 -0.7168
 3175SOL    HW221159   1.230   4.044  14.354 -0.6018 -0.5712  0.1184
 3176SOL     OW21160   3.553   0.063   6.833  0.2741 -0.5090  0.0441
 3176SOL    HW121161   3.468   0.022   6.853  0.0445 -0.7872 -1.5123
 3176SOL    HW221162   3.620   4.729   6.842  2.1538  2.0565  4.8683
 3177SOL     OW21163   0.211   3.023   0.726  0.1612 -0.1287  0.3473
 3177SOL    HW121164   0.230   3.061   0.812  0.4901 -0.2200  0.3151
 3177SOL    HW221165   0.134   3.067   0.691  1.5461  1.8142 -0.2131
 3178SOL     OW21166   2.634   1.491   5.252 -0.3926 -1.0486  0.1779
 3178SOL    HW121167   2.621   1.555   5.182 -2.3313  0.6889  2.1385
 3178SOL    HW221168   2.715   1.520   5.293 -1.0789  0.5130  0.4019
 3179SOL     OW21169   2.878   1.001   2.327 -0.2414 -0.3349 -0.3497
 3179SOL    HW121170   2.800   1.056   2.324 -0.4985 -0.5724  1.9426
 3179SOL    HW221171   2.864   0.951   2.407  3.5474 -0.4157  0.2877
 3180SOL     OW21172   4.291   3.670  13.369  0.9673 -0.4408  0.5995
 3180SOL    HW121173   4.303   3.583  13.406  2.0056 -0.1478  0.9594
 3180SOL    HW221174   4.196   3.672  13.357  1.1986  1.6812 -0.9279
 3181SOL     OW21175   1.350   2.194   7.492 -0.3465 -0.4562  0.0021
 3181SOL    HW121176   1.385   2.154   7.413  0.5828  1.0128 -0.3406
 3181SOL    HW221177   1.426   2.166   7.544  0.4115 -1.1309 -1.4808
 3182SOL     OW21178   0.601   2.274   4.479  0.4790  0.6832  0.0119
 3182SOL    HW121179   0.666   2.311   4.539 -0.1091  2.4202 -0.4255
 3182SOL    HW221180   0.649   2.270   4.396 -1.7686 -1.8923 -1.1811
 3183SOL     OW21181   1.914   4.187   6.032 -0.5378  0.7768 -0.1618
 3183SOL    HW121182   1.820   4.190   6.047 -0.8973  0.0633 -2.2701
 3183SOL    HW221183   1.929   4.246   6.106  0.7545  0.5445 -0.2364
 3184SOL     OW21184   2.125   3.389  15.751 -0.3024 -0.0516 -0.2319
 3184SOL    HW121185   2.078   3.460  15.708 -0.2554  0.2516  0.2254
 3184SOL    HW221186   2.197   3.441  15.786 -0.6404  0.8651 -0.9144
 3185SOL     OW21187   1.786   3.231   7.128  0.0431  0.0646 -0.8191
 3185SOL    HW121188   1.790   3.259   7.219  1.2618  1.0584 -1.1762
 3185SOL    HW221189   1.727   3.156   7.134 -0.1930  0.3004 -0.2031
 3186SOL     OW21190   0.882   0.348  10.444  0.6562 -0.4651 -0.2839
 3186SOL    HW121191   0.861   0.327  10.535 -1.5334 -0.6479 -0.8267
 3186SOL    HW221192   0.977   0.351  10.432  0.3784 -1.9514 -2.9477
 3187SOL     OW21193   2.136   1.825   6.351  0.2154 -0.2546  0.0136
 3187SOL    HW121194   2.213   1.774   6.326 -1.8446 -2.2473 -2.2455
 3187SOL    HW221195   2.134   1.887   6.277  0.2416 -0.4299 -0.1348
 3188SOL     OW21196   2.358   0.374   6.467  0.2417 -0.0704 -0.5991
 3188SOL    HW121197   2.373   0.371   6.372  2.3924 -0.3310 -0.2666
 3188SOL    HW221198   2.283   0.315   6.470 -0.6443  1.0401 -1.2644
 3189SOL     OW21199   1.566   4.486   4.959  0.5062  0.2970  0.0576
 3189SOL    HW121200   1.533   4.563   4.913  1.5756 -0.9731 -2.8742
 3189SOL    HW221201   1.544   4.409   4.905 -2.0540  1.6030 -0.7557
 3190SOL     OW21202   2.813   4.331   7.142 -0.0744 -0.2900 -0.2367
 3190SOL    HW121203   2.889   4.291   7.099  0.0704  0.1544 -0.3949
 3190SOL    HW221204   2.792   4.262   7.205  0.3315 -0.0379  0.1777
 3191SOL     OW21205   0.403   2.103   8.942 -0.1206 -0.1036 -0.1413
 3191SOL    HW121206   0.346   2.146   8.878 -1.4833 -0.0250  1.1347
 3191SOL    HW221207   0.360   2.128   9.024 -0.6105 -2.6384  0.3942
 3192SOL     OW21208   0.153   2.459  12.517  0.1467 -0.5454 -0.3111
 3192SOL    HW121209   0.083   2.500  12.569  2.2527  0.5383  1.6451
 3192SOL    HW221210   0.229   2.472  12.573 -2.1974  0.2812  2.6725
 3193SOL     OW21211   3.832   4.667   1.036 -0.2808 -0.0240 -0.3629
 3193SOL    HW121212   3.836   4.573   1.022 -0.4886 -0.3512  1.7778
 3193SOL    HW221213   3.921   4.703   1.037 -0.1454 -0.3804  1.5286
 3194SOL     OW21214   4.317   0.067   7.865  0.0176  0.4775  0.2194
 3194SOL    HW121215   4.376   0.011   7.916 -2.9165 -0.1236  2.9493
 3194SOL    HW221216   4.265   4.728   7.828 -0.2659  0.2061  1.1507
 3195SOL     OW21217   4.360   0.532  16.956  0.1691 -0.0390  0.4774
 3195SOL    HW121218   4.269   0.503  16.953  0.5079 -1.1992  1.5256
 3195SOL    HW221219   4.406   0.462  16.909 -0.9421  0.2302 -1.0132
 3196SOL     OW21220   2.006   1.677   0.384 -0.1973  0.0246 -0.1017
 3196SOL    HW121221   2.074   1.654   0.321  0.2431  0.8170  0.0687
 3196SOL    HW221222   1.929   1.653   0.333  0.8591  0.1092 -1.7246
 3197SOL     OW21223   2.334   2.953  13.371  0.2180 -0.1889  0.3015
 3197SOL    HW121224   2.287   2.975  13.291 -0.0247 -2.1522 -0.0792
 3197SOL    HW221225   2.424   2.978  13.353  0.1177  0.1270  0.2341
 3198SOL     OW21226   4.592   4.439   4.085  0.3376 -0.6059 -0.0505
 3198SOL    HW121227   4.577   4.399   3.999  0.0619  0.7126 -0.6303
 3198SOL    HW221228   4.512   4.493   4.090 -0.0231 -1.2880  1.3969
 3199SOL     OW21229   0.847   3.752   7.000 -0.0144 -0.4266 -0.0843
 3199SOL    HW121230   0.879   3.688   7.063 -0.2257  1.7154  2.1754
 3199SOL    HW221231   0.821   3.707   6.919  1.1295 -0.9625 -0.1487
 3200SOL     OW21232   1.250   2.846   0.942  0.0236 -0.0465  0.4674
 3200SOL    HW121233   1.271   2.770   0.888  0.4244  0.0183  0.5286
 3200SOL    HW221234   1.302   2.910   0.891  1.3631 -1.0706  0.5499
 3201SOL     OW21235   1.863   0.648   2.548 -0.1154 -0.2497 -0.0719
 3201SOL    HW121236   1.858   0.555   2.529  1.9098 -0.0055 -1.8168
 3201SOL    HW221237   1.817   0.686   2.473  1.4179  2.6334  0.4224
 3202SOL     OW21238   1.078   1.030  10.079  0.3943  0.1034 -0.1907
 3202SOL    HW121239   1.076   1.003   9.987  1.1409 -2.0573  0.4327
 3202SOL    HW221240   1.112   1.119  10.069 -2.2277  1.3245  1.6875
 3203SOL     OW21241   1.853   2.916   9.152  0.2484 -0.0544 -0.2705
 3203SOL    HW121242   1.905   2.839   9.132  0.2616 -0.3632  0.9469
 3203SOL    HW221243   1.762   2.892   9.169  0.1077  0.0562 -0.8874
 3204SOL     OW21244   1.474   1.081   5.337 -0.0468 -0.1001  0.0409
 3204SOL    HW121245   1.425   1.035   5.269  0.9862 -1.8291  0.4562
 3204SOL    HW221246   1.466   1.171   5.305  0.1782  0.2426  0.9450
 3205SOL     OW21247   4.023   4.688   0.038  0.0648  0.3458  0.2965
 3205SOL    HW121248   4.053   0.019  17.703  0.0160 -1.1031 -1.1790
 3205SOL    HW221249   4.095   4.625   0.039  0.2422  0.5206 -0.7073
 3206SOL     OW21250   3.258   4.607   4.855  1.0402 -0.0241 -0.0476
 3206SOL    HW121251   3.211   4.630   4.775  0.6614  0.3630  0.2868
 3206SOL    HW221252   3.217   4.680   4.901  1.0401  0.9945 -1.6859
 3207SOL     OW21253   0.310   2.751   7.629 -0.2610 -0.4526  0.0354
 3207SOL    HW121254   0.261   2.805   7.691  0.5059 -0.8883  1.0250
 3207SOL    HW221255   0.267   2.747   7.543  1.0745  2.9658 -0.8181
 3208SOL     OW21256   4.457   1.642  12.244  0.1648 -0.3501  0.4215
 3208SOL    HW121257   4.402   1.697  12.188 -0.6505 -0.6792  0.8946
 3208SOL    HW221258   4.421   1.640  12.332  0.8744 -2.2132  0.6685
 3209SOL     OW21259   3.165   4.426   5.662 -0.4076  0.5290  0.3563
 3209SOL    HW121260   3.100   4.493   5.640 -0.1015  0.7456  0.1296
 3209SOL    HW221261   3.154   4.360   5.593 -0.1363 -0.7188  1.4991
 3210SOL     OW21262   2.305   1.274   4.408  0.1875 -0.0235 -0.6031
 3210SOL    HW121263   2.231   1.313   4.456  3.2300  1.8017  2.6327
 3210SOL    HW221264   2.357   1.251   4.486  0.5097  0.6564 -0.6157
 3211SOL     OW21265   3.698   2.529   4.676  0.3515 -0.4142 -0.4667
 3211SOL    HW121266   3.790   2.545   4.654  0.2345  2.0789  0.8487
 3211SOL    HW221267   3.646   2.583   4.616  0.6750 -1.1312 -1.3848
 3212SOL     OW21268   4.248   1.088   7.252  0.0073  0.3733  0.0518
 3212SOL    HW121269   4.186   1.026   7.214 -2.3999  0.9328  3.0577
 3212SOL    HW221270   4.319   1.096   7.188 -0.4926  1.7811 -0.3310
 3213SOL     OW21271   1.349   2.598   9.336 -0.2846  0.1442 -0.5351
 3213SOL    HW121272   1.295   2.668   9.299 -0.2220  0.2282 -0.4672
 3213SOL    HW221273   1.343   2.537   9.263  0.3447 -1.8362  1.0779
 3214SOL     OW21274   1.198   3.240   4.225 -0.8153  0.6115 -0.1959
 3214SOL    HW121275   1.226   3.322   4.184 -2.0155  0.2718 -1.6767
 3214SOL    HW221276   1.150   3.198   4.154  0.4535 -4.2586  1.7758
 3215SOL     OW21277   3.128   3.452  11.324  0.9517 -0.0483  0.9482
 3215SOL    HW121278   3.106   3.510  11.252  1.3901  0.3405  1.1318
 3215SOL    HW221279   3.129   3.519  11.392 -2.9071  1.8208 -0.8468
 3216SOL     OW21280   1.453   4.325   8.424 -0.5131  0.0279  0.1052
 3216SOL    HW121281   1.505   4.386   8.477 -0.0156 -2.4419  2.4916
 3216SOL    HW221282   1.520   4.282   8.371 -2.0300 -2.8407  0.5222
 3217SOL     OW21283   0.895   2.337   7.125  0.3141 -0.3662  0.3524
 3217SOL    HW121284   0.905   2.412   7.067  0.6770  0.3095  1.2892
 3217SOL    HW221285   0.882   2.377   7.211  1.6442  0.9574 -0.0719
 3218SOL     OW21286   0.673   4.487   8.133 -0.5667  0.9982  0.1432
 3218SOL    HW121287   0.765   4.470   8.150 -0.9785 -1.6381 -0.2797
 3218SOL    HW221288   0.649   4.530   8.215 -1.0730  1.7883 -0.4172
 3219SOL     OW21289   0.332   3.667   5.453  0.0283  0.1214 -0.6287
 3219SOL    HW121290   0.352   3.706   5.368 -0.1975 -1.4655 -1.4153
 3219SOL    HW221291   0.366   3.724   5.522 -1.5051  0.2708 -0.0010
 3220SOL     OW21292   1.490   1.385   9.339 -0.1959  0.0858  0.0880
 3220SOL    HW121293   1.519   1.466   9.382  0.4240  0.8249 -1.7365
 3220SOL    HW221294   1.537   1.386   9.255 -0.3936  0.6532 -0.0185
 3221SOL     OW21295   2.099   1.474   6.318  0.3940  0.0992  0.4031
 3221SOL    HW121296   2.009   1.446   6.330  0.2141  0.9904  1.1198
 3221SOL    HW221297   2.092   1.513   6.231 -0.3005  0.5113  0.6448
 3222SOL     OW21298   0.796   1.839   3.164 -0.7109 -0.1423  0.2047
 3222SOL    HW121299   0.847   1.760   3.181 -0.1958 -0.2609 -1.8109
 3222SOL    HW221300   0.848   1.902   3.214  1.4647 -1.3451 -0.5367
 3223SOL     OW21301   0.852   2.446  15.891 -0.2657 -0.2818  0.2173
 3223SOL    HW121302   0.803   2.366  15.912 -1.5737  0.7250  0.9518
 3223SOL    HW221303   0.890   2.426  15.805 -0.3334 -0.1817  0.1643
 3224SOL     OW21304   4.055   4.465   8.378  0.3038  0.6412 -0.5165
 3224SOL    HW121305   4.145   4.441   8.399 -0.0729 -2.0192 -1.9338
 3224SOL    HW221306   4.007   4.384   8.395  1.2643  0.0513 -0.5892
 3225SOL     OW21307   1.160   2.777   7.623  0.0913 -0.2588  0.0241
 3225SOL    HW121308   1.127   2.773   7.534 -0.1298 -3.1479  0.2606
 3225SOL    HW221309   1.240   2.826   7.603 -0.6606  0.0264 -2.2602
 3226SOL     OW21310   4.346   3.375   7.659 -0.2409  0.2028  0.2272
 3226SOL    HW121311   4.338   3.288   7.699  4.1124  0.2059  1.1240
 3226SOL    HW221312   4.283   3.362   7.588  0.1542  1.0113 -0.2675
 3227SOL     OW21313   0.222   4.146   6.071 -0.1325 -0.0692 -1.3251
 3227SOL    HW121314   0.178   4.099   6.142 -1.6770  3.4308  0.0628
 3227SOL    HW221315   0.173   4.226   6.091  1.7602  1.5206 -2.9848
 3228SOL     OW21316   2.148   0.968  14.763 -0.1692 -0.1516 -0.1217
 3228SOL    HW121317   2.107   1.012  14.838 -1.5838  0.9880 -1.5563
 3228SOL    HW221318   2.114   0.881  14.784 -2.2307  1.2202  2.2304
 3229SOL     OW21319   1.298   0.486   2.146 -0.4268 -0.6084 -0.1805
 3229SOL    HW121320   1.259   0.399   2.151  0.4458 -0.8812  2.0133
 3229SOL    HW221321   1.250   0.545   2.204  0.3330 -1.0744  0.9225
 3230SOL     OW21322   4.096   3.344  12.648  0.9043  0.2808 -0.5589
 3230SOL    HW121323   4.020   3.400  12.631 -1.1061 -1.7341  1.8586
 3230SOL    HW221324   4.131   3.382  12.729  0.4392  0.9425 -0.6663
 3231SOL     OW21325   4.227   1.555   3.299  0.0208 -0.5053  0.3862
 3231SOL    HW121326   4.270   1.568   3.384 -0.6072 -3.1653  1.1070
 3231SOL    HW221327   4.182   1.639   3.297  2.3119  0.7715  3.0363
 3232SOL     OW21328   0.027   3.597   7.648  0.5345 -0.0977 -0.0168
 3232SOL    HW121329   0.062   3.555   7.727 -0.6321 -0.8763  0.0918
 3232SOL    HW221330   4.697   3.659   7.686  0.0124  0.1687 -1.3104
 3233SOL     OW21331   4.032   1.594   7.341  0.3056 -0.1594 -0.5736
 3233SOL    HW121332   4.040   1.502   7.314  1.7886 -0.2006 -0.0060
 3233SOL    HW221333   4.124   1.613   7.323  0.5362 -0.3662  0.3801
 3234SOL     OW21334   2.740   4.477  13.480  0.3329  0.0814  0.6232
 3234SOL    HW121335   2.771   4.450  13.393 -1.2028 -2.4367  0.8571
 3234SOL    HW221336   2.700   4.561  13.459  0.7319 -0.3249 -1.7928
 3235SOL     OW21337   2.617   2.197   3.369 -0.3722  0.2336  0.5089
 3235SOL    HW121338   2.598   2.183   3.462 -2.2087  0.7602  0.2241
 3235SOL    HW221339   2.689   2.138   3.347 -1.1794 -1.1592  1.5359
 3236SOL     OW21340   1.057   1.900   8.618 -0.5316 -0.2718 -0.3279
 3236SOL    HW121341   1.070   1.819   8.668  0.3487 -0.2191 -0.4681
 3236SOL    HW221342   1.015   1.865   8.539 -0.6073  2.7752 -1.6094
 3237SOL     OW21343   2.253   3.892   6.455  0.2937 -0.1017 -0.2104
 3237SOL    HW121344   2.199   3.887   6.376  0.2328  1.2790 -0.2652
 3237SOL    HW221345   2.217   3.836   6.523  1.6427  0.2468  0.7969
 3238SOL     OW21346   3.059   1.223   3.297 -0.3040 -0.1203  0.7177
 3238SOL    HW121347   3.151   1.247   3.288 -0.6411  1.4293  1.3931
 3238SOL    HW221348   3.030   1.309   3.326 -1.1267  0.0121 -0.5141
 3239SOL     OW21349   1.799   2.242   0.387  0.4524  0.0349  0.2923
 3239SOL    HW121350   1.858   2.268   0.317  1.3158  0.8825  1.3320
 3239SOL    HW221351   1.714   2.263   0.347  0.7367  0.3633 -0.1267
 3240SOL     OW21352   1.846   3.461   1.768  0.8080  0.7163  0.3423
 3240SOL    HW121353   1.887   3.434   1.685  0.8769 -0.7431  0.8518
 3240SOL    HW221354   1.762   3.414   1.766  1.2053  0.0351 -0.6497
 3241SOL     OW21355   0.873   2.527  12.764 -0.1213 -0.0680  0.3011
 3241SOL    HW121356   0.815   2.467  12.812 -0.2464  0.7747  1.2137
 3241SOL    HW221357   0.814   2.539  12.690  0.1271  0.0564  0.1240
 3242SOL     OW21358   4.715   4.448   1.667  0.2743 -0.3107 -0.3945
 3242SOL    HW121359   0.031   4.486   1.740  0.4270 -1.5639  0.1593
 3242SOL    HW221360   4.656   4.520   1.644 -1.2479 -1.9951 -1.7765
 3243SOL     OW21361   4.675   2.240   8.700 -0.1111 -0.3350  0.3604
 3243SOL    HW121362   4.609   2.233   8.631  2.1971 -2.1739 -1.6547
 3243SOL    HW221363   4.619   2.281   8.765  1.7451  2.0612  0.4286
 3244SOL     OW21364   3.628   4.371   5.824 -0.6673 -0.7350  0.7348
 3244SOL    HW121365   3.640   4.373   5.729  0.0791  0.3385  0.8446
 3244SOL    HW221366   3.706   4.334   5.866 -0.7659  0.3619  1.8622
 3245SOL     OW21367   0.876   2.163   2.764  0.1877  0.4500  0.2116
 3245SOL    HW121368   0.807   2.099   2.783  0.9920 -0.0296  1.5266
 3245SOL    HW221369   0.882   2.218   2.843  0.0100  0.7630  0.0063
 3246SOL     OW21370   0.175   1.291  11.889 -0.0482 -0.4821 -0.2328
 3246SOL    HW121371   0.225   1.230  11.835  1.6396  1.6784 -1.1145
 3246SOL    HW221372   0.105   1.307  11.826 -2.1257 -0.0660  2.1968
 3247SOL     OW21373   1.288   2.060   8.897 -0.5777  0.4982  0.4491
 3247SOL    HW121374   1.373   2.104   8.905  0.7250 -1.7069 -1.2581
 3247SOL    HW221375   1.238   2.136   8.869  0.9339  1.2880 -0.1205
 3248SOL     OW21376   0.914   0.932   7.568 -0.2940  0.1517  0.1482
 3248SOL    HW121377   0.901   0.846   7.609  0.5363 -0.9374 -1.8471
 3248SOL    HW221378   0.839   0.946   7.510 -1.3442  0.4022  1.5654
 3249SOL     OW21379   0.207   0.740   8.554 -0.0256  0.0041  0.0247
 3249SOL    HW121380   0.135   0.746   8.492  0.8640  0.5991 -0.9572
 3249SOL    HW221381   0.160   0.734   8.637 -1.9416  3.8851 -0.7824
 3250SOL     OW21382   2.413   4.076  13.787  0.2964 -0.1126 -0.2705
 3250SOL    HW121383   2.431   4.169  13.785  0.4594 -0.1114  1.1401
 3250SOL    HW221384   2.350   4.071  13.859  0.5288  1.7691  0.0492
 3251SOL     OW21385   4.303   2.738   8.945 -0.5331  0.5074 -0.1831
 3251SOL    HW121386   4.389   2.697   8.941  0.7205  3.1402 -0.6081
 3251SOL    HW221387   4.259   2.696   9.019 -0.0653  0.4807  0.0835
 3252SOL     OW21388   2.548   0.256  12.603 -0.0766 -0.1795  0.0442
 3252SOL    HW121389   2.550   0.163  12.627 -0.9661 -0.5094 -1.1681
 3252SOL    HW221390   2.484   0.254  12.532  2.5978 -2.2067 -2.2827
 3253SOL     OW21391   3.057   3.120   5.576  0.2364 -0.3680 -0.1677
 3253SOL    HW121392   3.038   3.194   5.518 -0.1290 -0.1212  0.2607
 3253SOL    HW221393   2.993   3.052   5.558  1.6679 -2.2980  2.0940
 3254SOL     OW21394   2.899   1.604   3.616  0.4873  0.6422 -0.4790
 3254SOL    HW121395   2.853   1.681   3.652  0.1678  1.2686 -2.2303
 3254SOL    HW221396   2.864   1.534   3.672  0.1076 -1.6284 -3.5793
 3255SOL     OW21397   2.229   3.840  15.723 -0.1216  0.6541 -0.4273
 3255SOL    HW121398   2.263   3.927  15.701  0.4212  0.0309 -2.0597
 3255SOL    HW221399   2.140   3.841  15.687 -0.7157 -1.9495  0.9579
 3256SOL     OW21400   4.217   0.221   7.480  0.0272  0.1828 -0.4948
 3256SOL    HW121401   4.298   0.172   7.494  0.3579  0.1209 -2.6566
 3256SOL    HW221402   4.236   0.279   7.407  1.5664  2.0475  1.3914
 3257SOL     OW21403   3.860   3.827  10.496 -0.1320 -0.1381 -0.3447
 3257SOL    HW121404   3.887   3.737  10.515 -0.9382 -0.7018 -1.8813
 3257SOL    HW221405   3.873   3.870  10.580 -0.2033 -2.6386  0.9164
 3258SOL     OW21406   2.783   2.410  10.543 -0.5667 -0.4961  0.0328
 3258SOL    HW121407   2.794   2.452  10.458  0.2905 -1.0316 -0.1248
 3258SOL    HW221408   2.690   2.430  10.547 -0.3400  0.7007 -0.7478
 3259SOL     OW21409   3.314   3.331   6.764 -0.4098 -0.2250 -0.4337
 3259SOL    HW121410   3.390   3.281   6.794 -0.8402  0.0864  1.1250
 3259SOL    HW221411   3.298   3.382   6.843  2.1055 -3.7101  2.2804
 3260SOL     OW21412   1.083   2.492   0.722 -0.2092  0.0838  0.2999
 3260SOL    HW121413   1.148   2.558   0.749 -2.2788  3.1385 -2.2201
 3260SOL    HW221414   1.003   2.539   0.746  1.8577  3.4786  0.5698
 3261SOL     OW21415   4.347   0.811  14.216 -0.2102 -0.2503  0.2344
 3261SOL    HW121416   4.260   0.847  14.199 -0.5916 -0.3436  1.9897
 3261SOL    HW221417   4.388   0.848  14.139  0.6836 -1.0725  0.3186
 3262SOL     OW21418   2.874   4.476   6.817 -1.1834  0.3181 -0.1816
 3262SOL    HW121419   2.804   4.540   6.808 -2.1038 -0.6517  0.0498
 3262SOL    HW221420   2.878   4.474   6.913 -0.3218 -1.0469 -0.2494
 3263SOL     OW21421   2.412   2.274  12.744 -0.3415  0.5840 -0.2638
 3263SOL    HW121422   2.332   2.230  12.714  0.3086  0.0631 -1.2184
 3263SOL    HW221423   2.393   2.313  12.830 -0.5308 -1.4220  0.5955
 3264SOL     OW21424   0.585   4.445   1.907  0.4233  0.2945 -0.3138
 3264SOL    HW121425   0.591   4.387   1.982 -0.2288  1.3171  0.5240
 3264SOL    HW221426   0.537   4.389   1.846  1.3815 -0.4928 -0.3533
 3265SOL     OW21427   2.569   0.505  16.187 -0.0245  0.7336 -0.0801
 3265SOL    HW121428   2.628   0.535  16.117  2.1161 -1.5356  0.7384
 3265SOL    HW221429   2.586   0.563  16.261  0.9841  0.6627 -0.2576
 3266SOL     OW21430   4.066   2.332   7.706  0.2596 -0.1776  0.0891
 3266SOL    HW121431   3.985   2.308   7.661 -0.5504  1.5234  0.6516
 3266SOL    HW221432   4.064   2.272   7.781  0.8731 -0.6761 -0.2985
 3267SOL     OW21433   2.223   2.633   3.490 -0.1495 -0.1859 -0.0556
 3267SOL    HW121434   2.308   2.592   3.507  0.6659  2.6107  2.6504
 3267SOL    HW221435   2.174   2.616   3.571 -1.9949 -2.4542 -1.6439
 3268SOL     OW21436   0.583   2.804   7.614  0.4434  0.5497  0.8199
 3268SOL    HW121437   0.491   2.779   7.623  0.1872  1.3778  0.4345
 3268SOL    HW221438   0.588   2.847   7.699  3.2506  1.2006  0.3203
 3269SOL     OW21439   3.464   3.226  10.458 -0.5087  0.4587  0.2265
 3269SOL    HW121440   3.451   3.320  10.447  1.0202  0.9164  2.5241
 3269SOL    HW221441   3.439   3.189  10.373  0.5073  1.2849 -0.4318
 3270SOL     OW21442   4.120   3.522   6.564 -0.0757  0.0721 -0.4482
 3270SOL    HW121443   4.089   3.433   6.546 -1.2403  0.1362  1.1897
 3270SOL    HW221444   4.179   3.541   6.492  1.7711  0.4544  1.1652
 3271SOL     OW21445   0.584   3.255   8.630 -0.1061 -0.1157 -0.4531
 3271SOL    HW121446   0.582   3.338   8.678 -1.2822  0.2045 -1.0622
 3271SOL    HW221447   0.601   3.299   8.547 -0.6046  2.0743  0.6136
 3272SOL     OW21448   4.456   4.361  12.128  0.8894  0.5615 -0.2178
 3272SOL    HW121449   4.405   4.289  12.091  0.6511  0.3522  0.5252
 3272SOL    HW221450   4.419   4.346  12.215  0.1774  0.5309 -0.5314
 3273SOL     OW21451   1.378   3.135   8.178 -0.1530  0.6321  0.0535
 3273SOL    HW121452   1.377   3.225   8.209  1.6025  1.0060 -0.9958
 3273SOL    HW221453   1.445   3.147   8.111  0.0089 -0.7118 -0.0229
 3274SOL     OW21454   2.275   2.751  11.854 -0.0757  0.0782  0.3577
 3274SOL    HW121455   2.196   2.750  11.800  0.2538 -0.1449 -0.1181
 3274SOL    HW221456   2.287   2.656  11.853  0.1334  0.1025  1.2053
 3275SOL     OW21457   2.557   4.637   4.383 -0.0319  0.8859 -0.4152
 3275SOL    HW121458   2.593   4.696   4.449  1.3475 -0.8840  0.4207
 3275SOL    HW221459   2.486   4.695   4.355 -0.1013  0.2390 -1.5675
 3276SOL     OW21460   3.924   1.901   8.926  0.1917 -0.3088  0.2559
 3276SOL    HW121461   3.897   1.906   9.018  1.1230  0.4622  0.4821
 3276SOL    HW221462   3.878   1.823   8.894  2.7030 -1.3894 -0.6408
 3277SOL     OW21463   4.058   3.030   7.479 -0.2195  0.2919  0.1038
 3277SOL    HW121464   3.964   3.017   7.493 -0.1384 -0.0624  0.2853
 3277SOL    HW221465   4.042   3.115   7.437 -0.0291  0.7505  0.9588
 3278SOL     OW21466   1.628   2.564  14.324 -0.1020  0.2738 -0.0111
 3278SOL    HW121467   1.623   2.513  14.405 -2.0269  0.0089 -0.2871
 3278SOL    HW221468   1.537   2.546  14.300 -0.1424 -0.7576  0.9125
 3279SOL     OW21469   0.138   3.319   9.892  0.1359  0.2474  0.0357
 3279SOL    HW121470   0.044   3.309   9.878  0.2309  0.9371 -1.0751
 3279SOL    HW221471   0.167   3.274   9.972 -0.0391 -1.3178 -0.8002
 3280SOL     OW21472   0.469   2.404   3.600  0.6216  0.1438  0.3170
 3280SOL    HW121473   0.437   2.421   3.511  0.3541 -1.8257  0.0422
 3280SOL    HW221474   0.465   2.309   3.611  0.8615 -0.1515 -2.1008
 3281SOL     OW21475   0.959   4.147   5.085  0.0522 -0.0086 -0.0008
 3281SOL    HW121476   1.015   4.072   5.064  0.0165  0.0611 -0.3549
 3281SOL    HW221477   0.878   4.096   5.089  0.9230 -1.2917  1.1642
 3282SOL     OW21478   3.499   0.957   8.904 -0.4592 -0.0752 -0.2686
 3282SOL    HW121479   3.522   0.868   8.879  1.1331  0.9514 -2.4288
 3282SOL    HW221480   3.404   0.961   8.888 -0.4350 -0.9013 -0.6054
 3283SOL     OW21481   4.221   2.835   7.396 -0.5941 -0.0656 -0.0749
 3283SOL    HW121482   4.158   2.891   7.441  0.4869  1.8883 -0.9882
 3283SOL    HW221483   4.285   2.905   7.381 -0.9796  0.0652 -1.1116
 3284SOL     OW21484   4.633   0.634  14.507  0.2314 -0.0313 -0.5338
 3284SOL    HW121485   4.555   0.619  14.561  0.5016  2.2252  0.4667
 3284SOL    HW221486   4.703   0.609  14.567 -1.6985 -1.1240  1.2911
 3285SOL     OW21487   2.348   0.677   6.449 -0.3923  0.6461 -0.1721
 3285SOL    HW121488   2.318   0.665   6.539 -0.8902 -1.0140 -0.5544
 3285SOL    HW221489   2.384   0.592   6.425 -4.0326 -1.5766  2.2834
 3286SOL     OW21490   0.677   1.625   6.475 -0.3457  0.5113  0.1304
 3286SOL    HW121491   0.603   1.664   6.522  0.0123 -2.6112  3.2421
 3286SOL    HW221492   0.738   1.698   6.473 -1.0150  1.0383 -2.1851
 3287SOL     OW21493   4.552   2.266   5.493 -0.1958 -0.3860 -0.2305
 3287SOL    HW121494   4.607   2.191   5.470 -0.7851 -0.9444  0.1932
 3287SOL    HW221495   4.559   2.265   5.588  1.1941  2.4618 -0.2750
 3288SOL     OW21496   0.046   2.678   6.486  0.3505  0.7540 -0.3907
 3288SOL    HW121497   0.089   2.642   6.563 -0.3131  2.1268  0.6254
 3288SOL    HW221498   0.093   2.636   6.413 -1.3758 -1.5954 -0.1720
 3289SOL     OW21499   4.171   3.062   4.850 -0.0066  0.7213  0.2430
 3289SOL    HW121500   4.108   3.008   4.803  0.5611 -0.3922  0.7425
 3289SOL    HW221501   4.223   3.098   4.779 -0.5316 -0.2882 -0.6486
 3290SOL     OW21502   2.713   4.317   1.995  0.6784 -0.0471  0.2515
 3290SOL    HW121503   2.782   4.266   1.953  0.2034 -0.6467  0.2000
 3290SOL    HW221504   2.669   4.244   2.039  1.5261 -0.4528  0.4230
 3291SOL     OW21505   2.538   3.935  11.669  0.1773  0.1790  0.4260
 3291SOL    HW121506   2.587   3.981  11.737  0.4647 -2.5382  2.0619
 3291SOL    HW221507   2.464   3.994  11.657  0.5048  0.2905 -1.0261
 3292SOL     OW21508   2.191   4.468   4.385  0.7132  0.3943 -0.2572
 3292SOL    HW121509   2.163   4.466   4.476 -2.5445  2.0128 -1.2140
 3292SOL    HW221510   2.117   4.516   4.347  0.5213  0.2479 -0.0739
 3293SOL     OW21511   2.570   1.446   5.614  0.6892  0.4126 -0.0510
 3293SOL    HW121512   2.631   1.515   5.639  1.2285 -0.8024  2.0273
 3293SOL    HW221513   2.625   1.380   5.572  0.7661 -0.0888  0.8377
 3294SOL     OW21514   3.931   3.565  11.897 -0.3648  0.0326 -0.1050
 3294SOL    HW121515   3.931   3.625  11.822  3.1492  0.7622  0.4843
 3294SOL    HW221516   3.883   3.496  11.852 -0.4955  0.0113  0.0699
 3295SOL     OW21517   0.375   3.910   2.795 -0.3714 -0.0784 -0.5396
 3295SOL    HW121518   0.328   3.966   2.857 -1.1844 -2.2840  0.8573
 3295SOL    HW221519   0.458   3.957   2.797 -1.5748  2.0362 -1.1928
 3296SOL     OW21520   3.822   3.156   7.862  0.5909  0.1718  0.2971
 3296SOL    HW121521   3.852   3.236   7.819 -0.5063 -0.6637 -2.0076
 3296SOL    HW221522   3.737   3.189   7.893  1.4495  2.6726  0.0570
 3297SOL     OW21523   3.664   1.083   5.809 -0.3905 -0.5935 -0.3661
 3297SOL    HW121524   3.714   1.155   5.848 -1.2319  0.0288 -0.4307
 3297SOL    HW221525   3.648   1.019   5.878  3.2788 -1.1114  0.0328
 3298SOL     OW21526   3.989   3.190   2.991 -0.1051  0.2568  0.6987
 3298SOL    HW121527   3.990   3.171   2.897 -1.1792  1.3319  0.4785
 3298SOL    HW221528   3.898   3.201   3.020 -0.8788 -1.9555 -0.8678
 3299SOL     OW21529   0.772   3.568   9.488 -0.6636 -0.0136  0.4322
 3299SOL    HW121530   0.693   3.622   9.487 -1.0474 -0.5983 -1.9153
 3299SOL    HW221531   0.817   3.611   9.416  0.7085 -2.9361 -0.4815
 3300SOL     OW21532   0.234   3.651   3.779  0.1489  0.2660 -1.0231
 3300SOL    HW121533   0.209   3.737   3.811 -1.9745 -0.9952  0.7463
 3300SOL    HW221534   0.248   3.681   3.689 -1.3976 -0.1418 -1.4011
 3301SOL     OW21535   1.148   0.901   5.851  0.3638 -0.1052 -0.1613
 3301SOL    HW121536   1.105   0.875   5.932  1.3877 -2.4450 -0.3629
 3301SOL    HW221537   1.134   0.996   5.859  3.7440  0.4951 -1.3065
 3302SOL     OW21538   1.716   2.343   5.417 -0.0071 -0.5461 -0.2494
 3302SOL    HW121539   1.725   2.256   5.378 -2.6819  0.5139 -3.2288
 3302SOL    HW221540   1.693   2.386   5.335 -0.4945 -0.8524 -0.2694
 3303SOL     OW21541   1.302   1.288   7.056  0.5401 -0.4325 -0.4365
 3303SOL    HW121542   1.251   1.318   6.981  1.1135 -0.2291 -0.7406
 3303SOL    HW221543   1.265   1.336   7.131  0.1253 -1.7082  0.1819
 3304SOL     OW21544   0.107   2.378   6.027  0.0178 -0.1524  0.2769
 3304SOL    HW121545   0.196   2.376   6.062  0.1454 -0.0537 -0.0434
 3304SOL    HW221546   0.102   2.286   6.001  0.9224 -0.3184  0.6711
 3305SOL     OW21547   4.414   1.140   8.011 -0.1309  0.1916  0.2269
 3305SOL    HW121548   4.421   1.150   8.105  1.1705  0.1833  0.1256
 3305SOL    HW221549   4.504   1.170   7.998  0.0050  0.1027  0.9641
 3306SOL     OW21550   0.330   1.276   9.462 -0.8706 -0.2678 -0.2275
 3306SOL    HW121551   0.400   1.234   9.411 -1.0261 -1.1346  0.2790
 3306SOL    HW221552   0.319   1.210   9.530  2.0053  0.2392  0.7332
 3307SOL     OW21553   2.562   1.604  11.233 -0.0150  0.2929 -0.6332
 3307SOL    HW121554   2.551   1.680  11.291  0.8131  0.1079 -0.2395
 3307SOL    HW221555   2.571   1.647  11.148  1.2828  0.2411 -0.5213
 3308SOL     OW21556   4.480   3.993   7.030  0.4948 -0.0481 -0.5568
 3308SOL    HW121557   4.535   3.985   7.108 -1.2887 -0.4033  0.6468
 3308SOL    HW221558   4.412   4.053   7.058  0.0994 -0.8318  0.1470
 3309SOL     OW21559   3.325   1.333   3.308 -0.1008 -0.2344 -0.4151
 3309SOL    HW121560   3.356   1.273   3.375 -3.4705  0.6263  1.9093
 3309SOL    HW221561   3.389   1.404   3.311 -1.2048  0.7943 -0.9959
 3310SOL     OW21562   2.415   2.676   5.265 -0.8920 -0.2604  0.1740
 3310SOL    HW121563   2.352   2.685   5.337 -0.3656  1.9314  0.3331
 3310SOL    HW221564   2.455   2.591   5.287  1.6514  0.0531 -3.2634
 3311SOL     OW21565   0.766   2.912   0.473  0.1003  0.4097  0.0323
 3311SOL    HW121566   0.808   2.848   0.530 -0.9020 -1.5295 -1.3878
 3311SOL    HW221567   0.687   2.943   0.516 -0.6397  0.4863 -1.3653
 3312SOL     OW21568   2.458   2.557  16.445  0.6390 -0.3566  0.5154
 3312SOL    HW121569   2.535   2.537  16.393  0.3011  0.2930 -0.2354
 3312SOL    HW221570   2.424   2.469  16.465  0.4197 -0.7374 -1.5164
 3313SOL     OW21571   0.712   1.867   3.542  0.3843  0.3155 -0.1004
 3313SOL    HW121572   0.769   1.801   3.502 -0.1747 -1.7721  2.5971
 3313SOL    HW221573   0.644   1.809   3.575  1.3253 -0.3312  0.7117
 3314SOL     OW21574   0.259   4.215  17.213  0.1677 -0.1675 -0.4886
 3314SOL    HW121575   0.235   4.210  17.120 -1.1373 -0.5035 -0.1356
 3314SOL    HW221576   0.275   4.123  17.234 -1.9843 -0.1046  1.3899
 3315SOL     OW21577   4.366   2.797  15.257  0.4192  0.1048 -0.0436
 3315SOL    HW121578   4.451   2.806  15.214  0.5371 -2.0970 -0.2418
 3315SOL    HW221579   4.374   2.702  15.265  2.3961  0.2622 -0.0313
 3316SOL     OW21580   1.604   3.323   1.758 -0.0932 -0.1329  0.3551
 3316SOL    HW121581   1.651   3.271   1.823 -1.8189 -1.3465  0.6430
 3316SOL    HW221582   1.511   3.311   1.778 -0.9072  2.4901 -1.8027
 3317SOL     OW21583   0.156   3.357   3.891  0.2076  0.0925  0.1590
 3317SOL    HW121584   0.224   3.365   3.959  0.1381  1.2037  0.0996
 3317SOL    HW221585   0.203   3.393   3.816  0.6011 -1.5590 -0.3764
 3318SOL     OW21586   3.247   4.009  15.425  0.3849  0.4314 -0.0808
 3318SOL    HW121587   3.282   4.005  15.514  0.5008  1.6615 -0.0668
 3318SOL    HW221588   3.332   4.004  15.380 -1.9371 -1.5182 -4.2373
 3319SOL     OW21589   4.446   3.077   8.707  0.4024 -0.1280 -0.4491
 3319SOL    HW121590   4.353   3.096   8.693  0.1887 -0.8015  0.0935
 3319SOL    HW221591   4.453   3.085   8.802  2.1466  0.1167 -0.5910
 3320SOL     OW21592   0.247   0.091   2.753  0.3865  0.1440 -0.4017
 3320SOL    HW121593   0.285   0.015   2.710  0.3309 -0.4257  0.5636
 3320SOL    HW221594   0.252   0.066   2.845 -0.8284  1.9332  0.1472
 3321SOL     OW21595   0.627   1.015   8.405  0.3742  0.5599  0.2399
 3321SOL    HW121596   0.583   0.988   8.486 -0.3425  2.4486  0.4894
 3321SOL    HW221597   0.713   1.021   8.447  0.3239 -2.3774  0.8126
 3322SOL     OW21598   0.048   1.711   9.175 -0.5979  0.4618  0.3022
 3322SOL    HW121599   4.695   1.710   9.218 -0.5716  0.8623  0.3668
 3322SOL    HW221600   0.043   1.623   9.138 -0.4448  0.8710 -0.6737
 3323SOL     OW21601   1.386   4.509   9.583 -0.3641  0.0520  0.3061
 3323SOL    HW121602   1.335   4.506   9.502  1.0750 -1.5432 -0.5431
 3323SOL    HW221603   1.374   4.602   9.602  0.2225  0.1191  0.3332
 3324SOL     OW21604   1.028   4.225   5.432  0.4492  0.2700 -0.1671
 3324SOL    HW121605   0.963   4.270   5.378  1.1900 -0.6238 -1.7837
 3324SOL    HW221606   1.073   4.163   5.375  0.8301  0.3332  0.0617
 3325SOL     OW21607   0.813   4.385   3.113  0.2812  0.0429  0.3172
 3325SOL    HW121608   0.839   4.325   3.183  1.8331 -2.0143 -1.9965
 3325SOL    HW221609   0.891   4.373   3.058 -0.6875 -0.8908 -0.8379
 3326SOL     OW21610   3.734   1.263  11.462  0.2278  0.0386 -0.6621
 3326SOL    HW121611   3.797   1.333  11.446 -0.0782  1.0112  2.3978
 3326SOL    HW221612   3.755   1.242  11.553 -0.4414  1.1863 -0.2478
 3327SOL     OW21613   0.216   0.716   4.479 -0.0881  0.0290 -0.2301
 3327SOL    HW121614   0.293   0.718   4.422  0.5921 -0.4640  0.6794
 3327SOL    HW221615   0.232   0.625   4.501 -0.5209 -0.3250 -1.3690
 3328SOL     OW21616   2.026   1.474  17.069  0.1458 -0.3750  0.4728
 3328SOL    HW121617   1.944   1.456  17.115  0.9284 -2.6744  0.9785
 3328SOL    HW221618   2.089   1.468  17.141 -1.8571 -0.8224  2.1871
 3329SOL     OW21619   4.145   4.227   8.795  0.3267  0.9763  0.4842
 3329SOL    HW121620   4.128   4.184   8.879  1.2999 -0.4937 -0.0714
 3329SOL    HW221621   4.232   4.194   8.771 -1.0393 -2.5414  0.3930
 3330SOL     OW21622   1.986   3.257   6.433 -0.3622  0.1103  0.0655
 3330SOL    HW121623   1.916   3.216   6.382 -0.7815 -1.6477  2.0377
 3330SOL    HW221624   2.061   3.260   6.373  0.1527 -1.2069  0.6500
 3331SOL     OW21625   1.928   1.365  10.080  0.1127 -0.4522 -0.1560
 3331SOL    HW121626   1.901   1.434  10.020  0.5514  1.4257  1.7940
 3331SOL    HW221627   1.965   1.290  10.032 -0.9127  0.8332 -2.9056
 3332SOL     OW21628   1.904   4.459   4.366 -1.0276  0.3850 -0.1631
 3332SOL    HW121629   1.863   4.443   4.281 -0.6815  1.8649 -0.6034
 3332SOL    HW221630   1.880   4.383   4.418 -2.0418 -0.7314 -2.2764
 3333SOL     OW21631   2.664   1.627   4.818  0.9685 -0.0654  0.4454
 3333SOL    HW121632   2.587   1.612   4.763 -0.7139 -1.4214  3.1853
 3333SOL    HW221633   2.711   1.545   4.806 -0.7074 -0.9950  0.2263
 3334SOL     OW21634   0.801   0.470   6.281  0.0153 -0.5768  0.4890
 3334SOL    HW121635   0.823   0.423   6.200 -0.0399  0.5195 -0.1612
 3334SOL    HW221636   0.808   0.564   6.261 -1.5441 -0.9273 -1.7450
 3335SOL     OW21637   0.523   0.324   8.734  0.1824 -0.2827  0.4494
 3335SOL    HW121638   0.517   0.410   8.776 -1.6944  1.2429 -2.9828
 3335SOL    HW221639   0.483   0.353   8.652 -0.7782 -0.0240  1.0106
 3336SOL     OW21640   3.887   2.317  15.357 -0.1278  0.5716 -0.1708
 3336SOL    HW121641   3.858   2.389  15.301 -1.0705  0.4528  0.1753
 3336SOL    HW221642   3.805   2.287  15.396  1.0003 -1.2270  0.8504
 3337SOL     OW21643   3.106   0.664   8.396 -0.2555  0.2113 -0.4193
 3337SOL    HW121644   3.044   0.693   8.463 -1.1331  0.1876 -1.2234
 3337SOL    HW221645   3.165   0.739   8.392 -1.0406  0.9596  2.3350
 3338SOL     OW21646   3.604   4.184   6.595  0.3799  0.0805 -0.2538
 3338SOL    HW121647   3.547   4.125   6.644 -0.2576  0.5617 -0.4165
 3338SOL    HW221648   3.577   4.272   6.623 -1.1827 -0.2433 -0.7432
 3339SOL     OW21649   0.087   2.063  11.142  0.0041  0.6477 -0.2253
 3339SOL    HW121650   0.136   1.986  11.171 -0.5180  0.4246  0.0703
 3339SOL    HW221651   0.161   2.121  11.127  1.6591 -0.5841  3.0946
 3340SOL     OW21652   3.965   4.390   7.711 -0.3787  0.3779 -0.2851
 3340SOL    HW121653   3.886   4.340   7.690 -0.3298 -0.4026  1.4632
 3340SOL    HW221654   3.939   4.480   7.687 -0.3433  0.4776  0.0508
 3341SOL     OW21655   3.019   3.798  17.442  0.3992 -0.4218 -0.1230
 3341SOL    HW121656   3.047   3.888  17.431 -1.1019 -0.0988 -1.3046
 3341SOL    HW221657   3.002   3.792  17.348  1.7487 -2.9081 -0.2226
 3342SOL     OW21658   1.340   1.091  17.664 -0.5650 -0.2558  0.1031
 3342SOL    HW121659   1.341   1.162  17.600 -1.5174  0.8222  1.2767
 3342SOL    HW221660   1.289   1.027  17.614 -0.3469 -0.3878  0.0508
 3343SOL     OW21661   1.156   2.952   5.295 -0.2315 -0.5268  0.1949
 3343SOL    HW121662   1.108   3.033   5.279 -0.1079 -0.7478 -1.3190
 3343SOL    HW221663   1.099   2.901   5.352  0.1458  0.9518  1.8752
 3344SOL     OW21664   2.521   3.309   3.894  0.1566 -0.0442 -0.1659
 3344SOL    HW121665   2.457   3.331   3.961  0.3597  1.7493 -0.5564
 3344SOL    HW221666   2.499   3.366   3.821 -0.6936  0.7566  0.7252
 3345SOL     OW21667   4.084   0.267  13.398 -0.6581 -0.3587  0.2872
 3345SOL    HW121668   4.123   0.298  13.316 -0.2761 -0.9869  0.2305
 3345SOL    HW221669   3.992   0.259  13.373  0.0429 -2.6927 -1.5772
 3346SOL     OW21670   4.316   0.247  17.150 -0.1153 -0.1215 -0.0541
 3346SOL    HW121671   4.330   0.155  17.130  2.7616 -0.1393  2.0530
 3346SOL    HW221672   4.267   0.285  17.077 -3.4913 -1.7772  1.3333
 3347SOL     OW21673   2.903   2.304   8.332  0.3158  0.0450 -0.0648
 3347SOL    HW121674   2.956   2.275   8.407  1.2759  0.7118 -0.4915
 3347SOL    HW221675   2.825   2.333   8.379  1.0208 -0.2447  1.3012
 3348SOL     OW21676   3.742   0.571   1.471  0.1482  0.0340 -0.0334
 3348SOL    HW121677   3.706   0.631   1.405  2.2763 -0.4414 -1.6130
 3348SOL    HW221678   3.722   0.488   1.428  0.5324  0.1175 -0.3776
 3349SOL     OW21679   3.550   0.622   9.699  0.7073  0.3085 -0.2940
 3349SOL    HW121680   3.637   0.630   9.660  2.1443  3.9362  3.5987
 3349SOL    HW221681   3.583   0.611   9.788  1.8557  2.3890 -0.4601
 3350SOL     OW21682   1.029   1.005   9.433  0.0660 -0.3827 -0.2978
 3350SOL    HW121683   0.985   0.969   9.511 -2.5564  0.4787 -1.4004
 3350SOL    HW221684   1.107   0.950   9.422  1.0290  1.5293 -2.9363
 3351SOL     OW21685   3.762   4.215   8.884 -0.0338  0.0571 -0.2127
 3351SOL    HW121686   3.799   4.126   8.882  0.0036  0.0762 -0.3418
 3351SOL    HW221687   3.736   4.230   8.975 -2.2944 -1.4769 -0.5981
 3352SOL     OW21688   2.291   1.203   7.165 -0.1794  0.2886 -0.0514
 3352SOL    HW121689   2.206   1.159   7.169  0.1130 -0.4406 -1.9107
 3352SOL    HW221690   2.277   1.280   7.220 -0.2281 -1.7132  2.7384
 3353SOL     OW21691   2.628   4.208  10.444  0.2530 -0.3736  0.4136
 3353SOL    HW121692   2.585   4.152  10.381 -0.8029  0.6420  0.2397
 3353SOL    HW221693   2.687   4.144  10.483  0.2446 -2.1527 -2.5651
 3354SOL     OW21694   1.772   3.887   7.414 -0.2574  0.4778  0.1553
 3354SOL    HW121695   1.776   3.969   7.364 -0.2299  0.0469 -0.5407
 3354SOL    HW221696   1.792   3.922   7.501  1.1863 -0.4276  0.1814
 3355SOL     OW21697   3.883   1.296   3.625  0.0305  0.6909  0.1442
 3355SOL    HW121698   3.823   1.247   3.570  1.5028 -0.9307 -0.0250
 3355SOL    HW221699   3.959   1.301   3.567  0.4862 -4.1818  0.3362
 3356SOL     OW21700   2.007   1.674   7.970  0.5078  0.6169 -0.0840
 3356SOL    HW121701   2.088   1.631   7.943  0.9452  1.0541  0.5356
 3356SOL    HW221702   1.946   1.610   7.934  1.7019  1.0001 -2.8344
 3357SOL     OW21703   4.307   0.823   9.799 -0.3592 -0.3672 -0.8164
 3357SOL    HW121704   4.401   0.837   9.813 -0.2502  0.6741 -2.6629
 3357SOL    HW221705   4.270   0.907   9.825 -0.0762 -0.8544  1.2456
 3358SOL     OW21706   3.831   0.579   4.848 -0.4957  0.0841  0.9233
 3358SOL    HW121707   3.832   0.636   4.925 -1.6548  0.3494  0.7466
 3358SOL    HW221708   3.766   0.516   4.877 -0.0074 -1.3916 -1.1872
 3359SOL     OW21709   4.577   3.022  16.431 -0.1641 -0.1946  0.4847
 3359SOL    HW121710   4.652   2.967  16.411 -1.4446 -0.7525 -2.7045
 3359SOL    HW221711   4.505   2.983  16.382 -0.2365 -0.1979  0.5931
 3360SOL     OW21712   1.702   2.443   8.897 -0.1204 -0.0608  0.3264
 3360SOL    HW121713   1.746   2.517   8.939 -2.1145  1.4833 -0.3268
 3360SOL    HW221714   1.779   2.386   8.895  1.2314  1.6886  2.3301
 3361SOL     OW21715   4.092   2.418   0.052  0.2144  0.6609 -0.0011
 3361SOL    HW121716   4.101   2.449  17.692 -0.6700  0.7302 -0.0635
 3361SOL    HW221717   4.000   2.431   0.076 -0.9318 -1.6684 -3.2171
 3362SOL     OW21718   1.840   3.621  16.032  0.0539  0.2427  0.5959
 3362SOL    HW121719   1.767   3.683  16.027  0.1954  0.4837  1.4779
 3362SOL    HW221720   1.856   3.614  15.938  0.1491  1.4080  0.5206
 3363SOL     OW21721   4.110   3.381   3.156  0.2682 -0.5631 -0.0064
 3363SOL    HW121722   4.139   3.425   3.077 -2.2679  1.9649  0.4713
 3363SOL    HW221723   4.065   3.307   3.115  1.7596 -1.7778  0.5519
 3364SOL     OW21724   2.017   0.948   6.221 -0.2992 -1.2327  0.0708
 3364SOL    HW121725   1.969   0.901   6.153 -2.8981 -0.8646  1.6560
 3364SOL    HW221726   1.962   0.938   6.299 -2.3062 -1.9295 -1.4324
 3365SOL     OW21727   2.704   3.304  10.763  0.4585  0.3785 -0.3671
 3365SOL    HW121728   2.624   3.317  10.710 -1.2267 -2.9973  1.3528
 3365SOL    HW221729   2.672   3.314  10.853  0.2343 -0.4820 -0.3443
 3366SOL     OW21730   3.113   0.782   1.730  0.2416  0.0105 -0.1082
 3366SOL    HW121731   3.147   0.757   1.645 -0.2930 -0.0311 -0.3114
 3366SOL    HW221732   3.112   0.696   1.772 -0.8825 -0.7188 -1.6535
 3367SOL     OW21733   1.118   0.075   2.484  0.3122  0.1871  0.0569
 3367SOL    HW121734   1.049   0.064   2.550 -0.2639 -1.7813 -0.8857
 3367SOL    HW221735   1.064   0.117   2.417 -2.1639 -2.5063  0.3923
 3368SOL     OW21736   3.657   3.367   2.265 -0.5677  0.1831  0.2837
 3368SOL    HW121737   3.646   3.381   2.171 -0.9259  1.3726  0.4971
 3368SOL    HW221738   3.636   3.453   2.302 -2.3296  0.9284 -2.4891
 3369SOL     OW21739   4.222   3.722   4.829 -0.0220 -0.7234 -0.1185
 3369SOL    HW121740   4.142   3.769   4.851 -0.3033 -0.8437 -0.8864
 3369SOL    HW221741   4.180   3.650   4.781  2.6699 -2.1395 -0.3574
 3370SOL     OW21742   1.048   0.188  11.575  0.3515  0.8289  0.1474
 3370SOL    HW121743   1.122   0.182  11.514  0.7616 -0.2169  0.7492
 3370SOL    HW221744   1.097   0.188  11.657 -0.1028  0.6973  0.4173
 3371SOL     OW21745   1.933   0.581   0.446  0.2532 -0.0913  0.8099
 3371SOL    HW121746   1.954   0.597   0.538 -0.5790 -0.2697  1.0293
 3371SOL    HW221747   1.843   0.547   0.452  0.1476 -0.2177 -1.5926
 3372SOL     OW21748   0.181   1.060   7.174 -0.1328  0.4881  0.1379
 3372SOL    HW121749   0.181   1.155   7.163 -2.6283  0.2461 -1.7242
 3372SOL    HW221750   0.251   1.042   7.237  0.6272  2.4662 -0.1401
 3373SOL     OW21751   0.111   2.221   3.508  0.2958 -0.3330  0.1182
 3373SOL    HW121752   0.174   2.245   3.576 -1.3058  0.4117  1.3345
 3373SOL    HW221753   0.076   2.137   3.540 -2.7389  1.0021  0.3387
 3374SOL     OW21754   1.158   0.095  14.580 -0.0881  0.0505 -0.3099
 3374SOL    HW121755   1.180   0.031  14.512 -2.0200 -1.0873  0.1314
 3374SOL    HW221756   1.096   0.043  14.632 -0.3629  0.9767  0.2921
 3375SOL     OW21757   2.898   4.448   1.494 -0.1212  0.2339 -0.5069
 3375SOL    HW121758   2.848   4.412   1.420  1.4463 -0.9960 -0.9523
 3375SOL    HW221759   2.823   4.483   1.543 -0.7392  1.2156 -2.1083
 3376SOL     OW21760   2.235   0.554   5.687  0.1580 -0.0209  0.1793
 3376SOL    HW121761   2.161   0.606   5.717 -1.0335 -1.7532  0.2397
 3376SOL    HW221762   2.199   0.534   5.600 -0.4720 -0.4311  0.5398
 3377SOL     OW21763   2.225   0.616   3.938  0.2272 -0.0528 -0.1419
 3377SOL    HW121764   2.169   0.629   3.862  1.0561  0.7129 -0.6089
 3377SOL    HW221765   2.214   0.702   3.979  1.0678  0.7119 -1.5371
 3378SOL     OW21766   3.819   2.930   9.299  0.3699 -0.0675 -0.1183
 3378SOL    HW121767   3.794   3.012   9.256  0.0178  0.9332  2.0115
 3378SOL    HW221768   3.761   2.866   9.258 -0.8778  0.9908 -0.0062
 3379SOL     OW21769   0.192   1.795   3.920 -0.6128 -0.6002  0.0408
 3379SOL    HW121770   0.203   1.703   3.944 -0.6944 -1.1950 -2.2431
 3379SOL    HW221771   0.266   1.840   3.961  0.4985 -1.3899 -1.0913
 3380SOL     OW21772   3.212   1.480   9.105 -0.5635  0.4825  0.4944
 3380SOL    HW121773   3.263   1.519   9.176 -1.5817  0.4189  1.2630
 3380SOL    HW221774   3.268   1.407   9.080 -0.0963  0.6758  0.9762
 3381SOL     OW21775   4.325   2.525   4.118 -0.1902 -0.7648 -0.1347
 3381SOL    HW121776   4.300   2.432   4.112 -0.0560 -0.8459  0.5284
 3381SOL    HW221777   4.313   2.538   4.024 -0.1759  0.8863  0.1067
 3382SOL     OW21778   3.370   1.200   1.379  0.5559 -0.2146  0.4130
 3382SOL    HW121779   3.388   1.219   1.471  0.1653 -0.6444  0.5772
 3382SOL    HW221780   3.412   1.115   1.365  0.3319 -0.5669  1.9299
 3383SOL     OW21781   2.766   2.979   4.631  0.0518 -0.4041  0.3339
 3383SOL    HW121782   2.831   2.915   4.661 -0.4042 -0.2835  1.5881
 3383SOL    HW221783   2.689   2.922   4.624  1.5573 -2.3528 -0.4880
 3384SOL     OW21784   0.580   1.387   4.449 -0.6404  0.6311  0.2820
 3384SOL    HW121785   0.514   1.372   4.381  0.3548  1.3930 -0.8620
 3384SOL    HW221786   0.547   1.461   4.500 -1.5525 -0.6543  1.5512
 3385SOL     OW21787   2.067   0.428   3.201 -0.1334 -0.6745 -0.0229
 3385SOL    HW121788   2.158   0.412   3.174  0.5433  1.5648  0.9305
 3385SOL    HW221789   2.021   0.480   3.135 -0.3146  0.3469  0.9223
 3386SOL     OW21790   3.182   2.087  16.747  0.5465  0.5263  0.3113
 3386SOL    HW121791   3.096   2.076  16.787 -0.0274 -1.3272 -1.3853
 3386SOL    HW221792   3.159   2.144  16.673 -3.0455 -0.4714  0.6535
 3387SOL     OW21793   3.548   2.623   4.894 -0.1183 -0.0929 -0.2423
 3387SOL    HW121794   3.579   2.570   4.968  1.3923  0.1053 -0.7361
 3387SOL    HW221795   3.602   2.581   4.827 -0.2899  0.3899 -0.6835
 3388SOL     OW21796   4.687   1.260   8.009 -1.2465  0.1697 -0.0591
 3388SOL    HW121797   0.016   1.269   8.082  0.7445 -3.6434 -1.2441
 3388SOL    HW221798   4.639   1.341   8.024 -0.5572  0.8079 -1.3599
 3389SOL     OW21799   1.178   0.639   3.029  0.3365 -0.9992 -0.1975
 3389SOL    HW121800   1.150   0.641   2.937 -1.2859 -1.9230  0.2954
 3389SOL    HW221801   1.274   0.643   3.021  0.2451 -1.1779 -1.3603
 3390SOL     OW21802   0.215   0.505   8.271 -0.6539  0.0883  0.6727
 3390SOL    HW121803   0.144   0.463   8.223 -1.8898  0.4500  2.1628
 3390SOL    HW221804   0.166   0.518   8.353 -0.2050  4.0835  0.3254
 3391SOL     OW21805   1.920   1.160   5.883 -0.3264 -0.0285  0.4627
 3391SOL    HW121806   1.859   1.096   5.918 -0.7385  0.5785  0.8578
 3391SOL    HW221807   1.906   1.154   5.789 -1.1451  0.7158  0.5395
 3392SOL     OW21808   2.879   0.410  16.161 -0.3436  0.2291 -0.2256
 3392SOL    HW121809   2.955   0.467  16.148 -0.3147 -0.2257 -2.0095
 3392SOL    HW221810   2.822   0.444  16.092 -1.5877  0.0660  0.7217
 3393SOL     OW21811   1.533   0.092   6.473  0.3790  0.5027 -0.0926
 3393SOL    HW121812   1.493   0.136   6.548 -0.9585 -3.4411  1.5300
 3393SOL    HW221813   1.474   0.106   6.399  0.4644  3.2552  0.3784
 3394SOL     OW21814   3.473   0.731   2.552 -0.6524 -0.2361 -0.2153
 3394SOL    HW121815   3.459   0.638   2.534 -2.5953 -0.2602  1.3409
 3394SOL    HW221816   3.548   0.737   2.612 -2.1981  0.4630  1.6720
 3395SOL     OW21817   0.280   1.601  17.238  0.6724 -0.7822  0.3715
 3395SOL    HW121818   0.271   1.519  17.287 -0.9830  0.5196  2.2355
 3395SOL    HW221819   0.309   1.662  17.306  3.1975 -0.9875 -0.4908
 3396SOL     OW21820   0.236   0.707   9.511 -0.4098  0.4356  0.3214
 3396SOL    HW121821   0.272   0.644   9.449  1.9648  0.0139  2.1146
 3396SOL    HW221822   0.221   0.781   9.452  0.4136  0.8054  0.5688
 3397SOL     OW21823   1.199   2.825  10.871 -0.7359  0.2111 -0.5788
 3397SOL    HW121824   1.217   2.915  10.899  2.8506 -0.0327 -2.0753
 3397SOL    HW221825   1.280   2.783  10.900 -1.6780 -2.1052 -1.3540
 3398SOL     OW21826   2.275   0.760  14.994  0.0328 -0.1479  0.3166
 3398SOL    HW121827   2.297   0.849  14.969 -1.2579  0.3394  0.8984
 3398SOL    HW221828   2.202   0.784  15.050  0.3203  0.4302  0.4442
 3399SOL     OW21829   0.924   4.029   1.756  0.2272 -0.4709  0.0929
 3399SOL    HW121830   0.919   4.089   1.681 -0.8362  0.2587  0.7461
 3399SOL    HW221831   1.018   4.010   1.750  0.2796 -0.4224  0.7810
 3400SOL     OW21832   1.495   2.262   7.099  0.1328  1.1673  0.1976
 3400SOL    HW121833   1.413   2.298   7.132 -0.6406 -1.4102  1.0573
 3400SOL    HW221834   1.498   2.300   7.011  0.4476  2.8172  0.9125
 3401SOL     OW21835   0.121   0.916  13.796  0.5883 -0.0324 -0.3724
 3401SOL    HW121836   0.110   0.986  13.732 -2.6159 -0.4419 -0.2746
 3401SOL    HW221837   0.100   0.836  13.747  2.6328 -1.2936  0.8003
 3402SOL     OW21838   2.913   3.898  11.863 -0.4508  0.1174 -0.5745
 3402SOL    HW121839   2.835   3.901  11.917 -0.5890  0.7634 -0.8066
 3402SOL    HW221840   2.971   3.954  11.915 -1.9178  0.0900  1.0650
 3403SOL     OW21841   1.952   1.798  16.823 -0.1951 -0.1964 -0.0497
 3403SOL    HW121842   1.945   1.796  16.727  0.2198  1.3988 -0.1096
 3403SOL    HW221843   1.859   1.819  16.835 -0.5827 -1.2979 -1.0561
 3404SOL     OW21844   0.494   1.193  10.162 -1.0977  0.3892  0.4925
 3404SOL    HW121845   0.525   1.248  10.235  0.1950  0.0657  0.1914
 3404SOL    HW221846   0.528   1.233  10.082 -0.0260 -0.0633  0.7166
 3405SOL     OW21847   2.324   1.236   8.835  0.0069  0.2024  0.0079
 3405SOL    HW121848   2.358   1.255   8.748  1.7262  1.3750  0.9351
 3405SOL    HW221849   2.395   1.263   8.893 -0.8860  3.0035 -0.1996
 3406SOL     OW21850   0.952   4.010  15.150 -0.0064  0.6561 -0.2572
 3406SOL    HW121851   0.878   4.042  15.099 -1.4617 -0.8177  0.9008
 3406SOL    HW221852   0.939   4.050  15.236 -1.4915 -1.2235  0.3833
 3407SOL     OW21853   0.394   4.573   6.878  0.0177 -0.2211  0.4759
 3407SOL    HW121854   0.342   4.630   6.935 -0.4822 -0.0369 -0.1634
 3407SOL    HW221855   0.410   4.498   6.936 -0.2976  0.4388  1.4220
 3408SOL     OW21856   0.188   3.566   5.833  0.0226  0.2488  0.5076
 3408SOL    HW121857   0.267   3.518   5.859 -0.9549 -0.3178  2.3906
 3408SOL    HW221858   0.171   3.507   5.759  0.3358 -0.5159  1.0547
 3409SOL     OW21859   0.162   3.629  17.272 -0.4837 -0.3984 -0.0745
 3409SOL    HW121860   0.132   3.691  17.338  1.7874  0.2091  0.3577
 3409SOL    HW221861   0.246   3.665  17.244 -1.1343 -1.2599 -3.2015
 3410SOL     OW21862   0.738   4.037   6.200  0.3588 -0.2672  0.3828
 3410SOL    HW121863   0.699   4.108   6.252 -0.9827 -1.4665  0.9953
 3410SOL    HW221864   0.659   3.995   6.168 -0.4687  1.3456  0.3111
 3411SOL     OW21865   0.321   3.052  16.536 -0.2000  0.3031 -0.0233
 3411SOL    HW121866   0.329   3.143  16.506 -0.2049  0.6599  1.0492
 3411SOL    HW221867   0.408   3.023  16.564  0.5775  0.5676 -2.0866
 3412SOL     OW21868   1.316   3.906  12.711  0.2554 -0.1001  0.1315
 3412SOL    HW121869   1.400   3.934  12.747  0.2743  0.0686 -0.0411
 3412SOL    HW221870   1.324   3.814  12.737  1.5783 -0.3696 -1.1981
 3413SOL     OW21871   3.404   4.238   0.680  0.0550  0.2685 -0.9328
 3413SOL    HW121872   3.388   4.325   0.645 -1.6372  0.1501 -0.4513
 3413SOL    HW221873   3.318   4.213   0.713  0.8023 -0.5717  0.3492
 3414SOL     OW21874   2.802   0.252   0.819  0.4805 -0.6632 -0.2395
 3414SOL    HW121875   2.770   0.307   0.891 -1.7016 -3.2083  0.7574
 3414SOL    HW221876   2.717   0.212   0.798  0.7963 -1.3898 -0.1310
 3415SOL     OW21877   2.082   3.213   7.491  0.6575  0.0176  0.6064
 3415SOL    HW121878   2.094   3.124   7.457  2.4849  0.0703  1.1402
 3415SOL    HW221879   2.152   3.254   7.441 -0.4666  0.0321 -0.9499
 3416SOL     OW21880   3.226   3.155   2.116  0.4056  0.1535 -1.0481
 3416SOL    HW121881   3.264   3.101   2.186 -3.8231 -0.2400  0.9749
 3416SOL    HW221882   3.307   3.197   2.086  1.6333  0.7140  3.0343
 3417SOL     OW21883   1.073   0.512  16.255 -0.1956 -0.3585  0.3638
 3417SOL    HW121884   1.057   0.575  16.185 -1.3651 -0.8803  0.1463
 3417SOL    HW221885   1.030   0.432  16.223 -0.0444 -0.9278  1.5754
 3418SOL     OW21886   3.956   1.028   9.420  0.2661  0.0432  0.4153
 3418SOL    HW121887   4.009   1.015   9.341  1.6748 -2.3407  1.7342
 3418SOL    HW221888   3.996   0.963   9.478 -0.1652  0.3500  1.0508
 3419SOL     OW21889   1.084   1.616  15.387 -0.1057  0.2452 -0.6700
 3419SOL    HW121890   1.080   1.711  15.399  0.6309  0.6283 -3.6524
 3419SOL    HW221891   1.012   1.589  15.444  0.3208  0.9691  0.2100
 3420SOL     OW21892   2.512   2.715   3.725 -0.3428  0.8009 -0.0329
 3420SOL    HW121893   2.547   2.720   3.636  0.4672  1.4094  0.3234
 3420SOL    HW221894   2.435   2.772   3.717 -0.2175  0.9648 -0.0613
 3421SOL     OW21895   0.906   3.451   8.352 -0.4305  0.9607  0.2813
 3421SOL    HW121896   0.983   3.419   8.400  0.4724  0.6857 -1.3710
 3421SOL    HW221897   0.935   3.541   8.334  2.5201 -0.4412 -1.8699
 3422SOL     OW21898   0.091   1.371  17.071 -0.1246  0.0487  0.3087
 3422SOL    HW121899   0.055   1.357  16.984 -0.3903  0.3146  0.3753
 3422SOL    HW221900   0.184   1.371  17.047 -0.0718  0.4078  0.5147
 3423SOL     OW21901   0.003   0.646  15.450  0.3454 -0.0487  0.4590
 3423SOL    HW121902   0.007   0.587  15.374 -2.8677  1.4955 -0.9050
 3423SOL    HW221903   4.653   0.694  15.453  0.7552  0.6292  0.6288
 3424SOL     OW21904   0.445   3.855   4.947 -0.0805 -0.2285 -0.3693
 3424SOL    HW121905   0.422   3.913   4.875  0.6155  0.3293 -0.1412
 3424SOL    HW221906   0.541   3.861   4.946 -0.0874  0.5921  3.1116
 3425SOL     OW21907   1.152   0.532  17.396  1.0415 -0.6853 -0.2286
 3425SOL    HW121908   1.203   0.605  17.429 -0.9118  0.9176 -0.7332
 3425SOL    HW221909   1.219   0.488  17.342 -0.0558 -2.0113 -0.5353
 3426SOL     OW21910   2.201   1.271   7.941 -0.4764  0.2794 -0.0841
 3426SOL    HW121911   2.285   1.307   7.916  0.6359 -1.1352  1.5779
 3426SOL    HW221912   2.213   1.189   7.894  0.7040  1.9247 -2.6428
 3427SOL     OW21913   1.069   0.936   8.339 -0.4474 -0.0853  0.3572
 3427SOL    HW121914   1.030   0.976   8.261 -0.8761 -0.0150  0.6074
 3427SOL    HW221915   1.125   1.010   8.364  0.3661 -0.4002 -0.5267
 3428SOL     OW21916   3.779   0.780   4.681  0.1926 -0.0096  0.6447
 3428SOL    HW121917   3.851   0.839   4.663 -0.8392  1.6052  1.7758
 3428SOL    HW221918   3.813   0.703   4.727  0.5625 -1.9377 -2.9256
 3429SOL     OW21919   3.995   4.682  14.117  0.0532 -0.3234 -0.2411
 3429SOL    HW121920   4.024   4.715  14.032 -1.1432  4.4187  1.2131
 3429SOL    HW221921   3.902   4.677  14.094 -0.3373  1.9792  0.9309
 3430SOL     OW21922   0.607   1.983   5.988 -0.4080  0.2344 -0.6261
 3430SOL    HW121923   0.691   2.028   5.994 -0.3566 -0.0014  0.5769
 3430SOL    HW221924   0.631   1.893   6.009 -0.5519  0.0498 -1.2555
 3431SOL     OW21925   3.068   4.489   4.053 -0.5383  0.3838  0.0587
 3431SOL    HW121926   3.019   4.559   4.097 -1.2287  0.1635 -0.3634
 3431SOL    HW221927   3.073   4.428   4.127 -0.7506  2.1916  1.5726
 3432SOL     OW21928   4.430   3.209   5.527 -0.0088  0.4440 -0.0917
 3432SOL    HW121929   4.473   3.255   5.455 -0.9052  0.7551 -0.4246
 3432SOL    HW221930   4.421   3.120   5.493 -3.1419  0.3294  1.0623
 3433SOL     OW21931   3.399   2.027  11.132 -0.1030  0.7395  0.4527
 3433SOL    HW121932   3.469   2.000  11.073 -1.7414  0.6110 -1.4513
 3433SOL    HW221933   3.324   2.032  11.072  1.2943  2.2087 -1.1447
 3434SOL     OW21934   1.319   2.839   6.102 -0.2199  0.3334 -0.2514
 3434SOL    HW121935   1.287   2.892   6.030  0.7303 -3.5082 -3.4850
 3434SOL    HW221936   1.285   2.750   6.086 -2.7204  1.2904 -0.2349
 3435SOL     OW21937   3.268   1.790  16.619 -0.2417 -0.0046 -0.1907
 3435SOL    HW121938   3.236   1.738  16.693  0.2749  1.1329  0.8466
 3435SOL    HW221939   3.334   1.835  16.673 -1.2114 -1.0070  1.8480
 3436SOL     OW21940   2.469   4.140   4.589  0.2954 -0.3296  0.0769
 3436SOL    HW121941   2.544   4.121   4.532  1.6498  2.6372  0.8496
 3436SOL    HW221942   2.410   4.173   4.521 -2.1732 -2.8995  0.9576
 3437SOL     OW21943   2.097   3.678   4.639 -0.5338  0.1316  0.2469
 3437SOL    HW121944   2.094   3.707   4.730 -0.6743  0.4339  0.1460
 3437SOL    HW221945   2.191   3.659   4.635 -0.3780  1.0543 -0.5108
 3438SOL     OW21946   2.679   1.957   7.967 -0.2931  0.5386 -0.7922
 3438SOL    HW121947   2.682   2.049   7.995  2.8114 -0.3288  1.7450
 3438SOL    HW221948   2.587   1.933   7.980 -0.4319  1.3347 -0.2387
 3439SOL     OW21949   3.272   1.124   3.982 -0.0824 -0.7194  0.7134
 3439SOL    HW121950   3.252   1.218   3.987  0.3951 -0.4751 -1.9278
 3439SOL    HW221951   3.191   1.090   3.944 -0.1989 -0.4684  0.7344
 3440SOL     OW21952   0.374   3.424   4.372 -0.3838 -0.4474 -0.1759
 3440SOL    HW121953   0.389   3.385   4.458 -2.0776  0.4492  0.5324
 3440SOL    HW221954   0.294   3.472   4.392  0.9430  1.4924  0.5135
 3441SOL     OW21955   0.766   1.507   9.361  0.1201 -0.3212  0.0446
 3441SOL    HW121956   0.686   1.555   9.385  0.8730  0.4708  1.0305
 3441SOL    HW221957   0.758   1.421   9.403  1.1954 -0.0668  0.7750
 3442SOL     OW21958   0.150   2.255   7.005 -0.0793 -0.4831  0.2984
 3442SOL    HW121959   0.152   2.169   6.964 -3.0202  0.1820 -1.2405
 3442SOL    HW221960   0.225   2.244   7.063 -0.4630 -1.9394  0.5208
 3443SOL     OW21961   2.261   2.378   9.895 -0.2778  0.0304  0.2416
 3443SOL    HW121962   2.230   2.435   9.966  1.2424  0.1765  0.7934
 3443SOL    HW221963   2.185   2.338   9.854  0.0292  0.5670 -0.8395
 3444SOL     OW21964   3.899   2.387   5.319  0.5834 -0.0551  0.3973
 3444SOL    HW121965   3.806   2.367   5.329  1.1613 -2.3375  1.3377
 3444SOL    HW221966   3.946   2.305   5.338  1.2239 -0.0484 -1.1395
 3445SOL     OW21967   3.985   2.792   2.812 -0.2819 -0.4333 -0.0027
 3445SOL    HW121968   4.022   2.808   2.899  1.0551 -1.1205 -0.4478
 3445SOL    HW221969   4.046   2.837   2.754  0.6755 -0.7898  0.7298
 3446SOL     OW21970   3.537   1.838   7.405 -0.7476 -0.2702  0.5527
 3446SOL    HW121971   3.528   1.805   7.495  3.2521 -1.0016  0.6852
 3446SOL    HW221972   3.628   1.813   7.392 -0.6553 -0.1766  1.0221
 3447SOL     OW21973   2.566   3.893   3.947 -0.5623  0.1940  0.3729
 3447SOL    HW121974   2.658   3.903   3.924 -0.2597 -0.0207  1.4555
 3447SOL    HW221975   2.537   3.900   3.856  0.6950 -2.1145 -0.2057
 3448SOL     OW21976   1.896   0.622  13.266 -0.1666 -0.3049  0.0521
 3448SOL    HW121977   1.825   0.645  13.206 -0.4140  2.4690  1.4215
 3448SOL    HW221978   1.867   0.642  13.355  1.0483 -2.0318  0.8467
 3449SOL     OW21979   4.129   2.316   8.216  0.5284  0.2069 -0.5450
 3449SOL    HW121980   4.151   2.246   8.155  0.6106 -0.3911  0.1738
 3449SOL    HW221981   4.082   2.270   8.285  2.5407 -0.2009  0.5579
 3450SOL     OW21982   3.571   1.397   0.764 -0.5790 -0.1987 -0.0703
 3450SOL    HW121983   3.584   1.304   0.747 -0.5316 -0.4610  1.4291
 3450SOL    HW221984   3.555   1.421   0.672  0.8998 -1.8746 -0.7590
 3451SOL     OW21985   0.094   1.836   9.850 -0.1113  0.4329  0.0700
 3451SOL    HW121986   0.089   1.800   9.761  0.1529  0.2222  0.1431
 3451SOL    HW221987   0.112   1.759   9.902  0.1773  0.4964  0.0644
 3452SOL     OW21988   0.404   0.597  10.091  0.2814 -0.2946 -0.5730
 3452SOL    HW121989   0.473   0.633  10.147 -2.5372  2.9864  0.8114
 3452SOL    HW221990   0.321   0.616  10.135  0.7991 -1.1374  0.7976
 3453SOL     OW21991   2.810   2.247   9.279  0.2499 -0.4464  0.3586
 3453SOL    HW121992   2.784   2.338   9.266 -0.1593 -0.6644 -0.3947
 3453SOL    HW221993   2.860   2.240   9.360  0.8281  2.5937  0.2493
 3454SOL     OW21994   0.513   0.544   9.613  0.0926  0.0338  0.1153
 3454SOL    HW121995   0.463   0.495   9.679 -0.6499  0.0274 -0.4633
 3454SOL    HW221996   0.517   0.478   9.544  3.3955 -0.2047  0.5198
 3455SOL     OW21997   2.153   2.195   6.402 -0.1548  0.0785 -0.0497
 3455SOL    HW121998   2.078   2.148   6.436 -0.8959  0.2364 -1.4571
 3455SOL    HW221999   2.172   2.238   6.486 -2.6905  2.9602 -0.9524
 3456SOL     OW22000   3.392   2.216   3.541 -0.0901 -0.3257 -0.0112
 3456SOL    HW122001   3.393   2.247   3.450  0.7616 -1.5694 -0.4420
 3456SOL    HW222002   3.359   2.287   3.595 -0.8086 -0.4250 -0.3195
 3457SOL     OW22003   2.404   1.472  10.094 -0.8573 -0.2908  0.1515
 3457SOL    HW122004   2.395   1.421  10.174  1.2585 -0.7418  0.1200
 3457SOL    HW222005   2.385   1.562  10.121 -0.1704  0.0887 -0.6269
 3458SOL     OW22006   0.405   4.360   4.207 -0.1800 -0.3111  0.8226
 3458SOL    HW122007   0.444   4.272   4.208 -0.1726 -0.3275 -1.3736
 3458SOL    HW222008   0.389   4.368   4.113  2.7535 -1.0684  0.2670
 3459SOL     OW22009   1.009   3.913   5.809 -0.3183  0.2287 -0.2871
 3459SOL    HW122010   0.994   3.998   5.768 -1.6604 -0.3044 -0.8944
 3459SOL    HW222011   1.086   3.931   5.864  1.4799 -1.6998 -2.1996
 3460SOL     OW22012   2.122   3.562   8.560 -0.0432 -0.2666  0.3575
 3460SOL    HW122013   2.035   3.592   8.533  1.5683  1.7461 -2.5704
 3460SOL    HW222014   2.104   3.478   8.602 -1.0706 -1.5327 -2.6131
 3461SOL     OW22015   4.396   2.406  13.800  0.0848 -0.3694 -0.0956
 3461SOL    HW122016   4.354   2.328  13.838 -2.0307  0.2931 -1.0722
 3461SOL    HW222017   4.456   2.419  13.873  1.1115 -0.3476 -0.9475
 3462SOL     OW22018   0.593   0.214   2.946  0.1289 -0.1823 -0.1986
 3462SOL    HW122019   0.672   0.234   2.995  0.8906 -0.5450 -1.2858
 3462SOL    HW222020   0.512   0.220   2.998  0.2696  0.2433 -0.0303
 3463SOL     OW22021   1.397   0.382  15.138  0.3380 -0.2114  0.4988
 3463SOL    HW122022   1.400   0.443  15.212  0.6309 -0.0858  0.3787
 3463SOL    HW222023   1.304   0.369  15.117  0.6320 -0.4623 -0.6183
 3464SOL     OW22024   3.270   3.801   6.892 -0.5002 -0.1041  0.0204
 3464SOL    HW122025   3.282   3.795   6.798 -1.6922 -0.0408 -0.1396
 3464SOL    HW222026   3.265   3.709   6.915 -0.6133 -0.2500 -0.5974
 3465SOL     OW22027   0.634   3.585   9.206  0.7180  0.0403  0.2164
 3465SOL    HW122028   0.654   3.493   9.225 -0.6460 -0.3582 -0.3279
 3465SOL    HW222029   0.571   3.604   9.275 -0.6644 -0.2834 -0.9736
 3466SOL     OW22030   4.367   0.141   4.721 -0.1954  0.0521  0.3601
 3466SOL    HW122031   4.315   0.216   4.749  0.4513  0.4730  0.4303
 3466SOL    HW222032   4.453   0.175   4.697  0.3585 -1.2477  0.5105
 3467SOL     OW22033   0.912   4.128  11.501  0.1570 -0.4926 -0.1410
 3467SOL    HW122034   0.864   4.194  11.451  0.5367 -1.3569 -1.6357
 3467SOL    HW222035   0.994   4.174  11.519  1.4938 -2.6487 -0.6914
 3468SOL     OW22036   2.683   3.062   6.112 -0.3598  0.4352  0.4281
 3468SOL    HW122037   2.603   3.052   6.062  1.0009 -1.2507 -1.4354
 3468SOL    HW222038   2.701   2.969   6.130 -2.2822  0.0489  0.3090
 3469SOL     OW22039   2.047   4.251   6.880  0.1147  0.1186  0.2192
 3469SOL    HW122040   2.013   4.241   6.790 -0.4728  1.0472  0.3363
 3469SOL    HW222041   2.107   4.177   6.890 -0.0525  0.1305  1.2778
 3470SOL     OW22042   3.187   3.024   9.464  0.4594  0.4011 -0.1023
 3470SOL    HW122043   3.265   2.997   9.514 -0.2467  0.1026  0.8386
 3470SOL    HW222044   3.207   2.980   9.381  2.0050  1.1128 -0.1029
 3471SOL     OW22045   4.507   4.721   1.318 -0.1199 -0.2640 -0.2460
 3471SOL    HW122046   4.554   0.072   1.316  0.3982 -0.5806 -1.8604
 3471SOL    HW222047   4.516   4.692   1.408 -1.1277  1.1455  0.3081
 3472SOL     OW22048   4.533   2.824   2.559 -0.1206  0.3153 -0.7888
 3472SOL    HW122049   4.462   2.876   2.596  1.2698 -0.1434  2.5610
 3472SOL    HW222050   4.557   2.783   2.642  0.3225 -0.3784 -1.2659
 3473SOL     OW22051   2.024   2.803  16.647 -0.1324 -0.3027 -0.2559
 3473SOL    HW122052   2.024   2.758  16.732  0.4289  1.7653  0.8288
 3473SOL    HW222053   2.033   2.734  16.582  1.1537 -0.9618  0.6150
 3474SOL     OW22054   1.160   1.897   4.266  0.1696 -0.2733 -0.6697
 3474SOL    HW122055   1.096   1.966   4.249 -0.6633 -0.5569  1.3545
 3474SOL    HW222056   1.118   1.839   4.202  1.9886 -1.6853 -0.5657
 3475SOL     OW22057   2.439   2.111   7.204  0.2507 -0.0175  0.2921
 3475SOL    HW122058   2.353   2.145   7.229  0.2603  0.7059 -0.6796
 3475SOL    HW222059   2.435   2.025   7.246 -0.2478 -0.1552 -0.0408
 3476SOL     OW22060   1.199   2.798   9.227 -0.1486  0.2828  0.7071
 3476SOL    HW122061   1.257   2.874   9.241  0.8549 -0.5884  1.2822
 3476SOL    HW222062   1.115   2.845   9.228  0.7968  1.9965 -1.3352
 3477SOL     OW22063   4.262   1.083  14.130 -0.8691 -0.6448 -0.1676
 3477SOL    HW122064   4.354   1.086  14.103 -0.1819  2.5256  2.5465
 3477SOL    HW222065   4.231   1.090  14.040 -0.4326  0.6407 -0.2221
 3478SOL     OW22066   4.590   1.208   2.633  0.3266 -0.1533  0.0279
 3478SOL    HW122067   4.508   1.232   2.590 -0.0492 -0.4076  0.5969
 3478SOL    HW222068   4.626   1.150   2.566  1.2041  1.3157 -0.7686
 3479SOL     OW22069   1.965   1.259   2.808  0.2885  0.0471  0.3382
 3479SOL    HW122070   1.994   1.176   2.845 -0.8563 -0.9221 -0.9503
 3479SOL    HW222071   2.052   1.298   2.797  1.1644 -1.3289  2.4872
 3480SOL     OW22072   0.713   2.139  15.221 -0.0833 -0.7414  0.1001
 3480SOL    HW122073   0.727   2.209  15.158  1.0702 -0.4991  0.6141
 3480SOL    HW222074   0.627   2.105  15.198 -0.6411  0.9604 -0.2765
 3481SOL     OW22075   4.131   3.536   6.954  0.5590 -0.6087  0.6167
 3481SOL    HW122076   4.119   3.560   6.862  1.3269 -1.3343  0.3169
 3481SOL    HW222077   4.173   3.451   6.939 -1.5229 -1.9685  2.5220
 3482SOL     OW22078   3.594   3.964   2.998 -0.3786 -0.0119 -0.0386
 3482SOL    HW122079   3.621   3.873   2.991 -0.5213 -0.2503  2.4295
 3482SOL    HW222080   3.659   3.999   3.059 -0.1897 -0.8789  0.2523
 3483SOL     OW22081   3.021   0.680   1.461 -0.4193 -0.5112 -0.4426
 3483SOL    HW122082   3.052   0.590   1.452  0.6350 -0.2713  0.7474
 3483SOL    HW222083   2.972   0.688   1.379  3.2456  2.9368 -2.2982
 3484SOL     OW22084   3.260   0.249   6.745 -0.2458 -0.2465  0.1240
 3484SOL    HW122085   3.291   0.331   6.705  0.3829  0.2639  1.6686
 3484SOL    HW222086   3.217   0.291   6.819 -0.0820  1.7974 -0.9378
 3485SOL     OW22087   2.313   1.111  10.048  0.2471 -0.3281  0.5121
 3485SOL    HW122088   2.344   1.119  10.138 -0.0537 -1.0814  0.6830
 3485SOL    HW222089   2.225   1.074  10.050 -0.6221  1.7789  1.0051
 3486SOL     OW22090   1.967   2.271   3.199 -0.4944  0.1448 -0.0250
 3486SOL    HW122091   2.004   2.358   3.188 -1.9120  0.7118 -0.3547
 3486SOL    HW222092   1.877   2.281   3.166  0.0159 -0.0172 -1.4582
 3487SOL     OW22093   1.619   1.657   4.432  0.6536  0.0323  0.1793
 3487SOL    HW122094   1.580   1.578   4.470 -0.8217  0.6666 -0.0188
 3487SOL    HW222095   1.542   1.693   4.388  1.1117 -1.2809 -1.6952
 3488SOL     OW22096   2.655   3.983   6.936 -0.0889 -0.2396 -0.1724
 3488SOL    HW122097   2.597   4.041   6.888 -1.2549 -0.3035  1.1443
 3488SOL    HW222098   2.597   3.912   6.962  0.2274 -1.1983 -2.1088
 3489SOL     OW22099   4.491   2.660   2.355  0.1156  0.2262 -0.1812
 3489SOL    HW122100   4.567   2.691   2.307 -1.3913  1.0134 -2.0350
 3489SOL    HW222101   4.500   2.723   2.426  0.2407 -0.4647  0.4223
 3490SOL     OW22102   1.864   0.792  16.536  0.1718 -0.0708 -0.5575
 3490SOL    HW122103   1.927   0.773  16.605 -0.0212 -0.6325 -0.5285
 3490SOL    HW222104   1.871   0.719  16.474  2.2735 -0.0422 -0.3616
 3491SOL     OW22105   3.024   3.721   6.540  0.1085 -0.1483 -0.1048
 3491SOL    HW122106   3.044   3.651   6.603 -3.8610 -0.8536  0.3563
 3491SOL    HW222107   2.929   3.715   6.530  0.3225 -2.3098 -1.0900
 3492SOL     OW22108   1.981   4.132  12.065  0.3378  0.7249 -0.7091
 3492SOL    HW122109   1.974   4.042  12.033 -0.0679  0.7970 -0.8246
 3492SOL    HW222110   1.912   4.117  12.130 -0.4116  0.7899 -1.4910
 3493SOL     OW22111   3.610   4.234  14.481  0.5256 -0.3946  0.4971
 3493SOL    HW122112   3.671   4.213  14.410 -2.1988 -1.6895 -1.4699
 3493SOL    HW222113   3.632   4.163  14.541 -1.2714  0.1897  1.8511
 3494SOL     OW22114   1.340   1.715   1.340 -0.1159  0.4968  0.2714
 3494SOL    HW122115   1.265   1.697   1.283  1.1736 -1.3789 -0.8479
 3494SOL    HW222116   1.294   1.720   1.425 -0.7761 -4.3551  0.2529
 3495SOL     OW22117   4.582   1.300   9.346 -0.3069 -0.1635 -0.1439
 3495SOL    HW122118   4.501   1.249   9.338 -0.3559  0.0060 -0.7680
 3495SOL    HW222119   4.584   1.333   9.256  0.2364 -0.8684 -0.3933
 3496SOL     OW22120   2.809   3.004   9.261 -0.2400  0.1380 -0.4872
 3496SOL    HW122121   2.763   2.941   9.317  0.2322 -0.6381 -0.9734
 3496SOL    HW222122   2.754   3.009   9.183  2.1157 -1.0393 -2.2457
 3497SOL     OW22123   4.133   2.629   7.993  0.0274 -0.2322  0.2152
 3497SOL    HW122124   4.167   2.579   8.067  1.7427  5.8815  3.5789
 3497SOL    HW222125   4.039   2.614   8.008  0.3645 -1.0194  1.5809
 3498SOL     OW22126   0.581   1.674   9.478 -0.0210 -0.3191  0.3223
 3498SOL    HW122127   0.543   1.729   9.409  0.0485 -0.8286 -0.1189
 3498SOL    HW222128   0.650   1.724   9.523 -1.2512  1.6626 -0.0021
 3499SOL     OW22129   0.147   2.253   7.601 -0.0583 -0.2347  0.3114
 3499SOL    HW122130   0.149   2.283   7.510  0.4164 -0.3242  0.2941
 3499SOL    HW222131   0.131   2.337   7.644  2.0769  0.1406  0.3567
 3500SOL     OW22132   0.449   3.198   7.812  0.1063  0.2623 -0.2085
 3500SOL    HW122133   0.471   3.126   7.752 -0.6656 -1.4472  1.5557
 3500SOL    HW222134   0.434   3.147   7.892  0.7939  0.7074  0.2033
 3501SOL     OW22135   2.771   0.899   5.854 -0.0635  0.4308 -0.4783
 3501SOL    HW122136   2.782   0.846   5.776 -0.4400  0.2236 -0.3888
 3501SOL    HW222137   2.847   0.865   5.901 -1.2609 -1.8825 -0.2390
 3502SOL     OW22138   0.943   4.533   6.301  0.7370  0.1096 -0.7880
 3502SOL    HW122139   0.926   4.487   6.383 -2.0816  2.8997  0.2145
 3502SOL    HW222140   0.860   4.577   6.283 -0.8613 -2.5182  0.2820
 3503SOL     OW22141   1.949   0.508   9.678  0.1304 -0.0064  0.3571
 3503SOL    HW122142   1.892   0.570   9.633  0.1175  1.4584  2.3414
 3503SOL    HW222143   2.034   0.544   9.652 -0.1274  0.8803  0.7343
 3504SOL     OW22144   0.247   2.650   6.671 -0.3993  0.6782 -0.9561
 3504SOL    HW122145   0.342   2.635   6.667 -0.1758  1.9231 -0.3671
 3504SOL    HW222146   0.242   2.641   6.766  0.7683 -2.7920 -1.2308
 3505SOL     OW22147   0.372   2.311   2.886  0.4076 -0.6926 -0.3802
 3505SOL    HW122148   0.302   2.246   2.881  0.2514 -0.4382 -1.3880
 3505SOL    HW222149   0.345   2.376   2.822  1.7254  0.6440  0.4317
 3506SOL     OW22150   4.628   4.202   6.159  0.3062 -0.6092 -0.1856
 3506SOL    HW122151   4.603   4.113   6.134  0.1525 -1.0264  1.4956
 3506SOL    HW222152   4.545   4.242   6.182  0.5688  0.3714 -0.9091
 3507SOL     OW22153   1.317   1.265   9.573  0.1902  0.1170 -0.2829
 3507SOL    HW122154   1.391   1.286   9.516  0.7474  1.4538  0.9448
 3507SOL    HW222155   1.330   1.318   9.651  1.0581 -2.1847  1.1348
 3508SOL     OW22156   2.276   4.641   4.679 -0.8889 -0.0345 -0.1963
 3508SOL    HW122157   2.318   4.693   4.610  1.0872 -0.2562  0.8510
 3508SOL    HW222158   2.242   4.706   4.740 -1.5237 -1.6336  1.1339
 3509SOL     OW22159   1.251   2.602   5.656 -0.3016 -0.1809 -0.7917
 3509SOL    HW122160   1.173   2.584   5.603 -1.5853  0.4787  0.8759
 3509SOL    HW222161   1.314   2.548   5.609  0.3380 -1.0875  1.1342
 3510SOL     OW22162   2.997   2.838   2.053  0.2663 -0.3702  0.2159
 3510SOL    HW122163   3.048   2.869   2.127  0.8985  0.3247 -0.5130
 3510SOL    HW222164   3.013   2.909   1.991 -1.6418  0.6401  0.8722
 3511SOL     OW22165   2.432   1.927  17.054  0.0500 -0.5280  0.3096
 3511SOL    HW122166   2.462   2.011  17.019  0.6777 -1.2321 -0.8362
 3511SOL    HW222167   2.338   1.943  17.051  0.1329 -0.3836 -1.5665
 3512SOL     OW22168   0.644   3.464  16.899 -0.0022  0.0776  0.3380
 3512SOL    HW122169   0.602   3.411  16.831 -0.0586  0.2810  0.2172
 3512SOL    HW222170   0.650   3.542  16.845 -1.5708 -1.0579 -1.4656
 3513SOL     OW22171   3.241   0.178   3.739 -0.0145 -0.5228 -0.0309
 3513SOL    HW122172   3.243   0.161   3.645 -0.6706  1.2660 -0.3736
 3513SOL    HW222173   3.313   0.131   3.781 -0.5516  0.9378  2.4740
 3514SOL     OW22174   2.096   2.955   1.770 -0.1818  0.0742  0.6034
 3514SOL    HW122175   2.145   3.031   1.802 -0.5713  0.2457  0.8037
 3514SOL    HW222176   2.153   2.880   1.787  1.1250  1.2462  1.4087
 3515SOL     OW22177   0.298   2.674  14.508 -0.0971  0.2628 -0.3378
 3515SOL    HW122178   0.296   2.599  14.449  1.8675 -0.6313  0.7481
 3515SOL    HW222179   0.245   2.738  14.459  0.3158  1.8279  1.2373
 3516SOL     OW22180   0.415   1.294   8.120 -0.6954 -0.0622 -0.3608
 3516SOL    HW122181   0.436   1.384   8.098 -0.2979 -0.3498 -1.1517
 3516SOL    HW222182   0.369   1.255   8.046 -1.7447 -0.4905  0.5088
 3517SOL     OW22183   3.549   2.279   4.430 -0.3941  0.3097 -0.2487
 3517SOL    HW122184   3.534   2.184   4.431 -0.8550  0.3801 -0.6458
 3517SOL    HW222185   3.504   2.303   4.511  1.8887 -0.3410  1.1899
 3518SOL     OW22186   3.027   2.871   2.822 -0.5329 -0.0462 -0.1524
 3518SOL    HW122187   3.051   2.938   2.758  0.0251  1.5360  1.7188
 3518SOL    HW222188   3.091   2.881   2.892 -2.9850  0.2908  2.0420
 3519SOL     OW22189   2.105   4.300  13.943  0.1345  0.1647 -0.0154
 3519SOL    HW122190   2.120   4.283  14.036 -1.4506 -0.9683  0.0261
 3519SOL    HW222191   2.036   4.239  13.919 -1.0591  0.9560  1.4483
 3520SOL     OW22192   4.697   0.536   3.598 -0.2255 -0.8011 -0.4967
 3520SOL    HW122193   4.602   0.529   3.604  0.0203 -2.1806  1.7264
 3520SOL    HW222194   4.719   0.444   3.585  1.3066 -0.4934 -0.0153
 3521SOL     OW22195   0.018   3.312   8.202 -0.4068 -0.0178 -0.2366
 3521SOL    HW122196   4.729   3.390   8.252  0.7666  1.1766 -1.5743
 3521SOL    HW222197   4.683   3.315   8.134 -2.5995  2.4972  2.0856
 3522SOL     OW22198   3.603   3.521   6.121 -0.3010  0.4063  0.3994
 3522SOL    HW122199   3.649   3.562   6.047 -0.1046 -0.8434 -0.1753
 3522SOL    HW222200   3.555   3.449   6.080  0.1480  1.9592 -2.8516
 3523SOL     OW22201   0.431   1.810   4.239 -0.4494  0.1007 -0.1681
 3523SOL    HW122202   0.400   1.894   4.205  0.5703  0.3682 -0.4329
 3523SOL    HW222203   0.526   1.816   4.226 -0.2602 -0.6800  0.7727
 3524SOL     OW22204   4.244   4.730  10.488  0.3826  0.5241 -0.4384
 3524SOL    HW122205   4.254   4.666  10.417  2.5029 -0.6158  0.8830
 3524SOL    HW222206   4.208   0.073  10.442  0.3292 -0.2005 -1.5994
 3525SOL     OW22207   3.631   2.944   1.299 -0.4776 -0.0445  0.1672
 3525SOL    HW122208   3.572   2.943   1.223 -1.5499  0.3120  0.9971
 3525SOL    HW222209   3.594   3.021   1.341  3.0737  0.9622  1.4186
 3526SOL     OW22210   3.299   4.448  14.218 -0.0017  0.2831 -0.0911
 3526SOL    HW122211   3.229   4.494  14.265 -1.8007 -2.6970  0.1562
 3526SOL    HW222212   3.331   4.389  14.287 -0.7937  1.1756  1.0464
 3527SOL     OW22213   3.102   1.936   8.707 -0.1919  0.7775  0.1857
 3527SOL    HW122214   3.064   1.913   8.623 -0.1793 -1.6667  0.8398
 3527SOL    HW222215   3.159   2.009   8.684 -1.6139  2.2361  1.3103
 3528SOL     OW22216   2.691   0.492   0.963  0.7751  0.0392 -0.7452
 3528SOL    HW122217   2.687   0.490   1.059 -2.1125  1.1562 -0.8199
 3528SOL    HW222218   2.779   0.529   0.954  0.5990  0.4414 -0.8257
 3529SOL     OW22219   4.367   2.217   6.335  0.0681 -0.5452 -0.4593
 3529SOL    HW122220   4.429   2.287   6.354 -1.8464  0.8564  0.6303
 3529SOL    HW222221   4.416   2.146   6.377 -0.3879 -0.5661  0.0267
 3530SOL     OW22222   1.962   2.186   4.755  0.0042  0.1236 -0.3210
 3530SOL    HW122223   1.872   2.218   4.768  0.1715  0.4297  0.0713
 3530SOL    HW222224   1.983   2.130   4.830  0.5807  0.5403 -0.1747
 3531SOL     OW22225   0.905   3.832   3.270 -0.2909  0.3132 -0.1712
 3531SOL    HW122226   0.836   3.795   3.324 -0.0298 -0.6967 -0.5282
 3531SOL    HW222227   0.984   3.803   3.315  1.2013  3.2864 -0.8460
 3532SOL     OW22228   1.193   3.088   2.204 -0.1118  0.3245  0.8136
 3532SOL    HW122229   1.179   3.058   2.114  2.9533  2.3640 -0.3335
 3532SOL    HW222230   1.260   3.025   2.232  0.3041  0.8589  1.0213
 3533SOL     OW22231   2.328   2.286  16.001  0.1784 -0.6496 -0.2176
 3533SOL    HW122232   2.370   2.365  16.034  1.1525 -1.7751  1.2371
 3533SOL    HW222233   2.393   2.220  16.027 -1.6162 -2.6918 -0.9096
 3534SOL     OW22234   3.856   4.517   1.801 -0.6760 -0.1830  0.1347
 3534SOL    HW122235   3.840   4.571   1.724  3.8434  1.6273  0.5119
 3534SOL    HW222236   3.768   4.513   1.840 -0.8917 -0.7191 -0.3945
 3535SOL     OW22237   2.490   1.653   5.925 -0.6968 -0.0779 -0.0404
 3535SOL    HW122238   2.545   1.727   5.950  1.0473 -0.4367 -2.7872
 3535SOL    HW222239   2.440   1.686   5.850 -1.3839 -0.7668  0.1169
 3536SOL     OW22240   0.172   0.043  13.436  0.2519 -0.0221 -0.4766
 3536SOL    HW122241   0.129   4.721  13.371  1.0183 -1.2581  0.0454
 3536SOL    HW222242   0.222   0.110  13.390  0.8287  0.1661  0.4287
 3537SOL     OW22243   4.696   2.329   2.720  0.1776 -0.1405  0.4855
 3537SOL    HW122244   4.702   2.389   2.646 -2.0505 -0.2304  0.2266
 3537SOL    HW222245   4.676   2.394   2.788 -0.1318 -1.2534  1.4565
 3538SOL     OW22246   1.197   4.722   4.714  0.0932 -0.7867 -0.2796
 3538SOL    HW122247   1.128   4.659   4.693  0.0476 -0.5661 -0.7890
 3538SOL    HW222248   1.215   4.692   4.803  2.8903  1.1966 -0.1755
 3539SOL     OW22249   4.307   4.047   8.418  0.4241 -0.0170 -0.3338
 3539SOL    HW122250   4.255   3.982   8.371 -0.1650  1.9976 -2.4285
 3539SOL    HW222251   4.233   4.094   8.456  1.2033  0.3471  0.7403
 3540SOL     OW22252   2.701   3.370   2.343  0.3142  0.0473  0.0732
 3540SOL    HW122253   2.619   3.322   2.334 -0.8534  2.0810 -0.1391
 3540SOL    HW222254   2.737   3.331   2.423 -0.1257 -0.0194  0.2375
 3541SOL     OW22255   0.398   3.821   8.190 -0.2528  0.5397  0.2964
 3541SOL    HW122256   0.446   3.773   8.256  1.2645  0.5830 -0.7730
 3541SOL    HW222257   0.446   3.903   8.178  0.7017 -0.0226  0.3544
 3542SOL     OW22258   3.935   0.916   0.851  0.5068  0.1948  0.3438
 3542SOL    HW122259   3.933   0.977   0.925  1.3707  1.0539 -0.3477
 3542SOL    HW222260   4.016   0.943   0.809 -0.1060  1.4381 -0.0258
 3543SOL     OW22261   1.294   1.298   8.815  0.4259 -0.8156 -0.8510
 3543SOL    HW122262   1.352   1.358   8.862  1.5909 -1.3857 -1.5538
 3543SOL    HW222263   1.252   1.249   8.885 -0.4443  1.7563  0.4234
 3544SOL     OW22264   2.111   2.922   7.442  0.5930  0.2301  0.1039
 3544SOL    HW122265   2.062   2.868   7.381  1.6844 -0.2554 -0.3505
 3544SOL    HW222266   2.051   2.924   7.517 -1.4743 -0.8781 -1.5364
 3545SOL     OW22267   4.332   1.417   7.037  0.6400  0.3324 -0.2208
 3545SOL    HW122268   4.305   1.335   6.995 -0.9432  0.6823  0.0862
 3545SOL    HW222269   4.274   1.478   6.992  0.9722  0.6495 -0.2163
 3546SOL     OW22270   2.062   2.261   1.703 -0.3491  0.1951  0.1544
 3546SOL    HW122271   2.095   2.187   1.752  0.0319  1.4058  1.7052
 3546SOL    HW222272   2.083   2.236   1.613  0.3848  0.4940  0.2428
 3547SOL     OW22273   2.797   3.651   9.302  0.3215  0.1658  0.0192
 3547SOL    HW122274   2.737   3.580   9.324  0.6415 -0.7528 -2.1336
 3547SOL    HW222275   2.796   3.629   9.209 -2.8440 -1.5594  0.4537
 3548SOL     OW22276   2.899   2.579   1.733 -0.0426  0.5579 -0.1137
 3548SOL    HW122277   2.978   2.623   1.764 -0.7821  0.6871  1.6016
 3548SOL    HW222278   2.835   2.615   1.795  1.4240  1.8002  0.6768
 3549SOL     OW22279   3.574   3.438   2.986 -0.0706  0.6139  0.6694
 3549SOL    HW122280   3.514   3.464   3.055 -0.1723 -0.0661  0.8388
 3549SOL    HW222281   3.509   3.403   2.924 -0.1188 -0.8800  1.5566
 3550SOL     OW22282   1.038   3.910   7.737  0.2416 -0.5128  0.3125
 3550SOL    HW122283   0.962   3.911   7.679  1.2218 -2.1562 -0.9979
 3550SOL    HW222284   1.073   3.998   7.722  0.5822 -0.8615 -0.9069
 3551SOL     OW22285   3.805   2.619   9.156 -1.0586 -0.2189 -0.2617
 3551SOL    HW122286   3.859   2.692   9.126 -1.1601  0.2251  0.6152
 3551SOL    HW222287   3.719   2.657   9.138 -0.7622  0.8329  0.5199
 3552SOL     OW22288   4.107   4.109   3.702 -0.0639 -0.3025  0.0543
 3552SOL    HW122289   4.151   4.184   3.662 -0.1549 -1.4008 -2.0445
 3552SOL    HW222290   4.037   4.086   3.641 -1.1866 -0.3033  1.3136
 3553SOL     OW22291   1.529   4.021   4.942  0.4628  0.6920 -0.1686
 3553SOL    HW122292   1.484   4.036   5.025  2.2555  1.3562  0.6707
 3553SOL    HW222293   1.619   4.049   4.960  0.4619 -0.1631  1.1348
 3554SOL     OW22294   3.964   0.902   8.307  0.5541  0.2795 -0.2425
 3554SOL    HW122295   4.041   0.868   8.353 -0.1973  0.4871  1.1978
 3554SOL    HW222296   3.929   0.943   8.386 -0.6783 -0.3435 -0.4716
 3555SOL     OW22297   1.578   3.896   6.580  0.3883 -0.0078 -0.1620
 3555SOL    HW122298   1.501   3.901   6.524  0.5918 -1.6951 -0.5964
 3555SOL    HW222299   1.539   3.842   6.649  1.1168  1.6202  1.5359
 3556SOL     OW22300   3.234   3.280   5.225  0.2207  0.3920 -0.4980
 3556SOL    HW122301   3.199   3.206   5.175  1.7500 -0.1084 -0.8536
 3556SOL    HW222302   3.152   3.317   5.255  0.5142  0.6166  0.0253
 3557SOL     OW22303   4.530   0.802   5.162 -0.3603  0.1995  0.4144
 3557SOL    HW122304   4.468   0.843   5.102  2.1527  1.4924 -1.2965
 3557SOL    HW222305   4.597   0.785   5.096 -1.5932 -0.7717 -0.5575
 3558SOL     OW22306   1.928   3.867   5.726  0.2186 -0.5704  0.3301
 3558SOL    HW122307   1.994   3.879   5.794  0.1342 -3.6060  0.9579
 3558SOL    HW222308   1.927   3.773   5.705 -0.4678  0.1519 -2.9548
 3559SOL     OW22309   4.334   3.088   0.140 -0.0708  0.4983 -0.2627
 3559SOL    HW122310   4.286   3.170   0.127  0.6118  0.7979 -0.8882
 3559SOL    HW222311   4.406   3.098   0.077  1.5258 -1.4099  1.2655
 3560SOL     OW22312   2.140   2.776  14.203  0.2407 -0.2274  0.1901
 3560SOL    HW122313   2.056   2.805  14.166  1.1577  1.3620 -0.6391
 3560SOL    HW222314   2.161   2.851  14.258 -0.3745 -0.4245  0.6974
 3561SOL     OW22315   2.633   2.690   8.586  0.5295  0.2174  0.1162
 3561SOL    HW122316   2.641   2.786   8.593  1.7120  0.1891 -0.7548
 3561SOL    HW222317   2.564   2.676   8.651  0.4918  0.8845  0.2270
 3562SOL     OW22318   2.413   4.706   3.541  0.0330 -0.6805  0.1174
 3562SOL    HW122319   2.449   0.032   3.475  1.3576 -0.0195  1.4436
 3562SOL    HW222320   2.416   0.030   3.618  1.0076 -0.0691 -0.3727
 3563SOL     OW22321   0.578   4.242   7.231  0.2865  0.0991  0.2599
 3563SOL    HW122322   0.522   4.290   7.169  0.9654  0.3657 -0.1436
 3563SOL    HW222323   0.520   4.252   7.307  0.3942  0.0274  0.3522
 3564SOL     OW22324   0.232   4.145   5.517 -0.2394 -0.2554 -0.3269
 3564SOL    HW122325   0.148   4.171   5.480 -0.0396 -0.1581 -0.7121
 3564SOL    HW222326   0.204   4.120   5.605  0.9695 -0.9347 -0.1330
 3565SOL     OW22327   1.250   2.451  17.630 -0.2549 -0.1342  0.1203
 3565SOL    HW122328   1.288   2.534  17.659 -2.6475 -0.0222  2.8679
 3565SOL    HW222329   1.316   2.393  17.668 -0.7120 -0.6921  0.0588
 3566SOL     OW22330   1.700   2.790   6.984  0.5096 -0.1369  0.1937
 3566SOL    HW122331   1.702   2.733   7.061 -0.0674 -0.1596  0.1929
 3566SOL    HW222332   1.780   2.769   6.936 -0.8555 -0.6817 -1.8382
 3567SOL     OW22333   4.070   3.611  15.957  0.8083 -0.0324 -0.1795
 3567SOL    HW122334   4.050   3.697  15.993  1.1391 -0.2260  0.4750
 3567SOL    HW222335   4.159   3.594  15.988  1.3124  2.2069 -0.4419
 3568SOL     OW22336   4.565   4.308   7.098 -0.2780  0.1833 -0.3696
 3568SOL    HW122337   4.525   4.363   7.165 -0.5096 -1.7008  1.0543
 3568SOL    HW222338   4.559   4.220   7.137 -0.1406 -0.0299 -0.8269
 3569SOL     OW22339   2.732   3.073   0.415 -0.4522  0.5838  0.4504
 3569SOL    HW122340   2.775   2.997   0.374  0.5938 -0.8138  4.1228
 3569SOL    HW222341   2.735   3.040   0.505  1.8544 -2.0372 -0.5729
 3570SOL     OW22342   0.046   3.970  10.332 -0.1728  0.0466  0.1879
 3570SOL    HW122343   4.721   4.045  10.351  2.5018  2.3733 -0.9554
 3570SOL    HW222344   0.127   4.018  10.318 -0.1186 -0.6756 -1.8728
 3571SOL     OW22345   1.425   0.274   7.696 -0.1116 -0.4363  0.0766
 3571SOL    HW122346   1.498   0.218   7.669  0.5556 -0.5481  2.1232
 3571SOL    HW222347   1.414   0.247   7.787 -0.2464 -1.3285 -0.1966
 3572SOL     OW22348   1.428   0.243   4.711  0.2459 -0.2473 -0.2066
 3572SOL    HW122349   1.343   0.212   4.681  0.4120 -1.9501  1.0725
 3572SOL    HW222350   1.409   0.337   4.719 -2.2419 -0.9789  2.2691
 3573SOL     OW22351   3.310   1.338   2.509  0.2315  0.1836 -0.1004
 3573SOL    HW122352   3.300   1.255   2.463 -1.9107  1.3607 -1.7448
 3573SOL    HW222353   3.323   1.293   2.592  2.2870 -1.2776 -1.2327
 3574SOL     OW22354   2.108   2.567   3.730 -0.5680 -0.3395  0.2061
 3574SOL    HW122355   2.105   2.559   3.825  2.7144  3.9074  0.6669
 3574SOL    HW222356   2.015   2.568   3.704 -0.3930  1.0545 -0.4006
 3575SOL     OW22357   1.137   1.419  15.209  0.0581  0.0436 -0.0165
 3575SOL    HW122358   1.144   1.492  15.270 -1.3814  1.0126 -1.0160
 3575SOL    HW222359   1.046   1.395  15.224 -0.2608  0.7074 -0.8759
 3576SOL     OW22360   4.655   3.742   1.673  0.3429  0.4327  0.2309
 3576SOL    HW122361   4.652   3.836   1.689 -0.1584  0.3970  0.3554
 3576SOL    HW222362   4.622   3.711   1.758 -2.8730  1.8893 -0.4862
 3577SOL     OW22363   4.048   4.569   6.547 -0.2996  0.4635 -0.3271
 3577SOL    HW122364   4.017   4.639   6.490 -0.6256  0.6819  0.1122
 3577SOL    HW222365   3.976   4.507   6.543 -1.1133  1.4746 -1.2210
 3578SOL     OW22366   0.952   1.500  14.637 -0.5872 -0.3289 -0.0137
 3578SOL    HW122367   1.037   1.542  14.646 -0.5878 -0.6429  1.4958
 3578SOL    HW222368   0.988   1.413  14.657  1.2559  0.5707  0.5664
 3579SOL     OW22369   1.480   1.938   3.409 -0.5244  0.0202 -0.2565
 3579SOL    HW122370   1.512   1.993   3.337  0.0311 -0.3561 -0.2936
 3579SOL    HW222371   1.535   1.860   3.400  0.7693  0.9805 -0.7262
 3580SOL     OW22372   3.837   2.496   0.087  0.0861 -0.1424  0.0699
 3580SOL    HW122373   3.833   2.563   0.155  0.8640  1.7423 -1.7434
 3580SOL    HW222374   3.777   2.537   0.025 -0.3337 -0.4514  0.2680
 3581SOL     OW22375   4.558   1.910   2.506  0.0372 -0.8291 -0.0245
 3581SOL    HW122376   4.564   2.004   2.491 -0.3992 -0.3599  2.7542
 3581SOL    HW222377   4.625   1.898   2.573 -1.3900  1.9966  1.9284
 3582SOL     OW22378   4.654   1.289   4.540 -0.0051  0.2042 -0.0510
 3582SOL    HW122379   4.601   1.329   4.608 -0.7786 -2.6132  0.9934
 3582SOL    HW222380   0.013   1.307   4.560  0.0828  0.6682 -0.8351
 3583SOL     OW22381   3.697   2.371   2.253 -0.3914  0.3908 -0.0256
 3583SOL    HW122382   3.659   2.357   2.166 -0.8542 -2.5891  0.6442
 3583SOL    HW222383   3.755   2.444   2.232  0.1407  0.2910  1.1431
 3584SOL     OW22384   3.908   3.442  12.449 -0.3371  0.0268 -0.2755
 3584SOL    HW122385   3.819   3.461  12.477 -0.2433 -0.3625  0.2758
 3584SOL    HW222386   3.904   3.474  12.359  1.6718  0.2109 -0.3003
 3585SOL     OW22387   3.335   3.429   7.609 -0.0843 -0.1815 -0.3319
 3585SOL    HW122388   3.248   3.404   7.641  0.2377  0.2292  0.8479
 3585SOL    HW222389   3.372   3.342   7.594 -0.8209 -0.2764 -1.5663
 3586SOL     OW22390   2.419   2.557  16.117  0.3932  0.3077  0.4334
 3586SOL    HW122391   2.504   2.533  16.080 -1.1914  0.8632 -3.6135
 3586SOL    HW222392   2.430   2.651  16.106  0.0745  0.2266 -0.5664
 3587SOL     OW22393   1.826   0.577  16.351 -0.1743 -0.5970  0.3536
 3587SOL    HW122394   1.733   0.594  16.333 -0.2916 -0.6778  0.8763
 3587SOL    HW222395   1.858   0.543  16.267 -0.6755  0.1695 -0.1505
 3588SOL     OW22396   2.114   3.197   7.161 -0.4607  0.6936  0.0088
 3588SOL    HW122397   2.029   3.159   7.139  0.5063 -1.4901 -0.0380
 3588SOL    HW222398   2.176   3.130   7.131 -0.9612 -0.2669  1.1072
 3589SOL     OW22399   3.534   2.047   5.782  0.3519 -0.0114  0.0495
 3589SOL    HW122400   3.581   2.037   5.864 -3.1265 -0.7616  1.9337
 3589SOL    HW222401   3.444   2.052   5.813  1.0800  1.1585  1.9118
 3590SOL     OW22402   3.380   4.313   4.652  0.7508 -0.3442 -0.2975
 3590SOL    HW122403   3.430   4.279   4.578 -2.4386 -4.1191 -0.7410
 3590SOL    HW222404   3.410   4.403   4.666  0.3150 -0.3943  0.9144
 3591SOL     OW22405   2.902   0.832  15.166  0.0179 -0.3968 -0.2629
 3591SOL    HW122406   2.874   0.905  15.110  3.5870  1.3570  0.2191
 3591SOL    HW222407   2.897   0.868  15.255  2.0187 -2.4014  0.6625
 3592SOL     OW22408   1.670   2.818   2.706 -0.0870  0.4601 -0.3723
 3592SOL    HW122409   1.583   2.813   2.666 -0.0104  1.4305 -0.6620
 3592SOL    HW222410   1.727   2.765   2.649  1.7722  1.9067  0.1271
 3593SOL     OW22411   1.247   2.904  16.733  0.2719 -0.8371  0.4153
 3593SOL    HW122412   1.275   2.842  16.666  0.4133  0.3526 -0.6200
 3593SOL    HW222413   1.329   2.953  16.734 -0.1947 -0.0431 -0.4168
 3594SOL     OW22414   1.501   4.724   7.065 -0.0779  0.6578  0.4619
 3594SOL    HW122415   1.438   0.033   7.006 -1.0461  0.7516  1.5552
 3594SOL    HW222416   1.587   0.000   7.024 -0.1553  1.2646  0.4360
 3595SOL     OW22417   2.355   1.415  16.724 -0.2718 -0.4517  0.1151
 3595SOL    HW122418   2.291   1.480  16.753 -0.1812 -0.4367  0.2802
 3595SOL    HW222419   2.306   1.344  16.766  0.5502 -1.5053 -0.7046
 3596SOL     OW22420   2.335   2.042   4.179 -0.0700  0.4389 -0.4668
 3596SOL    HW122421   2.377   2.128   4.178  4.3187 -1.7008  1.0978
 3596SOL    HW222422   2.402   1.984   4.215 -0.0492  0.7505  0.0082
 3597SOL     OW22423   3.265   3.819   7.917 -0.7047 -0.0270 -0.1443
 3597SOL    HW122424   3.341   3.765   7.895  0.5796  1.4551  0.6649
 3597SOL    HW222425   3.257   3.869   7.836 -1.4362 -0.7022 -0.4990
 3598SOL     OW22426   2.627   3.653   5.345  0.1284  0.0661  0.2643
 3598SOL    HW122427   2.578   3.671   5.265 -2.5848 -2.0014  1.4724
 3598SOL    HW222428   2.583   3.577   5.382 -0.7442  0.5946  0.2886
 3599SOL     OW22429   0.582   1.626   6.995  0.6173 -0.3092  0.4243
 3599SOL    HW122430   0.579   1.683   7.072 -2.3424 -0.6794  0.5891
 3599SOL    HW222431   0.510   1.657   6.940 -1.0151  0.6957  3.1259
 3600SOL     OW22432   0.141   4.463   2.888 -0.0312 -0.2111  0.8721
 3600SOL    HW122433   0.182   4.533   2.939 -0.8844  1.2925 -0.5009
 3600SOL    HW222434   0.216   4.410   2.860 -0.0440  0.5049 -0.5152
 3601SOL     OW22435   0.982   0.849   2.520 -0.0487  0.2550  0.7451
 3601SOL    HW122436   0.917   0.882   2.459  1.7466 -0.5892 -1.6094
 3601SOL    HW222437   0.921   0.804   2.578  0.2686 -0.4195  0.5504
 3602SOL     OW22438   3.301   3.189   7.266 -0.1227  0.2544  0.3005
 3602SOL    HW122439   3.245   3.230   7.332 -0.3547 -0.9967  0.8772
 3602SOL    HW222440   3.386   3.197   7.309  0.2525  1.8642 -0.7479
 3603SOL     OW22441   1.664   4.412   1.812 -0.1475  0.2595  0.1165
 3603SOL    HW122442   1.722   4.388   1.740 -1.2292 -0.5423 -0.4837
 3603SOL    HW222443   1.709   4.491   1.842  1.1871 -0.8790  1.1098
 3604SOL     OW22444   4.413   3.032   4.512 -0.2256 -0.1380 -0.0137
 3604SOL    HW122445   4.395   2.939   4.523 -2.3029  0.0216 -1.8934
 3604SOL    HW222446   4.409   3.031   4.416  0.1059 -1.9433 -0.0072
 3605SOL     OW22447   1.506   3.453   7.134  0.0377  0.6581 -0.4216
 3605SOL    HW122448   1.530   3.519   7.069  0.5730  0.2007 -0.6891
 3605SOL    HW222449   1.580   3.393   7.130  0.8947  1.5241  2.5518
 3606SOL     OW22450   1.865   3.498   9.612  0.0529 -0.4392 -0.2962
 3606SOL    HW122451   1.944   3.445   9.602  1.4871  1.2728  1.8849
 3606SOL    HW222452   1.810   3.450   9.675 -0.4868  2.0135  1.1211
 3607SOL     OW22453   2.446   0.053   6.882 -0.2119 -0.1865  0.7721
 3607SOL    HW122454   2.501   0.095   6.947  0.6188 -0.2797  0.1295
 3607SOL    HW222455   2.383   0.001   6.932 -0.1918  0.2170  1.2119
 3608SOL     OW22456   2.419   4.328   3.284 -0.0915 -0.3072  0.2398
 3608SOL    HW122457   2.362   4.340   3.360 -1.5428  0.2544 -0.9223
 3608SOL    HW222458   2.472   4.258   3.322  2.6362  0.9513 -1.2651
 3609SOL     OW22459   1.692   3.614  16.594  0.1294  0.5742  0.0045
 3609SOL    HW122460   1.782   3.611  16.626 -0.2060 -1.1813  0.7939
 3609SOL    HW222461   1.689   3.533  16.542  1.5738  0.8819 -0.5601
 3610SOL     OW22462   4.613   0.808   0.001 -0.3770 -0.0501 -0.3505
 3610SOL    HW122463   4.554   0.883   0.008 -1.8374 -1.2300 -0.1217
 3610SOL    HW222464   4.688   0.819   0.060 -0.9367 -0.9180  0.5149
 3611SOL     OW22465   4.407   1.531   6.364  0.1131 -0.3180 -0.4161
 3611SOL    HW122466   4.388   1.620   6.335 -0.3523 -0.5289 -0.7783
 3611SOL    HW222467   4.473   1.501   6.301  1.7389 -0.0073  1.1646
 3612SOL     OW22468   4.563   0.436  10.669  0.2773 -0.7688  0.5703
 3612SOL    HW122469   4.615   0.492  10.612 -1.7876 -0.3222 -0.8803
 3612SOL    HW222470   4.578   0.351  10.627 -1.5966 -0.0638 -1.5577
 3613SOL     OW22471   1.299   0.963   2.874  0.7144 -0.6104  0.4941
 3613SOL    HW122472   1.349   1.035   2.912  0.9205 -1.0665  1.0913
 3613SOL    HW222473   1.357   0.891   2.850 -0.6056 -1.5005 -0.0348
 3614SOL     OW22474   0.543   0.794   2.760  0.1599  0.4342  0.1017
 3614SOL    HW122475   0.525   0.804   2.853 -1.1198  0.3226 -0.1309
 3614SOL    HW222476   0.494   0.711   2.760  3.0896 -1.2960 -0.5605
 3615SOL     OW22477   1.104   0.585   2.324  0.2091  0.7176 -0.6050
 3615SOL    HW122478   1.071   0.624   2.405 -3.5268 -1.3056 -1.1702
 3615SOL    HW222479   1.087   0.656   2.262 -0.3359  1.4094  0.3355
 3616SOL     OW22480   4.031   0.989  10.832  0.3482 -0.3592 -0.8225
 3616SOL    HW122481   3.949   0.944  10.852  0.3998  0.1234  0.5014
 3616SOL    HW222482   4.089   0.943  10.893 -1.1362  0.0831  0.9368
 3617SOL     OW22483   3.345   3.091  10.260 -0.1471 -0.3809  0.5364
 3617SOL    HW122484   3.325   3.103  10.167 -0.0683 -1.9842  0.2994
 3617SOL    HW222485   3.256   3.080  10.294 -1.0300  1.1067 -1.3094
 3618SOL     OW22486   2.729   0.850   8.482 -0.3356  0.5394  0.3934
 3618SOL    HW122487   2.696   0.761   8.495 -0.0325  0.1575 -1.4620
 3618SOL    HW222488   2.647   0.894   8.459 -0.2942  0.6747  0.5018
 3619SOL     OW22489   0.605   1.013   3.180 -0.3477  0.4885  0.0384
 3619SOL    HW122490   0.510   1.016   3.193 -0.4722  0.8607 -0.9238
 3619SOL    HW222491   0.624   1.107   3.170  0.6770  0.4765  1.8365
 3620SOL     OW22492   1.793   4.326   5.559 -0.2762  0.0442  0.4580
 3620SOL    HW122493   1.742   4.245   5.554 -2.6669  1.4704  1.8312
 3620SOL    HW222494   1.767   4.374   5.481 -0.8948 -0.0545  0.6090
 3621SOL     OW22495   4.371   4.023   1.843  0.2149 -0.6895  0.1246
 3621SOL    HW122496   4.405   4.094   1.898  1.6351 -1.0818 -0.2539
 3621SOL    HW222497   4.448   3.967   1.837 -0.9880 -2.4845  1.3312
 3622SOL     OW22498   2.425   4.310   5.462  0.3130  0.5243  0.4988
 3622SOL    HW122499   2.412   4.274   5.549 -0.4373 -0.3482  0.0278
 3622SOL    HW222500   2.519   4.313   5.448  0.1941 -0.3675 -0.5313
 3623SOL     OW22501   0.141   0.126   8.751  0.3237  0.0082  0.2217
 3623SOL    HW122502   0.175   0.045   8.715  1.6271  0.0101  1.4288
 3623SOL    HW222503   0.121   0.174   8.671 -2.7657 -1.6201  0.0435
 3624SOL     OW22504   3.934   2.404   4.926 -0.6918 -0.2828 -0.1565
 3624SOL    HW122505   4.011   2.459   4.909 -0.8682  0.1180  0.3334
 3624SOL    HW222506   3.910   2.437   5.012  2.2174 -0.4939  0.7329
 3625SOL     OW22507   2.901   1.940   4.429 -0.0671  0.7711 -0.1049
 3625SOL    HW122508   2.835   2.008   4.424 -1.2346 -0.2821  0.8813
 3625SOL    HW222509   2.876   1.892   4.508  2.0272 -0.4075 -0.1412
 3626SOL     OW22510   1.172   4.106  12.577  0.5400  0.1913  0.0204
 3626SOL    HW122511   1.182   4.062  12.492 -0.2324  1.4626 -0.7328
 3626SOL    HW222512   1.209   4.037  12.632  1.9459 -1.4473 -2.9504
 3627SOL     OW22513   0.114   1.391  10.465  0.2443  0.3286 -0.3280
 3627SOL    HW122514   0.195   1.374  10.417  1.0173  0.9358  0.7495
 3627SOL    HW222515   0.135   1.363  10.554  0.8041 -2.0405 -1.1994
 3628SOL     OW22516   2.960   2.035   5.946 -0.4406  0.3641 -0.5964
 3628SOL    HW122517   2.879   2.081   5.967 -0.2749  1.2609 -1.9095
 3628SOL    HW222518   2.956   2.026   5.851  0.1714  0.0511 -0.5935
 3629SOL     OW22519   1.371   0.960   8.207 -0.4285 -0.1885 -0.1807
 3629SOL    HW122520   1.324   0.877   8.214 -1.1692  0.3550  1.1513
 3629SOL    HW222521   1.363   0.979   8.113  1.0166  2.3679  0.2116
 3630SOL     OW22522   0.231   2.161   2.573 -0.1291  0.4065  0.4486
 3630SOL    HW122523   0.308   2.105   2.588 -0.2058  1.0556  3.2303
 3630SOL    HW222524   0.200   2.153   2.663 -0.1049  1.4315  0.5419
 3631SOL     OW22525   0.055   4.500  11.009  0.6819  0.1579 -0.1708
 3631SOL    HW122526   0.024   4.580  11.051 -0.5805  0.0533 -0.8843
 3631SOL    HW222527   4.718   4.441  11.039  0.4355  0.9984  0.8971
 3632SOL     OW22528   1.905   3.833   1.752  0.3175 -0.0676  0.2982
 3632SOL    HW122529   1.843   3.892   1.794 -0.1321  0.0617 -0.5212
 3632SOL    HW222530   1.854   3.771   1.698  0.2711  1.2861 -1.2153
 3633SOL     OW22531   0.657   2.157   3.996  0.0788 -0.2801 -0.3895
 3633SOL    HW122532   0.675   2.245   3.962  1.5881 -0.5802 -0.3542
 3633SOL    HW222533   0.679   2.103   3.920 -2.8493 -2.1901  0.1464
 3634SOL     OW22534   4.540   1.438   4.967  0.1146 -0.7417 -0.6459
 3634SOL    HW122535   4.526   1.456   4.874 -1.7353  1.2938  0.0267
 3634SOL    HW222536   4.608   1.506   4.971 -1.1462  0.4595  0.2202
 3635SOL     OW22537   1.133   1.042  15.105  0.0268  0.1144 -0.6434
 3635SOL    HW122538   1.223   1.075  15.102  0.8837 -2.2020 -0.0819
 3635SOL    HW222539   1.118   1.025  15.198 -1.8747  0.6767 -0.8431
 3636SOL     OW22540   1.275   4.057  10.954  0.4709  0.2837  0.1209
 3636SOL    HW122541   1.250   4.011  11.035 -2.3009 -2.7654 -2.4810
 3636SOL    HW222542   1.319   4.133  10.992 -1.8660  2.4748 -1.5512
 3637SOL     OW22543   0.817   1.869   7.574 -0.2839 -0.3066 -0.0549
 3637SOL    HW122544   0.836   1.911   7.658 -0.9308 -0.0322 -0.0507
 3637SOL    HW222545   0.793   1.780   7.600 -0.8219  0.0215  0.5734
 3638SOL     OW22546   0.622   1.084   9.668 -0.0990 -0.0030  0.2378
 3638SOL    HW122547   0.584   1.117   9.587  0.2202 -0.0868  0.0552
 3638SOL    HW222548   0.686   1.154   9.681  1.1089 -0.8146 -1.4258
 3639SOL     OW22549   4.705   0.560   6.970  0.1100  0.1379 -0.5810
 3639SOL    HW122550   0.007   0.630   7.025 -0.0561 -1.6107  1.7659
 3639SOL    HW222551   0.046   0.502   6.991 -1.8336 -1.9044  0.6765
 3640SOL     OW22552   2.890   1.144  16.884  0.3692 -0.0857 -0.1689
 3640SOL    HW122553   2.949   1.123  16.811  0.8202 -2.8888  0.9795
 3640SOL    HW222554   2.886   1.236  16.859  2.8631  0.8239  2.6447
 3641SOL     OW22555   0.879   2.310  10.600 -0.3398 -0.2080 -0.0489
 3641SOL    HW122556   0.802   2.320  10.544 -0.8114  2.1599  1.0152
 3641SOL    HW222557   0.923   2.228  10.577 -1.3276 -1.3533  2.2181
 3642SOL     OW22558   2.584   1.687  15.027 -0.8959 -0.2096  0.3495
 3642SOL    HW122559   2.560   1.643  15.109 -0.3201 -2.0625 -0.4699
 3642SOL    HW222560   2.585   1.608  14.972  0.8389  0.5885 -0.7564
 3643SOL     OW22561   1.015   1.933   6.160 -0.2918  0.5283 -0.3027
 3643SOL    HW122562   1.027   1.838   6.159  1.6229  0.7489  1.4425
 3643SOL    HW222563   1.085   1.960   6.220 -0.4527  2.4514 -1.0006
 3644SOL     OW22564   4.413   4.178  16.832  0.0309  0.4847 -0.0166
 3644SOL    HW122565   4.485   4.164  16.771 -1.5028 -0.9471 -1.5153
 3644SOL    HW222566   4.362   4.246  16.787 -2.1768 -1.4164 -0.4172
 3645SOL     OW22567   1.096   2.396   9.566  0.0402  0.4005 -0.2684
 3645SOL    HW122568   1.021   2.338   9.580 -0.3438  0.7380 -0.9390
 3645SOL    HW222569   1.164   2.331   9.548  0.4477  0.6945  0.2023
 3646SOL     OW22570   0.045   3.215   3.524 -0.0466 -0.4859  0.0642
 3646SOL    HW122571   0.055   3.289   3.584 -1.1513  0.2570 -0.6973
 3646SOL    HW222572   0.017   3.259   3.444  1.2372 -0.9740 -0.6623
 3647SOL     OW22573   2.709   0.116  16.051 -0.0270 -0.4729  0.1351
 3647SOL    HW122574   2.649   0.041  16.054 -1.0291  0.3519  0.8126
 3647SOL    HW222575   2.783   0.087  16.104 -0.5715 -1.2152  0.4909
 3648SOL     OW22576   1.108   3.947  16.518 -0.3928 -0.2327 -0.0464
 3648SOL    HW122577   1.135   3.985  16.601 -1.4252  0.0080  0.1817
 3648SOL    HW222578   1.060   3.866  16.537 -0.5769 -0.4051 -1.2061
 3649SOL     OW22579   4.187   4.233   7.691 -0.4141 -0.1583  0.0277
 3649SOL    HW122580   4.118   4.299   7.685  0.7152  1.2684  2.3516
 3649SOL    HW222581   4.168   4.187   7.773 -0.8006  1.1636  0.6939
 3650SOL     OW22582   2.273   2.640   2.170 -0.0733  0.2528 -0.0149
 3650SOL    HW122583   2.186   2.670   2.145 -0.4563  0.6963  1.8032
 3650SOL    HW222584   2.274   2.630   2.266 -0.8608 -1.8557 -0.2241
 3651SOL     OW22585   0.738   2.507   7.973  0.1591 -0.3218 -0.6921
 3651SOL    HW122586   0.816   2.554   8.003 -0.0942 -0.8461  0.7472
 3651SOL    HW222587   0.674   2.545   8.032  0.1589  0.5273 -1.2336
 3652SOL     OW22588   2.872   2.735   4.702  0.5571 -0.6899  0.6380
 3652SOL    HW122589   2.851   2.661   4.758 -1.8849 -0.8643 -0.5150
 3652SOL    HW222590   2.967   2.739   4.711  0.7408  0.0975 -1.5206
 3653SOL     OW22591   1.153   4.045  14.735  0.1266  0.1990 -0.5565
 3653SOL    HW122592   1.158   4.140  14.749 -0.1632  0.2996 -1.1407
 3653SOL    HW222593   1.240   4.020  14.767 -0.8173 -0.9172  1.1392
 3654SOL     OW22594   1.200   0.806   1.339  0.7260 -0.0993 -0.0404
 3654SOL    HW122595   1.141   0.827   1.267 -0.0366 -2.0211  0.0213
 3654SOL    HW222596   1.167   0.719   1.360 -0.1544  0.2462 -0.0173
 3655SOL     OW22597   2.589   4.131  11.847  0.5443  0.2247  0.3088
 3655SOL    HW122598   2.500   4.138  11.883  0.3303  1.9557 -0.5391
 3655SOL    HW222599   2.612   4.224  11.843  2.0988 -0.1006  1.7181
 3656SOL     OW22600   1.512   2.144   7.705 -0.2549 -0.1490 -0.5815
 3656SOL    HW122601   1.563   2.215   7.743 -3.5105  0.0128  3.4052
 3656SOL    HW222602   1.565   2.087   7.648  2.3745 -1.1308  2.8651
 3657SOL     OW22603   1.901   1.756   3.414 -0.1252 -0.3599 -0.1066
 3657SOL    HW122604   1.856   1.829   3.455  0.1233 -0.2379 -0.0524
 3657SOL    HW222605   1.991   1.785   3.429 -1.4891  3.3948  0.8169
 3658SOL     OW22606   3.470   4.502   1.580 -0.4233 -0.0082 -0.0266
 3658SOL    HW122607   3.559   4.505   1.546 -0.4802 -1.9941 -0.3201
 3658SOL    HW222608   3.439   4.416   1.550  2.5329 -0.9999 -0.1717
 3659SOL     OW22609   0.486   2.751   9.209  0.1637  0.1236  0.2934
 3659SOL    HW122610   0.568   2.772   9.164  0.4183 -0.1655  0.6173
 3659SOL    HW222611   0.460   2.841   9.229 -0.2023  0.7613 -3.1151
 3660SOL     OW22612   1.367   3.085   0.808  0.4390  0.6965  0.2332
 3660SOL    HW122613   1.373   3.095   0.713 -3.2377 -0.0049 -0.0620
 3660SOL    HW222614   1.338   3.174   0.828 -3.3023 -0.7801  1.3513
 3661SOL     OW22615   3.662   3.684   7.206  0.1627  0.0275 -0.1077
 3661SOL    HW122616   3.595   3.747   7.232  1.2185  0.2382  2.0918
 3661SOL    HW222617   3.615   3.623   7.150  1.2222  0.3210 -1.3269
 3662SOL     OW22618   1.333   3.354   4.658  0.4461  0.0129  0.2823
 3662SOL    HW122619   1.411   3.301   4.643  0.2213 -0.1355 -0.3442
 3662SOL    HW222620   1.351   3.417   4.589  0.6140  0.3067  0.5997
 3663SOL     OW22621   4.194   1.799   5.444  0.2462  0.0548  0.1998
 3663SOL    HW122622   4.157   1.730   5.389 -2.1201  0.7245  0.9933
 3663SOL    HW222623   4.229   1.857   5.376 -0.6263 -0.2620 -0.5185
 3664SOL     OW22624   1.735   3.684   7.734  0.2876 -0.5577  0.4368
 3664SOL    HW122625   1.804   3.659   7.672 -0.7466 -0.2495 -0.8219
 3664SOL    HW222626   1.787   3.702   7.813  0.5550 -0.7076  0.2961
 3665SOL     OW22627   4.550   3.147  17.327  0.0597  0.3326 -0.2126
 3665SOL    HW122628   4.630   3.173  17.372  2.2781 -4.3370 -1.5229
 3665SOL    HW222629   4.477   3.180  17.380  1.0656  2.1863  0.0244
 3666SOL     OW22630   4.315   2.479  14.760 -0.3723 -0.2695  0.5422
 3666SOL    HW122631   4.351   2.430  14.687 -0.3131 -0.0730  0.4389
 3666SOL    HW222632   4.288   2.563  14.722 -0.8875 -0.9821 -0.6597
 3667SOL     OW22633   1.561   1.861   9.398  0.5443 -0.2454  0.0499
 3667SOL    HW122634   1.510   1.908   9.465 -0.3242  1.1498 -1.5950
 3667SOL    HW222635   1.603   1.793   9.451  0.3202 -1.0829 -0.8545
 3668SOL     OW22636   2.675   1.845   5.968  0.0408  0.0615 -0.3774
 3668SOL    HW122637   2.688   1.890   5.885 -0.1331 -0.4979 -0.7128
 3668SOL    HW222638   2.631   1.915   6.016  2.0785  1.2433 -0.2688
 3669SOL     OW22639   1.345   0.796   6.192 -0.1809 -0.1593  0.0444
 3669SOL    HW122640   1.271   0.736   6.203  0.2309 -0.6651  0.0546
 3669SOL    HW222641   1.336   0.851   6.270 -0.4718  0.5998 -0.5192
 3670SOL     OW22642   1.857   4.704   4.017  0.1598 -0.0126  0.2317
 3670SOL    HW122643   1.763   4.684   4.019  0.2203 -0.1355  1.9811
 3670SOL    HW222644   1.850   0.056   4.060 -0.2913  1.1978 -2.2563
 3671SOL     OW22645   4.062   4.647  15.134 -0.3043  0.3022  0.1015
 3671SOL    HW122646   3.981   4.658  15.085  0.5866 -1.8396 -1.8739
 3671SOL    HW222647   4.061   4.553  15.151  2.4573  0.4374  1.0006
 3672SOL     OW22648   1.919   4.629   7.072  0.1714 -0.0141 -0.2741
 3672SOL    HW122649   1.857   4.559   7.091  0.2217  0.3215  1.0690
 3672SOL    HW222650   1.860   4.677   7.013  0.7698  3.3724  1.8854
 3673SOL     OW22651   3.713   2.705   6.383  0.1144  0.6185 -0.6113
 3673SOL    HW122652   3.712   2.709   6.479 -1.1125  0.0717 -0.5916
 3673SOL    HW222653   3.794   2.752   6.363  0.8023  0.8755  2.8070
 3674SOL     OW22654   3.619   3.191   3.495  0.1486  0.2070  0.1243
 3674SOL    HW122655   3.529   3.197   3.462  0.2774 -4.6082 -1.0805
 3674SOL    HW222656   3.664   3.168   3.414 -1.1981  2.7023 -1.3021
 3675SOL     OW22657   0.268   4.298   5.289 -0.7403  0.3220  0.3891
 3675SOL    HW122658   0.250   4.255   5.373  0.0007 -0.7104  0.0238
 3675SOL    HW222659   0.358   4.324   5.306 -0.6061  0.8140 -1.0650
 3676SOL     OW22660   3.238   1.089   5.563  0.4009 -0.2131  0.6649
 3676SOL    HW122661   3.278   1.170   5.594  1.1718 -0.7913  1.2111
 3676SOL    HW222662   3.148   1.120   5.572  0.0397 -0.8026 -0.8476
 3677SOL     OW22663   3.962   3.143   2.703 -0.1378 -0.2320  0.0380
 3677SOL    HW122664   3.870   3.155   2.680 -0.2202  0.0328  0.5042
 3677SOL    HW222665   4.010   3.118   2.624 -1.3671 -0.1493 -0.7324
 3678SOL     OW22666   4.164   2.302   3.337  0.1013  0.4623  0.4087
 3678SOL    HW122667   4.123   2.317   3.252  2.3315  0.1678 -0.7238
 3678SOL    HW222668   4.085   2.304   3.390  0.2726 -0.7202  0.7059
 3679SOL     OW22669   2.528   0.945   3.284 -0.5901  1.1575  0.2488
 3679SOL    HW122670   2.568   1.023   3.324 -0.0360  1.5981 -1.1649
 3679SOL    HW222671   2.558   0.968   3.196  0.6894  1.3587  0.7376
 3680SOL     OW22672   2.063   3.611   7.596 -0.2614  0.1926 -0.7698
 3680SOL    HW122673   2.017   3.559   7.530  0.2635 -0.3205 -0.7305
 3680SOL    HW222674   2.058   3.698   7.557  0.8519  0.1099 -1.0824
 3681SOL     OW22675   0.014   3.438  13.322 -0.2416  0.3979  0.4415
 3681SOL    HW122676   0.038   3.518  13.368  1.0690 -1.0252  2.2042
 3681SOL    HW222677   0.019   3.459  13.228  0.4982  2.2420  0.8923
 3682SOL     OW22678   2.773   3.581  12.917 -0.1860  0.2635 -0.4639
 3682SOL    HW122679   2.814   3.665  12.938  1.5072 -1.0455  1.5785
 3682SOL    HW222680   2.684   3.597  12.888 -0.3160 -0.9206 -0.7109
 3683SOL     OW22681   0.725   2.500  13.970  0.2698  0.0695 -0.2290
 3683SOL    HW122682   0.656   2.530  14.030 -0.8731  0.2543 -1.6481
 3683SOL    HW222683   0.809   2.505  14.015  1.3646  0.6420 -2.3830
 3684SOL     OW22684   3.329   2.119  14.474  0.4086 -0.2943  0.3556
 3684SOL    HW122685   3.396   2.051  14.474 -1.6126 -2.3114  0.5989
 3684SOL    HW222686   3.348   2.159  14.559  2.9139 -1.1912  0.2192
 3685SOL     OW22687   0.829   2.648  11.076  0.3520 -0.7814  0.1167
 3685SOL    HW122688   0.793   2.575  11.026  1.9017 -0.4809 -1.4395
 3685SOL    HW222689   0.856   2.704  11.003  1.9036 -0.2620  1.0682
 3686SOL     OW22690   1.628   4.678   8.181 -0.2257  0.0248  0.5858
 3686SOL    HW122691   1.557   4.615   8.170 -0.8650  0.5441  1.7068
 3686SOL    HW222692   1.582   0.026   8.204 -3.1305 -1.5662  0.2368
 3687SOL     OW22693   4.637   2.583  10.517  0.0843 -0.5804  0.8918
 3687SOL    HW122694   4.660   2.675  10.513  3.3875 -1.4596 -0.1271
 3687SOL    HW222695   4.620   2.575  10.423  1.1929  0.3477  0.6154
 3688SOL     OW22696   4.241   1.010   6.047  0.1710 -0.0527  0.1870
 3688SOL    HW122697   4.245   1.076   5.978  0.4154  0.5162  0.7461
 3688SOL    HW222698   4.255   0.941   5.983 -1.9816  0.5681 -0.9551
 3689SOL     OW22699   2.711   0.433   8.104 -0.1796  0.7060 -0.1741
 3689SOL    HW122700   2.743   0.346   8.130 -0.5439  0.5390 -0.2813
 3689SOL    HW222701   2.714   0.468   8.194  0.0414 -1.9213  0.8484
 3690SOL     OW22702   0.047   3.882   8.848  0.3338 -0.0784 -0.4386
 3690SOL    HW122703   4.697   3.931   8.850  0.9710  1.0092 -1.6341
 3690SOL    HW222704   0.059   3.891   8.754 -0.2968  0.5879 -0.4540
 3691SOL     OW22705   3.230   2.586  11.479 -0.0595 -0.0591  0.6837
 3691SOL    HW122706   3.271   2.505  11.448  0.0329 -0.3186  1.4746
 3691SOL    HW222707   3.195   2.622  11.398  2.1307 -0.2685 -0.3580
 3692SOL     OW22708   2.197   0.929   8.599 -0.0620  0.4178  0.3781
 3692SOL    HW122709   2.233   0.896   8.681  2.1657 -1.3422 -1.3200
 3692SOL    HW222710   2.103   0.936   8.617 -0.3350  0.3254 -1.0356
 3693SOL     OW22711   0.036   3.382  13.900 -0.4749  0.1152 -0.2282
 3693SOL    HW122712   0.051   3.378  13.995  2.2035 -1.7753 -0.7307
 3693SOL    HW222713   4.674   3.374  13.902 -0.4945  0.4735  0.2463
 3694SOL     OW22714   1.651   0.183  17.611  0.5099 -0.1684 -0.4170
 3694SOL    HW122715   1.573   0.130  17.597  0.6113 -0.9251  1.9241
 3694SOL    HW222716   1.662   0.219  17.522  0.1548  1.7214  0.3013
 3695SOL     OW22717   0.470   4.309   7.483 -0.1433  0.4200 -0.7229
 3695SOL    HW122718   0.496   4.220   7.506 -0.7473 -0.0011 -1.6531
 3695SOL    HW222719   0.391   4.319   7.536 -0.9841 -1.5586 -1.5689
 3696SOL     OW22720   0.161   2.941  15.373  0.2738  0.0220 -0.1845
 3696SOL    HW122721   0.199   3.001  15.309 -2.7507 -1.7315 -3.6265
 3696SOL    HW222722   0.159   2.993  15.453 -1.8850 -1.4377  0.7128
 3697SOL     OW22723   2.300   0.180  17.562 -0.4111  0.4748 -0.4343
 3697SOL    HW122724   2.211   0.208  17.543 -1.5045 -1.9744  1.0168
 3697SOL    HW222725   2.288   0.090  17.532  0.0028  1.0859 -2.4193
 3698SOL     OW22726   0.178   2.485   1.819  0.3414 -0.6125 -0.1853
 3698SOL    HW122727   0.235   2.445   1.753 -0.0626 -0.1267 -0.8271
 3698SOL    HW222728   0.217   2.573   1.820  2.5778 -1.5311 -2.9811
 3699SOL     OW22729   3.101   1.992   3.282  0.8020 -0.4061  1.0166
 3699SOL    HW122730   3.109   2.003   3.376  1.1163 -2.4256  1.2314
 3699SOL    HW222731   3.191   2.014   3.258  0.0953  1.3430 -0.0995
 3700SOL     OW22732   3.019   4.129  12.086  0.3024  0.2550  0.6002
 3700SOL    HW122733   2.933   4.135  12.126  0.5744  0.2956  1.1846
 3700SOL    HW222734   3.044   4.037  12.095 -0.6965 -0.0104  0.6624
 3701SOL     OW22735   3.480   1.302   7.672  0.4850  0.0812 -0.5865
 3701SOL    HW122736   3.567   1.284   7.710 -0.5629  2.3317  2.8772
 3701SOL    HW222737   3.470   1.224   7.618 -3.0472 -0.6032  1.0890
 3702SOL     OW22738   1.948   2.833   7.674  0.4231 -0.0454 -0.2205
 3702SOL    HW122739   1.952   2.926   7.695  3.5250 -0.5840  1.6630
 3702SOL    HW222740   1.892   2.799   7.744 -0.0333  1.3014  0.0598
 3703SOL     OW22741   2.507   0.988   0.763 -0.3359  0.2540 -0.2134
 3703SOL    HW122742   2.564   0.926   0.807 -0.7601 -0.6607 -0.9441
 3703SOL    HW222743   2.451   0.928   0.714  1.2786 -0.2542 -1.4241
 3704SOL     OW22744   4.234   0.729   2.387 -0.4786  0.3592  0.4977
 3704SOL    HW122745   4.194   0.645   2.409 -0.3367 -0.2013 -1.3720
 3704SOL    HW222746   4.308   0.702   2.332  0.5740  0.2379  1.9679
 3705SOL     OW22747   0.343   4.280   2.835 -0.2688  0.5747 -0.3645
 3705SOL    HW122748   0.417   4.320   2.880  0.6196  1.6333 -2.7637
 3705SOL    HW222749   0.314   4.213   2.897  1.8100  0.9960  1.0874
 3706SOL     OW22750   1.466   1.281  11.846  0.4111  0.1067 -0.6657
 3706SOL    HW122751   1.451   1.296  11.939 -0.8815  0.7353 -0.9683
 3706SOL    HW222752   1.545   1.329  11.825  0.8332  0.0275  0.7549
 3707SOL     OW22753   2.699   0.175   1.225  0.0211  0.0537 -0.2636
 3707SOL    HW122754   2.659   0.252   1.184  2.1819  1.7071  0.6912
 3707SOL    HW222755   2.757   0.217   1.290 -1.2544  0.8518  0.3500
 3708SOL     OW22756   0.128   3.948  12.966 -0.2489 -0.1292 -0.2359
 3708SOL    HW122757   0.133   3.899  12.884  1.1801  1.3682 -1.0421
 3708SOL    HW222758   0.216   3.945  13.002  0.5454  1.9013 -1.9846
 3709SOL     OW22759   1.240   3.408   2.965 -0.0318 -0.2108  0.4020
 3709SOL    HW122760   1.204   3.496   2.965 -1.3651 -0.7857 -3.6447
 3709SOL    HW222761   1.274   3.393   2.877 -2.1213  0.3923 -0.5102
 3710SOL     OW22762   3.560   1.028  11.623 -0.0114 -0.5811 -0.3506
 3710SOL    HW122763   3.508   1.094  11.578  0.6935  1.2933  1.5845
 3710SOL    HW222764   3.648   1.055  11.597 -0.2380 -1.8040 -2.3500
 3711SOL     OW22765   2.435   1.245   9.523  0.1239 -0.5477  0.9966
 3711SOL    HW122766   2.502   1.289   9.470 -0.0079  0.4588  1.6691
 3711SOL    HW222767   2.499   1.195   9.573 -0.6115 -2.3851  0.1173
 3712SOL     OW22768   0.133   1.278   7.450  0.4808  0.3811 -0.0795
 3712SOL    HW122769   0.118   1.324   7.532  0.5548 -0.3385  0.3448
 3712SOL    HW222770   0.080   1.341   7.401 -0.7196 -0.3498  0.2852
 3713SOL     OW22771   2.133   4.285  14.264 -0.7764  0.1454  0.0567
 3713SOL    HW122772   2.056   4.342  14.266 -0.5349  0.4329  1.3561
 3713SOL    HW222773   2.103   4.219  14.326 -0.4269  1.8993  2.0934
 3714SOL     OW22774   3.837   3.658   5.128 -0.1493 -0.4862 -0.1854
 3714SOL    HW122775   3.776   3.594   5.164  0.0276 -0.4602  0.1632
 3714SOL    HW222776   3.907   3.593   5.127  0.7905  0.5123  0.4911
 3715SOL     OW22777   3.239   0.220   7.272  0.2875  0.5921 -0.2229
 3715SOL    HW122778   3.205   0.296   7.225 -1.5488 -0.5654 -0.7928
 3715SOL    HW222779   3.321   0.252   7.310  0.1161 -1.3918  1.8478
 3716SOL     OW22780   1.201   1.353   8.552 -0.2480  0.0967  0.0929
 3716SOL    HW122781   1.252   1.425   8.515  2.9010 -2.9084 -1.4094
 3716SOL    HW222782   1.255   1.338   8.630  0.5478  0.9865 -0.2919
 3717SOL     OW22783   2.256   1.117   6.268  0.1802 -0.5331 -0.6422
 3717SOL    HW122784   2.239   1.074   6.352 -0.8880  0.8537 -0.1445
 3717SOL    HW222785   2.187   1.073   6.218 -0.5973  1.1196 -1.0039
 3718SOL     OW22786   1.092   2.248   4.720  0.5031  0.5314 -0.2619
 3718SOL    HW122787   1.129   2.206   4.643 -1.6191  0.4815 -1.2594
 3718SOL    HW222788   1.081   2.340   4.696 -1.4185  0.7212  1.3394
 3719SOL     OW22789   1.304   3.188  14.685 -0.7511  0.2613  0.1941
 3719SOL    HW122790   1.320   3.103  14.726 -0.0520  0.6172  0.6614
 3719SOL    HW222791   1.319   3.244  14.761 -0.2927  1.0092 -0.4442
 3720SOL     OW22792   1.664   2.840   4.959  0.7842 -0.0228  0.3004
 3720SOL    HW122793   1.677   2.840   5.054  2.9564  1.8454 -0.0235
 3720SOL    HW222794   1.664   2.933   4.937 -0.5645 -0.5146 -1.8100
 3721SOL     OW22795   2.184   2.544   5.098 -0.0412  0.3503 -0.3020
 3721SOL    HW122796   2.279   2.551   5.102 -0.1149 -1.1887  3.5063
 3721SOL    HW222797   2.153   2.593   5.174  0.5141  1.9046 -1.0637
 3722SOL     OW22798   1.971   3.651  16.655 -0.3436  0.1725 -0.6374
 3722SOL    HW122799   1.978   3.710  16.730 -1.2579 -1.3665  0.6680
 3722SOL    HW222800   2.048   3.679  16.605 -0.9071  0.5504 -1.3016
 3723SOL     OW22801   3.027   1.553   8.281  0.1808  0.1601  0.2054
 3723SOL    HW122802   3.032   1.501   8.201  0.7532  2.1587 -1.0618
 3723SOL    HW222803   3.069   1.501   8.349 -0.5717 -0.2611  0.3427
 3724SOL     OW22804   1.962   4.254   3.660 -0.2055 -0.1708 -0.2531
 3724SOL    HW122805   1.926   4.339   3.685 -0.4466 -0.1441 -0.6882
 3724SOL    HW222806   2.012   4.231   3.738  0.5784  1.2914 -0.3263
 3725SOL     OW22807   2.483   0.724   8.248 -0.7469  0.0684  0.1695
 3725SOL    HW122808   2.407   0.778   8.223 -0.9459  0.4317  1.4987
 3725SOL    HW222809   2.456   0.660   8.314 -1.8932 -0.6099 -0.9656
 3726SOL     OW22810   0.965   3.096   3.735  0.1019  0.0993 -0.2067
 3726SOL    HW122811   0.909   3.051   3.798  1.8904 -1.3592  0.3455
 3726SOL    HW222812   0.895   3.148   3.695  1.4611  1.5159 -0.7391
 3727SOL     OW22813   3.121   1.828  12.738 -0.2289 -0.3706  0.4315
 3727SOL    HW122814   3.217   1.831  12.740 -0.3473  3.3735  1.0230
 3727SOL    HW222815   3.109   1.834  12.643 -0.7591 -0.9189  0.4628
 3728SOL     OW22816   4.026   2.201  17.038 -0.7008  0.0035  0.3092
 3728SOL    HW122817   3.932   2.188  17.032 -0.6640  0.6897 -1.5025
 3728SOL    HW222818   4.048   2.138  16.969 -3.4008 -1.1645  0.5299
 3729SOL     OW22819   3.620   0.954   5.579  0.3825 -0.1318 -0.4992
 3729SOL    HW122820   3.532   0.922   5.600  1.0080 -0.8437  1.0489
 3729SOL    HW222821   3.631   1.009   5.657 -0.9376 -0.6781  0.0809
 3730SOL     OW22822   1.940   2.069  13.524 -0.1110  0.1366 -0.1564
 3730SOL    HW122823   1.880   2.069  13.450  0.2178  0.2881 -0.4191
 3730SOL    HW222824   1.877   2.077  13.596 -1.8798 -0.8989 -1.5939
 3731SOL     OW22825   1.389   2.482   8.585  0.2323 -0.1744  0.3579
 3731SOL    HW122826   1.445   2.552   8.620 -0.5289  1.3584 -1.4376
 3731SOL    HW222827   1.440   2.431   8.522  0.3925  1.0454 -0.5183
 3732SOL     OW22828   4.034   0.800   3.954 -0.1657  0.3642  0.5324
 3732SOL    HW122829   3.939   0.794   3.949  0.0598  0.3758 -3.4895
 3732SOL    HW222830   4.062   0.798   3.863 -2.0900  2.9798 -0.1253
 3733SOL     OW22831   3.930   4.264   8.023  0.3700 -0.0103 -0.0783
 3733SOL    HW122832   3.989   4.196   7.990 -0.6367 -1.0225  0.1827
 3733SOL    HW222833   3.854   4.216   8.058 -0.3751  0.2714 -1.3196
 3734SOL     OW22834   4.083   0.334   6.573  0.6251 -0.2250  0.4610
 3734SOL    HW122835   4.053   0.416   6.533  3.2205  1.0193  1.0709
 3734SOL    HW222836   4.011   0.273   6.555 -1.8786  2.1472  2.3924
 3735SOL     OW22837   1.744   1.511   3.959  0.0786  0.0933  0.0543
 3735SOL    HW122838   1.820   1.453   3.967  0.5831  0.6031 -0.8797
 3735SOL    HW222839   1.783   1.565   3.890 -1.8814  1.9114  0.3792
 3736SOL     OW22840   4.363   4.701   8.124  0.0395 -0.1582 -0.7912
 3736SOL    HW122841   4.311   0.047   8.139 -1.8315 -1.2831 -1.4643
 3736SOL    HW222842   4.387   4.682   8.214 -0.1379 -1.5016 -1.0258
 3737SOL     OW22843   2.074   1.544  16.826 -0.0193  0.0887 -0.0512
 3737SOL    HW122844   2.044   1.635  16.824 -0.1439  0.0518  0.0992
 3737SOL    HW222845   2.048   1.514  16.914  1.2960 -1.0223 -0.0471
 3738SOL     OW22846   2.941   3.859  13.376 -0.2370  0.3879 -0.1528
 3738SOL    HW122847   2.967   3.827  13.462  0.7118  1.8253  0.0926
 3738SOL    HW222848   2.903   3.943  13.400 -0.7183  0.3567 -0.8043
 3739SOL     OW22849   0.908   2.792  10.849  0.2476  0.1302  0.3908
 3739SOL    HW122850   0.928   2.732  10.776 -0.6081 -1.3602  1.3956
 3739SOL    HW222851   0.997   2.821  10.872  0.5121 -0.7331  0.4409
 3740SOL     OW22852   0.976   1.563   7.891  0.0069  0.0857  0.0199
 3740SOL    HW122853   0.974   1.524   7.804  0.3183  2.9200 -1.2625
 3740SOL    HW222854   0.920   1.502   7.939  0.7870 -1.7587 -1.4380
 3741SOL     OW22855   1.614   1.057   8.022  0.6601 -0.0371 -0.6090
 3741SOL    HW122856   1.557   1.047   7.946 -2.6447 -2.2678  2.1419
 3741SOL    HW222857   1.579   0.991   8.082  2.0711  0.3739  0.6726
 3742SOL     OW22858   1.205   2.250   9.991  0.2448  0.0445 -0.1359
 3742SOL    HW122859   1.210   2.283  10.081  1.3551 -1.4736  0.3587
 3742SOL    HW222860   1.219   2.329   9.938  1.6963 -0.3284 -0.3097
 3743SOL     OW22861   3.111   0.737   5.648 -0.0426 -0.5722 -0.1133
 3743SOL    HW122862   3.034   0.716   5.595 -0.9711  1.0576  0.5646
 3743SOL    HW222863   3.089   0.682   5.724 -2.0224 -0.4966 -0.6159
 3744SOL     OW22864   4.351   4.659  13.410 -0.3904  0.1351 -0.3746
 3744SOL    HW122865   4.424   4.668  13.350 -1.7169 -0.7209 -2.1247
 3744SOL    HW222866   4.298   4.593  13.365 -0.0509  1.0411 -2.0876
 3745SOL     OW22867   4.045   1.003   7.082 -0.0198 -0.6353  0.2081
 3745SOL    HW122868   3.980   0.993   7.152  0.8366 -1.5206  0.8777
 3745SOL    HW222869   4.050   0.911   7.054 -0.5289 -0.5746 -0.0998
 3746SOL     OW22870   0.193   3.270   2.267  0.2745 -0.0582  0.3216
 3746SOL    HW122871   0.216   3.291   2.176  3.4770 -5.1784 -0.0944
 3746SOL    HW222872   0.268   3.217   2.295 -0.5515 -1.5287 -0.2682
 3747SOL     OW22873   0.416   1.495   7.423  0.2316  0.1803  0.1619
 3747SOL    HW122874   0.392   1.573   7.472  0.9446 -0.2416  1.1690
 3747SOL    HW222875   0.326   1.460   7.422  0.3593 -0.2386  3.4269
 3748SOL     OW22876   0.159   3.118  10.061  0.1239  0.0366 -0.5648
 3748SOL    HW122877   0.177   3.055   9.991  1.9185 -0.6263  0.5063
 3748SOL    HW222878   0.071   3.089  10.085  0.2612 -1.1634 -1.5216
 3749SOL     OW22879   0.835   0.998  14.366  0.0913 -0.1124 -0.2610
 3749SOL    HW122880   0.789   0.929  14.318 -0.3168 -0.3323  0.4423
 3749SOL    HW222881   0.813   1.071  14.309 -1.0825  1.4666  2.2201
 3750SOL     OW22882   3.331   0.860  13.231 -0.2134  0.0209  0.0742
 3750SOL    HW122883   3.400   0.798  13.253 -1.0452 -0.5538  1.1166
 3750SOL    HW222884   3.262   0.814  13.280 -1.5066  2.2600  0.3663
 3751SOL     OW22885   3.120   2.207   7.039  0.0875 -0.4030 -0.9684
 3751SOL    HW122886   3.160   2.121   7.053  0.7231  0.1960  0.9432
 3751SOL    HW222887   3.057   2.217   7.111  1.2011 -0.6159  0.0323
 3752SOL     OW22888   1.979   1.873   8.143  0.7743  0.3253 -0.1717
 3752SOL    HW122889   2.049   1.932   8.113  0.6560  0.1584 -0.7700
 3752SOL    HW222890   1.986   1.790   8.095 -1.6799  0.9497 -1.5870
 3753SOL     OW22891   4.428   0.886   8.421 -0.2449 -0.3792  0.3896
 3753SOL    HW122892   4.454   0.887   8.329 -0.3679 -0.8416  0.3527
 3753SOL    HW222893   4.400   0.977   8.432  1.6797  0.4350 -1.4402
 3754SOL     OW22894   0.231   3.550  12.885 -0.2728 -0.0275  0.0132
 3754SOL    HW122895   0.324   3.544  12.905 -0.6727 -2.4946  1.1819
 3754SOL    HW222896   0.228   3.645  12.873 -0.6065 -0.3387 -2.3589
 3755SOL     OW22897   4.095   3.550   2.906  0.1068  0.2199  0.9209
 3755SOL    HW122898   4.045   3.528   2.827  1.6166 -0.9115  0.2624
 3755SOL    HW222899   4.035   3.593   2.966  0.5707  2.4589 -0.2234
 3756SOL     OW22900   1.556   3.670   4.333  0.2719  0.4122 -0.0494
 3756SOL    HW122901   1.647   3.672   4.362  0.4476 -2.2796 -0.4216
 3756SOL    HW222902   1.574   3.682   4.239 -0.9831  0.8671 -0.2425
 3757SOL     OW22903   4.239   3.769   6.620  0.0697  0.2320  0.0779
 3757SOL    HW122904   4.301   3.763   6.547 -2.0253 -0.9763 -1.5846
 3757SOL    HW222905   4.213   3.677   6.625 -0.4545  0.4415  1.2393
 3758SOL     OW22906   1.991   3.885  15.592 -0.5480  0.0811  0.1400
 3758SOL    HW122907   1.908   3.924  15.564  0.0815  0.7289 -0.8261
 3758SOL    HW222908   2.058   3.913  15.530 -0.4033  0.5191  0.4904
 3759SOL     OW22909   2.187   3.946   7.973  0.4364  0.1194  0.7327
 3759SOL    HW122910   2.092   3.953   7.984  0.4642  1.9436 -0.0620
 3759SOL    HW222911   2.210   4.012   8.038 -1.6913  1.0181  0.5779
 3760SOL     OW22912   0.204   0.546  11.306  0.2496 -0.0716 -0.2303
 3760SOL    HW122913   0.284   0.548  11.253 -0.4623 -1.6273 -1.3413
 3760SOL    HW222914   0.248   0.538  11.391  0.7011 -1.3134 -0.5846
 3761SOL     OW22915   4.575   2.152  11.943 -0.5697 -0.5964  0.5741
 3761SOL    HW122916   4.521   2.200  11.880 -0.4536 -0.9713  0.1854
 3761SOL    HW222917   4.594   2.223  12.004 -0.1630 -1.0525  0.9777
 3762SOL     OW22918   0.475   2.983   4.089 -0.2788  0.3764 -0.8266
 3762SOL    HW122919   0.403   3.004   4.148  0.8853 -0.1310  0.7731
 3762SOL    HW222920   0.544   2.959   4.151  1.0415  1.3350 -1.8950
 3763SOL     OW22921   1.068   3.618   4.407 -0.0830 -0.0169  0.3688
 3763SOL    HW122922   0.999   3.656   4.352  0.5784  1.4263  0.5272
 3763SOL    HW222923   1.042   3.649   4.494  1.2674 -1.2652  1.2014
 3764SOL     OW22924   3.107   4.335   2.496  0.1246 -0.2141 -0.1459
 3764SOL    HW122925   3.038   4.398   2.513  0.0867 -0.2819 -0.0459
 3764SOL    HW222926   3.128   4.287   2.576 -1.5701  0.1190  0.4960
 3765SOL     OW22927   2.908   3.820  13.111 -0.0288 -0.2446 -0.5932
 3765SOL    HW122928   2.823   3.862  13.110 -1.1350 -2.3359  3.4382
 3765SOL    HW222929   2.922   3.836  13.205 -0.9637 -2.2123 -0.1076
 3766SOL     OW22930   0.177   2.623   6.218 -0.1622 -0.1604  0.4146
 3766SOL    HW122931   0.231   2.554   6.179  0.7031  0.2655  0.8636
 3766SOL    HW222932   0.089   2.588   6.204 -0.4250  0.5910  0.2116
 3767SOL     OW22933   0.961   3.065  11.962  0.0943 -0.0148  0.3102
 3767SOL    HW122934   0.966   2.974  11.934  0.5875  0.3698 -0.8625
 3767SOL    HW222935   1.041   3.066  12.014  0.2160 -1.0252  0.1389
 3768SOL     OW22936   3.054   4.054   4.233  0.1470 -0.5910 -0.3505
 3768SOL    HW122937   2.979   4.002   4.203 -0.1189 -2.4961  3.5940
 3768SOL    HW222938   3.119   4.009   4.179  0.9651 -1.0824  1.0609
 3769SOL     OW22939   0.559   1.831   6.646 -0.1937  0.0144 -0.2580
 3769SOL    HW122940   0.530   1.875   6.727 -1.7477 -0.1978 -0.7047
 3769SOL    HW222941   0.515   1.876   6.574 -2.6320 -0.4633  0.9068
 3770SOL     OW22942   0.062   3.080   5.716  0.1692  0.7008  0.2840
 3770SOL    HW122943   0.014   3.083   5.633  0.5517 -1.5542 -0.0136
 3770SOL    HW222944   4.721   3.095   5.776  0.6935 -0.3200  1.1791
 3771SOL     OW22945   2.468   3.074   3.762  0.3068 -0.1400 -0.2687
 3771SOL    HW122946   2.438   3.155   3.802  2.4736  0.1254  0.7936
 3771SOL    HW222947   2.407   3.085   3.689 -1.7663 -0.5298  1.4061
 3772SOL     OW22948   3.430   2.557   2.016 -0.3297  0.1981  0.0235
 3772SOL    HW122949   3.334   2.557   2.016 -0.3371 -0.7131  1.9877
 3772SOL    HW222950   3.459   2.467   2.003 -0.6899 -0.1048  1.2619
 3773SOL     OW22951   1.633   1.228   5.602  0.7627 -0.3952  0.2114
 3773SOL    HW122952   1.716   1.181   5.613  0.3631 -0.8435  1.3249
 3773SOL    HW222953   1.574   1.158   5.573 -0.2742  0.0535  1.2268
 3774SOL     OW22954   2.373   3.670   9.388  0.6893  0.0304 -0.6840
 3774SOL    HW122955   2.418   3.637   9.466 -0.0148  0.0610 -0.2632
 3774SOL    HW222956   2.371   3.762   9.413 -1.6131 -0.3141  0.3927
 3775SOL     OW22957   2.324   4.078  11.606 -0.6399 -0.0980  0.1697
 3775SOL    HW122958   2.241   4.093  11.561 -0.5200 -1.2974 -0.4540
 3775SOL    HW222959   2.386   4.106  11.540 -0.4972 -0.2557  0.2381
 3776SOL     OW22960   0.921   2.418   5.976 -0.3251  0.2526 -0.2398
 3776SOL    HW122961   0.984   2.485   6.001  1.2372 -0.9239 -0.9755
 3776SOL    HW222962   0.975   2.339   5.987 -1.1921 -0.3881 -0.6108
 3777SOL     OW22963   3.619   4.730   8.524  0.1106  0.3671  0.2734
 3777SOL    HW122964   3.525   0.010   8.509  0.1399 -1.0187 -1.0629
 3777SOL    HW222965   3.651   0.036   8.443  0.2628 -2.5513 -1.0345
 3778SOL     OW22966   1.236   0.158   1.156  0.2553 -0.1998  0.1934
 3778SOL    HW122967   1.210   0.210   1.080  1.5291 -0.6684 -0.5596
 3778SOL    HW222968   1.328   0.148   1.131 -0.1615 -3.6638  0.0543
 3779SOL     OW22969   2.282   2.246   2.507  0.5414  0.6463  0.0892
 3779SOL    HW122970   2.257   2.305   2.578 -0.0535 -0.5133  0.8477
 3779SOL    HW222971   2.335   2.180   2.552  0.6673 -1.5661 -3.2883
 3780SOL     OW22972   4.075   4.406   5.374  0.1296 -0.6561  0.2243
 3780SOL    HW122973   4.100   4.342   5.441 -0.2228  0.6294  1.5686
 3780SOL    HW222974   4.046   4.476   5.432 -1.9674  0.6509 -2.4091
 3781SOL     OW22975   4.257   1.435   2.746 -0.6299 -0.1486  0.0662
 3781SOL    HW122976   4.251   1.438   2.651  0.3201  1.2122  0.0369
 3781SOL    HW222977   4.334   1.381   2.762 -0.8103 -0.4622 -0.1315
 3782SOL     OW22978   2.498   3.000   4.125 -0.1417 -0.3095 -0.3149
 3782SOL    HW122979   2.567   2.976   4.187 -0.0033 -1.5867 -0.9682
 3782SOL    HW222980   2.511   3.093   4.104  1.7535 -0.7382 -1.0103
 3783SOL     OW22981   3.001   1.587  11.372 -0.2022  0.5098  0.0213
 3783SOL    HW122982   3.082   1.629  11.401 -0.4626 -0.2444  1.8562
 3783SOL    HW222983   2.989   1.520  11.439 -0.1935 -0.6086 -1.0985
 3784SOL     OW22984   2.992   0.467   6.053  0.4275  0.0186  0.4265
 3784SOL    HW122985   3.086   0.480   6.039  0.9119 -0.3850  3.2418
 3784SOL    HW222986   2.993   0.430   6.141 -0.3762  0.8723  0.7881
 3785SOL     OW22987   4.507   1.076   6.842 -0.1153 -0.5657  0.0277
 3785SOL    HW122988   4.435   1.058   6.782  0.2908  0.6195 -0.8113
 3785SOL    HW222989   4.581   1.074   6.781  0.3109  0.1005  0.5303
 3786SOL     OW22990   2.934   4.071   2.687  0.3093  0.5104 -0.2391
 3786SOL    HW122991   3.014   4.031   2.655 -1.4253 -1.8567 -1.6123
 3786SOL    HW222992   2.973   4.148   2.728 -0.7167  0.3036  1.1424
 3787SOL     OW22993   3.703   0.208  13.269  0.3115  0.0142  0.1850
 3787SOL    HW122994   3.787   0.192  13.227 -0.0232  1.5773 -1.0583
 3787SOL    HW222995   3.699   0.159  13.351 -1.3601  0.3077  0.2848
 3788SOL     OW22996   3.145   0.083   4.359  0.7015  0.2261 -0.6323
 3788SOL    HW122997   3.181   4.730   4.335 -0.4694 -0.6154  0.6538
 3788SOL    HW222998   3.059   0.097   4.319 -0.2580 -2.4589  0.5184
 3789SOL     OW22999   3.609   4.446   2.305 -0.1844  0.0198  0.1031
 3789SOL    HW123000   3.561   4.522   2.271 -0.9799 -0.8261 -0.6709
 3789SOL    HW223001   3.667   4.499   2.360 -1.2733  1.0697  0.2272
 3790SOL     OW23002   1.027   3.922  17.562 -0.3169  0.6011  0.1349
 3790SOL    HW123003   1.016   4.011  17.594 -1.0449 -0.2317  2.2243
 3790SOL    HW223004   1.083   3.877  17.625 -0.6665 -0.2086 -0.1289
 3791SOL     OW23005   1.938   2.136   9.203 -0.2852  0.0308  0.4608
 3791SOL    HW123006   1.903   2.049   9.188  1.0141 -0.5987  1.0705
 3791SOL    HW223007   1.856   2.186   9.196 -0.5366 -0.4026  0.3091
 3792SOL     OW23008   1.289   2.563   4.781 -0.0712  0.0748 -0.2749
 3792SOL    HW123009   1.300   2.566   4.686 -0.1589  0.0709 -0.2848
 3792SOL    HW223010   1.380   2.573   4.809  0.3253  1.5854 -2.1026
 3793SOL     OW23011   4.593   4.653  16.673  0.8647  0.2430  0.1682
 3793SOL    HW123012   4.607   4.714  16.601  1.1175  0.9824  0.8499
 3793SOL    HW223013   4.679   4.637  16.711  0.4375 -0.3445  0.8751
 3794SOL     OW23014   4.413   3.910  16.769  0.2178  0.5821  0.4205
 3794SOL    HW123015   4.355   3.945  16.702 -0.3026 -0.4374  0.3266
 3794SOL    HW223016   4.429   3.985  16.826 -0.0026  0.5593  0.5139
 3795SOL     OW23017   1.727   3.498   4.660  0.7177  0.3437  0.0277
 3795SOL    HW123018   1.773   3.439   4.720 -1.4838 -0.6734  0.6988
 3795SOL    HW223019   1.696   3.569   4.716 -0.2997 -0.9586  1.1203
 3796SOL     OW23020   2.669   1.853   3.474 -0.0177 -0.0131 -0.6738
 3796SOL    HW123021   2.711   1.885   3.554  1.2892 -2.5014 -0.3448
 3796SOL    HW223022   2.712   1.901   3.403 -0.3068  0.7651 -0.3206
 3797SOL     OW23023   1.032   0.664   5.271  0.4229 -0.0180  0.1197
 3797SOL    HW123024   1.084   0.743   5.262  0.9513 -0.0933  2.4532
 3797SOL    HW223025   1.082   0.609   5.332 -0.4148 -0.7288  0.1733
 3798SOL     OW23026   3.851   2.034   1.203  0.0935  0.5685  0.5371
 3798SOL    HW123027   3.800   1.957   1.177  0.2984  0.4168  0.5893
 3798SOL    HW223028   3.794   2.110   1.188  1.3173  1.3980  0.1170
 3799SOL     OW23029   1.808   3.358   4.934  0.6346  0.1612  0.1394
 3799SOL    HW123030   1.766   3.366   5.019 -0.2105 -2.3677 -0.0353
 3799SOL    HW223031   1.882   3.418   4.939  0.8960 -0.1617  0.1220
 3800SOL     OW23032   2.513   0.859   6.295  0.8478 -0.1173 -0.2080
 3800SOL    HW123033   2.472   0.790   6.346 -0.0713  2.0976  2.0006
 3800SOL    HW223034   2.542   0.903   6.375 -2.4141  0.5331  0.6109
 3801SOL     OW23035   2.002   1.503   4.392  0.4847 -0.2332  0.5043
 3801SOL    HW123036   1.944   1.484   4.465 -2.5431 -0.2785 -1.9022
 3801SOL    HW223037   2.017   1.413   4.360 -0.8708 -0.8420  1.5742
 3802SOL     OW23038   2.792   0.997   7.072  0.3756  0.0658  0.0589
 3802SOL    HW123039   2.752   1.065   7.018  1.8252  1.6612  0.9695
 3802SOL    HW223040   2.761   0.913   7.040  0.7468 -0.7680  1.8985
 3803SOL     OW23041   2.400   1.881   6.751  0.0222  0.1346 -0.3884
 3803SOL    HW123042   2.451   1.938   6.694  0.6799  0.2355  0.2954
 3803SOL    HW223043   2.467   1.815   6.772 -1.2227  0.1227  3.4886
 3804SOL     OW23044   4.598   0.501  11.744 -0.1301  0.5193 -0.0310
 3804SOL    HW123045   4.580   0.471  11.833  0.9449 -0.2839 -0.0829
 3804SOL    HW223046   4.527   0.563  11.728  2.1599  2.5710 -2.3559
 3805SOL     OW23047   1.794   1.792   8.609 -0.3283  0.0896  0.0353
 3805SOL    HW123048   1.863   1.831   8.555 -0.7273 -1.5356 -1.6674
 3805SOL    HW223049   1.753   1.873   8.639 -0.0490  0.0142  0.6082
 3806SOL     OW23050   3.617   3.221   0.883 -0.3198  0.0097 -0.1344
 3806SOL    HW123051   3.576   3.146   0.840 -0.4028 -0.3436  0.5661
 3806SOL    HW223052   3.685   3.181   0.937  0.7119  0.6327 -0.9897
 3807SOL     OW23053   3.785   0.908   3.032  0.0105  0.1237  0.6150
 3807SOL    HW123054   3.735   0.988   3.014 -3.7072 -2.5416 -0.6649
 3807SOL    HW223055   3.744   0.894   3.118 -2.0953  1.7161 -0.1232
 3808SOL     OW23056   0.792   0.467   2.993  0.5485  0.0496 -0.5041
 3808SOL    HW123057   0.849   0.392   2.973  2.0109  0.1771  3.1689
 3808SOL    HW223058   0.840   0.537   2.950 -0.0077  0.6422 -0.1513
 3809SOL     OW23059   1.264   3.339   5.215  0.3010  0.5514 -0.1310
 3809SOL    HW123060   1.232   3.276   5.150 -1.7391 -0.5506  1.9153
 3809SOL    HW223061   1.346   3.295   5.237  0.0476  1.0091  1.7408
 3810SOL     OW23062   0.557   4.164  13.500 -0.0152  0.0515  0.7112
 3810SOL    HW123063   0.589   4.214  13.575 -1.5641  1.3861  0.4841
 3810SOL    HW223064   0.467   4.191  13.484 -0.2669 -0.6398  0.9440
 3811SOL     OW23065   2.781   2.043  12.844 -0.6137  0.2020  0.4622
 3811SOL    HW123066   2.826   2.002  12.917  1.0541 -2.3571 -1.9763
 3811SOL    HW223067   2.814   2.133  12.846 -0.5292  0.1045  2.6655
 3812SOL     OW23068   2.388   1.152   0.583 -1.1622  0.6962  0.7335
 3812SOL    HW123069   2.436   1.117   0.658  0.3353  1.4270  0.1178
 3812SOL    HW223070   2.343   1.228   0.621 -0.7770  0.2276  2.0972
 3813SOL     OW23071   1.801   3.994  15.448  0.2848  0.7012 -0.8365
 3813SOL    HW123072   1.755   4.075  15.430 -0.1706  0.9844  1.5977
 3813SOL    HW223073   1.792   3.944  15.367 -0.5948  1.9168 -1.4834
 3814SOL     OW23074   4.339   4.211   5.510  0.5807 -0.4557  0.1946
 3814SOL    HW123075   4.263   4.224   5.566  0.8726  0.6552  0.3440
 3814SOL    HW223076   4.407   4.257   5.559 -1.0096  0.8811  1.1282
 3815SOL     OW23077   1.362   3.142   7.642  0.1893  0.2679 -0.6786
 3815SOL    HW123078   1.290   3.180   7.592  0.2531  0.9815 -0.2200
 3815SOL    HW223079   1.409   3.221   7.669 -0.6001  1.7303 -3.6011
 3816SOL     OW23080   2.591   1.848  17.261 -0.1730 -0.3943  0.4134
 3816SOL    HW123081   2.619   1.931  17.301 -1.1776 -0.3235  0.9837
 3816SOL    HW223082   2.523   1.865  17.196  0.0747 -3.0793 -0.5485
 3817SOL     OW23083   3.538   3.803   4.124  0.1880 -0.0463 -0.1757
 3817SOL    HW123084   3.489   3.824   4.044  1.2122  1.9810 -0.2636
 3817SOL    HW223085   3.467   3.782   4.185  0.4268 -0.8332 -0.1703
 3818SOL     OW23086   4.446   3.712  17.249  0.7569 -0.0035  0.3794
 3818SOL    HW123087   4.456   3.741  17.339 -1.1068 -2.9388  1.5145
 3818SOL    HW223088   4.429   3.618  17.245  0.4322  0.0555  0.4259
 3819SOL     OW23089   2.230   2.719   1.781 -0.3166 -0.4031 -0.2291
 3819SOL    HW123090   2.213   2.649   1.718  1.1133  0.5619 -1.6950
 3819SOL    HW223091   2.323   2.699   1.793  0.0008  0.5965 -1.0868
 3820SOL     OW23092   2.148   1.507   2.925  0.1580 -0.1078 -0.0044
 3820SOL    HW123093   2.091   1.567   2.973  1.7014 -1.1561  3.1269
 3820SOL    HW223094   2.152   1.555   2.842 -1.4241 -1.0473 -0.6255
 3821SOL     OW23095   2.001   1.836   8.417 -0.1084  0.2089 -0.2244
 3821SOL    HW123096   1.984   1.869   8.328  0.1764  0.9283 -0.0112
 3821SOL    HW223097   2.057   1.761   8.396  0.0476  0.5578 -1.0603
 3822SOL     OW23098   3.433   2.076   6.173  0.8309  0.0355  0.0203
 3822SOL    HW123099   3.369   2.144   6.153  1.8075  0.6323 -1.0912
 3822SOL    HW223100   3.438   2.072   6.268  1.7619  1.2124  0.0268
 3823SOL     OW23101   4.154   1.845   8.238  0.3455  0.3246  0.2624
 3823SOL    HW123102   4.080   1.806   8.192  0.7096  0.1224 -0.1548
 3823SOL    HW223103   4.123   1.831   8.327 -0.5291 -0.4253 -0.1696
 3824SOL     OW23104   1.805   2.742   1.012  0.3805  0.0926  0.9210
 3824SOL    HW123105   1.782   2.801   0.940  1.0696  0.6902  1.1906
 3824SOL    HW223106   1.727   2.757   1.064 -2.2335 -0.1952 -2.9158
 3825SOL     OW23107   2.656   0.259   5.739 -0.1256  0.0098  0.2043
 3825SOL    HW123108   2.659   0.173   5.780 -1.8243 -0.0485  0.1958
 3825SOL    HW223109   2.690   0.317   5.806 -0.7071  1.6303 -0.9044
 3826SOL     OW23110   3.862   1.261   8.911 -0.6039  0.4321 -0.1818
 3826SOL    HW123111   3.830   1.180   8.871  0.4773  1.1782 -2.5049
 3826SOL    HW223112   3.797   1.266   8.982  0.2031 -1.0708  0.6488
 3827SOL     OW23113   0.075   0.545   4.754  0.0159  0.5634  0.6110
 3827SOL    HW123114   0.167   0.519   4.749 -1.0560 -2.8826 -1.4758
 3827SOL    HW223115   0.060   0.575   4.665  1.2948 -2.6150 -0.6682
 3828SOL     OW23116   3.859   3.821   5.638  0.1373  0.2786 -0.0545
 3828SOL    HW123117   3.784   3.809   5.579  0.3461  0.4929 -0.3617
 3828SOL    HW223118   3.911   3.886   5.591 -1.6996  1.1955 -0.8012
 3829SOL     OW23119   1.242   1.278   5.505 -0.3271  0.5394 -0.3915
 3829SOL    HW123120   1.154   1.310   5.526  0.4212  2.1320  0.2808
 3829SOL    HW223121   1.233   1.183   5.507 -0.2218  0.5710  1.7849
 3830SOL     OW23122   0.261   1.372  13.440 -0.4620  0.4654  0.1245
 3830SOL    HW123123   0.169   1.351  13.454 -0.3241 -0.8038 -0.9045
 3830SOL    HW223124   0.256   1.429  13.363  1.8146  0.6948  0.1371
 3831SOL     OW23125   0.828   0.930   6.962  0.5832 -0.0812 -0.0297
 3831SOL    HW123126   0.833   0.878   6.881  1.7198 -0.6841  0.4198
 3831SOL    HW223127   0.896   0.997   6.957  2.0053 -1.4496  0.8256
 3832SOL     OW23128   2.500   1.653   1.941  0.3016 -0.1277  0.3014
 3832SOL    HW123129   2.570   1.675   1.879  1.3568 -1.9040  0.8755
 3832SOL    HW223130   2.477   1.562   1.922  0.5261 -0.1702  0.2360
 3833SOL     OW23131   1.100   3.009   9.523  0.4512 -0.4125 -0.6131
 3833SOL    HW123132   1.069   3.083   9.577 -0.6682 -2.4567  1.5370
 3833SOL    HW223133   1.194   3.027   9.523  0.2304  0.7896 -0.1387
 3834SOL     OW23134   0.081   2.003   4.295 -0.1566  0.0690 -0.2200
 3834SOL    HW123135   0.074   2.097   4.312 -0.8940  0.4124 -2.3336
 3834SOL    HW223136   0.033   2.000   4.212  0.7664 -1.7066 -0.6778
 3835SOL     OW23137   0.194   3.823  15.609 -0.5135  0.0080 -0.0979
 3835SOL    HW123138   0.215   3.733  15.636  1.4012  0.7668  0.9661
 3835SOL    HW223139   0.261   3.867  15.661  0.7364 -0.5430 -1.2347
 3836SOL     OW23140   2.458   3.956   6.079  0.7419 -0.0905 -0.2811
 3836SOL    HW123141   2.498   3.999   6.004 -0.2774 -2.3270 -2.1079
 3836SOL    HW223142   2.399   4.027   6.105  0.0592  0.0510 -2.2559
 3837SOL     OW23143   4.518   4.059   8.580 -0.0654  0.1540 -0.1757
 3837SOL    HW123144   4.471   4.028   8.657 -0.2574  0.3908 -0.1971
 3837SOL    HW223145   4.445   4.061   8.518 -0.3780 -0.8753  0.1630
 3838SOL     OW23146   1.288   1.761   3.948 -0.5125 -0.0831 -0.2029
 3838SOL    HW123147   1.363   1.725   3.995 -1.4610 -2.0978 -0.2437
 3838SOL    HW223148   1.334   1.771   3.864 -3.2624  0.8617 -1.5959
 3839SOL     OW23149   1.821   3.079   8.328 -0.4760 -0.0789 -0.6340
 3839SOL    HW123150   1.737   3.056   8.366  0.6477  0.1633  1.9981
 3839SOL    HW223151   1.813   3.175   8.321  2.3684  0.2066 -0.0941
 3840SOL     OW23152   1.295   1.756  12.213 -0.2065  0.0065  0.8077
 3840SOL    HW123153   1.347   1.705  12.275 -3.4499 -1.1527  2.6238
 3840SOL    HW223154   1.226   1.696  12.184 -1.1498  2.8369 -2.7596
 3841SOL     OW23155   0.356   2.798  11.643  0.4263 -0.1210  0.1245
 3841SOL    HW123156   0.387   2.855  11.714 -1.1134  3.8820 -2.4089
 3841SOL    HW223157   0.351   2.865  11.574 -0.8092  0.3177  0.6371
 3842SOL     OW23158   1.105   4.212   3.632  0.2801 -0.1114 -0.0203
 3842SOL    HW123159   1.171   4.175   3.691 -1.6280  0.0853  2.2453
 3842SOL    HW223160   1.030   4.177   3.680  0.3280 -0.9996 -0.6028
 3843SOL     OW23161   0.617   3.337   6.393 -0.3358 -0.0505  0.1008
 3843SOL    HW123162   0.529   3.350   6.358 -1.0920  0.7026  2.2777
 3843SOL    HW223163   0.597   3.292   6.476  0.0975 -1.1182 -0.3658
 3844SOL     OW23164   3.333   3.675  10.640 -0.3668 -0.3589 -0.2131
 3844SOL    HW123165   3.396   3.741  10.610  0.9406 -1.3554  0.3493
 3844SOL    HW223166   3.294   3.709  10.721 -1.9292 -0.8188 -0.7645
 3845SOL     OW23167   3.297   3.501   1.796 -0.2499 -0.4947  0.1362
 3845SOL    HW123168   3.349   3.555   1.855  0.2167  0.0227 -0.7523
 3845SOL    HW223169   3.251   3.446   1.859  0.4717  0.9432  1.9045
 3846SOL     OW23170   1.323   3.541   8.918 -0.2128 -0.1159  0.7095
 3846SOL    HW123171   1.341   3.587   9.000 -2.6548 -0.0787  1.2046
 3846SOL    HW223172   1.407   3.498   8.902  0.4501  2.0939 -1.8482
 3847SOL     OW23173   4.186   2.236   4.773  0.1424 -0.8256  0.5563
 3847SOL    HW123174   4.222   2.213   4.859 -2.2496  0.8850  2.0090
 3847SOL    HW223175   4.150   2.152   4.746  1.1204 -1.4710  1.2336
 3848SOL     OW23176   3.039   4.363  15.379  0.7203  0.3237 -0.1711
 3848SOL    HW123177   3.087   4.364  15.296  1.5562 -2.1267  0.2602
 3848SOL    HW223178   2.992   4.446  15.384  1.0011  0.5219 -0.7679
 3849SOL     OW23179   4.632   0.795  11.728  0.2439 -0.7801  0.0736
 3849SOL    HW123180   4.552   0.766  11.772 -0.5911  1.0785 -0.2234
 3849SOL    HW223181   4.694   0.751  11.786  1.4439  0.1213 -0.5224
 3850SOL     OW23182   1.184   2.562  16.370  0.2453 -0.6536  0.2241
 3850SOL    HW123183   1.161   2.495  16.434  0.1510 -1.6861 -0.8871
 3850SOL    HW223184   1.219   2.519  16.292  1.3825  0.7781 -0.0540
 3851SOL     OW23185   1.648   3.350  11.702 -0.0831 -0.5054  0.1464
 3851SOL    HW123186   1.643   3.435  11.658 -2.7077 -0.5569  0.3296
 3851SOL    HW223187   1.740   3.362  11.725  0.9882 -2.1836 -3.2612
 3852SOL     OW23188   3.481   0.506  16.176  0.4606  0.0341 -0.0492
 3852SOL    HW123189   3.501   0.586  16.128 -1.1475 -0.0716 -0.8987
 3852SOL    HW223190   3.458   0.443  16.108 -0.8645  0.1967  0.2376
 3853SOL     OW23191   2.460   2.702   2.430 -0.5256 -0.1193 -1.0786
 3853SOL    HW123192   2.466   2.677   2.522 -0.0330 -0.5046 -1.2181
 3853SOL    HW223193   2.490   2.623   2.386  2.8920  0.6244 -0.1155
 3854SOL     OW23194   2.633   4.725   3.954  0.2527 -0.5784 -0.0392
 3854SOL    HW123195   2.667   4.654   4.008 -0.2905 -1.3909 -0.7794
 3854SOL    HW223196   2.547   4.687   3.937  1.7647 -3.2368 -1.7071
 3855SOL     OW23197   0.584   0.539   8.324  0.2402  0.1016  0.0564
 3855SOL    HW123198   0.553   0.468   8.380 -1.3101 -0.9346 -2.1232
 3855SOL    HW223199   0.524   0.606   8.356  0.7855  0.7512 -0.2742
 3856SOL     OW23200   4.018   2.768  14.839 -0.1781  0.5333  0.2591
 3856SOL    HW123201   4.012   2.686  14.888  0.6378  0.6756  0.6112
 3856SOL    HW223202   3.931   2.803  14.857 -0.4438  0.0030  0.0092
 3857SOL     OW23203   2.709   3.522   3.040  0.1406 -0.0589 -0.6011
 3857SOL    HW123204   2.669   3.598   3.082 -0.0590 -0.6601  0.2951
 3857SOL    HW223205   2.780   3.556   2.985  0.5307 -0.1303 -0.1438
 3858SOL     OW23206   3.761   2.186   8.175  0.0282  0.2877  0.3093
 3858SOL    HW123207   3.723   2.104   8.145 -1.4322  0.9615  0.3267
 3858SOL    HW223208   3.702   2.249   8.133  1.4875  1.4541  0.0173
 3859SOL     OW23209   2.924   3.631   5.289  0.1505 -0.3026  0.3157
 3859SOL    HW123210   2.829   3.634   5.276  0.5157  1.1754 -2.0039
 3859SOL    HW223211   2.960   3.696   5.229  3.9448 -2.2494  0.4817
 3860SOL     OW23212   0.929   4.693   6.931 -0.7529 -0.1250 -0.5230
 3860SOL    HW123213   0.946   0.005   7.014  2.2179 -0.7873 -0.7762
 3860SOL    HW223214   0.931   4.602   6.962  0.3657  0.5031  1.2776
 3861SOL     OW23215   0.913   1.244   8.044  0.0747  0.2312 -0.1059
 3861SOL    HW123216   0.984   1.284   8.093  0.3864 -0.5199  0.0626
 3861SOL    HW223217   0.933   1.238   7.951 -0.3289  1.4140 -0.2682
 3862SOL     OW23218   1.724   1.886   8.962  0.6724  0.6301 -0.0327
 3862SOL    HW123219   1.763   1.884   9.049 -1.2602  0.9551  0.8399
 3862SOL    HW223220   1.652   1.947   8.975 -0.0113  0.1698 -1.6286
 3863SOL     OW23221   2.738   0.759   8.181  0.1923 -0.4239  0.7831
 3863SOL    HW123222   2.646   0.758   8.206 -0.7855  0.8477 -2.7063
 3863SOL    HW223223   2.778   0.701   8.246 -0.1875  1.0084  2.2971
 3864SOL     OW23224   3.099   0.793   4.922  0.3061 -0.5719  0.4146
 3864SOL    HW123225   3.190   0.771   4.941  1.3181  2.3337 -0.9936
 3864SOL    HW223226   3.062   0.795   5.011 -2.3043  2.1899 -0.7231
 3865SOL     OW23227   4.306   4.612   3.483 -0.1430 -0.4335 -0.6564
 3865SOL    HW123228   4.306   4.615   3.387 -1.9808 -2.1892 -0.6939
 3865SOL    HW223229   4.218   4.639   3.509  0.6912 -0.3317  2.0569
 3866SOL     OW23230   0.493   1.249   4.839 -0.4763  0.0523  0.0071
 3866SOL    HW123231   0.445   1.332   4.838 -0.3102  0.1853  1.7837
 3866SOL    HW223232   0.581   1.282   4.860 -0.0544 -1.6970  1.0285
 3867SOL     OW23233   0.762   0.435  17.522  0.0808  0.0341 -0.8264
 3867SOL    HW123234   0.714   0.367  17.476  0.1260  1.0319 -2.3570
 3867SOL    HW223235   0.809   0.468  17.445  1.4150 -0.1003 -0.0589
 3868SOL     OW23236   4.521   1.266   6.551 -0.5529  0.5428 -0.3581
 3868SOL    HW123237   4.515   1.303   6.639 -0.3884  2.8052 -1.2988
 3868SOL    HW223238   4.454   1.198   6.548 -0.1440  0.1273 -0.2301
 3869SOL     OW23239   0.022   0.419   5.487 -0.5724 -0.3111 -0.1764
 3869SOL    HW123240   4.664   0.430   5.457 -0.5451 -2.2270 -0.9468
 3869SOL    HW223241   0.038   0.499   5.538 -0.2725 -2.1166  2.5891
 3870SOL     OW23242   0.335   2.043  10.246  0.6820 -0.0024 -0.0533
 3870SOL    HW123243   0.259   1.986  10.234 -1.2030  1.8578  2.9457
 3870SOL    HW223244   0.328   2.080  10.158  1.4999 -0.9465 -0.5046
 3871SOL     OW23245   0.055   0.997   3.119  0.0272  0.2656  0.1081
 3871SOL    HW123246   4.719   1.041   3.069  1.1074  0.5319 -1.1424
 3871SOL    HW223247   0.050   0.906   3.090 -3.6689  0.4610  0.1835
 3872SOL     OW23248   3.974   0.026  14.848 -0.1950  0.2420  0.1198
 3872SOL    HW123249   3.918   0.053  14.921 -0.4842 -1.0550  0.3787
 3872SOL    HW223250   3.916   4.698  14.803 -0.1116  1.4863 -1.6624
 3873SOL     OW23251   3.740   2.866   2.429  0.2703 -0.5922 -0.6505
 3873SOL    HW123252   3.696   2.938   2.382 -0.1035 -0.6631 -0.4076
 3873SOL    HW223253   3.690   2.790   2.403  0.6838 -1.3121  0.6702
 3874SOL     OW23254   2.461   3.642   4.101  0.0846 -0.0205  0.0875
 3874SOL    HW123255   2.541   3.680   4.066  0.2730 -1.3589 -0.9246
 3874SOL    HW223256   2.455   3.580   4.029  1.8499 -1.2192  0.9718
 3875SOL     OW23257   0.148   0.943   7.859  0.1389  0.1861  0.2735
 3875SOL    HW123258   0.091   0.874   7.894 -0.7111  0.9809  0.4864
 3875SOL    HW223259   0.212   0.887   7.816 -0.1285  0.1298 -0.0525
 3876SOL     OW23260   3.520   2.958   2.626 -0.0293  0.2918  0.3023
 3876SOL    HW123261   3.555   3.046   2.642 -0.0438  0.8215 -2.5431
 3876SOL    HW223262   3.600   2.919   2.589  0.6659  1.2027  0.8284
 3877SOL     OW23263   3.682   4.090   3.813 -0.0004  0.5821 -0.0012
 3877SOL    HW123264   3.588   4.088   3.835 -0.6245 -0.3156 -2.8145
 3877SOL    HW223265   3.694   4.159   3.748  3.2977  0.3443  0.3628
 3878SOL     OW23266   3.454   3.441   2.555  0.2190  0.1452 -0.0317
 3878SOL    HW123267   3.500   3.520   2.584  0.7140 -1.0018  2.3416
 3878SOL    HW223268   3.435   3.469   2.465 -2.0951  0.4942  0.5722
 3879SOL     OW23269   4.516   3.696  15.070 -0.4874  0.4805 -0.5189
 3879SOL    HW123270   4.531   3.788  15.091  0.3840 -0.2835  2.2837
 3879SOL    HW223271   4.422   3.690  15.050 -0.8486 -1.7144  1.7380
 3880SOL     OW23272   4.202   4.052   7.064  0.0975 -0.0353  0.2221
 3880SOL    HW123273   4.184   4.011   6.979  0.6849  0.9713 -0.3938
 3880SOL    HW223274   4.167   3.983   7.121 -2.0334 -1.8309 -3.2450
 3881SOL     OW23275   1.861   0.515   8.228 -0.1084 -0.7186  0.5939
 3881SOL    HW123276   1.868   0.450   8.298  0.3126 -0.3773  0.8732
 3881SOL    HW223277   1.954   0.532   8.211 -0.5332 -1.1907 -2.1399
 3882SOL     OW23278   4.447   1.882  17.372  0.1782  0.8152  0.0824
 3882SOL    HW123279   4.396   1.801  17.368  0.9482  0.5457 -4.5737
 3882SOL    HW223280   4.419   1.932  17.295  0.0211 -0.3635 -0.6114
 3883SOL     OW23281   1.020   4.592  10.679  0.1294  0.0049 -0.1153
 3883SOL    HW123282   1.062   4.640  10.608  2.8295 -0.1476  1.3724
 3883SOL    HW223283   0.943   4.558  10.634  0.1211  0.1817 -0.2356
 3884SOL     OW23284   1.757   3.093   4.845  0.0705 -0.5443 -0.4249
 3884SOL    HW123285   1.763   3.179   4.887  0.3199 -0.5644 -0.4194
 3884SOL    HW223286   1.723   3.110   4.758 -2.2272 -3.2999 -0.0838
 3885SOL     OW23287   1.937   0.514   7.350  0.0007  0.0569  0.0525
 3885SOL    HW123288   1.991   0.589   7.377  0.8252  0.6891 -3.4444
 3885SOL    HW223289   1.959   0.497   7.259  0.0247  0.0218  0.0649
 3886SOL     OW23290   3.590   2.026   5.533  0.0867 -0.0590 -0.1491
 3886SOL    HW123291   3.618   1.935   5.531  0.9661  0.2072 -0.1310
 3886SOL    HW223292   3.578   2.027   5.628  0.5767 -0.0171 -0.0879
 3887SOL     OW23293   4.593   3.938   5.748  0.2027 -0.1336  0.0729
 3887SOL    HW123294   4.622   3.881   5.677  1.5101  1.0715 -0.3486
 3887SOL    HW223295   4.587   3.881   5.825 -1.0301  1.7845  1.4155
 3888SOL     OW23296   0.923   2.815   5.398  0.3642  0.4388  0.3700
 3888SOL    HW123297   0.877   2.861   5.327 -0.7915 -0.4291  0.5511
 3888SOL    HW223298   0.859   2.747   5.420 -0.9922  1.3816 -0.6549
 3889SOL     OW23299   2.493   2.655   3.999 -0.1848 -0.5123  0.1656
 3889SOL    HW123300   2.499   2.561   3.984 -1.3960 -0.6076  0.2827
 3889SOL    HW223301   2.499   2.686   3.908 -2.0394 -0.2264  0.1303
 3890SOL     OW23302   0.949   3.714   4.712 -0.2759 -0.0806  0.5126
 3890SOL    HW123303   0.956   3.623   4.738 -0.4838  0.2198  1.6346
 3890SOL    HW223304   0.855   3.732   4.722 -0.7017 -0.6309 -2.4575
 3891SOL     OW23305   4.233   1.077   9.886 -0.3303 -0.0426  0.3684
 3891SOL    HW123306   4.219   1.167   9.856 -0.5274 -0.6739 -1.4144
 3891SOL    HW223307   4.168   1.072   9.956 -2.5348  2.3681 -1.5101
 3892SOL     OW23308   0.420   2.244  10.464  0.3482  0.0546 -0.0496
 3892SOL    HW123309   0.421   2.149  10.474  2.1376  0.0305 -0.5633
 3892SOL    HW223310   0.327   2.258  10.443 -0.0112  0.1310  1.6098
 3893SOL     OW23311   2.582   0.173   7.074 -0.1061 -0.1478  0.3530
 3893SOL    HW123312   2.652   0.134   7.126 -1.6787 -4.0307 -0.4270
 3893SOL    HW223313   2.575   0.254   7.125 -0.0791  0.1414 -0.1071
 3894SOL     OW23314   2.771   0.643   0.081 -0.1779 -0.1717 -0.6208
 3894SOL    HW123315   2.738   0.688   0.004  0.3276  0.9236 -0.1979
 3894SOL    HW223316   2.716   0.683   0.150  0.2822 -1.5625  0.5536
 3895SOL     OW23317   1.489   4.415   3.282  0.2078 -0.0355  0.0233
 3895SOL    HW123318   1.466   4.504   3.254  0.5709 -0.3634 -1.3062
 3895SOL    HW223319   1.405   4.390   3.319 -0.7131  0.5702 -1.6593
 3896SOL     OW23320   1.282   2.356   2.397  0.1020  0.2109  0.3604
 3896SOL    HW123321   1.337   2.277   2.399 -1.0700 -0.6093  0.1310
 3896SOL    HW223322   1.312   2.394   2.480 -1.5123  0.9337  0.6155
 3897SOL     OW23323   4.269   4.245  17.105  0.6111  0.0899 -0.0819
 3897SOL    HW123324   4.330   4.180  17.071  0.0914 -1.6120  2.2789
 3897SOL    HW223325   4.222   4.259  17.023  1.1992 -0.1299 -0.4608
 3898SOL     OW23326   2.131   3.421   7.044 -0.1514 -0.6294  0.1026
 3898SOL    HW123327   2.130   3.336   7.087  0.0774 -1.5439 -1.6954
 3898SOL    HW223328   2.213   3.416   6.995 -1.1764 -0.7452 -1.5721
 3899SOL     OW23329   1.446   2.004   7.226  0.1286 -0.2335 -0.0438
 3899SOL    HW123330   1.438   2.094   7.196 -0.2060 -0.6447 -1.1878
 3899SOL    HW223331   1.471   1.960   7.145  0.4485 -0.5986  0.2584
 3900SOL     OW23332   3.975   0.410   2.120  0.2094 -0.4391  0.4295
 3900SOL    HW123333   3.962   0.504   2.109 -0.8826 -0.4438  1.6286
 3900SOL    HW223334   3.906   0.374   2.064  0.7309 -0.0126 -0.4728
 3901SOL     OW23335   2.560   3.594   2.675  0.2412  0.2171  0.3931
 3901SOL    HW123336   2.636   3.634   2.633  1.3652  0.7443  2.9119
 3901SOL    HW223337   2.494   3.661   2.658  0.3082  0.5382  1.4021
 3902SOL     OW23338   2.704   3.964  12.022 -0.8136 -0.7137 -0.1753
 3902SOL    HW123339   2.641   4.002  12.084 -1.0582 -0.6234 -0.4812
 3902SOL    HW223340   2.668   4.016  11.950  0.4413 -0.5114 -0.6618
 3903SOL     OW23341   3.836   1.039  11.654  0.2344 -0.7647 -0.1544
 3903SOL    HW123342   3.913   1.069  11.703  1.5524 -2.3722 -1.2096
 3903SOL    HW223343   3.782   1.022  11.730  0.0294  0.6513  0.0131
 3904SOL     OW23344   0.631   2.919   1.619 -0.2483  0.2161 -0.5763
 3904SOL    HW123345   0.684   2.950   1.692  0.8786 -0.0050 -1.2973
 3904SOL    HW223346   0.698   2.869   1.573  1.9537  0.5277  2.3393
 3905SOL     OW23347   3.643   4.033   5.060 -0.1021  0.1587 -0.0267
 3905SOL    HW123348   3.578   4.104   5.063  1.4783  1.5378  1.3274
 3905SOL    HW223349   3.604   3.965   5.116  0.5483 -0.1150  0.0937
 3906SOL     OW23350   1.977   4.204  10.924  0.3948  0.2875 -0.1008
 3906SOL    HW123351   1.914   4.231  10.857  1.3421  1.7055 -0.4211
 3906SOL    HW223352   1.964   4.265  10.997 -1.0086 -2.1775  1.7045
 3907SOL     OW23353   4.182   1.416   9.191  0.6359  0.6820 -0.1920
 3907SOL    HW123354   4.127   1.465   9.129  1.3124  0.9635 -0.5647
 3907SOL    HW223355   4.206   1.354   9.121 -2.2575 -1.4013  0.6541
 3908SOL     OW23356   3.837   1.528   5.033  0.2698 -0.1132  0.2365
 3908SOL    HW123357   3.845   1.461   4.965 -2.3156  0.8382 -1.0237
 3908SOL    HW223358   3.908   1.589   5.016 -0.0034  0.5746  1.5429
 3909SOL     OW23359   1.458   1.581   4.787  0.0056 -0.5352 -0.3115
 3909SOL    HW123360   1.532   1.521   4.792 -1.0625 -1.8454 -0.2366
 3909SOL    HW223361   1.423   1.571   4.698  1.2086 -0.6718 -0.7696
 3910SOL     OW23362   3.083   0.876  15.911 -0.3276 -0.2192 -0.2165
 3910SOL    HW123363   3.130   0.824  15.975  0.7464 -0.2628 -1.0414
 3910SOL    HW223364   3.011   0.816  15.893  0.3667 -1.0640 -0.1532
 3911SOL     OW23365   2.492   3.192   7.823 -0.4124 -0.1746 -0.1885
 3911SOL    HW123366   2.543   3.248   7.764  1.2784 -0.3616  1.1089
 3911SOL    HW223367   2.443   3.147   7.755 -0.8451  0.9290 -0.6094
 3912SOL     OW23368   2.934   0.941  14.622 -0.1430  0.5063  0.0346
 3912SOL    HW123369   2.971   0.956  14.709  1.0438 -0.1166 -0.3628
 3912SOL    HW223370   2.841   0.927  14.639 -0.0713 -1.3718 -1.0655
 3913SOL     OW23371   3.180   2.798   3.274 -0.0416 -0.1661  0.0865
 3913SOL    HW123372   3.119   2.755   3.213  0.2366 -1.3596  0.6449
 3913SOL    HW223373   3.260   2.776   3.227  1.0230  0.0522  1.8347
 3914SOL     OW23374   2.768   1.278   6.315  0.1076  0.7671 -0.0332
 3914SOL    HW123375   2.679   1.260   6.285  0.5415  2.0439 -2.1326
 3914SOL    HW223376   2.757   1.320   6.400 -3.1515  0.0488 -0.1061
 3915SOL     OW23377   3.242   1.861   2.354  0.3432 -0.0348 -0.3140
 3915SOL    HW123378   3.194   1.786   2.319 -0.5374 -0.4864  1.8661
 3915SOL    HW223379   3.328   1.818   2.357 -0.5457 -1.6836  1.4263
 3916SOL     OW23380   3.858   2.535  16.865 -0.7900 -0.1244  0.9686
 3916SOL    HW123381   3.806   2.466  16.823 -1.7427  1.0815  0.1708
 3916SOL    HW223382   3.779   2.578  16.899 -0.1825  0.2338  1.9372
 3917SOL     OW23383   3.119   3.861   9.926  0.0613  0.3608 -0.0423
 3917SOL    HW123384   3.169   3.826   9.999  1.4827  0.2006 -1.1020
 3917SOL    HW223385   3.051   3.904   9.978  1.5362  0.5993  1.6621
 3918SOL     OW23386   3.122   3.910   9.661 -0.2329  0.1727 -0.0157
 3918SOL    HW123387   3.139   3.875   9.749 -1.2096 -0.3925 -0.0541
 3918SOL    HW223388   3.153   3.833   9.614 -0.3870 -0.4633  0.9066
 3919SOL     OW23389   2.962   1.949  10.183  0.2154 -0.2458 -0.1682
 3919SOL    HW123390   2.893   1.983  10.126 -0.0490  0.4236  0.5471
 3919SOL    HW223391   2.975   2.018  10.248  0.2538 -0.2954 -0.1235
 3920SOL     OW23392   4.270   4.373   8.542  0.0127 -0.4480  0.6815
 3920SOL    HW123393   4.218   4.427   8.601  1.2784  0.4681  0.9661
 3920SOL    HW223394   4.341   4.350   8.602  1.1330 -0.2597 -0.5626
 3921SOL     OW23395   1.119   2.388   7.454  0.5792  0.0404  0.1575
 3921SOL    HW123396   1.132   2.293   7.455  2.0911  0.2688  0.8263
 3921SOL    HW223397   1.069   2.402   7.535  0.5205 -0.8400  0.2722
 3922SOL     OW23398   2.943   4.715   2.714  0.6941  0.0790 -0.2332
 3922SOL    HW123399   2.858   0.006   2.677  0.0619 -1.1049  0.4949
 3922SOL    HW223400   3.010   0.038   2.672  1.4234 -1.3476 -0.9633
 3923SOL     OW23401   4.020   2.135   7.900  0.4680 -0.4457 -0.3604
 3923SOL    HW123402   4.091   2.134   7.965 -0.6321  0.9876  0.8795
 3923SOL    HW223403   4.020   2.043   7.876 -1.0748  0.3560 -3.3841
 3924SOL     OW23404   0.032   3.541  14.829  0.1122  0.4065  0.1430
 3924SOL    HW123405   0.042   3.606  14.899 -0.4623  1.5698 -0.8376
 3924SOL    HW223406   0.124   3.517  14.821  0.4519  1.8106 -0.2216
 3925SOL     OW23407   2.678   3.452  14.708 -0.6600 -0.2951  0.0022
 3925SOL    HW123408   2.628   3.523  14.667  0.1139 -0.3866 -1.1072
 3925SOL    HW223409   2.614   3.408  14.763 -0.1375  1.2514  1.8443
 3926SOL     OW23410   2.341   3.578  16.484 -0.2880  0.2638  0.2270
 3926SOL    HW123411   2.344   3.492  16.441 -1.2139  1.0641 -1.4187
 3926SOL    HW223412   2.261   3.612  16.445  0.6238  2.8418  0.6367
 3927SOL     OW23413   0.325   3.998  15.012 -0.3329 -0.0587 -0.0732
 3927SOL    HW123414   0.297   3.970  14.924  0.0471  0.2788 -0.2971
 3927SOL    HW223415   0.241   3.974  15.053 -0.2487 -0.7665 -0.3006
 3928SOL     OW23416   0.306   4.555  16.521  0.1069  0.4814  0.5141
 3928SOL    HW123417   0.368   4.491  16.486 -2.2990 -1.6287  0.1640
 3928SOL    HW223418   0.359   4.613  16.576 -0.6855 -0.0510  1.8299
 3929SOL     OW23419   2.998   1.020   6.714 -0.4405  0.1072 -0.1111
 3929SOL    HW123420   2.915   1.044   6.673  0.8259 -0.5381 -3.0613
 3929SOL    HW223421   3.009   1.098   6.769 -0.1558  0.6466 -0.9324
 3930SOL     OW23422   3.592   3.178   6.307  0.2086 -0.6931 -0.1850
 3930SOL    HW123423   3.638   3.126   6.373  0.3273  1.4321  1.4164
 3930SOL    HW223424   3.664   3.190   6.245  1.3157 -2.2026  0.8075
 3931SOL     OW23425   3.494   3.664   1.935  0.1209 -0.0381 -0.2666
 3931SOL    HW123426   3.509   3.728   2.004 -0.0946 -0.1078 -0.1558
 3931SOL    HW223427   3.503   3.718   1.856  1.7939 -1.1823 -0.8744
 3932SOL     OW23428   4.174   3.463  11.999 -0.0881  0.5402 -0.1660
 3932SOL    HW123429   4.114   3.525  11.958 -1.0699 -0.3582 -0.0824
 3932SOL    HW223430   4.119   3.444  12.075  2.5659 -0.6226  1.4515
 3933SOL     OW23431   0.713   0.645   9.349 -0.0538  0.0738  0.6879
 3933SOL    HW123432   0.767   0.570   9.374 -1.3265 -0.8557  0.6304
 3933SOL    HW223433   0.689   0.686   9.432 -1.5100 -0.8753  0.7292
 3934SOL     OW23434   0.515   2.797   9.625 -0.3485 -0.2426 -0.1797
 3934SOL    HW123435   0.481   2.709   9.642  1.8137 -1.1128 -0.4392
 3934SOL    HW223436   0.607   2.777   9.637 -0.4327  0.0168  0.9241
 3935SOL     OW23437   0.206   1.327  12.695 -0.0235 -0.5101  0.0458
 3935SOL    HW123438   0.186   1.411  12.737 -1.0442  0.3594 -2.1795
 3935SOL    HW223439   0.293   1.341  12.659  0.0850  0.1020  0.5327
 3936SOL     OW23440   3.872   2.805   5.746 -0.0578  0.3502  0.5831
 3936SOL    HW123441   3.864   2.872   5.679 -1.9882 -0.9395 -0.4861
 3936SOL    HW223442   3.913   2.739   5.691  1.1187  1.9173 -0.3950
 3937SOL     OW23443   4.653   4.060   9.439 -0.3056  0.7561  0.4152
 3937SOL    HW123444   4.591   3.987   9.443  0.9452 -0.2754  0.8334
 3937SOL    HW223445   4.594   4.116   9.388 -2.9030 -1.6259  0.7928
 3938SOL     OW23446   1.934   2.018  15.640 -0.0906  0.3891 -0.8107
 3938SOL    HW123447   1.930   2.107  15.605  1.3500  1.0572  0.7269
 3938SOL    HW223448   2.004   2.026  15.705 -0.3338  1.9973 -0.7562
 3939SOL     OW23449   4.312   0.127  15.804 -0.0459 -0.2487 -0.6889
 3939SOL    HW123450   4.291   0.141  15.712  1.1883  1.7441 -0.6582
 3939SOL    HW223451   4.323   0.217  15.834 -0.7962 -0.0371 -1.0563
 3940SOL     OW23452   0.007   2.681   2.272  0.1780 -0.4788 -0.4789
 3940SOL    HW123453   0.061   2.755   2.300  2.0316 -2.7187  1.9383
 3940SOL    HW223454   0.065   2.636   2.211 -1.8169  1.8170 -3.9962
 3941SOL     OW23455   3.002   1.577  15.340  0.2171  0.0245  0.0616
 3941SOL    HW123456   2.980   1.543  15.427 -1.2252  2.9500  0.8454
 3941SOL    HW223457   2.973   1.504  15.286  0.9468  0.3062 -0.7222
 3942SOL     OW23458   0.345   2.780   2.092 -0.1572 -0.0681  0.0267
 3942SOL    HW123459   0.292   2.762   2.014  0.2254  0.5976 -0.3889
 3942SOL    HW223460   0.315   2.709   2.148  0.8043  0.9878  1.8902
 3943SOL     OW23461   4.172   2.000  10.085  0.3372 -0.2939  0.5918
 3943SOL    HW123462   4.211   2.071  10.136  0.1274 -1.0598  1.8388
 3943SOL    HW223463   4.198   1.931  10.146 -1.0537  0.3847  1.9643
 3944SOL     OW23464   1.813   3.968   6.445  0.0488 -0.4672  0.4211
 3944SOL    HW123465   1.848   4.044   6.490  1.4249 -0.2851 -0.9691
 3944SOL    HW223466   1.730   3.954   6.491  0.9113  0.8652  2.3754
 3945SOL     OW23467   0.741   1.196  16.029 -0.3958  0.8099 -0.3447
 3945SOL    HW123468   0.785   1.255  15.967 -0.0860  0.7367 -0.1946
 3945SOL    HW223469   0.808   1.131  16.050  0.3283  1.1224 -1.6985
 3946SOL     OW23470   3.741   2.595  14.766 -0.1025  0.6298 -0.0083
 3946SOL    HW123471   3.744   2.524  14.830  0.6961  0.7725  0.1228
 3946SOL    HW223472   3.755   2.678  14.812 -1.2097 -0.7113  2.7401
 3947SOL     OW23473   3.079   1.515   2.517 -0.1987 -0.1385 -0.2513
 3947SOL    HW123474   3.165   1.476   2.527 -0.0242 -0.0167 -1.2384
 3947SOL    HW223475   3.033   1.451   2.572  1.5495  0.2952  1.7025
 3948SOL     OW23476   4.281   2.915  15.817  0.4522 -0.2371 -0.9006
 3948SOL    HW123477   4.186   2.929  15.815  0.4715 -0.2362 -1.8104
 3948SOL    HW223478   4.311   2.991  15.767  1.1684 -0.9654 -1.5780
 3949SOL     OW23479   3.523   0.447  15.134  0.9022  0.5321 -0.6474
 3949SOL    HW123480   3.519   0.424  15.041  1.8617 -1.0067 -0.2984
 3949SOL    HW223481   3.599   0.391  15.149  2.9102  3.3883 -0.1072
 3950SOL     OW23482   0.231   3.296  11.974 -0.4299  0.1915  0.2367
 3950SOL    HW123483   0.268   3.376  11.938  1.4367 -0.2731  1.0992
 3950SOL    HW223484   0.306   3.240  11.992 -0.2925  0.7291  1.3767
 3951SOL     OW23485   2.593   3.346   1.933  0.4133  0.0106 -0.7837
 3951SOL    HW123486   2.583   3.258   1.896  1.8947  0.7827 -3.0025
 3951SOL    HW223487   2.510   3.351   1.980  1.1591  1.0007  0.4209
 3952SOL     OW23488   4.701   0.902   3.372  0.1826  0.5188 -0.3039
 3952SOL    HW123489   4.719   0.932   3.283 -0.9386  1.4874 -0.1943
 3952SOL    HW223490   4.711   0.991   3.408 -0.2147 -0.0791  1.2695
 3953SOL     OW23491   4.315   4.483   6.871  0.2172  0.3041  0.2227
 3953SOL    HW123492   4.367   4.411   6.905 -1.2232 -0.0365  1.7109
 3953SOL    HW223493   4.225   4.476   6.903  0.9876 -0.1503  2.2553
 3954SOL     OW23494   2.356   4.370  16.580 -0.1817  0.0710 -0.1568
 3954SOL    HW123495   2.309   4.431  16.523  1.6835  2.6616  1.0778
 3954SOL    HW223496   2.406   4.428  16.637 -1.5175  1.2275 -0.1486
 3955SOL     OW23497   0.741   2.255   5.425  0.0657 -0.0180  0.2412
 3955SOL    HW123498   0.788   2.323   5.377 -0.5187 -0.3907 -0.8829
 3955SOL    HW223499   0.796   2.246   5.503  0.6682  0.2433 -0.1571
 3956SOL     OW23500   3.517   1.494   0.509  0.1592 -0.2643  0.2822
 3956SOL    HW123501   3.441   1.439   0.493  0.6109 -1.2408  1.4364
 3956SOL    HW223502   3.521   1.526   0.419 -1.2009 -1.9943 -0.3975
 3957SOL     OW23503   0.710   2.249   4.239  0.2356 -0.2479  0.0927
 3957SOL    HW123504   0.801   2.268   4.213 -0.3379  0.9758 -1.0218
 3957SOL    HW223505   0.667   2.217   4.159  2.3509 -1.0417 -0.7422
 3958SOL     OW23506   4.605   4.237  15.554 -0.0413 -0.0760 -0.4853
 3958SOL    HW123507   4.587   4.212  15.463 -0.8279  0.2440 -0.4118
 3958SOL    HW223508   4.653   4.161  15.587 -2.4888 -1.9247 -1.1881
 3959SOL     OW23509   1.068   0.256   6.805 -0.4735 -0.3242  0.4135
 3959SOL    HW123510   1.033   0.180   6.757  1.0817 -0.1364 -0.9958
 3959SOL    HW223511   0.983   0.281   6.840 -0.1446 -0.7824  1.5243
 3960SOL     OW23512   1.504   0.288   9.604 -0.9758  0.6540  0.3659
 3960SOL    HW123513   1.504   0.374   9.647 -0.1846  1.5472 -1.4342
 3960SOL    HW223514   1.415   0.302   9.571 -0.8698 -1.4220 -0.7518
 3961SOL     OW23515   0.056   0.821  11.513 -0.1086 -0.3160 -0.1233
 3961SOL    HW123516   0.131   0.851  11.564  1.1403 -0.0181 -2.1163
 3961SOL    HW223517   4.726   0.803  11.583 -0.1808  1.1988  0.2059
 3962SOL     OW23518   1.981   1.203   4.405 -0.3225  0.5104 -0.0491
 3962SOL    HW123519   2.042   1.176   4.474  1.8521 -0.0153 -2.2033
 3962SOL    HW223520   1.960   1.117   4.367 -0.4890 -1.4992  4.5517
 3963SOL     OW23521   1.037   4.719   0.980  0.2460 -0.1110  0.3158
 3963SOL    HW123522   1.076   0.072   0.995  0.3937  0.0887 -1.1956
 3963SOL    HW223523   1.087   4.683   0.906 -0.8886 -0.2023 -0.4072
 3964SOL     OW23524   1.269   1.500   0.894 -0.0357  0.0166  0.3110
 3964SOL    HW123525   1.254   1.593   0.880  0.3642  0.0165 -0.1358
 3964SOL    HW223526   1.289   1.480   0.802 -2.8720  1.1157 -0.5440
 3965SOL     OW23527   4.079   2.926  10.178  0.5625  0.3715  0.2343
 3965SOL    HW123528   4.032   2.981  10.240 -0.0820  0.7345 -0.5755
 3965SOL    HW223529   4.028   2.846  10.169  1.7586 -0.1954 -1.7544
 3966SOL     OW23530   2.630   2.382  13.681  0.4305 -0.0765  0.1180
 3966SOL    HW123531   2.602   2.447  13.746 -3.6486 -0.4677 -1.2538
 3966SOL    HW223532   2.684   2.321  13.733  0.8126  1.0944  1.0936
 3967SOL     OW23533   3.572   4.492  11.578 -0.0556  0.0860 -0.0720
 3967SOL    HW123534   3.570   4.528  11.667 -1.8000 -0.2676  0.0463
 3967SOL    HW223535   3.481   4.493  11.546  0.5838 -2.0255 -1.9924
 3968SOL     OW23536   3.752   0.136   0.816 -0.2879 -0.4289 -0.0400
 3968SOL    HW123537   3.820   0.090   0.766  0.6933  1.1920 -0.2249
 3968SOL    HW223538   3.740   0.093   0.900 -2.9511  0.4644  0.0298
 3969SOL     OW23539   3.098   1.723   7.065  0.3551  0.0398  0.1587
 3969SOL    HW123540   3.142   1.702   6.983 -1.7859 -1.9557 -0.4935
 3969SOL    HW223541   3.038   1.650   7.083 -0.3998  0.1283 -2.0081
 3970SOL     OW23542   1.241   0.371   9.558 -0.0986 -0.3493  0.3948
 3970SOL    HW123543   1.210   0.335   9.475  3.2712  1.0081 -1.4671
 3970SOL    HW223544   1.165   0.385   9.613 -0.4997 -2.0030  0.2510
 3971SOL     OW23545   1.227   4.071  16.730  0.2459 -0.4120  0.2213
 3971SOL    HW123546   1.290   4.130  16.688  1.8184 -2.0173  0.3400
 3971SOL    HW223547   1.280   4.006  16.775 -1.3989 -2.4016 -0.7387
 3972SOL     OW23548   1.183   2.229   6.571 -0.4693 -0.4052 -0.4224
 3972SOL    HW123549   1.133   2.310   6.561 -1.8124 -0.8361  2.9466
 3972SOL    HW223550   1.208   2.237   6.663  0.9990 -0.1527 -0.8463
 3973SOL     OW23551   4.191   0.230  16.575  0.0035  0.1470 -0.2766
 3973SOL    HW123552   4.174   0.324  16.568  0.7348  0.4038  1.3758
 3973SOL    HW223553   4.117   0.203  16.629 -1.3037  2.1552 -1.0562
 3974SOL     OW23554   2.810   0.303   8.470 -0.5813 -0.3019  0.0670
 3974SOL    HW123555   2.799   0.257   8.387  0.8860 -1.6882  0.6340
 3974SOL    HW223556   2.890   0.355   8.457 -2.0160  1.4809 -1.6470
 3975SOL     OW23557   2.703   3.321   5.172 -0.8820 -0.1849  0.1449
 3975SOL    HW123558   2.676   3.254   5.109 -0.4014 -0.5150  0.3006
 3975SOL    HW223559   2.657   3.400   5.142 -2.1203 -0.3082  1.7274
 3976SOL     OW23560   0.541   3.239   9.637  0.0527  0.0506 -0.3213
 3976SOL    HW123561   0.570   3.153   9.608  0.3710 -0.1560  0.6141
 3976SOL    HW223562   0.445   3.233   9.630  0.1071 -1.4027  0.1579
 3977SOL     OW23563   3.529   0.192  10.773  0.1941 -0.2204 -0.3345
 3977SOL    HW123564   3.499   0.254  10.707  2.8886  0.6369 -0.7514
 3977SOL    HW223565   3.453   0.135  10.781 -1.2653  2.0703  2.2008
 3978SOL     OW23566   1.944   2.930   6.551 -0.2396  0.4463  0.1166
 3978SOL    HW123567   1.999   2.856   6.524  0.5918  0.6667  1.1917
 3978SOL    HW223568   1.896   2.952   6.471 -2.4235 -1.2327  0.9578
 3979SOL     OW23569   1.930   2.958   7.024  0.7403  0.4780 -0.1835
 3979SOL    HW123570   1.985   2.976   6.947  1.5704 -0.6775  0.1374
 3979SOL    HW223571   1.845   2.997   7.005  0.4704  0.5631  1.2454
 3980SOL     OW23572   2.902   1.696   5.999 -0.2813 -0.0736  0.1974
 3980SOL    HW123573   2.815   1.736   6.000 -1.5704 -2.9306  0.0291
 3980SOL    HW223574   2.952   1.778   5.994 -1.3231  0.5473  0.0359
 3981SOL     OW23575   3.767   4.653   6.039  0.3987  0.0146  0.0917
 3981SOL    HW123576   3.689   4.659   5.984  0.2680 -1.7751  0.0738
 3981SOL    HW223577   3.734   4.708   6.110 -2.6756 -2.5652  0.6676
 3982SOL     OW23578   0.473   1.744  10.086 -0.1560 -0.6737  0.2245
 3982SOL    HW123579   0.534   1.695  10.030  0.0549  0.8817 -0.9179
 3982SOL    HW223580   0.434   1.808  10.026 -1.5001  1.2871  3.2203
 3983SOL     OW23581   4.323   3.791   3.436  0.1438 -0.2235  0.5508
 3983SOL    HW123582   4.256   3.838   3.386 -0.1193 -0.1026  1.0184
 3983SOL    HW223583   4.275   3.771   3.516  2.5874 -3.1224  1.2927
 3984SOL     OW23584   0.504   0.827  10.735 -0.0002  0.2655  0.5588
 3984SOL    HW123585   0.492   0.833  10.640  0.1800 -0.4681  0.4931
 3984SOL    HW223586   0.521   0.733  10.739  0.7474  0.3049 -1.7224
 3985SOL     OW23587   3.908   4.674  14.491  0.0330 -0.2829  0.7833
 3985SOL    HW123588   3.879   0.032  14.501  3.0339  0.9694 -1.8737
 3985SOL    HW223589   3.878   4.642  14.406  0.9214  1.4636 -0.1856
 3986SOL     OW23590   2.027   3.523   4.264 -0.3487  0.2600 -0.4580
 3986SOL    HW123591   2.115   3.531   4.227 -0.7654 -0.6993 -1.6403
 3986SOL    HW223592   1.997   3.445   4.218  1.1360 -0.4592 -0.2194
 3987SOL     OW23593   3.495   0.450   6.423  0.7420 -0.2136 -0.2045
 3987SOL    HW123594   3.501   0.399   6.503  2.7958 -1.0101 -0.8709
 3987SOL    HW223595   3.588   0.461   6.401  0.6004  0.6537 -0.3728
 3988SOL     OW23596   3.202   3.700   3.622 -0.1079 -0.2438 -0.2023
 3988SOL    HW123597   3.234   3.779   3.667  1.5282 -2.2743  2.1509
 3988SOL    HW223598   3.158   3.655   3.694  0.0110  0.2988  0.2099
 3989SOL     OW23599   3.700   2.987   4.722  0.2527  0.0127  0.1635
 3989SOL    HW123600   3.767   2.997   4.655  0.7538 -1.3343  0.4661
 3989SOL    HW223601   3.662   3.073   4.703 -1.0779 -0.6636 -0.2456
 3990SOL     OW23602   4.526   1.529   5.385  0.0016 -0.3840 -0.0443
 3990SOL    HW123603   4.597   1.464   5.378 -1.7554 -2.1351 -1.8331
 3990SOL    HW223604   4.448   1.473   5.385  0.7421 -1.4293 -0.4866
 3991SOL     OW23605   4.207   4.109   2.908 -0.2524  0.3123  0.0137
 3991SOL    HW123606   4.131   4.165   2.889 -0.6094 -0.0072  0.4883
 3991SOL    HW223607   4.288   4.159   2.900 -0.6690  0.8124 -1.0727
 3992SOL     OW23608   2.508   2.213   2.191  0.5736 -0.0011  0.4592
 3992SOL    HW123609   2.525   2.141   2.251 -0.9113 -0.1197  0.7368
 3992SOL    HW223610   2.443   2.176   2.132  2.8699 -4.0480  0.4572
 3993SOL     OW23611   2.185   2.463   4.776  0.5805 -0.3616  0.4722
 3993SOL    HW123612   2.205   2.418   4.694  2.3850 -0.8949  1.1980
 3993SOL    HW223613   2.188   2.555   4.748  0.4541 -0.0322  1.5461
 3994SOL     OW23614   3.184   2.730   8.444 -0.3040  0.6670  0.3194
 3994SOL    HW123615   3.221   2.776   8.368 -0.4499  2.0628  1.0888
 3994SOL    HW223616   3.091   2.751   8.429 -0.5017 -0.6531 -0.2643
 3995SOL     OW23617   1.286   0.512   7.788 -0.1992 -0.4953 -0.4448
 3995SOL    HW123618   1.282   0.460   7.868  0.3266  0.4927  0.2244
 3995SOL    HW223619   1.335   0.463   7.722  0.9031 -1.0989  0.8178
 3996SOL     OW23620   0.392   3.077   2.778 -0.1588 -0.4499 -0.2632
 3996SOL    HW123621   0.327   3.073   2.849  0.2239  1.4740  0.2058
 3996SOL    HW223622   0.413   3.170   2.769  0.9757 -0.5242  1.5558
 3997SOL     OW23623   0.326   3.097  10.309  0.6026 -0.2140 -0.2980
 3997SOL    HW123624   0.295   3.110  10.220 -0.1883  0.0121  0.0099
 3997SOL    HW223625   0.245   3.101  10.361  0.0248 -0.0958 -1.2156
 3998SOL     OW23626   3.316   2.771   9.430 -0.3231  0.3390  0.4207
 3998SOL    HW123627   3.317   2.691   9.377 -0.2950  1.1997 -0.8704
 3998SOL    HW223628   3.353   2.833   9.367  1.2914  0.8790  1.8991
 3999SOL     OW23629   1.327   1.312   0.124 -0.4252 -0.0198  0.3695
 3999SOL    HW123630   1.391   1.301   0.055 -0.3533  0.8194  0.3061
 3999SOL    HW223631   1.319   1.407   0.123 -0.7780 -0.0460  0.5649
 4000SOL     OW23632   2.827   0.813   3.348  0.3531 -0.3633  0.3635
 4000SOL    HW123633   2.806   0.744   3.412  1.6141 -1.4371 -0.3818
 4000SOL    HW223634   2.785   0.887   3.391 -2.0119 -1.8626  0.6647
 4001SOL     OW23635   4.410   0.115   9.263  0.3244  0.0425  0.1962
 4001SOL    HW123636   4.469   0.190   9.258  0.8513 -0.4120 -0.3227
 4001SOL    HW223637   4.322   0.152   9.268 -0.1913 -1.1988  0.3022
 4002SOL     OW23638   0.115   0.662   3.383 -0.5426  0.7607  0.0322
 4002SOL    HW123639   0.075   0.616   3.456  0.9263 -1.7611 -0.7316
 4002SOL    HW223640   0.063   0.742   3.382 -1.9671 -0.1756 -1.0472
 4003SOL     OW23641   2.957   0.466  12.636  0.0057  0.3269 -0.1786
 4003SOL    HW123642   2.979   0.374  12.619  2.5852  1.1328 -1.1661
 4003SOL    HW223643   3.028   0.504  12.688  2.0342 -2.4928 -0.8953
 4004SOL     OW23644   1.018   0.628   8.744  0.0584 -0.5897  0.2578
 4004SOL    HW123645   1.013   0.534   8.727 -2.7936 -0.2604 -0.6822
 4004SOL    HW223646   1.041   0.658   8.656  0.5668  3.6024  1.8537
 4005SOL     OW23647   0.683   4.606   6.199  0.0611 -0.8319  0.9273
 4005SOL    HW123648   0.633   4.528   6.175  1.0933 -1.1111 -0.3627
 4005SOL    HW223649   0.617   4.675   6.205  0.7942 -0.0297 -0.0465
 4006SOL     OW23650   0.176   4.663   8.152  0.0204  0.3466  0.2258
 4006SOL    HW123651   0.203   4.575   8.124 -1.0730 -0.6281  2.2126
 4006SOL    HW223652   0.251   4.706   8.110 -1.5058  1.6758 -1.1251
 4007SOL     OW23653   2.963   4.379   4.380  0.0356  0.4474  0.1181
 4007SOL    HW123654   2.995   4.373   4.470 -0.2039 -3.2259 -0.0103
 4007SOL    HW223655   2.952   4.473   4.389 -1.1882  0.4165 -0.9668
 4008SOL     OW23656   0.463   2.061   4.542 -0.0332 -0.0354 -0.4764
 4008SOL    HW123657   0.513   2.014   4.475  0.1321 -0.6821  0.1093
 4008SOL    HW223658   0.483   2.152   4.520  3.1190 -0.4607  0.5721
 4009SOL     OW23659   4.246   4.511   0.034 -0.4352  0.0823 -0.1649
 4009SOL    HW123660   4.334   4.517   0.071 -1.0852  2.1559  0.9874
 4009SOL    HW223661   4.236   4.417   0.021  3.1339 -0.1685 -1.1946
 4010SOL     OW23662   1.652   0.136   1.244  0.3688  0.5208 -0.2386
 4010SOL    HW123663   1.738   0.101   1.221  0.7909  1.1730  0.3591
 4010SOL    HW223664   1.594   0.122   1.168 -1.9226  0.6760  1.4672
 4011SOL     OW23665   1.822   4.576   9.065  0.1410  0.4335  0.2048
 4011SOL    HW123666   1.758   4.587   8.994 -2.0616 -2.0489  1.8462
 4011SOL    HW223667   1.775   4.603   9.144  1.8197 -0.2366  1.4273
 4012SOL     OW23668   3.356   4.031   4.263  0.0519 -0.0171 -0.5231
 4012SOL    HW123669   3.329   4.022   4.355  0.2971  0.2489 -0.4251
 4012SOL    HW223670   3.377   3.941   4.239  1.2594  0.1007  0.1116
 4013SOL     OW23671   2.106   2.004  10.927  0.0709 -0.1947 -0.4879
 4013SOL    HW123672   2.120   1.920  10.970 -0.2808  0.2683  0.5238
 4013SOL    HW223673   2.014   2.014  10.950  0.1219 -1.7065  0.3815
 4014SOL     OW23674   0.091   3.691   9.527 -0.1933  0.0321  0.5192
 4014SOL    HW123675   0.006   3.720   9.495  0.0957 -0.0172 -0.2943
 4014SOL    HW223676   0.066   3.634   9.599 -0.9325 -0.8808 -0.4699
 4015SOL     OW23677   2.381   3.922   2.826 -0.3657 -0.4847  0.1307
 4015SOL    HW123678   2.297   3.967   2.818 -1.0117 -1.2614  2.5709
 4015SOL    HW223679   2.369   3.868   2.748 -2.9715  1.6731 -0.9966
 4016SOL     OW23680   4.610   0.791   5.614  0.1295 -0.0936  0.0268
 4016SOL    HW123681   4.683   0.730   5.618 -0.9057 -1.2950  0.5492
 4016SOL    HW223682   4.554   0.756   5.545  1.9098 -0.8008 -1.0320
 4017SOL     OW23683   0.068   2.754  10.116  0.3231 -0.1938 -0.0829
 4017SOL    HW123684   0.033   2.689  10.055 -1.6078 -0.5643  1.4405
 4017SOL    HW223685   0.158   2.763  10.083  0.2849 -1.8519 -0.6593
 4018SOL     OW23686   0.019   3.067   7.801 -0.3308 -0.1738 -0.2656
 4018SOL    HW123687   0.051   3.151   7.834 -0.0942 -1.1246  1.9383
 4018SOL    HW223688   4.668   3.058   7.846 -0.8217 -0.0925 -1.1789
 4019SOL     OW23689   2.581   3.541   5.010 -0.3428  0.0686 -0.6116
 4019SOL    HW123690   2.624   3.599   4.948  0.0611 -0.5695 -0.9310
 4019SOL    HW223691   2.498   3.523   4.967 -0.5425  1.4454 -0.7951
 4020SOL     OW23692   2.915   4.263   6.406  0.5494 -0.2886 -0.8514
 4020SOL    HW123693   2.898   4.170   6.415  3.0715 -0.6865 -0.1820
 4020SOL    HW223694   2.877   4.272   6.319 -0.8144 -1.0636 -0.3345
 4021SOL     OW23695   0.822   0.722   4.240  0.0277 -0.0869  0.0268
 4021SOL    HW123696   0.818   0.810   4.277  1.3946 -0.0706  0.1412
 4021SOL    HW223697   0.814   0.672   4.322  0.8131  2.8848  1.9385
 4022SOL     OW23698   0.748   3.827  16.962  0.1073 -0.1012  0.3561
 4022SOL    HW123699   0.708   3.759  16.908  2.1012 -1.5951  0.7555
 4022SOL    HW223700   0.669   3.879  16.964  0.0131 -0.2479  0.4341
 4023SOL     OW23701   3.862   3.075   8.335  0.2155 -0.1867  0.5587
 4023SOL    HW123702   3.895   3.026   8.260 -0.8639  1.8542 -1.2710
 4023SOL    HW223703   3.943   3.087   8.385 -0.0985  2.3869  0.4498
 4024SOL     OW23704   0.566   0.189  17.110  0.0670  0.3192  0.2325
 4024SOL    HW123705   0.519   0.169  17.029  2.0974  0.0795 -0.8671
 4024SOL    HW223706   0.540   0.113  17.162 -1.0913  0.3365 -0.3190
 4025SOL     OW23707   0.504   4.412   5.440 -0.4973 -0.0740  0.0983
 4025SOL    HW123708   0.451   4.488   5.463  0.3822  1.0296 -1.5958
 4025SOL    HW223709   0.480   4.355   5.514  1.0201  1.3019  1.6546
 4026SOL     OW23710   4.161   2.988   5.668 -0.8389  0.4435  0.2845
 4026SOL    HW123711   4.163   3.000   5.763 -0.3310 -0.1399  0.3484
 4026SOL    HW223712   4.211   2.907   5.656  0.8317  1.4359  0.6698
 4027SOL     OW23713   4.637   4.092   7.259  0.9598  0.4587  0.6781
 4027SOL    HW123714   4.643   4.047   7.343  1.0303  0.6734  0.7890
 4027SOL    HW223715   4.714   4.144   7.280  1.3032 -0.4739  1.7540
 4028SOL     OW23716   1.441   1.376   6.091 -0.2505  0.3599 -0.5419
 4028SOL    HW123717   1.491   1.384   6.010  0.4237 -2.2334 -0.3831
 4028SOL    HW223718   1.388   1.299   6.074  3.4531 -2.2034 -0.5139
 4029SOL     OW23719   4.688   0.285   6.475  0.3172  0.1560 -0.3986
 4029SOL    HW123720   4.678   0.316   6.565 -1.0567  0.6087 -0.7010
 4029SOL    HW223721   4.650   0.357   6.424 -0.1985 -1.9930 -3.0371
 4030SOL     OW23722   2.842   0.530   6.440 -0.7888 -0.2594 -0.1969
 4030SOL    HW123723   2.907   0.597   6.420  0.8513 -1.5507  0.8378
 4030SOL    HW223724   2.897   0.457   6.470  2.1454  1.9468 -0.2640
 4031SOL     OW23725   3.097   2.907   1.196 -0.1025  0.4447  0.1611
 4031SOL    HW123726   3.166   2.880   1.135  0.8015 -1.9054  2.2048
 4031SOL    HW223727   3.035   2.946   1.135 -0.7471 -1.1682 -0.2360
 4032SOL     OW23728   1.797   0.903   6.439  0.5993 -0.4384  0.1636
 4032SOL    HW123729   1.866   0.842   6.463 -1.1987 -1.6383  2.2073
 4032SOL    HW223730   1.716   0.854   6.450 -0.1990  0.9531  0.5839
 4033SOL     OW23731   2.659   2.773   5.846 -0.2346 -0.0784 -0.7710
 4033SOL    HW123732   2.612   2.698   5.881  0.3594  0.7855  1.8822
 4033SOL    HW223733   2.747   2.752   5.879 -0.0498  2.3033  0.2819
 4034SOL     OW23734   4.247   0.871  12.828  0.4384 -0.5999 -0.2613
 4034SOL    HW123735   4.174   0.810  12.816 -0.3288  0.4914 -1.1667
 4034SOL    HW223736   4.322   0.812  12.822 -1.2934 -3.0285  1.8027
 4035SOL     OW23737   2.368   3.408   2.147  0.4104  0.4288 -0.0207
 4035SOL    HW123738   2.433   3.477   2.160  0.2599  0.3431  1.1545
 4035SOL    HW223739   2.293   3.454   2.185 -1.1701 -0.4210 -2.1107
 4036SOL     OW23740   1.633   0.485   6.249 -0.8239 -0.2933 -0.1737
 4036SOL    HW123741   1.636   0.560   6.189  1.6014  0.4598  0.8897
 4036SOL    HW223742   1.542   0.460   6.238 -1.2624  0.9631  0.6889
 4037SOL     OW23743   4.103   4.432  12.819  0.1186  0.0072  0.5374
 4037SOL    HW123744   4.069   4.347  12.789 -2.5741  0.9549  0.8427
 4037SOL    HW223745   4.130   4.417  12.909 -1.9662 -0.2516  1.1301
 4038SOL     OW23746   4.444   0.998   5.389  0.1782  0.0415  0.3956
 4038SOL    HW123747   4.392   1.042   5.322 -1.7363 -1.6885  0.7176
 4038SOL    HW223748   4.478   0.919   5.346  0.1971 -0.2463  0.9357
 4039SOL     OW23749   2.826   1.021  14.989  0.3757 -0.2821 -0.9791
 4039SOL    HW123750   2.782   0.996  14.908 -0.6003 -1.9741  0.0907
 4039SOL    HW223751   2.804   1.115  14.987  0.7538 -0.1650  0.2286
 4040SOL     OW23752   2.941   4.010   3.409  0.1561 -0.4732 -0.1171
 4040SOL    HW123753   2.886   3.955   3.353 -1.6756  1.8361 -0.5684
 4040SOL    HW223754   3.028   3.974   3.391 -1.6050 -3.7476 -2.0422
 4041SOL     OW23755   3.928   2.568  10.349 -0.5308  0.0883  0.3609
 4041SOL    HW123756   3.902   2.556  10.440 -3.0409  0.4145 -0.3175
 4041SOL    HW223757   4.022   2.547  10.354 -0.8241 -1.1780  0.3718
 4042SOL     OW23758   2.855   1.447   4.347  0.3643 -0.0441 -0.1267
 4042SOL    HW123759   2.915   1.423   4.417  0.2083  0.8600  0.3096
 4042SOL    HW223760   2.771   1.420   4.383  0.3276  2.1866  1.4246
 4043SOL     OW23761   2.818   3.032  10.234 -0.0338 -0.0400 -0.5518
 4043SOL    HW123762   2.834   3.096  10.165  1.5414  0.6359  0.4334
 4043SOL    HW223763   2.744   3.073  10.278 -0.1366 -0.7703 -0.0327
 4044SOL     OW23764   2.868   1.393   8.763  0.2175  0.2210 -0.2940
 4044SOL    HW123765   2.806   1.322   8.780  0.2058  0.1140 -0.8125
 4044SOL    HW223766   2.903   1.425   8.846 -2.0197 -0.7132  1.0199
 4045SOL     OW23767   3.300   2.084   0.723  0.3537  0.4008  0.4105
 4045SOL    HW123768   3.366   2.059   0.659 -0.7029  0.2476 -0.6249
 4045SOL    HW223769   3.224   2.106   0.669 -0.8085  0.4676  2.0691
 4046SOL     OW23770   2.122   2.646   2.410 -0.0699  0.0309  0.0582
 4046SOL    HW123771   2.113   2.654   2.505 -1.1018  1.2772 -0.1346
 4046SOL    HW223772   2.050   2.591   2.378  0.4322 -1.0711  0.8441
 4047SOL     OW23773   0.336   2.933   4.757  0.3452  1.0124  0.5552
 4047SOL    HW123774   0.309   2.914   4.847  0.5740 -0.0519  0.4011
 4047SOL    HW223775   0.291   3.015   4.739 -0.7723  0.7008  1.9790
 4048SOL     OW23776   2.184   2.677   8.645 -0.5737  0.0536 -0.1148
 4048SOL    HW123777   2.190   2.605   8.583  0.1866 -0.8072  0.9660
 4048SOL    HW223778   2.090   2.693   8.651 -0.3873  1.5910 -1.2541
 4049SOL     OW23779   2.633   0.407  12.969  0.3688  0.0303 -0.3191
 4049SOL    HW123780   2.541   0.382  12.958  1.2524 -2.9207 -0.8962
 4049SOL    HW223781   2.680   0.369  12.894 -0.2236  0.6882 -1.0296
 4050SOL     OW23782   3.344   0.212   8.357 -0.4430 -0.3975  0.1176
 4050SOL    HW123783   3.263   0.221   8.307  0.7316 -0.3335 -1.7939
 4050SOL    HW223784   3.392   0.147   8.305 -1.8201  0.1691 -1.8276
 4051SOL     OW23785   3.548   0.606   5.180 -0.4265  0.1509  0.3790
 4051SOL    HW123786   3.466   0.626   5.227 -0.0816  0.5182  0.8252
 4051SOL    HW223787   3.606   0.611   5.256 -0.2127 -2.2517  0.3653
 4052SOL     OW23788   4.726   1.952   4.032  0.3361  0.5937  0.2553
 4052SOL    HW123789   0.069   1.943   3.975 -0.1356 -0.7585 -0.1617
 4052SOL    HW223790   4.664   2.011   3.990 -0.0391  1.0754  1.4646
 4053SOL     OW23791   2.430   3.425  10.130  0.2782  0.2912 -0.0992
 4053SOL    HW123792   2.484   3.488  10.081  2.8358 -2.3552 -0.6620
 4053SOL    HW223793   2.402   3.485  10.199 -0.4876 -1.4680  1.0910
 4054SOL     OW23794   2.939   2.113   1.761  0.1242 -0.8002  0.1507
 4054SOL    HW123795   2.888   2.133   1.683  0.9690 -1.8034 -0.6510
 4054SOL    HW223796   2.866   2.095   1.821 -2.0440  0.3628 -2.1091
 4055SOL     OW23797   2.042   2.092   8.493  0.5440 -0.2254  0.1453
 4055SOL    HW123798   2.132   2.082   8.462  0.6077  0.6513  0.0266
 4055SOL    HW223799   1.993   2.016   8.462  1.8118 -0.5848 -0.9688
 4056SOL     OW23800   2.384   4.405  11.632 -0.2431  0.0202 -0.2577
 4056SOL    HW123801   2.385   4.483  11.575 -2.0092 -0.0084 -0.3350
 4056SOL    HW223802   2.417   4.338  11.572  1.7317  0.5192  0.2714
 4057SOL     OW23803   3.798   2.196  11.068 -0.6206  0.1187 -0.5499
 4057SOL    HW123804   3.740   2.119  11.066  0.1793 -0.5148  0.7248
 4057SOL    HW223805   3.880   2.157  11.040 -1.4383 -1.7738 -0.3327
 4058SOL     OW23806   3.992   3.695  13.330  0.0531 -0.4057 -0.3459
 4058SOL    HW123807   3.913   3.749  13.329  1.6014  1.8723 -0.2233
 4058SOL    HW223808   4.016   3.695  13.423  1.8663  0.1036 -0.8111
 4059SOL     OW23809   0.417   3.271  15.737 -0.2460  0.1541 -0.0148
 4059SOL    HW123810   0.498   3.222  15.728 -0.5043 -0.5077  1.2450
 4059SOL    HW223811   0.399   3.286  15.644  1.7073 -0.1354 -0.4416
 4060SOL     OW23812   3.088   0.205  10.338 -0.3947  0.2375 -0.1124
 4060SOL    HW123813   3.033   0.160  10.402 -1.1305  0.2548 -0.7337
 4060SOL    HW223814   3.104   0.131  10.279  1.8621 -1.3455  2.4722
 4061SOL     OW23815   2.190   4.631   8.832  0.2277  0.4460 -0.5608
 4061SOL    HW123816   2.271   4.678   8.811 -0.0532 -0.0929 -2.8031
 4061SOL    HW223817   2.134   4.707   8.822 -0.6218 -0.2290 -0.8542
 4062SOL     OW23818   2.980   0.908   8.856  0.4154 -0.2782 -0.2768
 4062SOL    HW123819   2.924   0.855   8.913  1.8518 -1.1153  0.3399
 4062SOL    HW223820   2.935   0.910   8.772  2.6239 -1.2711 -1.4748
 4063SOL     OW23821   4.231   4.592  15.707  0.2280  0.1528 -0.1044
 4063SOL    HW123822   4.314   4.602  15.660  1.2974 -2.1106  1.2788
 4063SOL    HW223823   4.219   4.665  15.767  2.5158  0.0432  0.4881
 4064SOL     OW23824   2.752   4.021   8.058  0.5204  0.1630  0.2865
 4064SOL    HW123825   2.732   4.112   8.039  0.3090 -0.1429 -0.9840
 4064SOL    HW223826   2.772   3.988   7.970 -0.4983  1.4459 -0.4281
 4065SOL     OW23827   0.643   0.721   6.516  0.2248  0.2796  0.1900
 4065SOL    HW123828   0.712   0.656   6.523 -0.5209 -0.3703  1.4759
 4065SOL    HW223829   0.563   0.669   6.528  0.1322  1.0325  2.9951
 4066SOL     OW23830   4.570   0.666   8.000 -0.0395 -0.0016 -0.4032
 4066SOL    HW123831   4.665   0.679   8.006 -0.6897  3.8502  1.4344
 4066SOL    HW223832   4.531   0.736   8.052 -2.1333 -1.1441 -0.4318
 4067SOL     OW23833   3.059   2.477   9.079 -0.6823 -0.1769 -0.1930
 4067SOL    HW123834   3.079   2.431   8.998 -0.0799 -2.0472  1.0179
 4067SOL    HW223835   2.965   2.488   9.092 -0.2067  2.1155  1.2509
 4068SOL     OW23836   1.255   0.283  14.382  0.2135  0.0667  1.1423
 4068SOL    HW123837   1.347   0.264  14.400  0.3512 -0.8525 -0.5850
 4068SOL    HW223838   1.222   0.221  14.448 -1.8990  0.1986  0.1981
 4069SOL     OW23839   0.139   0.504   3.877 -0.2114 -0.4105 -0.4792
 4069SOL    HW123840   0.103   0.568   3.815 -0.2114 -0.1812 -0.2452
 4069SOL    HW223841   0.095   0.428   3.839 -0.3215  0.2224 -1.6247
 4070SOL     OW23842   3.845   4.660   2.814  0.1193  1.2665  0.0343
 4070SOL    HW123843   3.921   4.708   2.845  0.5835  0.1573  0.6053
 4070SOL    HW223844   3.778   4.723   2.839 -1.2252  0.5166 -1.6505
 4071SOL     OW23845   4.713   2.410  12.044  0.1227 -0.6963  0.0778
 4071SOL    HW123846   0.002   2.477  12.108  0.4987  0.4685 -1.2748
 4071SOL    HW223847   0.039   2.340  12.074 -0.3170 -1.3739 -0.6360
 4072SOL     OW23848   2.444   2.213   8.812 -0.0509  0.3634  0.0952
 4072SOL    HW123849   2.506   2.140   8.806  0.1816  0.6456 -0.8356
 4072SOL    HW223850   2.454   2.234   8.905 -1.3984 -0.6583  0.4891
 4073SOL     OW23851   2.620   1.686   8.111 -0.4724 -0.6115 -0.0333
 4073SOL    HW123852   2.650   1.731   8.190 -3.3337  2.0163 -0.4645
 4073SOL    HW223853   2.537   1.646   8.138 -1.1806  0.3144 -0.8129
 4074SOL     OW23854   1.663   4.154  17.618 -0.5282  0.5977 -0.3324
 4074SOL    HW123855   1.657   4.236  17.667 -2.5430  0.0434  0.3724
 4074SOL    HW223856   1.571   4.139  17.595 -0.3948 -0.6972 -0.0125
 4075SOL     OW23857   0.357   2.587   8.195  0.4633 -0.2003  0.2576
 4075SOL    HW123858   0.351   2.510   8.251  1.6596 -1.6723 -1.6365
 4075SOL    HW223859   0.450   2.611   8.199  0.8275 -1.3127 -1.5087
 4076SOL     OW23860   3.038   3.460   8.939 -0.0850 -0.3131  0.5241
 4076SOL    HW123861   3.120   3.471   8.892 -0.9002 -1.4726 -1.1951
 4076SOL    HW223862   3.032   3.365   8.947 -1.3989 -0.4736 -2.3839
 4077SOL     OW23863   2.638   4.231  13.603 -0.3339  0.6458  0.1934
 4077SOL    HW123864   2.571   4.232  13.671  0.0300  0.2507  0.5566
 4077SOL    HW223865   2.654   4.325  13.594 -0.3408  0.7523  1.2301
 4078SOL     OW23866   4.141   0.709   6.842 -0.0701 -0.2127 -0.1495
 4078SOL    HW123867   4.049   0.730   6.827 -0.7738 -0.1275  4.4153
 4078SOL    HW223868   4.143   0.617   6.816 -1.7499 -0.7886  1.7614
 4079SOL     OW23869   1.615   3.462   2.322  0.2856 -0.3726 -0.2529
 4079SOL    HW123870   1.588   3.528   2.258 -0.5466  1.5675  2.1177
 4079SOL    HW223871   1.706   3.493   2.329 -0.3914  1.4155  0.6259
 4080SOL     OW23872   0.797   0.939   8.948 -0.0110  0.0358 -0.7516
 4080SOL    HW123873   0.862   0.903   9.008  0.3425  2.0648  0.0874
 4080SOL    HW223874   0.773   0.861   8.899 -0.4170 -0.1156 -0.3106
 4081SOL     OW23875   3.868   1.618   5.912 -0.4598 -0.3971 -0.1192
 4081SOL    HW123876   3.900   1.694   5.863  1.0050 -1.9251 -1.5065
 4081SOL    HW223877   3.948   1.567   5.901  0.3510  0.8581 -0.0731
 4082SOL     OW23878   0.248   1.702   7.681 -0.5294  0.2651  0.1720
 4082SOL    HW123879   0.282   1.743   7.602 -1.2491  0.3448 -0.0993
 4082SOL    HW223880   0.294   1.748   7.751  0.1620  0.1509 -0.2141
 4083SOL     OW23881   1.827   1.888   9.232 -0.5003 -0.3694  0.6253
 4083SOL    HW123882   1.905   1.848   9.271 -0.7681 -2.7134 -1.2540
 4083SOL    HW223883   1.782   1.906   9.315 -0.9110 -2.0521  0.7744
 4084SOL     OW23884   3.971   3.225   3.550 -0.1136 -0.3084 -0.1814
 4084SOL    HW123885   4.020   3.165   3.494  0.2436 -0.3504  0.1715
 4084SOL    HW223886   4.032   3.299   3.550 -0.6827  0.1598  1.0396
 4085SOL     OW23887   1.082   0.903  13.002  0.2034 -0.4489 -0.1792
 4085SOL    HW123888   1.128   0.981  12.970 -0.7365 -0.1852 -0.9091
 4085SOL    HW223889   1.000   0.943  13.032  0.3250  1.2596 -2.0777
 4086SOL     OW23890   0.886   3.400  16.209 -0.1085 -0.5684 -0.0817
 4086SOL    HW123891   0.920   3.436  16.291 -2.0313 -0.4722  0.6766
 4086SOL    HW223892   0.963   3.377  16.157 -0.6243 -2.5978  0.0504
 4087SOL     OW23893   2.568   0.287   2.018  0.4365 -0.0488  0.1651
 4087SOL    HW123894   2.646   0.237   1.994 -0.5496 -3.0052  3.1042
 4087SOL    HW223895   2.509   0.231   1.966  2.2810  0.6616 -2.6860
 4088SOL     OW23896   3.074   3.384   7.651 -0.0877  0.7618 -0.5343
 4088SOL    HW123897   2.980   3.367   7.642  0.0801  0.2775 -1.3378
 4088SOL    HW223898   3.068   3.426   7.737  0.2084  1.9988 -1.1185
 4089SOL     OW23899   4.073   2.883  12.214 -0.4530 -0.3065  0.2151
 4089SOL    HW123900   4.142   2.821  12.236  0.0858  0.1151 -0.2576
 4089SOL    HW223901   4.063   2.855  12.123 -1.1773 -0.0419  0.2092
 4090SOL     OW23902   0.078   3.218  16.126 -0.0050  0.1675  0.3317
 4090SOL    HW123903   0.074   3.300  16.076 -2.3082 -1.6497 -2.4145
 4090SOL    HW223904   0.137   3.170  16.068  0.6104 -0.0696  1.1618
 4091SOL     OW23905   0.462   3.077   0.527  0.0839  0.2557 -0.1439
 4091SOL    HW123906   0.481   3.085   0.621 -0.2067 -1.1749  0.0353
 4091SOL    HW223907   0.417   3.159   0.507  0.9371  0.6446 -0.4804
 4092SOL     OW23908   4.127   2.745   8.485  0.0870 -0.1253 -0.5707
 4092SOL    HW123909   4.085   2.762   8.401 -1.0348 -0.0663  0.0047
 4092SOL    HW223910   4.097   2.656   8.506 -0.0250 -0.1946 -1.0365
 4093SOL     OW23911   2.327   3.149   9.149  0.0112 -0.2090  0.3393
 4093SOL    HW123912   2.334   3.055   9.133 -1.4714 -0.0182 -1.5087
 4093SOL    HW223913   2.308   3.181   9.060  0.8109 -0.1235  0.1963
 4094SOL     OW23914   3.977   0.818   5.562  0.1469 -0.5792  0.4192
 4094SOL    HW123915   3.967   0.729   5.595  2.0466 -0.7201  0.6187
 4094SOL    HW223916   4.019   0.855   5.640 -0.9549 -0.9676  1.2011
 4095SOL     OW23917   0.359   1.101   7.444  0.2883  0.0036  0.1899
 4095SOL    HW123918   0.296   1.173   7.452 -0.0453 -0.2098 -0.5082
 4095SOL    HW223919   0.424   1.132   7.381  1.6204 -1.8129  0.6577
 4096SOL     OW23920   2.460   4.575   8.545 -0.0115 -0.1616 -0.1058
 4096SOL    HW123921   2.381   4.539   8.503 -0.2763 -0.3398  0.5474
 4096SOL    HW223922   2.479   4.640   8.478 -2.0300  0.9697  0.4129
 4097SOL     OW23923   3.227   2.405   8.842  0.2937 -0.3841  0.5028
 4097SOL    HW123924   3.171   2.328   8.831 -0.5731 -0.2224  3.8556
 4097SOL    HW223925   3.255   2.428   8.753  3.1612  1.0149  1.7766
 4098SOL     OW23926   0.470   3.252   1.898  0.1122  0.1900 -0.2819
 4098SOL    HW123927   0.443   3.181   1.957  2.9439 -0.5165  0.1723
 4098SOL    HW223928   0.563   3.239   1.916  0.5934  2.0877 -1.4878
 4099SOL     OW23929   4.638   4.320   5.143  0.0259 -0.6574  0.7522
 4099SOL    HW123930   4.694   4.246   5.118 -0.0507 -1.3597  2.7219
 4099SOL    HW223931   4.568   4.268   5.180 -1.5337  1.9966  1.5405
 4100SOL     OW23932   1.302   0.501   5.838 -0.0376  0.1579  0.0332
 4100SOL    HW123933   1.217   0.488   5.879 -0.0765 -0.0282 -0.1075
 4100SOL    HW223934   1.286   0.424   5.783  1.2270  0.3730 -0.6530
 4101SOL     OW23935   2.252   2.824   3.776  0.4470 -0.2452  0.3036
 4101SOL    HW123936   2.238   2.876   3.855  2.5444  0.8832 -0.0685
 4101SOL    HW223937   2.183   2.757   3.776  0.2030 -0.0049  2.8221
 4102SOL     OW23938   2.661   2.962   8.571 -0.2774  0.1781 -0.1006
 4102SOL    HW123939   2.696   3.035   8.519 -1.7378  0.2203 -1.0156
 4102SOL    HW223940   2.716   2.967   8.649  1.0965 -0.9384 -0.9926
 4103SOL     OW23941   0.508   1.918  16.589  0.1799 -0.6637 -0.4540
 4103SOL    HW123942   0.480   1.912  16.680  1.5192  2.5138  0.2027
 4103SOL    HW223943   0.590   1.967  16.601  0.2498 -0.8282 -0.2648
 4104SOL     OW23944   3.555   4.110   0.852  0.2575 -0.5494 -0.4903
 4104SOL    HW123945   3.500   4.158   0.791  0.5669 -0.1764 -0.4706
 4104SOL    HW223946   3.569   4.180   0.916  1.5736 -0.5872 -0.7503
 4105SOL     OW23947   1.144   4.289  14.787 -0.1853  0.1276 -0.3770
 4105SOL    HW123948   1.077   4.334  14.737 -0.8258  0.8478  1.1391
 4105SOL    HW223949   1.133   4.336  14.870  1.8327  0.0414 -0.0406
 4106SOL     OW23950   2.531   3.644  12.804  0.4318 -0.4985  0.5950
 4106SOL    HW123951   2.462   3.583  12.830 -1.0847  0.4386 -1.2377
 4106SOL    HW223952   2.530   3.702  12.880  1.7837 -2.3218  2.0308
 4107SOL     OW23953   1.786   0.340  14.146 -0.2598 -0.1548 -0.2835
 4107SOL    HW123954   1.813   0.430  14.130  0.7884 -0.0939  1.8387
 4107SOL    HW223955   1.727   0.330  14.071 -1.2879 -0.0346  0.5226
 4108SOL     OW23956   3.185   4.481   3.786 -0.3065 -0.4311  0.1679
 4108SOL    HW123957   3.148   4.498   3.873 -0.9379 -0.3168 -0.1224
 4108SOL    HW223958   3.129   4.534   3.728 -1.3090 -1.9287 -0.2281
 4109SOL     OW23959   2.627   4.038   4.390 -0.8280 -0.7365  0.3921
 4109SOL    HW123960   2.715   4.063   4.364 -1.1129  1.1151  1.1942
 4109SOL    HW223961   2.625   3.947   4.361 -1.1531 -0.8919  0.9010
 4110SOL     OW23962   0.863   0.442   9.403 -0.5027  0.0308  0.1082
 4110SOL    HW123963   0.850   0.401   9.488 -2.1348 -1.2446 -0.7472
 4110SOL    HW223964   0.851   0.368   9.343 -1.3090  0.7588 -0.6264
 4111SOL     OW23965   3.726   0.149   2.927 -0.2626 -0.1610  0.4885
 4111SOL    HW123966   3.657   0.215   2.930 -1.5579 -1.5648  1.4152
 4111SOL    HW223967   3.798   0.212   2.917 -1.9672  1.6288 -0.4907
 4112SOL     OW23968   0.332   1.182   5.049  0.0331  0.3068  0.1459
 4112SOL    HW123969   0.373   1.190   4.963  1.2684  3.0506  0.9732
 4112SOL    HW223970   0.343   1.087   5.054  3.7152  0.7640  1.2142
 4113SOL     OW23971   0.707   1.792   4.187  0.5450 -0.4515 -0.1167
 4113SOL    HW123972   0.758   1.780   4.266 -3.0043 -0.9197  2.1115
 4113SOL    HW223973   0.748   1.864   4.140  0.4711  2.3116  4.1207
 4114SOL     OW23974   3.265   2.984   2.527 -0.2624 -0.1358  0.3416
 4114SOL    HW123975   3.336   2.959   2.586  0.9904 -1.2922 -1.6526
 4114SOL    HW223976   3.320   2.998   2.450  0.4289  0.8880  1.0294
 4115SOL     OW23977   4.437   0.628   4.447  0.1099 -0.1371  0.2412
 4115SOL    HW123978   4.394   0.595   4.368 -0.0721  0.9324 -0.1084
 4115SOL    HW223979   4.366   0.637   4.511 -0.9194  0.2113 -0.9304
 4116SOL     OW23980   0.585   4.723   5.869 -0.3290  0.4747  0.3247
 4116SOL    HW123981   0.517   0.001   5.935  0.3678  2.1276  0.7721
 4116SOL    HW223982   0.618   0.080   5.875 -2.6111  1.2607  0.8881
 4117SOL     OW23983   1.921   1.987   6.004 -0.0928  0.4736 -0.0195
 4117SOL    HW123984   1.842   2.041   6.015  0.1557  0.6089  1.1256
 4117SOL    HW223985   1.937   2.000   5.911  2.2412 -0.4696  0.2581
 4118SOL     OW23986   0.554   1.770   8.538  0.2311  0.1430  0.1233
 4118SOL    HW123987   0.633   1.811   8.501 -1.3024  2.3891 -0.6398
 4118SOL    HW223988   0.481   1.819   8.501  0.0154 -1.2027 -1.2260
 4119SOL     OW23989   2.578   4.699   1.792 -0.2268 -0.0254  0.5027
 4119SOL    HW123990   2.493   4.722   1.828 -1.4537 -1.2215 -1.6087
 4119SOL    HW223991   2.625   4.668   1.870  0.1328 -0.0068  0.2957
 4120SOL     OW23992   4.388   0.050  14.484  0.0609  0.3121  0.4303
 4120SOL    HW123993   4.413   0.134  14.523 -0.5523  1.0752 -0.8092
 4120SOL    HW223994   4.299   0.039  14.518 -0.8867 -0.9054 -2.4401
 4121SOL     OW23995   0.409   0.826  11.539 -0.0423  0.2170 -0.0065
 4121SOL    HW123996   0.370   0.848  11.623  0.2071 -0.9206  0.4107
 4121SOL    HW223997   0.365   0.741  11.533  0.6718 -0.1802  0.2432
 4122SOL     OW23998   2.107   0.393   6.738  0.1375 -0.2659  0.4121
 4122SOL    HW123999   2.035   0.353   6.690  0.6290 -1.6538  0.8352
 4122SOL    HW224000   2.169   0.323   6.758  0.2487 -0.2903 -0.0283
 4123SOL     OW24001   2.039   4.211   8.533 -0.4850  0.0655  0.0539
 4123SOL    HW124002   2.051   4.139   8.594  0.6225  0.1468 -0.0626
 4123SOL    HW224003   2.129   4.243   8.522 -0.9092  1.3730  0.4166
 4124SOL     OW24004   3.764   3.892   5.321 -0.6554 -0.1013  0.1601
 4124SOL    HW124005   3.822   3.819   5.299 -1.2405 -0.2624 -0.8566
 4124SOL    HW224006   3.688   3.849   5.281 -0.6943  0.2232 -0.1094
 4125SOL     OW24007   3.999   1.153   6.733 -0.9805 -0.1649 -0.2889
 4125SOL    HW124008   4.014   1.246   6.717  2.3678 -0.6476  0.0427
 4125SOL    HW224009   3.911   1.146   6.769 -1.3123 -1.1700 -1.2856
 4126SOL     OW24010   1.389   2.486   3.193 -0.0482 -0.2987 -0.1041
 4126SOL    HW124011   1.392   2.454   3.103 -2.9279  0.4406 -0.4706
 4126SOL    HW224012   1.436   2.569   3.189  0.3239 -0.4892  0.4581
 4127SOL     OW24013   3.758   2.152  17.037  0.2433  0.5966 -0.0010
 4127SOL    HW124014   3.748   2.129  17.129  1.3667  0.2945  0.0445
 4127SOL    HW224015   3.706   2.232  17.027  3.5209  2.6332 -0.8146
 4128SOL     OW24016   2.199   0.633   6.667  0.0750 -0.7077 -0.2763
 4128SOL    HW124017   2.153   0.550   6.676 -0.2235 -0.6399 -1.2239
 4128SOL    HW224018   2.169   0.675   6.748  0.7540  1.6980 -1.2674
 4129SOL     OW24019   2.014   3.288  14.254 -0.0062  0.4631 -0.3273
 4129SOL    HW124020   1.926   3.322  14.239 -0.7048 -0.2234  2.1496
 4129SOL    HW224021   2.069   3.345  14.201 -0.4428  0.2903 -0.9681
 4130SOL     OW24022   4.514   1.433   5.893  0.1430  0.2612  0.3762
 4130SOL    HW124023   4.495   1.526   5.903 -2.8238 -0.4435  1.3987
 4130SOL    HW224024   4.499   1.416   5.800 -0.7775  2.3508  0.1450
 4131SOL     OW24025   3.976   1.510   9.018 -0.6449  0.2388  0.5800
 4131SOL    HW124026   3.990   1.574   8.949  1.4010 -1.1176 -0.2601
 4131SOL    HW224027   3.907   1.454   8.981 -1.3899  2.3097 -1.1716
 4132SOL     OW24028   0.465   3.299   3.571  0.0737  0.6073 -0.1995
 4132SOL    HW124029   0.485   3.209   3.546  1.4034  1.1928 -1.2656
 4132SOL    HW224030   0.435   3.330   3.486 -3.4042 -0.5398  0.6141
 4133SOL     OW24031   1.201   0.522   0.399  0.1199 -0.4460  0.2080
 4133SOL    HW124032   1.106   0.513   0.395  0.0875 -1.0452  2.2233
 4133SOL    HW224033   1.206   0.613   0.431 -0.4614  0.4098 -2.1517
 4134SOL     OW24034   2.490   3.788  10.224  0.4560  0.1342 -0.2620
 4134SOL    HW124035   2.520   3.745  10.144  1.1138  0.7816 -0.3694
 4134SOL    HW224036   2.480   3.719  10.289  0.7269 -0.3870 -0.7826
 4135SOL     OW24037   4.700   3.637   4.628  0.0007  0.1113 -0.2598
 4135SOL    HW124038   4.698   3.634   4.533 -0.1604 -1.4750 -0.2041
 4135SOL    HW224039   4.627   3.695   4.653 -1.5775 -2.1369  0.3662
 4136SOL     OW24040   3.481   3.441   6.368  0.4475 -0.1083 -0.1593
 4136SOL    HW124041   3.493   3.346   6.372 -0.0456 -0.2262 -1.4609
 4136SOL    HW224042   3.552   3.471   6.311 -1.1720  2.5920 -0.7755
 4137SOL     OW24043   3.926   2.786   3.945  0.9717  0.2478  0.3393
 4137SOL    HW124044   3.862   2.828   3.887  0.0226  0.0351  1.2329
 4137SOL    HW224045   3.964   2.864   3.986  1.1946  0.3739 -0.1032
 4138SOL     OW24046   2.890   3.955  13.887  0.2375  0.1964 -0.4223
 4138SOL    HW124047   2.928   4.025  13.833  0.1320  0.8113  0.3068
 4138SOL    HW224048   2.829   3.916  13.824  2.0627 -0.7450 -1.6362
 4139SOL     OW24049   2.423   2.167   6.334  0.5560 -0.1514  0.9685
 4139SOL    HW124050   2.328   2.171   6.330  0.6130 -0.5053 -0.4717
 4139SOL    HW224051   2.448   2.255   6.307  0.2745 -0.8837 -1.7009
 4140SOL     OW24052   2.900   1.427   2.695  0.0920 -0.2538 -0.5446
 4140SOL    HW124053   2.837   1.414   2.766  0.2634  0.5236 -0.2503
 4140SOL    HW224054   2.880   1.341   2.659 -1.7905  0.1595 -0.4567
 4141SOL     OW24055   4.551   4.351  14.507  0.6090  0.0373 -0.5945
 4141SOL    HW124056   4.516   4.426  14.555  0.5278  0.7850 -1.8352
 4141SOL    HW224057   4.573   4.284  14.572  0.8148  1.2616  0.5889
 4142SOL     OW24058   3.374   3.720   6.092  0.5373  0.1208  0.3636
 4142SOL    HW124059   3.443   3.765   6.140  1.0752  2.9225 -3.0426
 4142SOL    HW224060   3.297   3.748   6.142 -0.1213  0.0191 -0.5833
 4143SOL     OW24061   0.325   4.512   9.716  0.2893  0.3527 -0.0868
 4143SOL    HW124062   0.243   4.473   9.685 -0.2704  0.0032  1.8799
 4143SOL    HW224063   0.386   4.518   9.642 -0.2955 -1.9909 -0.7603
 4144SOL     OW24064   3.322   2.209   9.535 -0.1585 -0.2480 -0.0344
 4144SOL    HW124065   3.295   2.221   9.444 -1.1849 -2.0130  0.0361
 4144SOL    HW224066   3.271   2.133   9.564  2.3852 -1.4481  1.2477
 4145SOL     OW24067   1.430   4.166   4.499  0.0019  0.3418 -0.2378
 4145SOL    HW124068   1.501   4.106   4.476 -2.7588 -4.1636  2.9168
 4145SOL    HW224069   1.379   4.169   4.418 -0.7561 -1.6509  0.1714
 4146SOL     OW24070   1.929   4.674   9.871 -0.3084  0.7004  0.1192
 4146SOL    HW124071   1.964   0.030   9.864  0.8373  0.2479  0.1688
 4146SOL    HW224072   1.862   4.679   9.802 -0.6879  0.7990  0.4955
 4147SOL     OW24073   1.274   1.493  11.924  0.3380  0.1377  0.8795
 4147SOL    HW124074   1.345   1.442  11.962  1.5480  0.9118 -0.3504
 4147SOL    HW224075   1.215   1.509  11.998 -0.1174  2.6345 -0.0112
 4148SOL     OW24076   1.472   2.933   9.830 -0.1478  0.4450  0.0973
 4148SOL    HW124077   1.545   2.878   9.800 -0.5408 -0.3030  0.5091
 4148SOL    HW224078   1.420   2.858   9.858 -0.3026  0.2813 -0.6126
 4149SOL     OW24079   3.725   0.308   1.364 -0.5822 -0.5585  1.1404
 4149SOL    HW124080   3.809   0.290   1.322 -0.1973  2.9104  0.4252
 4149SOL    HW224081   3.666   0.286   1.293 -0.4622  1.8685  0.2848
 4150SOL     OW24082   4.431   0.302  17.384  0.3995  0.2986 -1.0131
 4150SOL    HW124083   4.373   0.301  17.308  1.5662 -1.6741 -1.8828
 4150SOL    HW224084   4.506   0.258  17.343 -0.0090 -3.5296  2.3500
 4151SOL     OW24085   1.932   0.181   1.895 -0.0383  0.5826  0.0475
 4151SOL    HW124086   1.989   0.256   1.916  1.5113 -0.1709 -1.4500
 4151SOL    HW224087   1.937   0.131   1.977 -0.0217  2.4061  1.1627
 4152SOL     OW24088   2.298   1.400  11.869  0.0483 -0.0687 -0.3361
 4152SOL    HW124089   2.212   1.404  11.827 -0.3533 -0.7249  0.4299
 4152SOL    HW224090   2.273   1.360  11.952  2.4920 -1.7714 -0.4085
 4153SOL     OW24091   2.398   1.193   9.193  0.0116  0.3025 -0.2052
 4153SOL    HW124092   2.482   1.199   9.147 -1.2135  0.7211 -2.4248
 4153SOL    HW224093   2.361   1.110   9.164  0.1581 -0.3063  1.3988
 4154SOL     OW24094   4.691   4.136   2.157  0.2560 -0.2687  0.3009
 4154SOL    HW124095   4.694   4.160   2.249  2.8770  1.8690 -0.3624
 4154SOL    HW224096   4.704   4.224   2.122 -1.9455 -0.2437 -0.4955
 4155SOL     OW24097   1.640   1.434   7.266  0.0189 -0.0820 -0.3212
 4155SOL    HW124098   1.608   1.361   7.319 -2.2626 -0.2203 -1.8697
 4155SOL    HW224099   1.651   1.401   7.177  1.8438  0.5601 -0.3338
 4156SOL     OW24100   3.017   2.098  11.275 -0.3547 -0.4699  0.2858
 4156SOL    HW124101   3.087   2.083  11.338  0.8125 -1.4088 -1.2394
 4156SOL    HW224102   3.061   2.060  11.199  0.1326 -2.1633  1.4042
 4157SOL     OW24103   3.104   1.143   6.502 -0.6163  0.2481 -0.8319
 4157SOL    HW124104   3.069   1.100   6.580 -1.1137  0.4647 -0.9408
 4157SOL    HW224105   3.077   1.231   6.529 -2.8827  0.0995 -2.6881
 4158SOL     OW24106   1.500   3.113   1.343  0.2015  0.4588  0.3621
 4158SOL    HW124107   1.452   3.141   1.265  1.8954  0.1078 -0.7945
 4158SOL    HW224108   1.509   3.022   1.316 -1.3552  0.3138  0.3543
 4159SOL     OW24109   3.683   4.245  10.338 -0.0594  0.0929 -0.0880
 4159SOL    HW124110   3.678   4.285  10.252 -1.9008 -0.5869 -0.3117
 4159SOL    HW224111   3.766   4.198  10.341  0.6874  1.3051 -2.2570
 4160SOL     OW24112   2.540   3.437   1.373 -0.1041 -0.1324  0.0331
 4160SOL    HW124113   2.515   3.523   1.340  0.5179  0.4502  1.0920
 4160SOL    HW224114   2.473   3.421   1.439 -0.7227 -0.8788 -0.7643
 4161SOL     OW24115   1.314   1.175   4.989 -0.0696 -0.2984  0.6977
 4161SOL    HW124116   1.228   1.213   5.003  0.0063  0.3057 -0.4873
 4161SOL    HW224117   1.366   1.227   5.050 -1.3751  1.0388  0.6597
 4162SOL     OW24118   1.867   4.326   7.078  0.5242  0.3147  0.2502
 4162SOL    HW124119   1.793   4.293   7.027  1.2596  1.3401 -1.5086
 4162SOL    HW224120   1.942   4.296   7.026  0.1754 -0.9843  0.4832
 4163SOL     OW24121   0.846   3.763   0.320 -0.5464  0.2179  0.3304
 4163SOL    HW124122   0.833   3.731   0.230 -1.6905  3.3638 -0.6199
 4163SOL    HW224123   0.754   3.773   0.343 -1.1966 -0.7064 -1.8585
 4164SOL     OW24124   0.658   4.037  11.337 -0.2264  0.0721 -0.1772
 4164SOL    HW124125   0.638   3.965  11.397  0.0662  2.2334  2.5316
 4164SOL    HW224126   0.716   4.088  11.394 -0.2880 -0.5343  0.4261
 4165SOL     OW24127   0.478   3.598   3.326  0.0874  0.4859  0.7243
 4165SOL    HW124128   0.469   3.636   3.238 -2.8522  0.4767  1.0207
 4165SOL    HW224129   0.437   3.511   3.320 -0.3126  0.7296 -0.1104
 4166SOL     OW24130   2.089   2.986   0.735 -0.0820  0.3943 -0.4761
 4166SOL    HW124131   2.073   3.070   0.778 -3.4356  1.7332 -4.3151
 4166SOL    HW224132   2.107   3.011   0.644 -2.4519  1.3558 -0.6921
 4167SOL     OW24133   0.034   0.767   3.705 -0.3794  0.5150  0.0051
 4167SOL    HW124134   4.678   0.792   3.731 -1.1080 -1.2699 -0.7118
 4167SOL    HW224135   0.014   0.690   3.651 -0.7778  1.0657 -0.6243
 4168SOL     OW24136   0.424   1.103   8.630 -0.3482 -0.2469  0.7644
 4168SOL    HW124137   0.462   1.079   8.715 -1.8378 -0.4286  1.3786
 4168SOL    HW224138   0.359   1.164   8.666  1.7126  0.2425  3.6604
 4169SOL     OW24139   1.224   3.755   5.719 -0.2092 -0.4533  0.4495
 4169SOL    HW124140   1.139   3.798   5.711 -2.0349 -3.8196  1.6541
 4169SOL    HW224141   1.200   3.676   5.768  3.0878 -1.2691  0.6990
 4170SOL     OW24142   3.612   4.038   2.531  0.4848  0.1167 -0.1832
 4170SOL    HW124143   3.562   4.115   2.503  0.4810 -0.5268 -1.9735
 4170SOL    HW224144   3.666   4.014   2.456 -1.7726  0.3625 -1.8779
 4171SOL     OW24145   0.729   4.109   2.205 -0.0840 -0.0029  0.3990
 4171SOL    HW124146   0.756   4.137   2.118  1.7521 -0.0202  0.9643
 4171SOL    HW224147   0.644   4.074   2.179  0.6093  0.8166 -2.8906
 4172SOL     OW24148   3.663   2.586  15.382 -0.4721  0.7020 -0.3435
 4172SOL    HW124149   3.744   2.583  15.433  0.1677 -0.9014 -1.4567
 4172SOL    HW224150   3.699   2.568  15.295 -0.3233  1.0208 -0.3496
 4173SOL     OW24151   4.499   1.275   9.936 -0.4692  0.1827  0.3452
 4173SOL    HW124152   4.463   1.254   9.850 -0.6833  0.0870  0.4584
 4173SOL    HW224153   4.420   1.298   9.986 -0.2090 -1.2657  1.4525
 4174SOL     OW24154   4.138   3.767   3.632 -0.0714  0.6432  0.2132
 4174SOL    HW124155   4.059   3.820   3.645 -0.0859  0.9270 -0.9928
 4174SOL    HW224156   4.105   3.702   3.569  0.2366  1.6583 -1.0090
 4175SOL     OW24157   0.807   4.318   7.479  0.1130 -0.3882  0.0579
 4175SOL    HW124158   0.749   4.387   7.512  1.7759  1.0661 -0.0749
 4175SOL    HW224159   0.751   4.276   7.413 -1.1869 -1.7856  2.0536
 4176SOL     OW24160   1.911   3.389   2.552  0.0861 -0.0846 -0.0710
 4176SOL    HW124161   1.865   3.314   2.514  0.7820 -1.3854  1.6557
 4176SOL    HW224162   1.956   3.410   2.471 -0.0757  0.0067 -0.1372
 4177SOL     OW24163   4.239   0.265   7.003 -0.0685 -0.6872  0.3142
 4177SOL    HW124164   4.308   0.280   7.068  1.6952  3.1773 -2.3801
 4177SOL    HW224165   4.269   0.185   6.960  1.4301 -1.0810  2.0893
 4178SOL     OW24166   0.390   1.912  16.821 -0.4029  0.2219 -0.0419
 4178SOL    HW124167   0.325   1.982  16.810  0.7725  1.6958  2.2516
 4178SOL    HW224168   0.357   1.853  16.888 -1.6281  0.8377 -0.0909
 4179SOL     OW24169   3.154   3.802   5.356  0.3829  0.1907 -0.0790
 4179SOL    HW124170   3.224   3.745   5.389  0.5513 -0.4817 -1.6105
 4179SOL    HW224171   3.129   3.775   5.268  1.1271  0.9306 -0.5243
 4180SOL     OW24172   2.462   2.512   4.401  0.0244 -0.0158 -0.0894
 4180SOL    HW124173   2.546   2.553   4.379  0.9128 -1.1684  1.0897
 4180SOL    HW224174   2.420   2.587   4.443  1.1054  1.6473 -1.9630
 4181SOL     OW24175   1.006   2.405   3.244  0.6626  0.6227 -0.9478
 4181SOL    HW124176   0.916   2.400   3.277  2.0422 -0.8029  2.5956
 4181SOL    HW224177   0.991   2.385   3.152  1.2947 -0.6026 -0.7871
 4182SOL     OW24178   0.023   1.512   8.596  0.4897  0.0034  0.2267
 4182SOL    HW124179   4.702   1.529   8.674 -2.1257  1.3347 -1.8746
 4182SOL    HW224180   0.057   1.599   8.576 -0.9798  0.3808 -0.6327
 4183SOL     OW24181   4.579   4.619   7.042 -0.9316 -0.0672 -0.5538
 4183SOL    HW124182   4.524   4.685   6.999 -0.0474  0.8774 -0.2227
 4183SOL    HW224183   4.520   4.579   7.107  1.7572 -4.6490 -0.9372
 4184SOL     OW24184   2.563   2.994  16.923  0.5967  0.0156  0.2964
 4184SOL    HW124185   2.589   3.086  16.925 -3.0786  1.0512  0.3387
 4184SOL    HW224186   2.475   3.007  16.887  1.0024  2.2260  0.1121
 4185SOL     OW24187   4.441   3.138   5.145  0.7115 -0.3595  0.3491
 4185SOL    HW124188   4.466   3.201   5.213  2.7059 -1.2916  0.4704
 4185SOL    HW224189   4.514   3.149   5.084  1.1207 -2.7800  0.4093
 4186SOL     OW24190   2.761   4.103   5.208 -0.1979  0.5655  0.1083
 4186SOL    HW124191   2.683   4.096   5.153  0.6391  2.2733 -1.2928
 4186SOL    HW224192   2.739   4.046   5.281  0.1876  0.1977 -0.0624
 4187SOL     OW24193   3.104   3.065  14.121  0.1573 -0.3421 -0.3148
 4187SOL    HW124194   3.125   2.975  14.144  0.2151 -0.8535 -2.3658
 4187SOL    HW224195   3.183   3.112  14.148  0.2870 -1.0067  0.4465
 4188SOL     OW24196   1.276   3.454   7.861  0.7984  0.1297  0.0612
 4188SOL    HW124197   1.267   3.391   7.933 -0.6471  1.3612  0.9486
 4188SOL    HW224198   1.184   3.481   7.860  0.8589  0.2739 -1.2004
 4189SOL     OW24199   2.464   3.657   8.251 -0.0897  0.3147 -0.4302
 4189SOL    HW124200   2.499   3.745   8.264 -0.1103  0.4177 -1.0710
 4189SOL    HW224201   2.420   3.666   8.167 -0.6699  0.8272 -0.0729
 4190SOL     OW24202   0.262   3.534  15.737  0.1684 -0.2422 -0.3698
 4190SOL    HW124203   0.178   3.538  15.692 -1.1463  1.1735  2.2242
 4190SOL    HW224204   0.292   3.443  15.726  0.2108 -0.2748 -0.0094
 4191SOL     OW24205   3.734   2.341   3.645  0.6679  0.1004 -0.4412
 4191SOL    HW124206   3.659   2.389   3.609  1.2214  1.5041  0.2472
 4191SOL    HW224207   3.738   2.362   3.738  0.2948  1.7678 -0.7882
 4192SOL     OW24208   2.551   1.942   3.971 -0.6807 -0.1207 -0.4689
 4192SOL    HW124209   2.575   1.899   4.053  1.0272  0.5432 -0.6188
 4192SOL    HW224210   2.529   1.864   3.920  1.4661  0.7114 -2.6535
 4193SOL     OW24211   0.370   2.904   1.699  0.3137 -0.0962  0.2679
 4193SOL    HW124212   0.456   2.906   1.656  0.1990  0.7522  0.0630
 4193SOL    HW224213   0.330   2.988   1.673 -0.0122 -0.6323 -0.9500
 4194SOL     OW24214   4.112   2.045   3.660  0.0904 -0.4310  0.4022
 4194SOL    HW124215   4.017   2.052   3.674 -0.1734  0.3367 -1.7672
 4194SOL    HW224216   4.137   2.137   3.675  0.3876 -0.5519  0.6618
 4195SOL     OW24217   2.015   3.840   9.135  0.8645  0.4703  0.0560
 4195SOL    HW124218   1.943   3.890   9.173  0.7028  0.5876 -0.4006
 4195SOL    HW224219   2.045   3.792   9.212  0.4182 -1.5906 -1.0616
 4196SOL     OW24220   4.720   0.325   4.386  0.7090  0.5806  0.6438
 4196SOL    HW124221   4.724   0.268   4.309 -1.5097  1.1188  0.1503
 4196SOL    HW224222   4.688   0.257   4.446 -0.6177  0.1746 -0.5329
 4197SOL     OW24223   1.826   2.772   9.551 -1.1004  0.0908 -0.6729
 4197SOL    HW124224   1.785   2.788   9.635  0.1481 -0.8048  0.1148
 4197SOL    HW224225   1.754   2.795   9.493 -1.5087 -0.4422 -0.3766
 4198SOL     OW24226   3.570   3.198   4.653  0.4009  0.7436  0.1903
 4198SOL    HW124227   3.484   3.175   4.687 -0.4713  0.4145 -2.2319
 4198SOL    HW224228   3.579   3.285   4.690 -1.7692  1.8031 -1.7947
 4199SOL     OW24229   1.545   3.670   1.139 -0.4316 -0.4123  0.5841
 4199SOL    HW124230   1.596   3.625   1.071  0.6312 -0.9901  1.7554
 4199SOL    HW224231   1.625   3.707   1.178  0.0258 -0.8644  0.0879
 4200SOL     OW24232   1.557   4.293   9.610  0.3640  0.0572 -0.0010
 4200SOL    HW124233   1.629   4.351   9.586  1.4600 -1.1907  0.2667
 4200SOL    HW224234   1.485   4.352   9.630  1.3453  0.6492  1.7272
 4201SOL     OW24235   0.481   4.608   2.384  0.0615 -0.0038  0.0821
 4201SOL    HW124236   0.458   4.680   2.325 -0.7536  0.0684  0.4932
 4201SOL    HW224237   0.526   4.547   2.325  0.9678 -0.2571  1.0480
 4202SOL     OW24238   0.077   0.217   3.150 -0.6570  0.1007  0.4915
 4202SOL    HW124239   0.052   0.297   3.103 -0.9569 -0.2969 -0.0248
 4202SOL    HW224240   0.019   0.225   3.225  0.8670 -0.8202  1.7634
 4203SOL     OW24241   4.215   3.630  14.515  1.0822  0.4494 -0.1399
 4203SOL    HW124242   4.145   3.616  14.451  0.8743  1.4589 -0.1269
 4203SOL    HW224243   4.203   3.556  14.575  0.4486  1.0931  0.5197
 4204SOL     OW24244   4.540   0.383  14.781  0.3024  0.0673 -0.2428
 4204SOL    HW124245   4.453   0.351  14.757  0.4352 -0.5673  0.1249
 4204SOL    HW224246   4.584   0.338  14.709 -0.8489 -0.8089 -0.3914
 4205SOL     OW24247   3.836   3.271   3.782 -0.0198 -0.5982 -0.0101
 4205SOL    HW124248   3.886   3.213   3.841  0.4115 -0.0610  0.1508
 4205SOL    HW224249   3.890   3.270   3.703  1.6271  1.7583  1.0924
 4206SOL     OW24250   3.945   2.289   3.481 -0.2739 -0.0712  0.2808
 4206SOL    HW124251   3.874   2.297   3.544  0.8666 -0.1097  1.5636
 4206SOL    HW224252   3.908   2.206   3.449 -0.8314  0.3209 -0.0968
 4207SOL     OW24253   1.234   3.807   1.551  0.2624 -0.9244  0.2786
 4207SOL    HW124254   1.141   3.792   1.571 -0.0480 -0.3575 -0.7437
 4207SOL    HW224255   1.259   3.715   1.541 -1.1678 -1.0306 -2.4671
 4208SOL     OW24256   3.615   0.679   4.467  0.6975  0.3014  0.5313
 4208SOL    HW124257   3.531   0.692   4.511  0.8599 -2.7789  1.8066
 4208SOL    HW224258   3.672   0.723   4.530 -0.5795  0.2178  1.7593
 4209SOL     OW24259   2.949   3.165   8.529  0.5396 -0.1095 -0.7272
 4209SOL    HW124260   3.024   3.129   8.575  0.0779  0.3615  0.3988
 4209SOL    HW224261   2.905   3.218   8.597  1.3503 -0.9194  0.4143
 4210SOL     OW24262   3.602   3.740   6.293  0.2339 -0.3221  0.0504
 4210SOL    HW124263   3.677   3.791   6.261  0.7894 -2.4669 -2.0534
 4210SOL    HW224264   3.596   3.674   6.224  0.4212  0.3095 -0.5618
 4211SOL     OW24265   2.291   0.804   2.110 -0.4102  0.1071  0.3120
 4211SOL    HW124266   2.344   0.730   2.081  4.2383  3.2204  0.8979
 4211SOL    HW224267   2.345   0.836   2.182  1.5540 -0.5044 -0.8782
 4212SOL     OW24268   4.388   0.486   3.609  0.3813 -0.2375  0.5158
 4212SOL    HW124269   4.333   0.408   3.604  0.9339 -0.5898 -0.0810
 4212SOL    HW224270   4.417   0.462   3.697 -1.3426 -1.6283  0.7112
 4213SOL     OW24271   3.929   3.540   0.732 -0.0123  0.1272  0.9999
 4213SOL    HW124272   3.987   3.538   0.656 -2.0415 -0.8861 -0.5012
 4213SOL    HW224273   3.974   3.609   0.781  0.0348  1.1417 -0.4703
 4214SOL     OW24274   4.158   1.288   3.520 -0.0948  0.2839  0.0811
 4214SOL    HW124275   4.154   1.209   3.575 -0.5607 -0.2786 -0.7658
 4214SOL    HW224276   4.168   1.259   3.430  1.2841  0.5271  0.1613
 4215SOL     OW24277   0.016   1.766  11.107  0.0860 -0.4514  0.1481
 4215SOL    HW124278   4.720   1.845  11.061  1.7803 -0.3058 -0.6444
 4215SOL    HW224279   0.111   1.777  11.105  0.3034 -2.5519 -1.0416
 4216SOL     OW24280   0.927   1.965   3.750  0.9561  0.0587  0.0401
 4216SOL    HW124281   0.881   1.895   3.703  0.6099  0.9536 -0.9744
 4216SOL    HW224282   0.877   2.041   3.720  1.8545  1.1617  1.3546
 4217SOL     OW24283   2.865   2.117   8.943  0.2348  0.0337  0.1638
 4217SOL    HW124284   2.895   2.166   8.867 -0.0896  0.8134  0.5370
 4217SOL    HW224285   2.931   2.146   9.007  0.3897 -0.4056  0.2085
 4218SOL     OW24286   2.938   1.998   4.780  0.3898  0.1377 -0.7361
 4218SOL    HW124287   2.962   2.011   4.872 -0.3714 -1.2453 -0.3506
 4218SOL    HW224288   3.019   2.031   4.741  1.1238 -1.6995 -0.7736
 4219SOL     OW24289   3.332   0.271   2.561  0.1491 -0.3483  0.1700
 4219SOL    HW124290   3.292   0.352   2.590 -0.2859 -0.3221 -0.4988
 4219SOL    HW224291   3.343   0.221   2.642 -0.7460 -2.6480 -1.1024
 4220SOL     OW24292   1.692   2.252   9.153 -0.4113 -0.2624  0.3141
 4220SOL    HW124293   1.611   2.201   9.148  0.0002 -0.8941  0.0761
 4220SOL    HW224294   1.679   2.307   9.076 -1.4448 -0.0196  0.6676
 4221SOL     OW24295   2.664   0.797   4.036  0.0446 -0.0622 -0.0908
 4221SOL    HW124296   2.739   0.857   4.044 -0.2683  0.3594 -0.3077
 4221SOL    HW224297   2.700   0.724   4.086  0.3401 -0.4201 -0.8187
 4222SOL     OW24298   2.129   0.815   5.794  0.4636 -0.3458 -0.3401
 4222SOL    HW124299   2.060   0.835   5.858 -0.1788 -0.7101 -0.9234
 4222SOL    HW224300   2.207   0.835   5.847 -0.3127  1.1149  0.2443
 4223SOL     OW24301   4.650   3.017   7.204  0.0763  0.1563  0.3110
 4223SOL    HW124302   4.706   2.991   7.131 -2.6659  2.4633 -2.6121
 4223SOL    HW224303   4.614   2.928   7.216  0.7727 -0.5252 -2.6411
 4224SOL     OW24304   0.336   2.602   9.773 -0.0055 -0.5844  0.3421
 4224SOL    HW124305   0.305   2.570   9.858 -0.8819 -1.7968 -0.4322
 4224SOL    HW224306   0.351   2.515   9.735  0.6719 -0.6605  0.7982
 4225SOL     OW24307   1.456   4.001   9.101 -0.0163  0.0376 -0.4176
 4225SOL    HW124308   1.510   4.051   9.163  1.4345 -4.3914  1.9412
 4225SOL    HW224309   1.379   4.054   9.120 -1.6294 -2.3088 -0.4831
 4226SOL     OW24310   3.149   4.229  17.178  0.4188 -0.2982  0.1444
 4226SOL    HW124311   3.096   4.286  17.123 -0.5954 -0.8398  0.5620
 4226SOL    HW224312   3.237   4.265  17.169  0.3587  0.1044  1.1364
 4227SOL     OW24313   0.679   3.720   0.925 -0.0442  0.0352  0.3888
 4227SOL    HW124314   0.727   3.647   0.963 -0.3930 -0.5706 -0.3248
 4227SOL    HW224315   0.729   3.746   0.848  0.5753 -0.0092  0.7745
 4228SOL     OW24316   3.170   3.139   8.682  0.2715  0.8178 -0.8063
 4228SOL    HW124317   3.153   3.177   8.769  1.9176 -0.4159  0.0453
 4228SOL    HW224318   3.246   3.086   8.707 -0.6730 -0.0271  0.2922
 4229SOL     OW24319   2.276   3.952   7.683  0.3275  0.2886  0.5056
 4229SOL    HW124320   2.252   4.044   7.670  1.6840  0.8691  2.1111
 4229SOL    HW224321   2.240   3.940   7.771  0.6179 -0.8993  0.4535
 4230SOL     OW24322   0.956   4.159   5.703 -0.6398 -0.7473  0.9186
 4230SOL    HW124323   0.994   4.179   5.617 -0.8561 -2.2512  0.4810
 4230SOL    HW224324   0.890   4.228   5.700  0.9442  0.8355  2.5472
 4231SOL     OW24325   0.229   4.593   6.233  0.1553  0.4791  0.4198
 4231SOL    HW124326   0.161   4.527   6.250  0.4877 -0.6553 -2.6435
 4231SOL    HW224327   0.179   4.671   6.257  0.9416  0.7583  1.1511
 4232SOL     OW24328   0.672   4.712   1.233 -0.2599  0.2316 -0.1918
 4232SOL    HW124329   0.590   4.718   1.282 -0.9248 -0.3840 -1.2218
 4232SOL    HW224330   0.721   0.048   1.278  1.0234  1.0291 -2.8079
 4233SOL     OW24331   4.452   1.986  13.271 -0.0905  0.6546 -0.6444
 4233SOL    HW124332   4.421   2.066  13.230 -0.9958 -0.3106 -1.8597
 4233SOL    HW224333   4.459   2.017  13.362  1.1886  3.5639 -1.7469
 4234SOL     OW24334   3.962   3.265   7.344  0.4136  0.1250 -0.3964
 4234SOL    HW124335   4.040   3.280   7.291  1.3542  0.4015  1.0694
 4234SOL    HW224336   3.895   3.323   7.307 -3.0231 -1.4869  3.3470
 4235SOL     OW24337   0.551   2.986  17.275 -0.2525 -0.4512  0.0948
 4235SOL    HW124338   0.577   3.070  17.313  0.4012 -0.3280 -0.6334
 4235SOL    HW224339   0.618   2.973  17.209 -1.6540  0.5278 -1.5241
 4236SOL     OW24340   2.280   1.293   6.507  0.3015 -0.2316  0.2316
 4236SOL    HW124341   2.238   1.322   6.426 -0.2226 -2.0079 -0.1294
 4236SOL    HW224342   2.260   1.200   6.513  0.8672 -0.4742 -1.7887
 4237SOL     OW24343   3.086   2.878   2.327  0.2943 -0.4555  0.0914
 4237SOL    HW124344   3.134   2.925   2.395  0.6943 -1.0536  0.2272
 4237SOL    HW224345   3.119   2.791   2.349  0.0958 -0.4553  0.3942
 4238SOL     OW24346   3.764   1.386  10.416  0.1737  0.6558  0.2938
 4238SOL    HW124347   3.672   1.392  10.390  0.2975  2.0253  0.1842
 4238SOL    HW224348   3.784   1.311  10.361 -0.7712 -0.7699  1.8957
 4239SOL     OW24349   3.258   3.113   6.341 -0.5212  0.1831 -0.0980
 4239SOL    HW124350   3.267   3.197   6.386 -0.8129 -0.5768  1.3795
 4239SOL    HW224351   3.189   3.132   6.278  0.1360 -0.5132 -1.0287
 4240SOL     OW24352   0.182   4.120   2.667  0.3004 -0.3164  0.4671
 4240SOL    HW124353   0.248   4.147   2.731 -1.3606  1.3223  1.4825
 4240SOL    HW224354   0.216   4.046   2.617  1.6116  0.6991 -0.1668
 4241SOL     OW24355   0.577   1.688   5.429 -0.2646 -0.1448 -0.5799
 4241SOL    HW124356   0.627   1.698   5.349 -1.5639  1.2813 -1.2173
 4241SOL    HW224357   0.637   1.718   5.497 -0.4784 -0.8096 -0.0842
 4242SOL     OW24358   0.685   2.051   8.742  0.4780  0.5144 -0.0359
 4242SOL    HW124359   0.589   2.054   8.737  0.3720 -1.5501  0.8670
 4242SOL    HW224360   0.710   2.141   8.721 -1.5367  0.9750 -0.4933
 4243SOL     OW24361   3.803   4.317   2.103 -0.3368  0.6135  0.6216
 4243SOL    HW124362   3.895   4.331   2.122 -0.0742  1.7126 -1.4543
 4243SOL    HW224363   3.768   4.383   2.163  0.5640  0.6524  1.0906
 4244SOL     OW24364   1.940   2.808   4.268 -0.0954  0.1658 -0.2576
 4244SOL    HW124365   1.985   2.889   4.289  0.3788 -0.7551  2.1906
 4244SOL    HW224366   1.905   2.784   4.354  1.8754  1.3797  0.8640
 4245SOL     OW24367   0.358   4.388  16.881 -0.3031 -0.4252 -0.4832
 4245SOL    HW124368   0.356   4.453  16.951 -1.2557  0.3285 -1.2047
 4245SOL    HW224369   0.446   4.390  16.844  0.0571 -0.7961  0.3532
 4246SOL     OW24370   1.351   3.262   6.282  0.2302 -0.6364 -0.0845
 4246SOL    HW124371   1.266   3.236   6.249  1.4853 -1.9504 -2.2685
 4246SOL    HW224372   1.320   3.346   6.317  3.5339 -0.3414  2.1678
 4247SOL     OW24373   3.148   0.078   2.000  0.1297  0.2196  0.4139
 4247SOL    HW124374   3.149   0.173   1.988  0.8171 -0.1177 -2.3494
 4247SOL    HW224375   3.110   0.085   2.088  1.7577  0.7537  1.0698
 4248SOL     OW24376   4.706   0.287  17.078  0.1496 -0.0910  0.2987
 4248SOL    HW124377   4.631   0.318  17.130  0.7644  1.2895  0.3636
 4248SOL    HW224378   4.723   0.207  17.127 -1.2230  0.4116  1.6076
 4249SOL     OW24379   3.325   3.854   5.683  0.4354 -0.3157  0.7448
 4249SOL    HW124380   3.378   3.796   5.739 -0.9817 -0.4422  1.9657
 4249SOL    HW224381   3.282   3.800   5.617  2.3377  2.1563 -2.4741
 4250SOL     OW24382   2.847   3.829  15.131  0.3735  0.2897 -0.1657
 4250SOL    HW124383   2.931   3.803  15.168 -0.5530  0.5829  2.1354
 4250SOL    HW224384   2.828   3.904  15.187 -1.4989 -0.3502  0.0676
 4251SOL     OW24385   0.853   4.032  12.145 -0.0487 -0.0258 -0.3417
 4251SOL    HW124386   0.907   4.013  12.068  0.9170 -1.4195  0.6762
 4251SOL    HW224387   0.878   3.964  12.208 -1.6325 -0.9848 -0.7671
 4252SOL     OW24388   4.613   2.083  12.249 -0.4403  0.5598 -0.1737
 4252SOL    HW124389   4.550   2.155  12.251 -0.8872  0.0946  3.8203
 4252SOL    HW224390   4.701   2.121  12.248 -0.2831  0.1475 -1.5993
 4253SOL     OW24391   0.034   4.424   6.588  0.2539  0.1389  0.3174
 4253SOL    HW124392   0.023   4.451   6.679 -1.4756  0.1623  0.1056
 4253SOL    HW224393   4.683   4.455   6.552 -0.1942 -2.1171 -0.5372
 4254SOL     OW24394   4.657   0.271  14.564  0.1008 -0.2001 -0.0092
 4254SOL    HW124395   4.596   0.274  14.490  1.8018 -0.8476 -1.4290
 4254SOL    HW224396   4.691   0.182  14.556  0.0496 -0.2158 -0.0497
 4255SOL     OW24397   1.869   1.592  11.379  0.2871  0.4308  0.5201
 4255SOL    HW124398   1.951   1.561  11.341 -1.0434 -2.2710 -0.1363
 4255SOL    HW224399   1.874   1.685  11.358 -0.6720  0.4837  0.5411
 4256SOL     OW24400   4.203   1.319   5.342 -0.6084 -0.7076 -0.5577
 4256SOL    HW124401   4.249   1.260   5.282 -1.9737 -0.0424 -2.2493
 4256SOL    HW224402   4.171   1.385   5.281  0.1059 -0.2054 -0.3911
 4257SOL     OW24403   0.074   3.951   9.194  0.4003  0.2767 -0.7372
 4257SOL    HW124404   0.063   3.860   9.167 -1.0871 -0.1423  1.2581
 4257SOL    HW224405   0.001   3.964   9.255  0.9359  1.4846 -0.3579
 4258SOL     OW24406   4.264   1.860   9.537 -0.0225  0.5509  0.1616
 4258SOL    HW124407   4.286   1.883   9.446  0.4172 -0.9639 -0.1204
 4258SOL    HW224408   4.303   1.934   9.582 -0.3995 -0.5115  2.2272
 4259SOL     OW24409   2.711   2.486   7.958  0.1693  0.0984  0.2497
 4259SOL    HW124410   2.696   2.463   7.867 -3.1204 -0.5124  0.9566
 4259SOL    HW224411   2.688   2.409   8.010  1.2298 -2.0496 -2.4616
 4260SOL     OW24412   4.128   0.813  16.381  0.3979 -0.3790  0.0873
 4260SOL    HW124413   4.144   0.753  16.307  2.8547  0.5018 -0.1024
 4260SOL    HW224414   4.218   0.820  16.411  0.5505  3.1547 -1.2632
 4261SOL     OW24415   3.147   0.719   5.337 -0.0562  0.2501 -1.0687
 4261SOL    HW124416   3.150   0.689   5.428  2.1612 -0.1820 -1.2616
 4261SOL    HW224417   3.191   0.645   5.294 -0.6007 -0.4627 -0.3861
 4262SOL     OW24418   0.101   3.807   8.057 -0.6012 -0.0569 -0.2334
 4262SOL    HW124419   0.150   3.796   8.138  0.5188  1.9529 -0.6298
 4262SOL    HW224420   0.038   3.737   8.072  1.0492 -1.1939  1.4049
 4263SOL     OW24421   3.506   3.149   1.400  0.1917 -0.1257 -0.5971
 4263SOL    HW124422   3.419   3.184   1.418 -0.1219 -1.9651  1.4892
 4263SOL    HW224423   3.562   3.226   1.408 -0.4316  0.4552 -1.8207
 4264SOL     OW24424   4.055   0.000   6.787 -0.3561  0.0153  0.1053
 4264SOL    HW124425   4.029   4.690   6.706  1.2624 -2.9918  1.1678
 4264SOL    HW224426   3.973   0.036   6.822  1.1047  1.0486  2.4387
 4265SOL     OW24427   3.866   0.868   5.012 -0.3599 -0.1288 -0.1389
 4265SOL    HW124428   3.813   0.907   4.943  0.1791  0.6973 -0.0776
 4265SOL    HW224429   3.800   0.854   5.080  0.2666  0.1506  0.5289
 4266SOL     OW24430   4.074   4.689  16.976  0.2470  0.4649  0.3217
 4266SOL    HW124431   4.074   0.020  16.905 -0.2226 -1.0550 -1.0304
 4266SOL    HW224432   3.993   4.712  17.021  1.3610  0.9868  2.0783
 4267SOL     OW24433   0.282   2.034   6.938 -0.5024  0.1719 -0.1554
 4267SOL    HW124434   0.236   2.025   6.855  1.8592  0.0834 -1.4534
 4267SOL    HW224435   0.368   2.060   6.904 -0.8349 -0.3200 -1.3805
 4268SOL     OW24436   2.691   1.059   5.192 -0.4283  0.3044 -0.0098
 4268SOL    HW124437   2.782   1.044   5.217  0.1107 -0.3462 -2.4404
 4268SOL    HW224438   2.703   1.125   5.124 -1.2119  0.9611  0.4924
 4269SOL     OW24439   1.840   0.242   9.058  0.5183  0.3581 -0.1372
 4269SOL    HW124440   1.768   0.302   9.075 -1.6991 -2.2207 -0.2761
 4269SOL    HW224441   1.815   0.193   8.979  0.1810  1.7287 -0.8863
 4270SOL     OW24442   0.389   3.408  17.250 -0.0315  0.3492 -0.6676
 4270SOL    HW124443   0.309   3.400  17.303 -0.3671  0.9154 -1.0944
 4270SOL    HW224444   0.388   3.502  17.232 -3.0270 -0.4625 -4.7283
 4271SOL     OW24445   1.014   0.309  17.459  0.1300  0.3021  0.6734
 4271SOL    HW124446   0.948   0.345  17.518 -2.2398 -2.0525 -0.5387
 4271SOL    HW224447   1.062   0.391  17.448 -0.4869  0.4772 -0.6155
 4272SOL     OW24448   1.072   1.713   7.413  0.0505 -0.5738 -0.1076
 4272SOL    HW124449   1.091   1.778   7.346  0.1480  0.7603  1.2281
 4272SOL    HW224450   1.050   1.762   7.492 -1.1936 -2.3720  0.6870
 4273SOL     OW24451   4.096   0.283   2.343  0.0719 -0.2877 -0.3750
 4273SOL    HW124452   4.014   0.234   2.350  1.9291 -3.3399 -0.0231
 4273SOL    HW224453   4.086   0.335   2.263 -3.2624 -0.0317  0.1904
 4274SOL     OW24454   4.066   0.349   8.153  0.3685 -0.1527  0.2904
 4274SOL    HW124455   4.080   0.442   8.135 -0.2869  0.2359  1.7902
 4274SOL    HW224456   3.978   0.353   8.189 -0.5126  0.8407 -1.9382
 4275SOL     OW24457   4.455   2.284   7.279  0.6551  0.0984 -0.5943
 4275SOL    HW124458   4.507   2.320   7.351 -1.6544  2.9773 -0.3699
 4275SOL    HW224459   4.371   2.295   7.323  0.9035  1.0594 -0.3422
 4276SOL     OW24460   1.970   1.038  16.490 -0.0161 -0.2090 -0.2218
 4276SOL    HW124461   1.935   0.949  16.482 -1.1955  0.2014  0.4929
 4276SOL    HW224462   1.939   1.073  16.407  0.5686  1.2354  0.1755
 4277SOL     OW24463   0.174   2.476   8.507 -0.0487  0.2971 -0.0273
 4277SOL    HW124464   0.268   2.495   8.503 -0.2726  1.3396 -0.4000
 4277SOL    HW224465   0.172   2.380   8.500 -0.8081  0.2323  1.0847
 4278SOL     OW24466   1.341   4.656   0.803  0.0383 -0.1885  0.0380
 4278SOL    HW124467   1.390   4.664   0.721 -1.4028  0.7639 -0.7312
 4278SOL    HW224468   1.403   4.614   0.863 -0.5054  0.6070  1.1711
 4279SOL     OW24469   0.363   1.552   6.000 -0.0569  0.0827 -0.6900
 4279SOL    HW124470   0.324   1.549   5.913  0.5483  0.5386 -0.9731
 4279SOL    HW224471   0.445   1.510   5.975  0.7746  2.2339 -1.5239
 4280SOL     OW24472   2.769   2.667  16.121  0.1058 -0.0016 -0.8486
 4280SOL    HW124473   2.820   2.652  16.042 -0.6766 -1.8688 -0.9954
 4280SOL    HW224474   2.716   2.742  16.097 -1.1218 -1.0219 -1.3015
 4281SOL     OW24475   3.129   2.758  14.007  0.4583  0.3458  0.3532
 4281SOL    HW124476   3.198   2.756  13.941  0.5112  0.5612  0.4021
 4281SOL    HW224477   3.191   2.736  14.076  0.8741 -0.5389 -0.3109
 4282SOL     OW24478   0.942   3.508   7.081  0.1360  0.5113 -0.2555
 4282SOL    HW124479   0.871   3.482   7.140  0.5750  0.6552  0.3340
 4282SOL    HW224480   1.028   3.506   7.123  0.7852  1.7605 -1.5408
 4283SOL     OW24481   1.937   4.186   8.227  0.1479 -0.3098  0.2441
 4283SOL    HW124482   1.995   4.221   8.295  0.9448 -0.2279 -0.4816
 4283SOL    HW224483   1.915   4.096   8.251  0.6785 -0.2153  1.0902
 4284SOL     OW24484   0.873   1.056  13.135 -0.6717  0.3683 -0.1792
 4284SOL    HW124485   0.936   1.051  13.206  1.7499  1.1632 -2.2953
 4284SOL    HW224486   0.798   1.104  13.171 -1.8215 -1.1371 -0.5902
 4285SOL     OW24487   3.418   0.889   1.130  0.0203 -0.1702  0.4333
 4285SOL    HW124488   3.459   0.919   1.049 -0.4309  0.7659  0.5497
 4285SOL    HW224489   3.331   0.868   1.094  0.6657  0.0443 -1.2337
 4286SOL     OW24490   0.424   3.281  10.522  0.0942  0.0341  0.3501
 4286SOL    HW124491   0.462   3.205  10.566 -0.1054 -0.6954 -0.7333
 4286SOL    HW224492   0.359   3.236  10.469  1.5652 -0.7375 -0.7961
 4287SOL     OW24493   2.017   0.668  16.727 -0.1181 -0.4989  0.2723
 4287SOL    HW124494   2.107   0.669  16.694 -0.5401  1.2728 -0.8377
 4287SOL    HW224495   1.995   0.580  16.697  0.5575 -0.4506 -0.3676
 4288SOL     OW24496   2.021   0.840  15.135 -0.1344  0.2311  0.4226
 4288SOL    HW124497   2.046   0.927  15.105  1.5061  0.2647  1.8705
 4288SOL    HW224498   2.096   0.814  15.189 -0.5302 -3.1917 -0.6816
 4289SOL     OW24499   0.002   0.227  15.316  0.3524  0.2452  0.1579
 4289SOL    HW124500   4.682   0.178  15.380  0.4375  1.0833  0.8637
 4289SOL    HW224501   0.087   0.185  15.307 -0.0556 -0.6751  0.5145
 4290SOL     OW24502   3.010   2.592  12.675  0.1714  0.2728  0.1262
 4290SOL    HW124503   3.104   2.585  12.691 -0.2865 -3.7182  1.1738
 4290SOL    HW224504   3.016   2.602  12.580  0.3059 -1.8872 -0.0889
 4291SOL     OW24505   4.649   2.257  17.681 -0.0945  0.1724  0.2585
 4291SOL    HW124506   4.714   2.191  17.706 -1.3731 -2.0748 -2.3801
 4291SOL    HW224507   4.619   2.215  17.600 -1.4667 -1.1687  1.4556
 4292SOL     OW24508   4.263   2.434   1.199 -0.0914  0.2280  0.1660
 4292SOL    HW124509   4.301   2.372   1.137  1.3551 -0.6201  1.9013
 4292SOL    HW224510   4.314   2.421   1.278  0.0551  0.3171  0.0847
 4293SOL     OW24511   2.408   2.291  10.275 -0.1953 -0.2913  0.3143
 4293SOL    HW124512   2.491   2.245  10.288 -1.6810 -1.9544  4.0941
 4293SOL    HW224513   2.353   2.246  10.339 -1.2066 -1.0590 -1.0940
 4294SOL     OW24514   1.882   2.623   7.472  0.8261 -0.3002 -0.2969
 4294SOL    HW124515   1.806   2.585   7.516  0.8845 -0.5270 -0.3979
 4294SOL    HW224516   1.901   2.697   7.531 -0.8268  0.3560 -0.6008
 4295SOL     OW24517   3.423   2.897   3.685  0.7967 -0.2449  0.4436
 4295SOL    HW124518   3.490   2.957   3.718  0.3573 -0.4042  1.6581
 4295SOL    HW224519   3.465   2.870   3.604  0.2184  0.0701  0.0452
 4296SOL     OW24520   2.159   3.328   7.727 -0.3250  0.1437  0.1580
 4296SOL    HW124521   2.158   3.422   7.710 -1.8398  0.0853 -0.0667
 4296SOL    HW224522   2.161   3.287   7.640 -1.1123  0.3160  0.0551
 4297SOL     OW24523   4.678   4.006  17.259  0.1621 -0.2885  0.3629
 4297SOL    HW124524   4.639   4.025  17.174  1.0571  0.4637  0.1113
 4297SOL    HW224525   4.661   4.091  17.300  0.6833  0.2118 -0.4670
 4298SOL     OW24526   3.261   2.515   7.096  0.0669 -0.0774  0.3233
 4298SOL    HW124527   3.217   2.430   7.084 -0.0103  0.2593 -1.8338
 4298SOL    HW224528   3.281   2.507   7.189  1.6917  1.1412  0.0774
 4299SOL     OW24529   3.695   1.340   2.543  0.3635 -0.1041  0.0996
 4299SOL    HW124530   3.689   1.247   2.523  0.5412  0.0273 -0.5739
 4299SOL    HW224531   3.785   1.357   2.516  0.9395 -0.8435  1.5558
 4300SOL     OW24532   1.853   3.244   6.028  0.5236  0.7490 -0.4297
 4300SOL    HW124533   1.844   3.307   6.100 -1.4408 -2.5960  2.2527
 4300SOL    HW224534   1.765   3.240   5.990 -0.3243  0.6972  1.5432
 4301SOL     OW24535   0.396   0.844   7.519 -0.4368 -0.2327  0.2586
 4301SOL    HW124536   0.396   0.938   7.499 -0.1182 -0.0378  1.1731
 4301SOL    HW224537   0.383   0.805   7.433  0.4234 -1.0048  0.4816
 4302SOL     OW24538   3.479   1.758   2.407 -0.4864 -0.4768  0.1199
 4302SOL    HW124539   3.499   1.785   2.497  0.0490 -2.6849  0.6564
 4302SOL    HW224540   3.480   1.665   2.428 -1.4425 -0.8142 -1.3341
 4303SOL     OW24541   1.082   4.669   4.209 -0.4716  0.6394 -0.4057
 4303SOL    HW124542   1.094   0.017   4.260  1.2776  0.8880 -1.1956
 4303SOL    HW224543   0.996   4.645   4.243  1.1087 -0.3772  2.8384
 4304SOL     OW24544   4.440   2.759   4.216  0.1817  0.0885  0.7307
 4304SOL    HW124545   4.366   2.755   4.277  0.2369  0.4723  0.8224
 4304SOL    HW224546   4.419   2.691   4.152 -0.7301  2.0933 -1.1109
 4305SOL     OW24547   1.703   1.698   7.254  0.1947 -0.1966  0.2118
 4305SOL    HW124548   1.715   1.721   7.162 -0.1579 -2.7806 -0.4775
 4305SOL    HW224549   1.674   1.607   7.264 -0.3828  0.0168  0.5178
 4306SOL     OW24550   2.958   2.575   7.159 -0.3764  0.0856 -0.2484
 4306SOL    HW124551   2.935   2.661   7.194 -0.2222  0.9309 -2.2649
 4306SOL    HW224552   3.050   2.586   7.138 -0.1085 -0.2876  0.7020
 4307SOL     OW24553   0.455   4.689  16.721  0.1151 -0.3867 -0.1119
 4307SOL    HW124554   0.544   4.685  16.757 -1.3202  1.1508  3.6807
 4307SOL    HW224555   0.430   0.046  16.745  1.7795  0.2535 -0.7506
 4308SOL     OW24556   0.764   3.328  11.900 -0.2151  0.5324 -0.6693
 4308SOL    HW124557   0.817   3.386  11.953  1.4263 -1.1997 -0.4073
 4308SOL    HW224558   0.819   3.250  11.908  1.4239  1.6108 -1.4886
 4309SOL     OW24559   3.519   0.342   2.925  0.6680  0.2053  0.6060
 4309SOL    HW124560   3.479   0.345   3.012  2.0391 -1.1699  1.2862
 4309SOL    HW224561   3.462   0.402   2.876  2.6698  1.0419 -0.7218
 4310SOL     OW24562   1.686   4.031   4.407  0.0801  0.4043  0.3437
 4310SOL    HW124563   1.735   3.972   4.351  2.3559  0.6558  2.0851
 4310SOL    HW224564   1.736   4.021   4.488  0.5372 -3.3147 -0.4081
 4311SOL     OW24565   4.100   2.209   2.898  1.7357  0.3383 -0.2012
 4311SOL    HW124566   4.195   2.201   2.892  1.5761 -0.0023 -2.5538
 4311SOL    HW224567   4.087   2.114   2.895  0.4822  0.4869  0.2993
 4312SOL     OW24568   0.680   0.882  13.395 -0.1502  0.4930 -0.0393
 4312SOL    HW124569   0.599   0.922  13.427  0.3163  0.0766  1.6401
 4312SOL    HW224570   0.728   0.960  13.365 -0.5623  0.4505 -0.8248
 4313SOL     OW24571   0.376   0.444   9.814  0.5273 -0.5591 -0.1306
 4313SOL    HW124572   0.282   0.430   9.802  0.8196 -1.2456 -1.6880
 4313SOL    HW224573   0.387   0.485   9.899 -3.3280 -1.4141  0.7534
 4314SOL     OW24574   2.480   0.406   7.242 -0.4107 -0.1373  0.7154
 4314SOL    HW124575   2.391   0.372   7.231  0.6824 -2.5173 -0.7351
 4314SOL    HW224576   2.477   0.446   7.329  1.8726 -0.9902  1.1886
 4315SOL     OW24577   3.099   3.577  16.392  0.5896 -0.0577 -0.1545
 4315SOL    HW124578   3.071   3.654  16.441 -3.3144 -0.3491 -1.9642
 4315SOL    HW224579   3.182   3.613  16.362 -0.5927  2.7780 -0.0198
 4316SOL     OW24580   3.959   4.454   9.382 -0.1531 -0.2448  0.5343
 4316SOL    HW124581   3.956   4.520   9.312  1.1781 -1.3150 -0.5437
 4316SOL    HW224582   3.942   4.377   9.328 -0.7927  0.2784 -0.0089
 4317SOL     OW24583   0.571   4.018   9.679 -0.1760 -0.9051 -0.6890
 4317SOL    HW124584   0.491   3.990   9.723  0.6088 -4.1363 -1.3631
 4317SOL    HW224585   0.588   4.105   9.717  1.7260 -1.6279  0.1435
 4318SOL     OW24586   1.173   2.150  11.566  0.4714 -0.2723  0.2338
 4318SOL    HW124587   1.081   2.141  11.541  0.3815 -0.5274  0.6590
 4318SOL    HW224588   1.197   2.058  11.558  1.6550  0.1656 -1.3188
 4319SOL     OW24589   0.988   2.204   2.530 -0.3888 -0.1722  0.1043
 4319SOL    HW124590   0.955   2.198   2.620 -0.0649  0.9423  0.3012
 4319SOL    HW224591   0.955   2.290   2.507  1.0331  0.6016  0.9554
 4320SOL     OW24592   0.225   0.435   4.510  0.0436  0.4016  0.1278
 4320SOL    HW124593   0.150   0.391   4.470  1.1879 -0.7914 -0.7011
 4320SOL    HW224594   0.292   0.367   4.506 -4.0512 -3.6665  2.1880
 4321SOL     OW24595   3.939   1.560   5.423 -0.2791 -0.1538 -0.3596
 4321SOL    HW124596   3.876   1.615   5.376  0.2403 -0.7476 -1.7604
 4321SOL    HW224597   4.006   1.538   5.359  0.0720  0.0032 -0.0422
 4322SOL     OW24598   2.368   1.260   5.698 -0.1570 -0.2181 -0.1989
 4322SOL    HW124599   2.384   1.347   5.661 -1.5846 -0.1008 -0.5315
 4322SOL    HW224600   2.321   1.294   5.774  0.1998 -1.4742  0.5867
 4323SOL     OW24601   1.029   3.550   0.046  0.1064 -0.1687  0.5471
 4323SOL    HW124602   1.112   3.552   0.093  0.4111 -1.6366  0.0793
 4323SOL    HW224603   1.030   3.466   0.001  0.5541  0.5407 -0.7675
 4324SOL     OW24604   0.813   1.936   8.490 -0.2122  0.0397 -0.4690
 4324SOL    HW124605   0.830   2.013   8.436 -1.1640  0.4556 -0.1870
 4324SOL    HW224606   0.779   1.963   8.576 -1.5437  0.8971 -1.2649
 4325SOL     OW24607   4.596   0.458   2.313 -0.0788 -0.3928 -0.6219
 4325SOL    HW124608   4.514   0.457   2.264  1.3010 -1.9866 -2.8786
 4325SOL    HW224609   4.563   0.408   2.387 -0.3860  2.0542  0.9098
 4326SOL     OW24610   1.426   4.043   7.786  1.0633 -0.1125  0.0723
 4326SOL    HW124611   1.460   3.955   7.771 -1.6679 -1.1275 -0.2275
 4326SOL    HW224612   1.456   4.092   7.709 -1.2449 -0.9374 -1.3363
 4327SOL     OW24613   3.029   3.655  11.132  0.2497 -0.1499 -0.7665
 4327SOL    HW124614   2.964   3.600  11.176 -0.6808  0.5082 -1.3341
 4327SOL    HW224615   2.966   3.705  11.080 -2.0295 -1.8594  0.3159
 4328SOL     OW24616   3.581   3.036   7.457  0.5288 -0.1237  0.1718
 4328SOL    HW124617   3.657   3.026   7.514  1.8554  1.5198 -1.3217
 4328SOL    HW224618   3.570   2.943   7.439  0.1791  0.3371 -1.9200
 4329SOL     OW24619   0.325   4.528   4.429 -0.9332  0.6059 -0.0154
 4329SOL    HW124620   0.234   4.501   4.431 -1.3481  1.9890  0.0082
 4329SOL    HW224621   0.360   4.470   4.362 -1.9030 -0.9543  0.8493
 4330SOL     OW24622   4.684   1.533   1.204  0.2992  0.4622  0.0011
 4330SOL    HW124623   4.729   1.449   1.217 -0.0911  0.4190  1.0805
 4330SOL    HW224624   0.021   1.580   1.159 -0.7328 -0.3071 -2.3728
 4331SOL     OW24625   4.282   3.374  12.281 -0.2940 -0.0976 -0.2052
 4331SOL    HW124626   4.325   3.338  12.358  0.5919 -0.7868 -1.0137
 4331SOL    HW224627   4.202   3.322  12.278 -0.3773 -0.0279  0.8639
 4332SOL     OW24628   3.038   2.903  12.607  0.1064 -0.3297 -0.3298
 4332SOL    HW124629   3.008   2.985  12.567 -0.3277 -0.7161 -0.8022
 4332SOL    HW224630   2.996   2.845  12.543 -2.5023 -0.2843  1.3600
 4333SOL     OW24631   0.809   0.274   0.616 -0.2989 -0.6955  0.3337
 4333SOL    HW124632   0.847   0.211   0.556  0.3096  1.1000 -1.1667
 4333SOL    HW224633   0.731   0.305   0.570  1.6186  1.1589 -1.6429
 4334SOL     OW24634   4.416   2.364   7.540  0.5772 -0.1032  0.0071
 4334SOL    HW124635   4.379   2.441   7.497 -0.6578 -0.6298  0.1415
 4334SOL    HW224636   4.343   2.307   7.563  1.6081 -2.0253 -1.4000
 4335SOL     OW24637   4.478   1.866  13.750 -0.1727 -0.5558  0.6745
 4335SOL    HW124638   4.393   1.869  13.706  0.2368  0.0270 -0.0955
 4335SOL    HW224639   4.450   1.898  13.835 -0.3894  1.0239  0.0053
 4336SOL     OW24640   1.017   0.140  12.014 -0.1254  0.4080  0.1138
 4336SOL    HW124641   1.052   0.062  12.056  1.5809  0.4738 -1.1646
 4336SOL    HW224642   1.098   0.159  11.967 -0.8185 -1.5505 -1.9051
 4337SOL     OW24643   2.839   0.344  15.599 -0.1117 -0.7655  0.4297
 4337SOL    HW124644   2.868   0.270  15.652  0.2352 -0.0775  1.1925
 4337SOL    HW224645   2.755   0.367  15.639  0.1433  0.7736  0.0802
 4338SOL     OW24646   4.457   3.431   4.651  0.4606 -0.5402 -0.5462
 4338SOL    HW124647   4.388   3.367   4.670 -0.5710  0.8294  0.2381
 4338SOL    HW224648   4.421   3.464   4.569 -1.0045 -0.1230  0.2665
 4339SOL     OW24649   2.184   2.267   2.252  0.2636 -0.1337  0.1776
 4339SOL    HW124650   2.224   2.274   2.339 -1.2403 -2.7180  1.0962
 4339SOL    HW224651   2.242   2.214   2.199 -0.0168 -1.5509  1.2863
 4340SOL     OW24652   1.955   3.078   3.610 -0.1264 -0.1983 -0.1837
 4340SOL    HW124653   1.903   3.025   3.550 -0.4074  1.8679 -1.7532
 4340SOL    HW224654   2.045   3.058   3.584 -0.6247 -2.4071 -0.1524
 4341SOL     OW24655   4.258   2.570   7.478  0.2730 -0.3062  0.4101
 4341SOL    HW124656   4.248   2.601   7.568 -1.6204 -2.3220  0.8940
 4341SOL    HW224657   4.244   2.652   7.431 -0.9880 -0.8757 -0.2068
 4342SOL     OW24658   4.242   3.184   7.090 -0.3550  0.3395 -0.3665
 4342SOL    HW124659   4.312   3.247   7.106  0.6689 -1.1071  0.9352
 4342SOL    HW224660   4.216   3.203   7.000 -0.9969  1.0162 -0.0388
 4343SOL     OW24661   0.021   4.145  16.382  0.0230  0.6960 -0.2193
 4343SOL    HW124662   0.042   4.235  16.407 -1.9642  0.8943  0.7696
 4343SOL    HW224663   0.104   4.102  16.366  0.2345  1.1229 -0.2797
 4344SOL     OW24664   1.251   1.044  13.781 -0.7457 -0.0791  0.0934
 4344SOL    HW124665   1.203   0.976  13.734  0.1950 -0.7207  0.0623
 4344SOL    HW224666   1.295   1.088  13.708  1.2138 -1.9951  0.1061
 4345SOL     OW24667   0.371   1.885   5.892  0.2736 -0.6702  0.0182
 4345SOL    HW124668   0.347   1.858   5.980 -1.5480  0.6768 -0.0825
 4345SOL    HW224669   0.463   1.903   5.915  0.0964 -1.7845  1.6058
 4346SOL     OW24670   1.626   3.208  10.728 -0.0687 -0.0142  0.3748
 4346SOL    HW124671   1.567   3.282  10.715  0.2025  0.0004 -0.8226
 4346SOL    HW224672   1.584   3.166  10.803 -0.4663  0.5317  0.4564
 4347SOL     OW24673   2.180   2.081  14.762  0.2648  0.2042  0.2476
 4347SOL    HW124674   2.163   2.169  14.796  2.1415  0.1269  1.4290
 4347SOL    HW224675   2.258   2.105  14.712  1.0186 -2.3624  0.2012
 4348SOL     OW24676   3.637   0.933   1.322  0.4938  0.1540  0.4450
 4348SOL    HW124677   3.578   0.955   1.394  2.5758 -0.0962  2.2419
 4348SOL    HW224678   3.578   0.928   1.247  1.6943  1.4094 -0.5563
 4349SOL     OW24679   1.174   0.061   5.661 -0.4832 -0.4786  0.0883
 4349SOL    HW124680   1.150   4.701   5.651 -2.0114 -0.0989  0.1467
 4349SOL    HW224681   1.194   0.062   5.754  0.8316 -0.9571 -0.1988
 4350SOL     OW24682   4.008   2.868   6.817  0.2757  0.0781  0.2813
 4350SOL    HW124683   4.009   2.961   6.796  0.3555  0.2145  0.8902
 4350SOL    HW224684   4.103   2.859   6.825 -0.1788 -2.5070  2.7887
 4351SOL     OW24685   2.419   2.664   9.733 -0.5004 -0.3600  0.2447
 4351SOL    HW124686   2.451   2.581   9.768 -0.1194 -0.6487 -0.7925
 4351SOL    HW224687   2.443   2.725   9.803 -0.0476  0.4053 -0.5735
 4352SOL     OW24688   2.195   0.286   9.755  0.1499  0.0325 -0.2591
 4352SOL    HW124689   2.265   0.294   9.690 -0.5068 -2.0883 -1.2137
 4352SOL    HW224690   2.222   0.359   9.811 -0.0859 -2.4744  3.1206
 4353SOL     OW24691   1.181   1.843   7.664  0.4987  0.2002 -0.3146
 4353SOL    HW124692   1.149   1.929   7.636  0.6562  0.7519  1.2258
 4353SOL    HW224693   1.237   1.870   7.737 -0.8085  0.4845  0.5861
 4354SOL     OW24694   3.852   2.977   3.356  0.3119 -0.3728 -0.1778
 4354SOL    HW124695   3.935   2.997   3.399  0.8809 -1.5391 -0.7475
 4354SOL    HW224696   3.864   2.889   3.320  0.0722 -0.2857 -0.4658
 4355SOL     OW24697   0.978   3.754   1.599 -0.4695  0.2818 -0.2075
 4355SOL    HW124698   0.893   3.791   1.620  0.0517  1.9675 -1.0658
 4355SOL    HW224699   0.992   3.694   1.672  1.2138 -1.0218 -1.5780
 4356SOL     OW24700   4.247   2.423   9.943  0.5526  0.0335 -0.4754
 4356SOL    HW124701   4.185   2.418  10.015  1.3458 -0.7388  0.1582
 4356SOL    HW224702   4.229   2.345   9.891 -0.0566  0.8066 -1.4218
 4357SOL     OW24703   3.484   2.211   2.731 -0.8577  0.0873  0.2760
 4357SOL    HW124704   3.531   2.193   2.650  2.3679 -2.1095  2.6130
 4357SOL    HW224705   3.391   2.222   2.711 -0.2324 -1.8483 -3.6271
 4358SOL     OW24706   1.202   0.093   3.631 -0.5604 -0.0021  0.0971
 4358SOL    HW124707   1.282   0.139   3.606 -0.1251 -0.1615  1.1896
 4358SOL    HW224708   1.229   0.016   3.682 -1.9840 -0.2546  0.4949
 4359SOL     OW24709   0.345   0.441   2.985  0.7699 -0.7487  0.0610
 4359SOL    HW124710   0.349   0.371   3.050  0.5604  1.6063  2.6024
 4359SOL    HW224711   0.270   0.412   2.933 -0.8618  1.6218  1.1123
 4360SOL     OW24712   1.487   1.664   5.666  0.0959 -0.5954  0.6993
 4360SOL    HW124713   1.579   1.680   5.647  0.0749  0.0984  1.1935
 4360SOL    HW224714   1.479   1.599   5.596 -1.3087  1.3035 -0.8947
 4361SOL     OW24715   0.417   4.113   8.236  0.4353  0.1513  0.0395
 4361SOL    HW124716   0.327   4.083   8.223 -0.1695  1.9150  0.1943
 4361SOL    HW224717   0.409   4.202   8.204  0.7613 -0.8622 -2.8784
 4362SOL     OW24718   3.993   2.436   3.179 -0.3856  0.2419 -0.5420
 4362SOL    HW124719   3.950   2.386   3.110 -0.6820  1.3716 -1.1899
 4362SOL    HW224720   3.920   2.460   3.236 -0.8265  1.3216 -1.5600
 4363SOL     OW24721   2.008   1.613   1.886 -0.3927 -0.6440 -0.0942
 4363SOL    HW124722   1.937   1.585   1.944  0.4155  1.7823  2.0588
 4363SOL    HW224723   2.085   1.631   1.940  1.7862 -0.7058 -3.2249
 4364SOL     OW24724   2.829   4.408   8.893  0.6447 -1.0074  0.5309
 4364SOL    HW124725   2.895   4.440   8.954  0.2505  0.1985  0.3202
 4364SOL    HW224726   2.860   4.439   8.808  0.8491 -1.1299  0.5600
 4365SOL     OW24727   0.684   4.292   8.972 -0.7135  0.1601  0.2579
 4365SOL    HW124728   0.618   4.226   8.950 -0.7953  0.9549 -1.9205
 4365SOL    HW224729   0.718   4.271   9.059  2.1211  1.6336 -0.4793
 4366SOL     OW24730   3.084   3.859  12.081  0.2704 -0.0133 -0.1783
 4366SOL    HW124731   3.028   3.781  12.086  0.3415 -0.0011  0.8078
 4366SOL    HW224732   3.158   3.815  12.123  0.9463 -0.9111 -2.2821
 4367SOL     OW24733   1.195   3.105   5.512  0.3224 -0.2494  0.5374
 4367SOL    HW124734   1.119   3.137   5.462  0.1955  0.1884  1.0061
 4367SOL    HW224735   1.236   3.052   5.443  0.4679  1.5599 -0.7782
 4368SOL     OW24736   2.813   0.695   7.332  0.4859 -0.7303  0.2291
 4368SOL    HW124737   2.899   0.699   7.289 -0.5790  0.5735 -1.7325
 4368SOL    HW224738   2.791   0.788   7.339  0.6974 -0.8207  2.2676
 4369SOL     OW24739   2.272   0.659   3.569 -0.2856  0.0238  0.1849
 4369SOL    HW124740   2.193   0.645   3.517 -0.2053 -0.1969  0.1221
 4369SOL    HW224741   2.339   0.665   3.501 -1.8152 -3.7198 -1.6220
 4370SOL     OW24742   1.702   1.022  16.169  0.1297 -0.3209 -0.0809
 4370SOL    HW124743   1.795   1.043  16.166  0.2522 -0.7436  0.7810
 4370SOL    HW224744   1.699   0.930  16.140  0.4560 -0.4382  0.2535
 4371SOL     OW24745   1.744   2.648   7.228  0.0039  0.7353  0.0571
 4371SOL    HW124746   1.818   2.651   7.288 -0.4430  2.0566  0.5393
 4371SOL    HW224747   1.687   2.582   7.269  0.8504 -0.2272 -0.3152
 4372SOL     OW24748   1.725   2.716   8.347 -0.0799 -0.2653 -0.2645
 4372SOL    HW124749   1.818   2.702   8.332 -0.0806 -0.7631  0.1911
 4372SOL    HW224750   1.722   2.789   8.409 -0.9277  0.3513 -1.0338
 4373SOL     OW24751   4.118   0.815   9.591 -0.3576 -0.2754  0.2135
 4373SOL    HW124752   4.207   0.815   9.626 -1.6848  3.4381  3.5994
 4373SOL    HW224753   4.079   0.792   9.675 -1.3244  4.1845  0.9735
 4374SOL     OW24754   4.175   1.898   7.653 -0.3754  0.1621 -0.4641
 4374SOL    HW124755   4.230   1.844   7.709 -0.6791 -0.0353 -0.3553
 4374SOL    HW224756   4.100   1.840   7.636 -1.1384  0.3616  2.2395
 4375SOL     OW24757   0.874   3.324   1.917 -0.3572 -0.1747  0.1157
 4375SOL    HW124758   0.827   3.390   1.968 -0.6956  0.0237 -0.4541
 4375SOL    HW224759   0.830   3.247   1.954  1.3785 -0.6125  1.2390
 4376SOL     OW24760   1.184   4.019   7.185  0.4860 -0.0795  0.3551
 4376SOL    HW124761   1.237   4.030   7.106 -0.0648  1.6174  0.2229
 4376SOL    HW224762   1.121   4.091   7.184 -0.1911 -0.7203 -1.3789
 4377SOL     OW24763   1.687   1.439   0.878 -0.2204  0.0530  0.1892
 4377SOL    HW124764   1.713   1.347   0.871 -1.2355 -0.1292 -1.0581
 4377SOL    HW224765   1.774   1.476   0.898 -0.2698 -0.1150  0.7222
 4378SOL     OW24766   2.439   2.637   5.963  0.7175  0.2565 -0.0967
 4378SOL    HW124767   2.378   2.570   5.935  0.4689 -0.0686  1.2511
 4378SOL    HW224768   2.388   2.718   5.970 -2.1286 -1.6416  0.8014
 4379SOL     OW24769   2.917   3.296   2.148  0.7248  0.3292 -0.4073
 4379SOL    HW124770   2.834   3.314   2.193 -0.5747 -2.1145 -1.8087
 4379SOL    HW224771   2.973   3.265   2.219 -0.1089 -3.1193 -1.2656
 4380SOL     OW24772   4.593   3.033   9.437 -0.1026 -0.1087  0.0183
 4380SOL    HW124773   4.672   2.979   9.446 -1.0251 -1.4179  0.1699
 4380SOL    HW224774   4.524   2.975   9.405  0.0799 -0.7629  0.8417
 4381SOL     OW24775   2.990   4.542   2.145 -0.2516 -0.4351  0.1825
 4381SOL    HW124776   3.010   4.461   2.098  1.6121  1.2008 -1.9029
 4381SOL    HW224777   3.076   4.574   2.173 -0.4065 -0.7875  1.0537
 4382SOL     OW24778   0.594   4.370   6.059 -0.1924 -0.0354 -0.1360
 4382SOL    HW124779   0.590   4.429   5.984 -0.0871  0.1597  0.0133
 4382SOL    HW224780   0.581   4.283   6.020  1.9590  0.2707 -1.5650
 4383SOL     OW24781   1.650   4.730   2.769 -0.0275  0.6754  0.2557
 4383SOL    HW124782   1.632   4.676   2.846  1.1812  0.1548  0.1677
 4383SOL    HW224783   1.651   4.666   2.699  0.6845  1.3075 -0.3091
 4384SOL     OW24784   2.961   1.231  11.284  0.3692  0.2276 -0.9201
 4384SOL    HW124785   2.889   1.289  11.260 -1.4026 -1.8635 -0.6342
 4384SOL    HW224786   2.978   1.187  11.201  0.5043 -1.3658 -0.0547
 4385SOL     OW24787   0.419   2.058   6.519  0.1214  1.0485  0.0074
 4385SOL    HW124788   0.374   2.123   6.573  0.1001  0.6546  0.4575
 4385SOL    HW224789   0.509   2.092   6.520 -0.5915  2.9735 -0.9724
 4386SOL     OW24790   2.675   4.715   7.513  0.2402 -0.2592 -0.3670
 4386SOL    HW124791   2.581   4.705   7.531  0.2973 -0.5587 -0.2328
 4386SOL    HW224792   2.686   0.070   7.477 -2.8913  0.3733  0.1893
 4387SOL     OW24793   3.394   4.689   6.598 -0.8122 -0.6124  0.6650
 4387SOL    HW124794   3.353   4.696   6.512 -0.9182 -0.7733  0.7013
 4387SOL    HW224795   3.323   4.672   6.660  0.9244  0.0443  2.8410
 4388SOL     OW24796   0.906   3.866   1.130  0.3302 -0.3725 -0.1586
 4388SOL    HW124797   0.979   3.870   1.068 -1.9523 -0.4611 -2.8599
 4388SOL    HW224798   0.917   3.777   1.163 -0.2168 -0.7654 -1.0247
 4389SOL     OW24799   1.275   3.509   4.215 -0.8561 -0.6217 -0.0641
 4389SOL    HW124800   1.255   3.556   4.134  1.6701  1.8694  0.7671
 4389SOL    HW224801   1.214   3.543   4.280 -0.8066  0.2265 -0.4569
 4390SOL     OW24802   1.451   0.611   2.987 -0.1361 -0.0356 -0.0734
 4390SOL    HW124803   1.503   0.534   2.966 -0.0944 -0.5165  1.8777
 4390SOL    HW224804   1.467   0.679   2.921 -2.0811  0.2918 -0.2186
 4391SOL     OW24805   4.061   1.797   8.525 -0.1435 -0.1363 -0.0620
 4391SOL    HW124806   4.147   1.836   8.543  1.2340 -0.8712 -4.9319
 4391SOL    HW224807   4.074   1.735   8.453 -0.5582 -1.7471  1.2586
 4392SOL     OW24808   2.519   1.456   1.003 -0.1644  0.3038 -0.7699
 4392SOL    HW124809   2.475   1.539   1.020 -0.9730  0.7128 -4.8959
 4392SOL    HW224810   2.446   1.399   1.026 -0.6694  0.5257 -1.8321
 4393SOL     OW24811   0.749   0.391   4.724 -0.4188 -0.1345 -0.1371
 4393SOL    HW124812   0.712   0.416   4.808  0.0056  1.2529 -0.3535
 4393SOL    HW224813   0.680   0.431   4.671 -0.9706 -1.8044 -0.6799
 4394SOL     OW24814   3.024   3.191   7.417  0.4297  0.7462  0.1312
 4394SOL    HW124815   3.031   3.255   7.487 -2.0547  1.4444 -0.2531
 4394SOL    HW224816   2.932   3.190   7.392  0.4090 -2.3114  0.3547
 4395SOL     OW24817   0.373   2.368   9.597  0.3027 -0.6329 -0.5139
 4395SOL    HW124818   0.329   2.284   9.587 -1.0074 -0.2190  1.6606
 4395SOL    HW224819   0.408   2.380   9.509  0.8275  1.0227 -0.0848
 4396SOL     OW24820   3.961   3.139   3.979  0.3135  0.1238  0.1002
 4396SOL    HW124821   3.906   3.173   4.050  0.9765  1.1985  0.0854
 4396SOL    HW224822   4.027   3.089   4.028 -0.2551  3.2210  4.0398
 4397SOL     OW24823   0.905   2.335   1.216  0.2958 -0.2732  0.3620
 4397SOL    HW124824   0.900   2.292   1.302  1.4194 -0.3813  0.3747
 4397SOL    HW224825   0.828   2.295   1.175  0.6546  0.6449 -1.1880
 4398SOL     OW24826   4.296   3.708   2.598  0.1023  0.1216  0.0160
 4398SOL    HW124827   4.299   3.682   2.506  1.9571 -0.9534  0.3888
 4398SOL    HW224828   4.321   3.620   2.627 -0.5125  0.4779  1.5942
 4399SOL     OW24829   1.628   0.453   5.273  0.2384  0.1160  0.1529
 4399SOL    HW124830   1.646   0.437   5.366 -1.5494 -2.5634  0.0076
 4399SOL    HW224831   1.622   0.549   5.268 -1.3177  0.0362  0.5267
 4400SOL     OW24832   3.271   4.115  13.565  0.1718  0.2411  0.2424
 4400SOL    HW124833   3.295   4.025  13.587  2.3986  0.6528 -0.5214
 4400SOL    HW224834   3.253   4.155  13.650 -0.6962 -1.4249  0.8425
 4401SOL     OW24835   3.804   3.473   6.755  0.1014 -0.1118 -0.0873
 4401SOL    HW124836   3.723   3.521   6.739  0.2962  0.1354 -0.3266
 4401SOL    HW224837   3.850   3.551   6.786 -0.1262 -0.0230  0.0348
 4402SOL     OW24838   0.774   0.226   9.594  0.2609  0.1818 -0.3807
 4402SOL    HW124839   0.806   0.137   9.601 -1.0661 -0.2193  0.5236
 4402SOL    HW224840   0.802   0.258   9.679  0.9702 -0.9981 -0.1762
 4403SOL     OW24841   0.335   2.579   7.313  0.1875  0.0182 -0.2389
 4403SOL    HW124842   0.430   2.564   7.311  0.3511  1.0998 -0.6433
 4403SOL    HW224843   0.304   2.490   7.331 -1.5165  0.2795 -1.9580
 4404SOL     OW24844   0.973   2.918   4.327  0.1696 -0.6197 -0.0500
 4404SOL    HW124845   1.003   3.005   4.355 -2.0010  0.2047 -0.2471
 4404SOL    HW224846   1.060   2.880   4.317  0.5210 -0.3588  1.9068
 4405SOL     OW24847   0.712   0.283   8.539  0.7572 -0.2193  0.9596
 4405SOL    HW124848   0.657   0.291   8.617  0.7951 -0.3044  0.9954
 4405SOL    HW224849   0.766   0.214   8.578  1.3432 -0.2870  0.0396
 4406SOL     OW24850   3.054   2.708   5.136  0.0895 -0.0090 -0.0033
 4406SOL    HW124851   3.060   2.800   5.164 -2.0575  0.4564 -1.1021
 4406SOL    HW224852   3.140   2.691   5.098  0.2087 -0.3144  0.3971
 4407SOL     OW24853   0.735   4.060  10.012 -0.2821 -0.0198 -0.0617
 4407SOL    HW124854   0.757   4.150   9.987  0.8757 -0.0432  0.8612
 4407SOL    HW224855   0.727   4.076  10.106  1.3100 -0.1218  0.0875
 4408SOL     OW24856   3.942   1.912   5.481  0.0790 -0.1455 -0.0431
 4408SOL    HW124857   4.019   1.855   5.486 -0.4107 -0.8256 -0.3096
 4408SOL    HW224858   3.880   1.843   5.504 -1.3668  1.2407  0.2365
 4409SOL     OW24859   4.726   3.703   9.171  0.4654 -0.1926 -0.4036
 4409SOL    HW124860   4.669   3.638   9.211  1.4029  0.1602  1.5216
 4409SOL    HW224861   4.658   3.745   9.119  0.2235 -0.8714 -0.6311
 4410SOL     OW24862   1.570   0.690   8.971  0.6278  0.7770 -0.1635
 4410SOL    HW124863   1.549   0.710   9.063  0.9847 -0.0552  0.0988
 4410SOL    HW224864   1.666   0.691   8.974  0.6470 -1.6235 -0.0962
 4411SOL     OW24865   4.019   0.868  15.602  0.1693 -0.3348 -0.2225
 4411SOL    HW124866   3.992   0.916  15.681  0.8648  1.6010 -1.1460
 4411SOL    HW224867   3.954   0.799  15.614  0.3740 -0.7646 -1.5510
 4412SOL     OW24868   1.883   1.485   4.625  0.9106 -0.2799 -0.4631
 4412SOL    HW124869   1.854   1.567   4.664  1.0806 -1.9660  3.1529
 4412SOL    HW224870   1.803   1.434   4.636 -0.0141  1.5039  1.0367
 4413SOL     OW24871   4.463   1.366   1.437 -0.0857 -0.0931  0.6789
 4413SOL    HW124872   4.370   1.388   1.426 -0.1116 -0.4447  0.1790
 4413SOL    HW224873   4.484   1.318   1.357 -0.4916  0.5492  0.1934
 4414SOL     OW24874   2.658   0.712   6.125 -0.1180  0.3450 -0.5180
 4414SOL    HW124875   2.597   0.762   6.179  0.8301  1.3164 -0.3594
 4414SOL    HW224876   2.729   0.776   6.133 -0.1375  0.0704  1.7980
 4415SOL     OW24877   3.951   1.754   8.091  0.2591  0.1346  0.2978
 4415SOL    HW124878   3.977   1.793   8.008 -0.8343 -1.7108 -0.9092
 4415SOL    HW224879   3.948   1.659   8.074 -1.4416  0.4103 -0.8940
 4416SOL     OW24880   3.500   1.844   5.104  0.3232  0.0170  0.2398
 4416SOL    HW124881   3.493   1.905   5.030  1.1162 -2.9468 -2.2530
 4416SOL    HW224882   3.578   1.884   5.143  1.6239  0.9504 -3.3401
 4417SOL     OW24883   0.902   2.953  12.853  0.0535  0.0206 -0.4613
 4417SOL    HW124884   0.816   2.939  12.893  0.1963 -2.1235 -0.8843
 4417SOL    HW224885   0.940   2.869  12.880 -0.1160 -0.2535 -1.0707
 4418SOL     OW24886   2.577   3.597   2.227 -0.3722  0.3613 -0.2318
 4418SOL    HW124887   2.625   3.527   2.271  1.6764  1.1082 -1.2672
 4418SOL    HW224888   2.590   3.665   2.293 -0.6776  1.1801 -1.0025
 4419SOL     OW24889   2.906   2.867  12.375  0.1903 -0.1086  0.3962
 4419SOL    HW124890   2.851   2.793  12.348 -1.6420  0.0599  3.6790
 4419SOL    HW224891   2.954   2.880  12.293 -0.0638 -0.2472  0.2248
 4420SOL     OW24892   1.190   1.433   3.827  0.0146 -0.6934 -0.1914
 4420SOL    HW124893   1.191   1.449   3.922 -1.4979  1.0942 -0.4777
 4420SOL    HW224894   1.169   1.340   3.834 -2.6906  0.0158  1.0621
 4421SOL     OW24895   3.927   2.330   8.744  0.1129 -0.3524 -0.2467
 4421SOL    HW124896   3.985   2.317   8.820  1.3060 -1.3845 -1.3344
 4421SOL    HW224897   3.905   2.242   8.712 -3.7251  0.1743  1.0102
 4422SOL     OW24898   3.705   0.128   8.267  0.0889 -0.2517 -0.1149
 4422SOL    HW124899   3.772   0.062   8.248 -0.7591 -0.6961 -1.5908
 4422SOL    HW224900   3.628   0.087   8.228 -0.0974  0.6965 -0.7452
 4423SOL     OW24901   2.625   1.999   8.810  0.1461 -0.4164 -0.4685
 4423SOL    HW124902   2.636   1.911   8.848  2.8551  0.3350  0.4998
 4423SOL    HW224903   2.702   2.043   8.848 -0.9570  1.0175  0.0851
 4424SOL     OW24904   4.134   0.371  16.946 -0.3194 -0.1269 -0.0203
 4424SOL    HW124905   4.126   0.321  16.864  1.2737  2.8907 -2.0408
 4424SOL    HW224906   4.048   0.414  16.946 -0.0925  0.3207  0.5430
 4425SOL     OW24907   0.878   3.515  16.646 -0.1549  0.4291 -0.2176
 4425SOL    HW124908   0.942   3.497  16.578 -0.5742  2.3082 -1.0877
 4425SOL    HW224909   0.848   3.427  16.671  0.2403  0.3037 -0.1881
 4426SOL     OW24910   2.712   3.191   4.197 -0.0988 -0.3197  0.5767
 4426SOL    HW124911   2.730   3.203   4.103  1.3249  3.8181  1.3533
 4426SOL    HW224912   2.681   3.279   4.220  1.2913  0.7993 -1.8213
 4427SOL     OW24913   3.663   1.327   7.007  0.1394  0.3613  0.1574
 4427SOL    HW124914   3.685   1.396   6.945 -1.1495 -1.5444 -2.4422
 4427SOL    HW224915   3.708   1.372   7.078  1.4179 -1.6934  0.6579
 4428SOL     OW24916   3.764   2.338   6.921  0.0110  0.3394  0.4427
 4428SOL    HW124917   3.739   2.267   6.862  0.4361 -0.5599  1.3445
 4428SOL    HW224918   3.834   2.383   6.872  0.3986  0.9234  1.5277
 4429SOL     OW24919   4.302   1.817   5.011 -0.0957 -0.2320  0.1804
 4429SOL    HW124920   4.235   1.869   5.056 -1.6137 -1.1079 -1.0849
 4429SOL    HW224921   4.380   1.849   5.056 -1.3354  0.1135  2.1408
 4430SOL     OW24922   0.665   1.143  13.309 -0.0537 -0.1893  0.1487
 4430SOL    HW124923   0.731   1.168  13.375 -3.3524 -2.8113  4.4328
 4430SOL    HW224924   0.633   1.234  13.314 -1.4309 -0.5694 -1.8144
 4431SOL     OW24925   2.005   4.375  12.946  0.5312  0.0235  0.1500
 4431SOL    HW124926   2.097   4.379  12.918  0.3134 -1.1615 -0.7422
 4431SOL    HW224927   2.007   4.466  12.976  1.3771  0.4355 -1.1451
 4432SOL     OW24928   0.325   3.723   4.622 -0.1317 -0.1517 -0.2377
 4432SOL    HW124929   0.322   3.819   4.623 -1.1121 -0.1895  2.0611
 4432SOL    HW224930   0.276   3.698   4.543 -2.0511 -0.2504  0.9716
 4433SOL     OW24931   1.558   4.161   9.313 -0.1366  0.3219 -0.7084
 4433SOL    HW124932   1.540   4.248   9.349  1.7792  0.0385  0.9504
 4433SOL    HW224933   1.608   4.110   9.377  1.2775  1.1151 -1.1846
 4434SOL     OW24934   0.705   3.299   4.060  0.6543 -0.0219 -0.0336
 4434SOL    HW124935   0.735   3.347   3.984 -1.1315  1.0219 -0.0820
 4434SOL    HW224936   0.672   3.373   4.111  0.5049 -0.0767 -0.0484
 4435SOL     OW24937   1.641   0.115   4.461  0.1373 -0.2067  0.7075
 4435SOL    HW124938   1.606   0.127   4.549 -1.2911 -2.5749  0.4696
 4435SOL    HW224939   1.636   0.019   4.458  0.7479 -0.2019 -0.6441
 4436SOL     OW24940   0.861   4.727   3.313  0.0561 -0.6075  0.1632
 4436SOL    HW124941   0.952   0.024   3.311  0.7256 -2.5896  0.4324
 4436SOL    HW224942   0.821   0.070   3.356 -0.8442 -0.5039 -0.8777
 4437SOL     OW24943   0.839   3.281   9.467 -0.4048 -0.3999 -0.0680
 4437SOL    HW124944   0.812   3.370   9.489  0.7428  0.1575 -0.8946
 4437SOL    HW224945   0.923   3.287   9.421 -0.1731  0.8390  0.5145
 4438SOL     OW24946   0.334   2.208   9.212  0.4611 -0.3169  0.5474
 4438SOL    HW124947   0.252   2.248   9.240  0.8738 -0.2921  1.7289
 4438SOL    HW224948   0.397   2.274   9.243  1.2497 -0.5795 -0.4826
 4439SOL     OW24949   1.108   4.164   2.652 -0.3980  0.2836  0.1978
 4439SOL    HW124950   1.202   4.163   2.632 -0.2348 -0.7359  1.0073
 4439SOL    HW224951   1.070   4.216   2.581  1.2777  0.5160 -0.5454
 4440SOL     OW24952   3.635   0.464   2.200 -0.0502  0.2411 -0.3946
 4440SOL    HW124953   3.567   0.501   2.144  1.4366  0.3512 -2.1264
 4440SOL    HW224954   3.706   0.437   2.142  0.9873  0.7985  0.6086
 4441SOL     OW24955   0.408   3.680   8.927  0.9285  0.3515  0.2562
 4441SOL    HW124956   0.387   3.669   9.020  1.3896  0.8695  0.4263
 4441SOL    HW224957   0.369   3.766   8.913  2.4787  1.1289  0.7028
 4442SOL     OW24958   1.709   3.696   4.874 -0.4413 -0.2734 -0.2075
 4442SOL    HW124959   1.801   3.706   4.895 -0.4994  2.0450 -0.9795
 4442SOL    HW224960   1.688   3.788   4.853 -0.8395 -0.6549 -1.5066
 4443SOL     OW24961   1.199   0.202   9.320 -0.0250 -0.1693 -0.0945
 4443SOL    HW124962   1.119   0.193   9.269  0.4432 -2.3210 -0.4543
 4443SOL    HW224963   1.265   0.171   9.257 -0.0007 -0.3014 -0.0038
 4444SOL     OW24964   0.446   1.719   7.879  0.1251 -0.7959  0.9239
 4444SOL    HW124965   0.513   1.657   7.851  2.2104  1.6470  0.4101
 4444SOL    HW224966   0.498   1.799   7.868 -0.2901 -0.3177  2.4943
 4445SOL     OW24967   0.064   2.541  13.701 -0.3514  0.5304  0.0382
 4445SOL    HW124968   0.113   2.599  13.643  1.0676  0.1267  0.8157
 4445SOL    HW224969   0.088   2.459  13.659  0.7664  0.3742  0.9848
 4446SOL     OW24970   2.021   0.133   2.970  0.4274  0.0851  0.4428
 4446SOL    HW124971   2.046   0.041   2.970  2.2136  0.5764  1.2126
 4446SOL    HW224972   2.089   0.178   3.020  2.8619 -1.3905 -1.5833
 4447SOL     OW24973   2.290   3.281  11.774  0.0065 -0.1420 -0.5951
 4447SOL    HW124974   2.222   3.214  11.767 -0.0921 -0.0178 -0.8071
 4447SOL    HW224975   2.232   3.349  11.739 -1.4626 -1.7458 -1.2798
 4448SOL     OW24976   1.170   3.114   9.977 -0.5941  0.0290 -0.3495
 4448SOL    HW124977   1.106   3.181   9.952  0.2184  0.5387 -1.0597
 4448SOL    HW224978   1.247   3.133   9.924  1.3567 -0.6429  2.2722
 4449SOL     OW24979   3.816   0.346  10.094 -0.1622 -0.1041  0.6939
 4449SOL    HW124980   3.879   0.274  10.098  0.0796  0.2202  2.7093
 4449SOL    HW224981   3.745   0.300  10.049  0.2199  0.3145 -0.3322
 4450SOL     OW24982   3.803   0.387   6.971 -0.3442  0.0153  0.0252
 4450SOL    HW124983   3.790   0.466   7.023  0.3198  0.2929 -0.2214
 4450SOL    HW224984   3.873   0.419   6.914  0.5354 -0.9671  0.5577
 4451SOL     OW24985   2.298   1.610   3.247  0.1336 -0.7255  0.1146
 4451SOL    HW124986   2.219   1.657   3.273  0.5323  1.0146 -1.7684
 4451SOL    HW224987   2.360   1.683   3.237 -0.8742  0.1323  0.0492
 4452SOL     OW24988   2.390   0.034   7.571  0.3135 -0.0303  0.3048
 4452SOL    HW124989   2.325   0.075   7.628  0.5605 -1.4639  1.6136
 4452SOL    HW224990   2.449   0.107   7.553 -0.2492  0.5017  0.5969
 4453SOL     OW24991   1.053   3.042   7.382 -0.3935 -0.3634 -0.1541
 4453SOL    HW124992   1.098   3.101   7.441 -0.3344 -1.2871  0.7261
 4453SOL    HW224993   1.081   3.079   7.298 -1.5345 -0.0115 -0.3799
 4454SOL     OW24994   2.946   1.514  15.599  0.5388  0.3871  0.3910
 4454SOL    HW124995   2.877   1.522  15.665  0.2236 -0.4810  0.1614
 4454SOL    HW224996   3.017   1.555  15.649  0.3238 -0.5848  1.5023
 4455SOL     OW24997   3.181   0.232  17.569 -0.4388 -0.4104 -0.4080
 4455SOL    HW124998   3.204   0.307  17.514  1.9489 -0.2889  0.7668
 4455SOL    HW224999   3.188   0.158  17.508 -1.2941  0.6341 -1.7885
 4456SOL     OW25000   1.318   1.088   6.081  0.4777  0.8146  0.5111
 4456SOL    HW125001   1.228   1.061   6.099  0.2242 -0.0684 -2.1959
 4456SOL    HW225002   1.359   1.003   6.065  0.8283  1.3367 -1.3203
 4457SOL     OW25003   2.483   0.575  13.126 -0.2949  0.2065  0.0124
 4457SOL    HW125004   2.453   0.615  13.045 -0.1230 -0.1111 -0.2090
 4457SOL    HW225005   2.552   0.529  13.078 -1.3522 -1.6367  0.2807
 4458SOL     OW25006   0.338   0.271   6.885 -0.1559  0.8364  0.2791
 4458SOL    HW125007   0.427   0.302   6.869  0.1958  0.8104  2.2056
 4458SOL    HW225008   0.318   0.238   6.797  1.0248  1.9713 -0.4336
 4459SOL     OW25009   2.821   2.352  15.414 -0.3234  0.1604  0.4116
 4459SOL    HW125010   2.784   2.356  15.326 -0.6403  0.4042  0.5565
 4459SOL    HW225011   2.900   2.406  15.412  1.4840 -2.4986 -0.9631
 4460SOL     OW25012   0.656   2.553   4.818  0.0046 -0.4954  0.5306
 4460SOL    HW125013   0.700   2.482   4.772 -0.2789 -1.6448  2.0152
 4460SOL    HW225014   0.604   2.581   4.743  0.4912 -1.2147 -0.0764
 4461SOL     OW25015   4.231   1.403  11.443 -0.8098 -0.4414  0.3101
 4461SOL    HW125016   4.157   1.404  11.505 -1.6415 -3.0440 -0.6576
 4461SOL    HW225017   4.256   1.495  11.451 -1.5666 -0.2006  0.0069
 4462SOL     OW25018   0.451   1.642   4.609 -0.3231 -0.3987 -0.0549
 4462SOL    HW125019   0.441   1.695   4.688  0.8240  0.6081 -0.5831
 4462SOL    HW225020   0.368   1.659   4.565 -1.0609 -2.6650  0.4794
 4463SOL     OW25021   1.654   4.281   6.664 -0.0083  0.0130  0.3359
 4463SOL    HW125022   1.643   4.370   6.699  1.1539  0.5299 -0.6033
 4463SOL    HW225023   1.574   4.271   6.614  1.3786  0.5746 -2.0065
 4464SOL     OW25024   3.516   0.115   3.928 -0.1441  0.1860  0.1677
 4464SOL    HW125025   3.548   0.167   3.854 -0.2008 -0.0880 -0.0477
 4464SOL    HW225026   3.513   0.184   3.994  0.8346 -1.9306  2.4454
 4465SOL     OW25027   4.233   3.026   6.243 -0.0425 -0.0077 -0.6210
 4465SOL    HW125028   4.305   2.966   6.224 -2.1210 -2.1613 -1.7319
 4465SOL    HW225029   4.273   3.109   6.268 -2.0855  1.1479 -1.2211
 4466SOL     OW25030   3.510   0.481   2.461 -0.0532  0.0650  0.3504
 4466SOL    HW125031   3.550   0.467   2.375 -0.7326  1.3841 -0.1720
 4466SOL    HW225032   3.439   0.418   2.473  0.2310  0.1742  2.5629
 4467SOL     OW25033   4.100   2.568   6.118  0.2840 -0.2975 -0.4024
 4467SOL    HW125034   4.080   2.563   6.212 -0.1041  0.4390 -0.4453
 4467SOL    HW225035   4.053   2.649   6.099 -0.3152  0.3088  3.5397
 4468SOL     OW25036   1.814   2.286   9.440 -0.2777 -0.1700 -0.4985
 4468SOL    HW125037   1.737   2.308   9.387 -2.8389 -2.7350  2.1276
 4468SOL    HW225038   1.781   2.287   9.530 -0.8022 -0.0734 -0.6955
 4469SOL     OW25039   1.063   4.686   8.124 -0.5651 -0.0667 -0.2849
 4469SOL    HW125040   1.036   0.022   8.185 -2.1600  0.2693 -1.3841
 4469SOL    HW225041   1.063   0.004   8.043  2.7847 -1.7135 -1.3207
 4470SOL     OW25042   1.986   0.535   0.725 -0.8635 -0.6889 -0.1184
 4470SOL    HW125043   1.933   0.491   0.791 -1.3980  0.7366  0.4089
 4470SOL    HW225044   2.028   0.605   0.775 -0.0630 -1.1223 -0.1814
 4471SOL     OW25045   4.064   4.531   2.007  0.0997 -0.2663 -0.3812
 4471SOL    HW125046   4.002   4.504   1.940  0.9789  0.4286 -1.4639
 4471SOL    HW225047   4.147   4.503   1.970  1.0471 -0.6450  1.9916
 4472SOL     OW25048   0.210   0.247   5.579  0.2908  0.0825  0.2651
 4472SOL    HW125049   0.153   0.306   5.531 -0.3947 -0.1747  0.7649
 4472SOL    HW225050   0.194   0.161   5.540  1.9747  0.0593 -0.3889
 4473SOL     OW25051   0.032   3.743   7.096  0.1806  0.0741  0.0181
 4473SOL    HW125052   4.730   3.791   7.172  1.6900  1.7960 -0.3719
 4473SOL    HW225053   0.119   3.783   7.095  1.1196 -1.9898 -0.2410
 4474SOL     OW25054   0.500   2.400   7.808 -0.1597 -0.0643  0.3165
 4474SOL    HW125055   0.529   2.394   7.717 -0.2797  1.5108  0.1640
 4474SOL    HW225056   0.577   2.438   7.851  0.4499 -0.9274 -0.0312
 4475SOL     OW25057   1.860   1.568   9.332  0.0470 -0.0452  0.2274
 4475SOL    HW125058   1.935   1.600   9.381 -1.0914  0.1136  1.8739
 4475SOL    HW225059   1.883   1.588   9.241 -1.3211  0.9925  0.1157
 4476SOL     OW25060   3.474   3.847   7.750 -0.1085 -0.1669  0.4538
 4476SOL    HW125061   3.450   3.915   7.687  0.2303 -0.9521 -0.5244
 4476SOL    HW225062   3.465   3.768   7.697  2.3253  0.3382 -0.7285
 4477SOL     OW25063   4.451   2.536  17.288 -0.1724  0.1158 -0.0868
 4477SOL    HW125064   4.484   2.619  17.254  1.1850  1.0094  3.3016
 4477SOL    HW225065   4.357   2.553  17.283 -0.2680  0.1118  1.4435
 4478SOL     OW25066   3.476   2.003   4.366  0.6042  0.1275 -0.4282
 4478SOL    HW125067   3.537   1.929   4.360 -1.1568 -1.3596  0.0364
 4478SOL    HW225068   3.421   1.991   4.289  1.6185  0.7527 -1.2616
 4479SOL     OW25069   4.044   3.470   8.946 -0.6236 -0.4286 -0.3527
 4479SOL    HW125070   4.002   3.428   9.021 -0.1167  0.6505  0.5349
 4479SOL    HW225071   4.124   3.421   8.924 -1.0876 -1.7587  0.8838
 4480SOL     OW25072   1.604   1.371  16.175  1.1037  0.4132  0.1477
 4480SOL    HW125073   1.655   1.299  16.211  1.0251  0.0281 -0.5154
 4480SOL    HW225074   1.647   1.449  16.211  0.6290  1.3398 -1.3048
 4481SOL     OW25075   1.659   2.013   8.425 -0.2264  0.1035  0.0671
 4481SOL    HW125076   1.717   2.073   8.377  0.6641 -0.0653  0.9262
 4481SOL    HW225077   1.682   2.027   8.517  2.2350  1.4508 -0.7466
 4482SOL     OW25078   3.543   4.175   4.151  0.8373 -0.0411  0.3867
 4482SOL    HW125079   3.466   4.122   4.172  0.9210  0.3219  1.6277
 4482SOL    HW225080   3.504   4.240   4.093 -0.8339 -1.4440 -0.0545
 4483SOL     OW25081   1.676   0.589   2.782  0.3456 -0.1136 -0.3635
 4483SOL    HW125082   1.649   0.678   2.804  0.4443 -0.4553  1.1117
 4483SOL    HW225083   1.732   0.613   2.708  0.0683 -1.6538 -1.0567
 4484SOL     OW25084   0.264   4.062   7.255 -0.3208 -0.0797  0.5099
 4484SOL    HW125085   0.267   4.001   7.329  1.1596 -0.4282  0.1653
 4484SOL    HW225086   0.209   4.132   7.289 -1.7668 -1.0673  0.1841
 4485SOL     OW25087   4.474   1.060   4.751  0.4532  0.4175 -0.4763
 4485SOL    HW125088   4.441   1.054   4.661  0.1798  0.8303 -0.4034
 4485SOL    HW225089   4.403   1.118   4.779  1.2725 -0.0041  2.5147
 4486SOL     OW25090   3.712   3.720   8.085 -0.7670  0.1370  0.7756
 4486SOL    HW125091   3.787   3.768   8.120 -1.1300  2.6153 -1.8879
 4486SOL    HW225092   3.680   3.791   8.029  0.8851  1.4177  1.4521
 4487SOL     OW25093   0.637   3.098   4.373 -0.2714 -0.2820  0.0460
 4487SOL    HW125094   0.605   3.115   4.462  0.2800 -0.5188  0.2887
 4487SOL    HW225095   0.637   3.181   4.326 -0.3223 -0.8760 -1.0208
 4488SOL     OW25096   0.565   3.060   8.349  0.0965 -0.2398 -0.5178
 4488SOL    HW125097   0.552   3.115   8.272  1.8412  2.8536  1.3468
 4488SOL    HW225098   0.629   3.109   8.402  0.5150 -0.5577 -0.7298
 4489SOL     OW25099   3.199   3.155   3.151  0.2791  0.5779 -0.4783
 4489SOL    HW125100   3.133   3.105   3.199  0.9470  0.5821  0.4313
 4489SOL    HW225101   3.182   3.238   3.196  0.4352  0.3464  0.0118
 4490SOL     OW25102   0.490   2.448   6.836  0.3626  0.3787 -0.0729
 4490SOL    HW125103   0.472   2.412   6.923 -1.1636 -1.1005 -0.9929
 4490SOL    HW225104   0.472   2.540   6.852 -0.9368  0.3458 -1.3679
 4491SOL     OW25105   0.224   0.512  13.781 -0.1480  0.0003  0.2279
 4491SOL    HW125106   0.298   0.469  13.823  0.3524  1.5348  0.9454
 4491SOL    HW225107   0.199   0.438  13.726 -2.8575 -0.8120  2.5633
 4492SOL     OW25108   0.738   4.575   0.480  0.0633  0.5480 -0.3825
 4492SOL    HW125109   0.805   4.605   0.542 -0.6944 -2.5773  1.9247
 4492SOL    HW225110   0.729   4.659   0.434  0.8283  0.2848 -1.0111
 4493SOL     OW25111   3.556   4.497  14.135 -0.2232  0.2436  0.1928
 4493SOL    HW125112   3.463   4.489  14.159 -0.6076 -1.7586 -2.0117
 4493SOL    HW225113   3.574   4.409  14.104  0.1544  0.5865 -0.5455
 4494SOL     OW25114   2.015   0.846   3.249 -0.2390  0.0296 -0.2293
 4494SOL    HW125115   2.090   0.904   3.239  1.6723 -2.1781  1.4823
 4494SOL    HW225116   2.013   0.805   3.162  1.8493 -0.8411  0.1321
 4495SOL     OW25117   0.614   3.261  14.929  0.0614 -0.0163 -0.9992
 4495SOL    HW125118   0.600   3.267  15.023 -0.5675  1.4960 -1.1827
 4495SOL    HW225119   0.532   3.282  14.883 -1.1764 -3.2468 -0.3191
 4496SOL     OW25120   4.525   2.328   8.961  0.4462  0.0250  0.2151
 4496SOL    HW125121   4.520   2.414   8.920  1.2565 -0.8613 -1.7219
 4496SOL    HW225122   4.430   2.319   8.971  0.4468  0.5833  0.6832
 4497SOL     OW25123   1.979   2.500   0.956 -0.1250 -0.2240 -0.0144
 4497SOL    HW125124   1.919   2.573   0.966  1.3108  0.8628  0.5773
 4497SOL    HW225125   2.019   2.494   1.043  1.3976  0.1607 -0.6786
 4498SOL     OW25126   4.419   2.013   4.021 -0.3459 -0.2643  0.7300
 4498SOL    HW125127   4.392   1.940   4.076 -0.9013 -0.8266 -0.2870
 4498SOL    HW225128   4.440   1.967   3.940 -0.2268 -1.0461  1.2046
 4499SOL     OW25129   2.561   2.449   2.335  0.4511  0.1070  0.0464
 4499SOL    HW125130   2.610   2.416   2.410 -1.0259 -0.2070  0.8634
 4499SOL    HW225131   2.545   2.363   2.297  1.6602  0.2839 -0.8536
 4500SOL     OW25132   4.150   0.609   8.664 -0.4684 -0.0789  0.5441
 4500SOL    HW125133   4.154   0.518   8.636  0.5251  0.0453  0.2627
 4500SOL    HW225134   4.064   0.605   8.705 -0.5048  1.7241  0.6484
 4501SOL     OW25135   0.121   1.007   2.173  0.0311 -0.6682  0.1543
 4501SOL    HW125136   0.145   1.093   2.137 -0.8155 -0.0379  1.0887
 4501SOL    HW225137   0.026   1.018   2.167  0.6679  4.0865 -1.8368
 4502SOL     OW25138   2.823   3.879   2.183 -0.0940 -0.7555 -0.2648
 4502SOL    HW125139   2.873   3.896   2.263  1.1603  0.2324 -1.2488
 4502SOL    HW225140   2.888   3.849   2.120  0.5168 -0.3870  0.1900
 4503SOL     OW25141   2.588   3.392   5.414 -0.1649  0.6134  0.0351
 4503SOL    HW125142   2.636   3.371   5.333  1.6209  2.0787  0.7077
 4503SOL    HW225143   2.520   3.325   5.415  0.8077 -0.3470  0.8577
 4504SOL     OW25144   3.970   0.036   8.326  0.0511  0.4030 -0.3321
 4504SOL    HW125145   3.969   4.673   8.328  0.2416  0.4529  1.5060
 4504SOL    HW225146   4.045   0.050   8.268  0.1036  1.5686 -0.0008
 4505SOL     OW25147   4.361   2.482   6.037  0.2756 -1.1094  0.5772
 4505SOL    HW125148   4.269   2.490   6.061  0.3035 -1.1772  0.7067
 4505SOL    HW225149   4.363   2.551   5.970 -0.8518  0.4950  2.1804
 4506SOL     OW25150   0.748   0.763  10.832 -0.2852 -0.5273  0.3171
 4506SOL    HW125151   0.666   0.811  10.819  0.7380  0.6516 -1.7621
 4506SOL    HW225152   0.802   0.799  10.761 -3.3758  0.4340 -1.5807
 4507SOL     OW25153   1.280   1.682   2.338  0.3955 -0.1712 -0.5756
 4507SOL    HW125154   1.191   1.707   2.363  0.4505 -1.1267  0.5578
 4507SOL    HW225155   1.253   1.649   2.252 -3.5759  0.3057  0.4655
 4508SOL     OW25156   4.698   2.787   8.100 -0.1266 -0.0043 -0.0870
 4508SOL    HW125157   0.037   2.851   8.106 -0.1583 -0.0022  0.2708
 4508SOL    HW225158   0.014   2.705   8.103 -0.9995 -0.3947  2.6861
 4509SOL     OW25159   0.370   1.547   5.530  1.0516 -0.5150  0.3806
 4509SOL    HW125160   0.441   1.591   5.483 -0.9738  0.6011 -1.6052
 4509SOL    HW225161   0.396   1.455   5.523 -1.0857 -0.9771 -1.4662
 4510SOL     OW25162   0.959   4.587   1.933 -0.0812 -0.2849  0.2113
 4510SOL    HW125163   0.887   4.603   1.871  0.5301  1.4800 -0.0685
 4510SOL    HW225164   1.017   4.660   1.912 -1.9228  0.2295 -3.0539
 4511SOL     OW25165   4.401   1.983  16.867  0.3480  0.7799 -0.7160
 4511SOL    HW125166   4.350   1.902  16.870  1.4743  0.2145  3.2492
 4511SOL    HW225167   4.450   1.969  16.786  0.7212 -1.7437 -0.0657
 4512SOL     OW25168   3.161   4.525   8.850 -0.1979 -0.4778  0.4802
 4512SOL    HW125169   3.104   4.596   8.880 -0.6947 -0.0745 -1.4282
 4512SOL    HW225170   3.187   4.564   8.766 -1.4171  0.1372  0.3885
 4513SOL     OW25171   0.348   2.039  14.867  0.2688 -0.5287  0.8214
 4513SOL    HW125172   0.356   2.010  14.776 -1.4441 -1.6136  1.0117
 4513SOL    HW225173   0.405   1.974  14.908  1.4934 -0.0612 -0.1531
 4514SOL     OW25174   4.306   1.549   6.622 -0.2096  0.2062 -0.2846
 4514SOL    HW125175   4.349   1.536   6.537 -0.9567 -1.4098 -0.4096
 4514SOL    HW225176   4.271   1.636   6.602 -0.3071  0.0538 -0.7601
 4515SOL     OW25177   2.813   2.470   7.387  0.1860 -0.3032 -0.7310
 4515SOL    HW125178   2.860   2.488   7.306 -0.5046  0.7996 -0.8783
 4515SOL    HW225179   2.878   2.404   7.412  1.2142  1.2271  0.5885
 4516SOL     OW25180   0.076   3.605   8.886 -0.6026  0.2079  0.1819
 4516SOL    HW125181   0.088   3.697   8.863 -1.4576  0.0951 -0.6824
 4516SOL    HW225182   0.101   3.606   8.978  2.0697 -1.6501 -0.5080
 4517SOL     OW25183   2.703   3.380   5.979  0.0367  0.5254  0.0707
 4517SOL    HW125184   2.699   3.475   5.986  2.8418  0.6830 -0.7529
 4517SOL    HW225185   2.637   3.346   6.040  0.5772  0.1557  0.4420
 4518SOL     OW25186   2.249   0.302   2.551 -0.4432  0.4977  0.4927
 4518SOL    HW125187   2.209   0.316   2.465  0.2236 -0.5072  0.0246
 4518SOL    HW225188   2.170   0.285   2.602 -0.7201  2.0096  0.5814
 4519SOL     OW25189   4.506   0.745   2.302  0.3185 -0.0260  0.1198
 4519SOL    HW125190   4.514   0.751   2.206 -2.4477  0.5277 -0.0788
 4519SOL    HW225191   4.576   0.683   2.320  2.8403  2.6725 -0.3713
 4520SOL     OW25192   2.064   2.708  11.632  0.2314  0.6627  0.2857
 4520SOL    HW125193   2.126   2.732  11.564  1.4339 -0.6151  0.9342
 4520SOL    HW225194   2.017   2.790  11.647 -0.2249  0.3883  0.3610
 4521SOL     OW25195   0.410   3.537   2.922 -0.2277 -0.5444  0.0774
 4521SOL    HW125196   0.382   3.586   2.844 -1.5717 -0.6060  0.5211
 4521SOL    HW225197   0.407   3.604   2.990 -1.5763  2.3780 -2.8828
 4522SOL     OW25198   1.721   1.543   2.645  0.2659 -0.2666  0.1187
 4522SOL    HW125199   1.756   1.513   2.561  0.6771  0.1120  0.1561
 4522SOL    HW225200   1.628   1.531   2.624  0.2411 -0.8694  0.5702
 4523SOL     OW25201   2.519   1.780  11.465  0.6969 -0.0880  0.2285
 4523SOL    HW125202   2.511   1.874  11.481 -1.5832 -0.3530  0.7167
 4523SOL    HW225203   2.614   1.779  11.471  0.7686 -1.3399 -1.0967
 4524SOL     OW25204   1.759   0.315   2.184  0.1198 -0.0644 -0.3412
 4524SOL    HW125205   1.700   0.384   2.153  2.6120  1.8458 -0.8670
 4524SOL    HW225206   1.734   0.246   2.123 -1.2457  0.0333  0.1187
 4525SOL     OW25207   0.953   2.635  11.309 -0.4769  0.5652 -0.2740
 4525SOL    HW125208   0.912   2.630  11.223 -0.0091  0.5064 -0.4981
 4525SOL    HW225209   0.901   2.577  11.365 -2.4538  2.8923  0.2956
 4526SOL     OW25210   1.589   3.232   4.625  0.2728  0.2377 -0.2900
 4526SOL    HW125211   1.643   3.310   4.637  2.3088 -1.1415 -0.3354
 4526SOL    HW225212   1.608   3.210   4.534 -1.6547  0.3186 -0.6942
 4527SOL     OW25213   3.073   2.449  11.667  0.0609  0.1712  0.2360
 4527SOL    HW125214   2.987   2.446  11.624 -0.3908 -1.2188  1.2400
 4527SOL    HW225215   3.118   2.485  11.591 -0.0354 -0.1785  0.0174
 4528SOL     OW25216   3.838   4.288   1.616 -0.0673  0.1706  0.1708
 4528SOL    HW125217   3.861   4.381   1.621  0.7266  0.0080 -0.5339
 4528SOL    HW225218   3.824   4.276   1.710 -0.6938  0.7010  0.1436
 4529SOL     OW25219   1.181   1.113  12.454  0.2196  0.1482 -0.0027
 4529SOL    HW125220   1.234   1.041  12.421 -0.2210  0.1699 -0.7557
 4529SOL    HW225221   1.115   1.075  12.512  0.9378 -0.9237  0.1124
 4530SOL     OW25222   1.213   1.294   8.083 -0.2974  0.2888  0.8885
 4530SOL    HW125223   1.241   1.211   8.044 -1.9452 -0.0697  0.5089
 4530SOL    HW225224   1.256   1.354   8.022  0.2909 -2.0973 -1.0263
 4531SOL     OW25225   2.468   4.499   3.937  0.3479 -0.1524  0.1307
 4531SOL    HW125226   2.426   4.413   3.943 -1.2719  0.7263  1.1960
 4531SOL    HW225227   2.469   4.512   3.842  0.5935  2.1493  0.4492
 4532SOL     OW25228   4.522   4.392   5.651 -0.5790 -0.1200  0.3914
 4532SOL    HW125229   4.591   4.379   5.716  1.2922  1.9107 -1.1716
 4532SOL    HW225230   4.508   4.487   5.651 -1.0265 -0.1890  0.2600
 4533SOL     OW25231   0.074   2.515   8.187  0.4059 -0.0840  0.4632
 4533SOL    HW125232   0.044   2.523   8.277 -1.8880  2.7274 -0.5352
 4533SOL    HW225233   0.167   2.539   8.186  0.4981 -0.4557 -0.5752
 4534SOL     OW25234   1.777   4.215  12.802  0.7451 -0.0884  0.2342
 4534SOL    HW125235   1.689   4.184  12.778 -1.0246  3.9027  1.5294
 4534SOL    HW225236   1.791   4.178  12.889 -0.8169 -0.7057  0.2329
 4535SOL     OW25237   2.307   4.123   8.169  0.5743  0.3283  0.1056
 4535SOL    HW125238   2.348   4.135   8.255 -2.5307 -1.0789  1.8119
 4535SOL    HW225239   2.240   4.192   8.165 -0.6307 -0.8016  0.8615
 4536SOL     OW25240   3.909   0.473   6.185  0.2497  0.4707 -0.0061
 4536SOL    HW125241   3.846   0.433   6.125  0.7646  0.2403 -0.3979
 4536SOL    HW225242   3.889   0.566   6.173 -0.9376  0.3840  1.3008
 4537SOL     OW25243   4.723   2.200  14.226 -0.5030  0.0737  0.1722
 4537SOL    HW125244   4.683   2.146  14.157 -1.3970  3.4086 -1.9384
 4537SOL    HW225245   4.651   2.206  14.289 -0.4046  1.0420  0.1842
 4538SOL     OW25246   0.537   1.007   8.837 -0.5507  0.2552  0.8533
 4538SOL    HW125247   0.471   0.953   8.879 -1.6644  0.5090 -0.5690
 4538SOL    HW225248   0.614   0.982   8.888 -2.0029  1.7045  3.7262
 4539SOL     OW25249   1.825   1.307  10.765  0.1762 -0.0315  0.3304
 4539SOL    HW125250   1.822   1.347  10.678  0.3856 -0.6128  0.0601
 4539SOL    HW225251   1.825   1.386  10.820 -1.0876 -1.2645  2.1078
 4540SOL     OW25252   2.969   0.081   6.239 -0.4836 -0.5939 -0.0329
 4540SOL    HW125253   3.029   0.143   6.279 -0.6044 -1.5813  1.6625
 4540SOL    HW225254   3.013   0.073   6.155  0.7902 -1.0480  0.6908
 4541SOL     OW25255   0.382   0.053   0.619 -1.0851  0.3745 -0.1912
 4541SOL    HW125256   0.437   4.730   0.675  0.0653  2.6355  0.9282
 4541SOL    HW225257   0.458   0.081   0.567 -1.4943 -0.0729 -1.0139
 4542SOL     OW25258   3.725   4.136   8.158  0.2216  0.1612 -0.5321
 4542SOL    HW125259   3.686   4.085   8.086  0.7672  0.4216 -1.0128
 4542SOL    HW225260   3.649   4.194   8.160 -0.7543 -1.0927 -1.1603
 4543SOL     OW25261   0.554   0.567   8.841 -0.2506 -0.4509 -0.1130
 4543SOL    HW125262   0.484   0.629   8.859  0.9219  0.6731  0.5341
 4543SOL    HW225263   0.574   0.549   8.933  0.3026  1.9697  0.2479
 4544SOL     OW25264   3.117   3.380   1.976  0.5803 -0.0707 -0.1410
 4544SOL    HW125265   3.040   3.323   1.978 -1.0673  2.2524  2.0808
 4544SOL    HW225266   3.165   3.333   2.043 -2.5281 -3.2208 -0.1139
 4545SOL     OW25267   2.313   0.372  11.291 -0.0277 -0.0008 -0.1767
 4545SOL    HW125268   2.222   0.374  11.322 -0.2830  0.0993 -0.9264
 4545SOL    HW225269   2.306   0.436  11.221 -1.6525  0.6048  0.5346
 4546SOL     OW25270   0.707   1.482   6.823 -0.6939  0.2149  0.5154
 4546SOL    HW125271   0.643   1.531   6.876  0.8243 -0.7085  3.2182
 4546SOL    HW225272   0.778   1.546   6.813 -0.3755 -0.2660 -0.2476
 4547SOL     OW25273   3.604   2.224   7.891 -0.2117  0.0095  0.2207
 4547SOL    HW125274   3.559   2.152   7.934 -0.5233  1.0675  1.6640
 4547SOL    HW225275   3.529   2.262   7.846  0.2196 -0.0199 -0.5194
 4548SOL     OW25276   0.590   4.259   1.400  0.1812  0.5085 -0.3062
 4548SOL    HW125277   0.562   4.236   1.311 -0.0579  1.0649 -0.3724
 4548SOL    HW225278   0.585   4.174   1.443 -0.5565 -0.4609 -2.3014
 4549SOL     OW25279   4.578   0.737  12.003  0.9079 -0.2726  0.7953
 4549SOL    HW125280   4.585   0.644  11.984  0.1920 -0.7136  2.6801
 4549SOL    HW225281   4.600   0.743  12.096  1.7208 -0.2600  0.5983
 4550SOL     OW25282   3.964   2.603   4.654  0.7069 -0.7258 -0.3435
 4550SOL    HW125283   3.997   2.566   4.572  1.7224  1.4617 -0.9029
 4550SOL    HW225284   4.006   2.552   4.723  1.6433 -0.0664 -0.4320
 4551SOL     OW25285   0.253   0.677  14.221 -0.1017  0.4255 -0.0715
 4551SOL    HW125286   0.256   0.770  14.243 -0.0659  0.4357 -0.1197
 4551SOL    HW225287   0.248   0.636  14.308  1.3420 -0.2491 -0.2990
 4552SOL     OW25288   4.458   1.254   2.858  0.6822  0.1036  0.1493
 4552SOL    HW125289   4.519   1.227   2.789 -0.5838 -1.8302 -0.2391
 4552SOL    HW225290   4.513   1.309   2.915  0.8025 -0.3984  0.5186
 4553SOL     OW25291   1.958   3.800   2.705  0.1536 -0.1403  0.1658
 4553SOL    HW125292   2.026   3.742   2.672 -1.5265 -0.5713 -2.5635
 4553SOL    HW225293   1.887   3.784   2.643  0.9891  0.6234 -0.9762
 4554SOL     OW25294   2.816   3.473   7.332 -0.2630  0.4064 -0.4710
 4554SOL    HW125295   2.788   3.547   7.278  0.5194  0.8321 -0.2920
 4554SOL    HW225296   2.765   3.404   7.290  1.8677 -1.7280  0.4302
 4555SOL     OW25297   1.658   2.384   1.162 -0.0647 -0.0718 -0.2034
 4555SOL    HW125298   1.601   2.414   1.233  0.7737  0.7128  0.1388
 4555SOL    HW225299   1.739   2.378   1.211 -1.9483 -2.4783  2.6020
 4556SOL     OW25300   2.779   1.573  15.801 -0.2288  0.4224 -0.1467
 4556SOL    HW125301   2.826   1.527  15.871 -1.9332 -1.0330  0.0313
 4556SOL    HW225302   2.816   1.659  15.821 -2.0047  0.6982  1.8698
 4557SOL     OW25303   2.797   0.222   5.492 -0.2965  0.2151 -0.3134
 4557SOL    HW125304   2.767   0.267   5.571 -1.1411 -1.8052  0.5040
 4557SOL    HW225305   2.719   0.173   5.465  0.4563 -0.8490 -0.5212
 4558SOL     OW25306   1.354   3.033  14.185 -0.1449 -0.0280 -0.4364
 4558SOL    HW125307   1.406   3.075  14.253 -0.3494 -1.3747  0.5420
 4558SOL    HW225308   1.423   2.975  14.153 -1.0698  0.0377 -2.5027
 4559SOL     OW25309   4.547   3.552   5.335  0.7411 -0.5445 -0.3294
 4559SOL    HW125310   4.491   3.596   5.271  0.6166 -1.3914 -0.8101
 4559SOL    HW225311   4.632   3.595   5.335 -0.0342  1.0031 -0.9666
 4560SOL     OW25312   4.450   3.470   0.396  0.0675  0.6151  0.2074
 4560SOL    HW125313   4.470   3.503   0.309 -0.1571  0.0444 -0.0641
 4560SOL    HW225314   4.500   3.388   0.396  0.7616  1.0419  0.4062
 4561SOL     OW25315   4.314   2.654  15.725  0.0473  0.8460 -0.4761
 4561SOL    HW125316   4.324   2.696  15.810 -0.9323  1.1120 -0.4943
 4561SOL    HW225317   4.336   2.731  15.674 -1.8864 -0.6471 -3.5500
 4562SOL     OW25318   4.458   4.242   2.014 -0.3833 -0.0020 -0.3069
 4562SOL    HW125319   4.545   4.281   2.025 -0.4235 -0.4482  1.5775
 4562SOL    HW225320   4.437   4.210   2.101  1.8558 -0.1311  0.1897
 4563SOL     OW25321   0.689   4.330   9.560  0.7559  0.2844 -0.2033
 4563SOL    HW125322   0.753   4.289   9.619  0.6157  0.5343  0.1273
 4563SOL    HW225323   0.660   4.259   9.503 -3.3450  0.2225  1.9554
 4564SOL     OW25324   3.512   2.483  15.015 -0.2226 -0.1870  0.1495
 4564SOL    HW125325   3.495   2.412  15.077  0.8360 -0.4677  0.1141
 4564SOL    HW225326   3.598   2.463  14.978 -0.8145 -3.2963  0.3818
 4565SOL     OW25327   0.763   1.699   5.620  0.2386 -0.1017  0.0828
 4565SOL    HW125328   0.741   1.783   5.661  2.5847 -0.2329  1.5858
 4565SOL    HW225329   0.848   1.710   5.579 -0.6307  4.0875 -0.5954
 4566SOL     OW25330   2.223   0.745   5.307  0.0463 -0.5192  0.3047
 4566SOL    HW125331   2.263   0.658   5.313 -1.0129 -0.9015  1.8371
 4566SOL    HW225332   2.302   0.794   5.328 -1.3572  2.2302 -0.8741
 4567SOL     OW25333   2.280   3.266   2.426 -0.0395  0.5366  0.3689
 4567SOL    HW125334   2.349   3.200   2.417  1.0893  1.7985 -0.1510
 4567SOL    HW225335   2.322   3.308   2.501  0.5483  1.0761 -0.2695
 4568SOL     OW25336   0.752   0.151   3.653  0.2163  0.0785  0.1047
 4568SOL    HW125337   0.828   0.150   3.711  0.0001  1.7175  0.4287
 4568SOL    HW225338   0.778   0.190   3.570 -1.7917  1.9367  0.3294
 4569SOL     OW25339   0.386   0.596   8.068  0.0775 -0.4430 -0.1350
 4569SOL    HW125340   0.450   0.655   8.108 -0.7279 -0.1681  0.7579
 4569SOL    HW225341   0.345   0.561   8.147 -0.4328 -0.2360 -0.3093
 4570SOL     OW25342   0.408   1.220   3.414 -0.6395 -0.2315  0.3675
 4570SOL    HW125343   0.388   1.303   3.371  0.2865  0.7175  1.7889
 4570SOL    HW225344   0.336   1.167   3.378  0.5802 -0.5509 -1.6142
 4571SOL     OW25345   0.618   2.007   3.048 -0.1406  0.1962  0.2324
 4571SOL    HW125346   0.686   1.981   3.110  3.7859  1.3842 -3.5116
 4571SOL    HW225347   0.576   2.078   3.095 -0.9016 -0.8912  1.1851
 4572SOL     OW25348   1.272   0.618   3.444  0.0037  0.3138 -0.0180
 4572SOL    HW125349   1.178   0.622   3.465  0.7695  0.6404  3.2912
 4572SOL    HW225350   1.276   0.678   3.369 -0.2932  2.1383  1.4406
 4573SOL     OW25351   1.192   3.802   6.901  0.2174 -0.3530  0.0353
 4573SOL    HW125352   1.207   3.896   6.903  2.8203 -0.7825  0.5557
 4573SOL    HW225353   1.112   3.790   6.954  0.0481  2.6727  0.4332
 4574SOL     OW25354   4.022   1.426   1.727 -0.3012 -0.1495  0.2449
 4574SOL    HW125355   4.093   1.449   1.666 -1.7142 -0.2979 -1.4545
 4574SOL    HW225356   3.974   1.507   1.711 -0.4891 -0.1803  0.6607
 4575SOL     OW25357   3.714   4.394   3.792  0.2769 -0.7613 -0.1985
 4575SOL    HW125358   3.757   4.331   3.850  2.6532  1.7759  0.8159
 4575SOL    HW225359   3.685   4.462   3.853 -0.1417 -1.6179  0.5561
 4576SOL     OW25360   2.357   0.930   8.841  0.3604  0.6560  0.2020
 4576SOL    HW125361   2.348   1.022   8.865  1.5528  1.3211 -1.9481
 4576SOL    HW225362   2.421   0.899   8.904 -0.6999 -0.6329  0.6525
 4577SOL     OW25363   3.075   4.411  12.030 -0.5672 -0.2584  0.3663
 4577SOL    HW125364   3.078   4.431  12.124 -1.3106  2.7516 -0.2698
 4577SOL    HW225365   3.038   4.323  12.031  1.4264 -1.1024 -0.7071
 4578SOL     OW25366   2.213   4.104   0.360  0.6718 -0.2563 -0.1971
 4578SOL    HW125367   2.285   4.110   0.296  1.2618  1.5955  0.6223
 4578SOL    HW225368   2.157   4.181   0.354  1.0088  0.0630  0.7261
 4579SOL     OW25369   3.917   1.700  16.498  0.0722 -0.0300  0.3121
 4579SOL    HW125370   3.938   1.728  16.587  2.0683  1.4395 -0.6298
 4579SOL    HW225371   3.932   1.606  16.505 -2.8565 -0.1135  5.0617
 4580SOL     OW25372   0.776   4.706   4.631 -0.1159  0.3326  0.1798
 4580SOL    HW125373   0.688   4.704   4.593  1.3522 -0.2483 -3.1625
 4580SOL    HW225374   0.755   4.729   4.721  0.5358 -0.2997  0.4916
 4581SOL     OW25375   0.387   4.252   2.129 -0.7676  0.0025  0.0209
 4581SOL    HW125376   0.411   4.188   2.061  0.0676 -0.2770  0.5764
 4581SOL    HW225377   0.329   4.202   2.186 -0.5307 -0.9598 -0.5750
 4582SOL     OW25378   2.563   3.705  14.678 -0.1466  0.0058 -0.7394
 4582SOL    HW125379   2.571   3.768  14.606  0.1696  1.7823  0.8493
 4582SOL    HW225380   2.496   3.755  14.724  0.2499 -1.5183  1.5133
 4583SOL     OW25381   0.212   0.843  15.515  0.1755 -0.7176 -0.1515
 4583SOL    HW125382   0.154   0.769  15.501  0.7704 -1.5408  1.7163
 4583SOL    HW225383   0.216   0.881  15.427  0.6204 -0.1401  0.1131
 4584SOL     OW25384   1.972   3.902  10.330 -0.2435  0.1348 -0.1308
 4584SOL    HW125385   1.959   3.891  10.236 -1.4012  2.7997 -0.2606
 4584SOL    HW225386   2.066   3.919  10.334  0.0433 -1.6150  0.8458
 4585SOL     OW25387   2.224   2.690   6.948  0.2307  0.2808 -0.3879
 4585SOL    HW125388   2.163   2.748   6.994 -0.1872 -0.6545  0.2151
 4585SOL    HW225389   2.190   2.607   6.981 -1.2138  1.2422  0.5504
 4586SOL     OW25390   2.383   0.302  15.037  0.4044  0.4443 -0.2219
 4586SOL    HW125391   2.369   0.371  14.972 -0.1663 -0.1283 -0.7136
 4586SOL    HW225392   2.338   0.233  14.988 -0.6782  1.6386 -0.9260
 4587SOL     OW25393   4.260   1.453   5.047  0.2129  0.0246  0.2352
 4587SOL    HW125394   4.222   1.534   5.014 -1.5032 -1.2378 -0.8727
 4587SOL    HW225395   4.343   1.446   4.999  0.6765 -0.6645  1.1278
 4588SOL     OW25396   3.303   3.224  14.230 -0.7871 -0.7970  0.5207
 4588SOL    HW125397   3.334   3.315  14.231  0.6464 -1.2661 -0.7444
 4588SOL    HW225398   3.249   3.223  14.309 -0.7126  0.2580  0.5913
 4589SOL     OW25399   4.597   0.251   6.011  0.1382 -0.0354  0.2519
 4589SOL    HW125400   4.525   0.247   6.074  0.1352  1.7785  0.3749
 4589SOL    HW225401   4.552   0.277   5.930  0.1269  1.3054  0.6906
 4590SOL     OW25402   2.337   0.068  10.125 -0.1212  0.5633 -0.0321
 4590SOL    HW125403   2.368   0.095  10.212  0.1837 -2.4451  0.7958
 4590SOL    HW225404   2.263   0.125  10.103 -0.7623 -0.2687 -0.0343
 4591SOL     OW25405   3.207   4.307   4.240  0.0533 -0.5476 -0.1981
 4591SOL    HW125406   3.185   4.217   4.263  0.5780 -0.5508  0.2990
 4591SOL    HW225407   3.155   4.339   4.314 -1.2102  1.8076 -2.0995
 4592SOL     OW25408   0.005   4.128   4.740  0.0763  0.0932 -0.5546
 4592SOL    HW125409   4.643   4.116   4.742  0.0330  0.7392  1.3530
 4592SOL    HW225410   0.005   4.220   4.766 -1.4791 -0.3197  0.8599
 4593SOL     OW25411   2.731   2.488   1.535  0.3817  0.3758  0.1057
 4593SOL    HW125412   2.795   2.526   1.594  2.7287 -1.2546 -1.3624
 4593SOL    HW225413   2.683   2.434   1.598 -1.5628  1.8337 -0.0977
 4594SOL     OW25414   0.098   4.300   3.819 -0.2009  0.1359 -0.4494
 4594SOL    HW125415   0.061   4.214   3.838  0.8424 -0.4608 -1.0787
 4594SOL    HW225416   0.020   4.354   3.804 -0.6655 -0.0135  1.3852
 4595SOL     OW25417   3.177   2.449   3.569 -0.1856 -0.0223  0.5853
 4595SOL    HW125418   3.203   2.534   3.534 -0.9485  0.1968  0.5493
 4595SOL    HW225419   3.126   2.487   3.641 -0.9398 -0.2315  0.1675
 4596SOL     OW25420   2.510   0.530  12.661 -0.0456 -0.1509  0.2494
 4596SOL    HW125421   2.555   0.456  12.622  0.8196  0.2592  0.4652
 4596SOL    HW225422   2.428   0.493  12.694 -0.1126 -0.6924 -0.5431
 4597SOL     OW25423   1.956   1.526  11.749 -0.3738  0.1542  0.0683
 4597SOL    HW125424   1.986   1.596  11.690  1.0808 -1.3830 -1.0061
 4597SOL    HW225425   2.009   1.452  11.718 -0.8278 -1.6900  3.7461
 4598SOL     OW25426   4.715   2.532   3.187  0.0797  0.2503  0.0708
 4598SOL    HW125427   4.622   2.515   3.200 -0.0606  2.6724  2.3280
 4598SOL    HW225428   4.708   2.561   3.096 -3.4226 -0.5223  0.1079
 4599SOL     OW25429   1.354   0.264   3.398 -0.1440 -0.2138 -0.4718
 4599SOL    HW125430   1.330   0.264   3.306 -2.0650 -1.1202  0.0240
 4599SOL    HW225431   1.348   0.359   3.411 -0.0817 -0.0733 -1.4915
 4600SOL     OW25432   1.666   1.384   9.049  0.2239 -0.2120 -0.2936
 4600SOL    HW125433   1.727   1.453   9.074 -0.3201  0.7573 -1.6686
 4600SOL    HW225434   1.591   1.425   9.006 -0.0863  0.6306  1.0338
 4601SOL     OW25435   0.995   1.445   8.922 -0.6443  0.0849 -0.2205
 4601SOL    HW125436   0.929   1.477   8.983 -0.7708 -0.7286  0.0703
 4601SOL    HW225437   0.959   1.357   8.909 -0.2063 -0.5588  2.8447
 4602SOL     OW25438   1.693   1.262  11.497 -0.0877 -0.1995 -0.0806
 4602SOL    HW125439   1.603   1.248  11.466 -0.0182 -1.0081  0.0830
 4602SOL    HW225440   1.731   1.314  11.426  1.2041 -0.4636  0.4195
 4603SOL     OW25441   0.462   1.790   2.401 -0.4261 -0.1875  0.4439
 4603SOL    HW125442   0.502   1.710   2.368  1.6908  0.5990  1.0441
 4603SOL    HW225443   0.521   1.818   2.471  1.0564 -0.7489 -0.5888
 4604SOL     OW25444   2.059   3.319   9.541  0.0538  0.4481  0.2326
 4604SOL    HW125445   2.005   3.274   9.476  2.4320 -2.7348  0.4556
 4604SOL    HW225446   2.140   3.315   9.490  1.2369  1.5093  2.0335
 4605SOL     OW25447   0.724   3.630   6.787  0.2020  0.1259  0.1230
 4605SOL    HW125448   0.645   3.655   6.740  0.7095  1.0882 -0.1941
 4605SOL    HW225449   0.702   3.540   6.814 -1.8283  0.4974 -0.3005
 4606SOL     OW25450   4.059   4.620   4.197  0.4694 -0.1529 -0.1302
 4606SOL    HW125451   4.095   4.648   4.281 -0.9915  2.7324 -0.4949
 4606SOL    HW225452   4.111   4.540   4.186  0.6720  0.3491 -2.6375
 4607SOL     OW25453   0.515   1.660  13.373  0.2226 -0.4764 -0.6354
 4607SOL    HW125454   0.562   1.666  13.456  1.8973 -3.6549 -1.3527
 4607SOL    HW225455   0.453   1.733  13.374 -0.7182 -1.3281  2.0120
 4608SOL     OW25456   4.048   2.229  14.537 -0.1181 -0.1608  0.0782
 4608SOL    HW125457   4.020   2.315  14.569  0.7055  1.2597 -2.9978
 4608SOL    HW225458   4.091   2.242  14.452  0.5232 -1.7522  0.1724
 4609SOL     OW25459   0.152   3.283   7.903  0.3885  0.3079 -0.2223
 4609SOL    HW125460   0.247   3.277   7.890  0.3679  1.2120 -0.7940
 4609SOL    HW225461   0.140   3.378   7.903  1.1268  0.3914  1.1951
 4610SOL     OW25462   3.510   4.162   2.058  0.0643 -0.1076 -0.3587
 4610SOL    HW125463   3.544   4.098   2.120  1.1265 -0.5827 -1.4222
 4610SOL    HW225464   3.518   4.243   2.108 -0.5899  0.3401 -0.9809
 4611SOL     OW25465   0.738   2.994  13.672  0.0018  0.1248 -0.1381
 4611SOL    HW125466   0.691   3.005  13.754  0.8664 -1.1232  0.5229
 4611SOL    HW225467   0.758   3.086  13.655  0.7088  0.1093  0.5914
 4612SOL     OW25468   0.061   3.745   5.335  0.0027  0.0693 -0.2316
 4612SOL    HW125469   0.064   3.732   5.240 -0.4645 -0.6169 -0.1519
 4612SOL    HW225470   0.150   3.726   5.364 -0.2671 -0.9895 -0.0875
 4613SOL     OW25471   0.099   0.295  13.627 -0.0263 -0.4861  0.0822
 4613SOL    HW125472   0.115   0.203  13.605 -0.0328 -0.5212  0.2292
 4613SOL    HW225473   0.017   0.283  13.675  1.2701  0.4167  2.5220
 4614SOL     OW25474   3.109   0.113   2.516  0.6163 -0.7538  0.5202
 4614SOL    HW125475   3.198   0.146   2.509 -0.3854  1.7307 -0.3717
 4614SOL    HW225476   3.123   0.033   2.465 -1.0662 -1.1238  0.6115
 4615SOL     OW25477   1.590   4.637   3.911  0.0973 -0.0337 -0.0055
 4615SOL    HW125478   1.550   4.722   3.927 -3.2230 -1.2791 -1.7034
 4615SOL    HW225479   1.642   4.663   3.834 -0.0357  0.5299  0.1013
 4616SOL     OW25480   1.024   0.539   7.786  0.0070  0.0881  0.0495
 4616SOL    HW125481   0.995   0.470   7.727  1.8360  0.1862 -0.9661
 4616SOL    HW225482   1.117   0.537   7.762 -0.6689  1.2243 -2.6124
 4617SOL     OW25483   2.800   3.216   4.478 -0.3382  0.3828 -0.1845
 4617SOL    HW125484   2.788   3.131   4.520 -0.4964 -0.1097 -1.2282
 4617SOL    HW225485   2.809   3.187   4.387 -0.5341  1.4717 -0.5438
 4618SOL     OW25486   3.961   1.401   4.130  0.6411 -0.3174  0.4064
 4618SOL    HW125487   3.958   1.444   4.044  0.4471 -0.9601  0.0927
 4618SOL    HW225488   3.979   1.481   4.180 -0.3749 -0.6790  1.3260
 4619SOL     OW25489   3.486   1.664   8.703  0.1436  0.1698  0.7916
 4619SOL    HW125490   3.502   1.702   8.616 -0.6534 -1.6915 -0.1809
 4619SOL    HW225491   3.506   1.573   8.679 -1.4426  0.0330 -0.0057
 4620SOL     OW25492   1.039   4.676  13.804  0.5687 -0.6501 -0.5647
 4620SOL    HW125493   1.018   4.726  13.883  0.8748 -0.3905 -0.6434
 4620SOL    HW225494   0.982   4.721  13.741  0.8296 -0.6832 -0.8294
 4621SOL     OW25495   4.164   2.240   4.448 -0.6981  0.2004  0.3649
 4621SOL    HW125496   4.162   2.149   4.477  0.1816 -0.2768 -1.0348
 4621SOL    HW225497   4.252   2.236   4.411 -1.4761 -0.6918 -1.4209
 4622SOL     OW25498   0.235   3.959   5.858 -0.4637  0.5289  0.5249
 4622SOL    HW125499   0.161   4.013   5.830 -0.6597 -0.2940 -0.5151
 4622SOL    HW225500   0.256   4.006   5.939  1.5689  1.6554 -0.6919
 4623SOL     OW25501   3.824   1.743   5.254  0.6287  0.1646 -0.1857
 4623SOL    HW125502   3.770   1.692   5.194 -2.8961  1.4130  1.8840
 4623SOL    HW225503   3.821   1.829   5.211  1.4303  0.2374 -0.0956
 4624SOL     OW25504   4.629   2.976  15.710 -0.1543 -0.4762  0.5058
 4624SOL    HW125505   4.654   2.906  15.770  3.5720 -1.2259 -1.8975
 4624SOL    HW225506   4.715   3.002  15.677  0.0363 -1.2211  0.4053
 4625SOL     OW25507   3.249   1.929   4.929  0.5324 -0.2795 -0.0365
 4625SOL    HW125508   3.176   1.986   4.951 -0.7002 -1.2600 -1.6479
 4625SOL    HW225509   3.320   1.991   4.910 -1.5827  2.1808  0.1195
 4626SOL     OW25510   0.061   0.023  12.493 -0.0101 -0.2956  0.0715
 4626SOL    HW125511   0.119   4.681  12.477 -1.3437 -0.8636 -2.1158
 4626SOL    HW225512   0.004   0.026  12.416  1.9510 -0.7347 -1.4222
 4627SOL     OW25513   0.894   1.081   0.238 -0.1027 -0.1675 -0.1004
 4627SOL    HW125514   0.857   0.997   0.209 -0.1210  0.0713 -0.7643
 4627SOL    HW225515   0.920   1.103   0.149  0.1928  1.7429  0.4639
 4628SOL     OW25516   1.835   1.783   6.989  0.2487  0.4193 -0.0287
 4628SOL    HW125517   1.915   1.735   7.010  0.1084 -0.5166 -1.5999
 4628SOL    HW225518   1.809   1.749   6.903 -1.0290  0.5091  0.3209
 4629SOL     OW25519   3.663   1.268   9.097  0.1338 -1.0191  0.4628
 4629SOL    HW125520   3.578   1.307   9.078 -0.1067 -0.7027  2.1402
 4629SOL    HW225521   3.630   1.179   9.098  1.0704 -1.3867 -0.4123
 4630SOL     OW25522   1.814   2.715   8.879 -0.0365 -0.1783 -0.9346
 4630SOL    HW125523   1.885   2.747   8.935 -0.4120 -0.2986 -0.3819
 4630SOL    HW225524   1.859   2.723   8.795 -0.3269  1.3228 -0.9420
 4631SOL     OW25525   2.970   3.145   9.574 -0.0849  0.4515  0.0989
 4631SOL    HW125526   3.047   3.118   9.524 -1.4485 -1.6030 -0.9010
 4631SOL    HW225527   2.989   3.110   9.661 -0.4244  0.2551  0.0936
 4632SOL     OW25528   4.670   2.673  13.215 -0.3652  0.5315 -0.0076
 4632SOL    HW125529   0.002   2.625  13.267 -1.0222  0.9677  1.2324
 4632SOL    HW225530   0.002   2.737  13.187 -0.7078  1.0153  0.3079
 4633SOL     OW25531   2.151   2.704   4.689  0.4343  0.3265  0.0909
 4633SOL    HW125532   2.195   2.787   4.672 -1.3660  1.4090  0.7721
 4633SOL    HW225533   2.075   2.730   4.740 -0.8534  1.5532 -2.4405
 4634SOL     OW25534   4.548   3.424   4.937  0.2287  0.2046 -0.3130
 4634SOL    HW125535   4.530   3.434   4.843 -1.2098 -1.1009 -0.1792
 4634SOL    HW225536   4.543   3.518   4.955 -1.0392  0.1289 -0.2430
 4635SOL     OW25537   3.566   1.068  16.628  0.0765  0.3130  0.5612
 4635SOL    HW125538   3.510   1.138  16.593 -1.1097 -0.5519  0.7393
 4635SOL    HW225539   3.576   1.014  16.549  2.2297 -0.5389  1.4261
 4636SOL     OW25540   1.822   0.031   9.554 -0.0635  0.6076  0.3873
 4636SOL    HW125541   1.854   0.096   9.491 -0.3431  0.0738 -0.3025
 4636SOL    HW225542   1.774   0.082   9.619  0.2025 -1.8813  2.5269
 4637SOL     OW25543   3.580   0.258  10.402 -0.0720  0.3763  0.5486
 4637SOL    HW125544   3.484   0.256  10.410 -0.2410  1.0050 -1.2229
 4637SOL    HW225545   3.602   0.175  10.444 -1.8375  0.7848  2.2798
 4638SOL     OW25546   0.208   3.379   7.084  0.2602  0.6197 -0.2244
 4638SOL    HW125547   0.256   3.455   7.118  0.3086 -0.2251  1.6195
 4638SOL    HW225548   0.147   3.360   7.155 -0.4822 -1.6348 -1.4843
 4639SOL     OW25549   2.097   3.235   0.850  0.3404  0.4048  0.3967
 4639SOL    HW125550   2.054   3.301   0.796  0.4119  1.0722  1.1526
 4639SOL    HW225551   2.133   3.288   0.922  0.4414 -0.0927  0.7091
 4640SOL     OW25552   0.581   3.306  16.699 -0.0847  0.4671  0.2100
 4640SOL    HW125553   0.508   3.297  16.638 -0.0481 -2.4081  0.6177
 4640SOL    HW225554   0.652   3.275  16.642  0.6897  1.4191  0.6392
 4641SOL     OW25555   1.664   3.426  15.368  0.0428 -0.1529 -0.1572
 4641SOL    HW125556   1.614   3.387  15.440  0.1845  1.4484  0.8077
 4641SOL    HW225557   1.657   3.516  15.400 -2.1146 -0.8838  1.3912
 4642SOL     OW25558   4.110   3.017   3.742  0.5286  0.1743 -0.2755
 4642SOL    HW125559   4.107   3.078   3.816  3.3807 -1.6224  1.3013
 4642SOL    HW225560   4.145   2.937   3.781  0.6314  0.5899  0.4848
 4643SOL     OW25561   1.727   3.175   3.822  0.0500 -0.2016 -0.5109
 4643SOL    HW125562   1.676   3.144   3.747 -0.6041 -1.8532  0.6280
 4643SOL    HW225563   1.814   3.186   3.784 -0.5479  1.6195 -1.3856
 4644SOL     OW25564   0.522   0.131  15.238 -0.1867 -0.3477  0.2510
 4644SOL    HW125565   0.577   0.206  15.212 -1.8654  0.1886 -1.7526
 4644SOL    HW225566   0.507   0.098  15.149 -1.5190  1.4104 -0.1831
 4645SOL     OW25567   2.752   3.662   6.018  0.5963 -0.2144  0.2145
 4645SOL    HW125568   2.674   3.681   5.967  2.0751 -0.3300 -2.0876
 4645SOL    HW225569   2.817   3.722   5.982 -0.5386  0.2703 -1.0149
 4646SOL     OW25570   1.461   3.935   1.528  0.0062 -0.0395  0.2562
 4646SOL    HW125571   1.516   3.863   1.561 -1.4659  0.0934  2.9755
 4646SOL    HW225572   1.377   3.891   1.519  0.1639 -0.3417  0.2575
 4647SOL     OW25573   4.675   0.028  17.661  0.5196 -0.6312  0.0923
 4647SOL    HW125574   4.624   4.719  17.592  1.8502 -2.2340  0.0892
 4647SOL    HW225575   4.656   0.121  17.652 -0.5610 -0.7891  0.7171
 4648SOL     OW25576   0.058   1.082  16.911  0.1306  0.2011  0.4865
 4648SOL    HW125577   0.076   1.087  17.005 -2.0846  2.0580  0.8164
 4648SOL    HW225578   0.076   1.168  16.873 -0.4851  0.4698  0.8032
 4649SOL     OW25579   0.686   0.510  10.136 -0.4762  0.2449 -0.6035
 4649SOL    HW125580   0.630   0.448  10.089 -1.3975  0.4251  0.2585
 4649SOL    HW225581   0.773   0.480  10.113 -0.4429  1.0213 -1.4737
 4650SOL     OW25582   4.508   0.616   4.065 -0.3279  0.3929  0.5991
 4650SOL    HW125583   4.519   0.710   4.083  0.4997  0.7031 -1.5745
 4650SOL    HW225584   4.588   0.576   4.099  0.7117  1.7356 -0.2761
 4651SOL     OW25585   0.446   2.109  15.138  0.0934  0.0857 -0.0124
 4651SOL    HW125586   0.405   2.136  15.055  0.7017 -1.2645 -0.7549
 4651SOL    HW225587   0.371   2.060  15.169  0.2755  0.6765  1.3368
 4652SOL     OW25588   3.284   1.124  13.838 -0.5367  0.3305 -0.0491
 4652SOL    HW125589   3.297   1.039  13.797  0.9287  0.2419  0.6036
 4652SOL    HW225590   3.292   1.195  13.774 -2.6560  0.7165  0.1291
 4653SOL     OW25591   3.939   0.914   7.435  0.1156  0.2275  0.1014
 4653SOL    HW125592   3.946   1.009   7.444  1.6780  0.0218  1.1294
 4653SOL    HW225593   3.883   0.905   7.358  0.8344 -1.8668 -0.1779
 4654SOL     OW25594   1.140   4.494   5.277  0.3988  0.2647  0.7794
 4654SOL    HW125595   1.123   4.433   5.206 -0.0618 -1.5595  2.4675
 4654SOL    HW225596   1.060   4.546   5.273  0.4235  0.3493  1.3311
 4655SOL     OW25597   3.307   0.529   6.715  0.3855 -0.1536 -0.1510
 4655SOL    HW125598   3.376   0.540   6.780  1.3463  2.5506 -1.6352
 4655SOL    HW225599   3.229   0.554   6.765  0.0864 -2.8577  0.7424
 4656SOL     OW25600   0.804   4.674   9.881  0.8449  0.1071  0.3550
 4656SOL    HW125601   0.796   4.697   9.788 -2.9457  2.2041  1.1859
 4656SOL    HW225602   0.793   4.579   9.882  1.0726  0.0713 -1.0825
 4657SOL     OW25603   4.180   1.320   6.334  0.0770 -0.1057  0.1077
 4657SOL    HW125604   4.276   1.317   6.328  0.1074 -0.2703  0.6465
 4657SOL    HW225605   4.165   1.250   6.398  0.7746 -0.5733 -0.2394
 4658SOL     OW25606   1.865   3.018   1.085 -0.3476  0.1184  0.3415
 4658SOL    HW125607   1.883   2.932   1.121 -1.0324 -0.1556  0.0236
 4658SOL    HW225608   1.841   3.004   0.993  1.9480 -2.0189  0.0952
 4659SOL     OW25609   2.332   4.226   7.101 -0.3485 -0.5818 -0.2258
 4659SOL    HW125610   2.314   4.147   7.152  0.2304 -0.7910 -0.3562
 4659SOL    HW225611   2.376   4.282   7.164  1.5876 -2.5359  0.1392
 4660SOL     OW25612   3.993   0.486   3.523 -0.0055  0.2568  0.2647
 4660SOL    HW125613   3.948   0.528   3.597 -0.7923  1.1164 -0.7000
 4660SOL    HW225614   4.061   0.552   3.511 -0.9814  1.1242 -0.5624
 4661SOL     OW25615   2.565   0.958   9.376  0.1217  0.3075 -0.4384
 4661SOL    HW125616   2.557   0.917   9.462 -0.4033 -0.1869 -0.7279
 4661SOL    HW225617   2.501   1.029   9.379  0.4532  0.5127  1.8127
 4662SOL     OW25618   3.745   0.197  16.858  0.2771  0.1050  0.2267
 4662SOL    HW125619   3.777   0.268  16.914 -1.1239 -1.5982  3.1928
 4662SOL    HW225620   3.661   0.235  16.831  1.0430  1.3865 -0.3621
 4663SOL     OW25621   4.528   2.677  10.287  0.3729 -0.0282 -0.1272
 4663SOL    HW125622   4.470   2.754  10.289 -0.1196 -0.4427  1.5882
 4663SOL    HW225623   4.591   2.687  10.216 -0.1238  1.0822 -0.4147
 4664SOL     OW25624   2.405   0.441  16.889  0.8161  1.1384  0.4986
 4664SOL    HW125625   2.340   0.466  16.954 -1.1801  1.0702 -1.4460
 4664SOL    HW225626   2.431   0.529  16.860 -0.1929  0.9250 -1.0431
 4665SOL     OW25627   2.793   3.119   1.984  0.5619  0.1620 -0.1867
 4665SOL    HW125628   2.818   3.184   2.049  0.2544 -1.7540  1.8406
 4665SOL    HW225629   2.875   3.127   1.936  0.0361  3.7097 -0.4406
 4666SOL     OW25630   3.872   0.102   4.652 -0.9061 -0.1024 -0.0749
 4666SOL    HW125631   3.911   0.187   4.674  1.0754 -0.7444 -1.0387
 4666SOL    HW225632   3.932   0.093   4.577  3.1663  0.0200  3.1458
 4667SOL     OW25633   4.700   1.935   8.813 -0.0174 -0.4060  0.4512
 4667SOL    HW125634   4.606   1.925   8.830  0.5037 -2.0582  2.3944
 4667SOL    HW225635   4.691   1.951   8.719 -0.5108  0.5277  0.6616
 4668SOL     OW25636   3.197   3.895   7.651 -0.2259 -0.3520 -0.6419
 4668SOL    HW125637   3.151   3.814   7.633  0.4366 -0.5500 -1.4363
 4668SOL    HW225638   3.220   3.913   7.560  0.1207  1.2036 -0.2488
 4669SOL     OW25639   4.530   2.830  17.313  0.1022 -0.2269 -0.4123
 4669SOL    HW125640   4.442   2.859  17.290 -0.1100  1.3184  2.3890
 4669SOL    HW225641   4.575   2.894  17.258  1.1929  0.2654  1.0437
 4670SOL     OW25642   0.263   4.692   7.576  1.0912 -0.4965 -0.3151
 4670SOL    HW125643   0.180   4.666   7.537 -0.2694  0.8528  1.6402
 4670SOL    HW225644   0.319   4.662   7.505 -0.4948 -0.6342 -1.5009
 4671SOL     OW25645   0.042   1.506   7.325 -0.0608 -0.5989  0.0537
 4671SOL    HW125646   0.019   1.567   7.395  1.9063  0.2808 -0.0665
 4671SOL    HW225647   4.685   1.483   7.299 -0.1063 -0.2684 -0.0822
 4672SOL     OW25648   2.329   0.895   9.808 -0.0605 -0.8192  0.0379
 4672SOL    HW125649   2.405   0.880   9.752  0.4857  0.8613  0.3283
 4672SOL    HW225650   2.383   0.907   9.886  0.3310  0.8648 -0.4914
 4673SOL     OW25651   1.754   1.846   2.693 -0.6586  0.0930  0.4281
 4673SOL    HW125652   1.746   1.753   2.714 -1.4735  0.0902  0.1255
 4673SOL    HW225653   1.768   1.837   2.599 -0.3979  0.2950  0.4470
 4674SOL     OW25654   3.965   4.656   3.117 -0.1806 -0.4376 -0.5866
 4674SOL    HW125655   3.876   4.653   3.151  0.7950  0.4008  2.0704
 4674SOL    HW225656   3.975   0.018   3.105 -0.8407 -0.2970 -0.0100
 4675SOL     OW25657   1.122   0.889  17.639 -0.4270 -0.2060  0.5380
 4675SOL    HW125658   1.075   0.843  17.568  2.8097  1.8387 -2.9277
 4675SOL    HW225659   1.180   0.820  17.670  0.0729 -0.4193 -0.8486
 4676SOL     OW25660   1.776   2.518  16.488 -0.5093 -0.8257 -0.0652
 4676SOL    HW125661   1.855   2.566  16.513 -0.7771 -0.9290  0.9380
 4676SOL    HW225662   1.805   2.432  16.517 -0.3688  0.0009  2.2172
 4677SOL     OW25663   2.039   1.105   7.181  0.0280  0.0679  0.2613
 4677SOL    HW125664   2.013   1.012   7.186 -2.6595  0.6734 -2.0831
 4677SOL    HW225665   1.965   1.150   7.222 -1.5080  0.8269 -3.3354
 4678SOL     OW25666   3.577   1.307   2.988  0.0486  0.2043 -0.0295
 4678SOL    HW125667   3.669   1.302   3.015 -0.4684 -0.2693  1.6315
 4678SOL    HW225668   3.541   1.390   3.017  1.4121  0.4507  0.9478
 4679SOL     OW25669   3.050   1.626   2.843 -0.6423  0.4282  0.3961
 4679SOL    HW125670   2.999   1.556   2.801 -1.9027  1.5460  0.0524
 4679SOL    HW225671   3.098   1.582   2.913 -0.7023 -2.2908 -1.2833
 4680SOL     OW25672   2.943   1.015   9.387 -0.2772  0.1807  0.3396
 4680SOL    HW125673   2.957   1.085   9.451  0.8111  1.6655 -1.5467
 4680SOL    HW225674   2.986   0.940   9.428 -3.1205 -1.4724  0.3403
 4681SOL     OW25675   1.604   4.099  16.589 -0.0898  1.0180  0.1573
 4681SOL    HW125676   1.535   4.164  16.602 -0.7221 -0.3882  3.8737
 4681SOL    HW225677   1.571   4.012  16.609 -1.6593  1.3553 -1.0438
 4682SOL     OW25678   4.107   1.856   6.912 -0.2654 -0.0994 -0.0343
 4682SOL    HW125679   4.150   1.903   6.841 -2.3868  0.2370 -1.1071
 4682SOL    HW225680   4.112   1.934   6.968 -2.0201 -2.5115  3.4670
 4683SOL     OW25681   1.167   0.233   5.020  0.3661 -0.1818 -0.4389
 4683SOL    HW125682   1.215   0.292   5.079 -1.3094  2.6114 -1.8597
 4683SOL    HW225683   1.190   0.145   5.051  1.5504  0.8377  1.5492
 4684SOL     OW25684   4.379   2.200   6.037  0.1268 -0.8879 -0.3050
 4684SOL    HW125685   4.302   2.177   6.090 -0.5704  0.6600 -0.6497
 4684SOL    HW225686   4.407   2.290   6.053 -2.1917 -0.1205 -0.5128
 4685SOL     OW25687   4.343   4.587   7.683  0.2492 -0.2840  0.1182
 4685SOL    HW125688   4.306   4.534   7.612 -1.5865  0.8792  0.2010
 4685SOL    HW225689   4.408   4.524   7.714  0.6207 -0.3983 -0.8835
 4686SOL     OW25690   2.551   1.969   2.351  0.3616 -0.1858  0.1151
 4686SOL    HW125691   2.535   1.895   2.293  1.6968 -0.1955 -0.2370
 4686SOL    HW225692   2.529   1.932   2.437 -0.5044  2.3280  0.9919
 4687SOL     OW25693   0.148   3.502  15.343  0.2518 -0.5100 -0.2948
 4687SOL    HW125694   0.083   3.556  15.389  0.3171 -1.8059  1.3292
 4687SOL    HW225695   0.102   3.490  15.260  1.9265 -1.3491 -1.0986
 4688SOL     OW25696   2.074   0.934  12.132  0.1054 -0.4228  0.3963
 4688SOL    HW125697   1.988   0.919  12.169 -1.5418  0.3283 -3.0815
 4688SOL    HW225698   2.106   0.845  12.149  3.0381  0.3906 -0.8523
 4689SOL     OW25699   3.150   1.797  12.449 -0.6423  0.0461  0.2709
 4689SOL    HW125700   3.181   1.851  12.375 -1.4307 -0.1123 -0.1729
 4689SOL    HW225701   3.218   1.730  12.448  0.9038  1.5882  1.4656
 4690SOL     OW25702   2.869   1.968   2.737  0.7541  0.1466 -0.2755
 4690SOL    HW125703   2.861   1.968   2.641 -0.0294 -0.3334 -0.2109
 4690SOL    HW225704   2.963   1.949   2.744  0.6078 -0.7993 -0.8041
 4691SOL     OW25705   0.195   2.083   4.986 -0.2462  0.2719  0.5655
 4691SOL    HW125706   0.219   2.114   5.073 -0.1244  0.7642  0.3558
 4691SOL    HW225707   0.280   2.048   4.960  0.1195  3.6519 -2.9103
 4692SOL     OW25708   2.752   3.289   9.333  0.5794  0.4719  0.0248
 4692SOL    HW125709   2.762   3.206   9.286  0.4686  0.1748  0.5251
 4692SOL    HW225710   2.665   3.275   9.369  0.7483 -0.3323  0.1076
 4693SOL     OW25711   0.791   4.212   9.188  0.4510  0.3606  1.0268
 4693SOL    HW125712   0.864   4.241   9.244  1.2702 -0.6539  0.4954
 4693SOL    HW225713   0.757   4.144   9.247  0.6145  1.1520  2.0466
 4694SOL     OW25714   4.348   3.251   5.967  0.9038  0.5175  0.3654
 4694SOL    HW125715   4.317   3.292   6.048  0.4033  0.0121  0.4298
 4694SOL    HW225716   4.440   3.253   5.995  1.6744 -0.4711 -2.1342
 4695SOL     OW25717   4.290   0.857   9.338  0.0671 -0.0383  0.3462
 4695SOL    HW125718   4.280   0.762   9.340 -0.6540  0.0682  1.3945
 4695SOL    HW225719   4.242   0.877   9.257 -1.3771 -1.3114  0.8728
 4696SOL     OW25720   3.454   1.579   1.971 -0.6305 -0.3118 -0.3486
 4696SOL    HW125721   3.482   1.666   2.002  0.0770 -0.9936  0.9183
 4696SOL    HW225722   3.532   1.542   1.929 -0.7899 -1.7152  0.5945
 4697SOL     OW25723   2.194   1.087   5.316 -0.3754 -0.0587 -0.1198
 4697SOL    HW125724   2.265   1.151   5.316  0.2927 -0.7904 -2.1897
 4697SOL    HW225725   2.187   1.069   5.410  2.0568 -2.3143 -0.3798
 4698SOL     OW25726   1.782   3.321  16.107 -0.2647 -0.0044 -0.2218
 4698SOL    HW125727   1.859   3.333  16.162 -0.3653  0.0109 -0.0847
 4698SOL    HW225728   1.760   3.239  16.150 -2.2963 -0.2941 -1.8145
 4699SOL     OW25729   1.367   2.924  16.364 -0.2657 -0.2526  0.3102
 4699SOL    HW125730   1.428   2.901  16.294  0.3356  1.0202  0.4260
 4699SOL    HW225731   1.369   2.854  16.430  0.1417 -0.3084  0.2359
 4700SOL     OW25732   2.808   3.888   3.686 -0.1103 -0.2325  0.3430
 4700SOL    HW125733   2.826   3.892   3.592 -1.4921  2.4375  0.2084
 4700SOL    HW225734   2.869   3.954   3.718 -0.6435  0.7854 -0.7462
 4701SOL     OW25735   0.342   3.344   6.300  0.1074  0.0228  0.2915
 4701SOL    HW125736   0.373   3.253   6.293  0.2519  0.1259 -0.3873
 4701SOL    HW225737   0.310   3.365   6.212  0.5638 -0.4881 -0.0029
 4702SOL     OW25738   4.466   0.308  14.383 -0.3983  0.2913  0.1427
 4702SOL    HW125739   4.463   0.402  14.363 -0.7103  0.4187  0.7665
 4702SOL    HW225740   4.375   0.288  14.406  0.0437 -4.2153 -2.0756
 4703SOL     OW25741   2.455   2.497   6.932 -0.2948 -0.8065  0.0879
 4703SOL    HW125742   2.486   2.547   7.007 -1.3106  0.4513 -0.3255
 4703SOL    HW225743   2.406   2.564   6.884 -1.9236 -1.9812  0.0929
 4704SOL     OW25744   0.204   4.110   9.467 -0.3508  0.0916  0.1775
 4704SOL    HW125745   0.120   4.145   9.437 -0.3076 -0.0657 -0.1294
 4704SOL    HW225746   0.190   4.123   9.561 -2.1858  0.4224 -0.1442
 4705SOL     OW25747   0.364   4.617   2.620 -0.0438  0.1962  0.0501
 4705SOL    HW125748   0.376   4.528   2.654  1.5395 -0.7578 -2.8886
 4705SOL    HW225749   0.409   4.597   2.537 -0.1923  3.6884 -0.8612
 4706SOL     OW25750   2.894   4.700  16.539 -0.5735 -0.1147 -0.9468
 4706SOL    HW125751   2.802   4.702  16.513 -0.4944  2.3907 -1.0214
 4706SOL    HW225752   2.897   0.036  16.606 -0.1604 -0.1878 -0.8917
 4707SOL     OW25753   2.479   3.627   9.154 -0.3012  0.1171 -0.5208
 4707SOL    HW125754   2.442   3.652   9.239  0.9199  3.3977 -0.9671
 4707SOL    HW225755   2.403   3.574   9.132  0.8661 -1.1914 -1.4200
 4708SOL     OW25756   1.220   3.715   4.848 -0.4398 -0.2145  0.3063
 4708SOL    HW125757   1.285   3.747   4.786 -2.8737 -0.2756 -2.2896
 4708SOL    HW225758   1.139   3.747   4.809  0.2409 -1.6417 -2.2919
 4709SOL     OW25759   1.143   1.067   7.463 -0.1678 -0.1535 -0.2061
 4709SOL    HW125760   1.095   1.049   7.382  1.3527  0.7833 -1.3063
 4709SOL    HW225761   1.078   1.030   7.524 -0.0234 -0.4224 -0.2159
 4710SOL     OW25762   2.506   3.374   6.544  0.3138 -0.5587 -0.1278
 4710SOL    HW125763   2.446   3.304   6.519 -1.6020  0.8218  0.6160
 4710SOL    HW225764   2.591   3.330   6.550 -0.3415 -2.0352 -1.8600
 4711SOL     OW25765   2.389   0.102  12.161 -0.4218 -0.6279  0.5300
 4711SOL    HW125766   2.470   0.052  12.171 -0.1797 -0.2839  0.2863
 4711SOL    HW225767   2.329   0.028  12.160  0.2158 -1.1394 -1.7078
 4712SOL     OW25768   3.270   3.708  10.105  0.3348 -0.4824  0.4084
 4712SOL    HW125769   3.272   3.617  10.133  1.8199 -0.7486 -0.5627
 4712SOL    HW225770   3.322   3.750  10.174 -0.1951  0.5737  0.1571
 4713SOL     OW25771   1.744   3.372   3.462 -0.2926 -0.0394 -0.0664
 4713SOL    HW125772   1.755   3.285   3.500  2.3574  0.9836  1.4926
 4713SOL    HW225773   1.664   3.403   3.504 -0.6906  0.8222 -1.4598
 4714SOL     OW25774   3.396   4.213  14.326  0.3410  0.1226  0.1539
 4714SOL    HW125775   3.468   4.229  14.388 -1.1312  0.3159  1.8169
 4714SOL    HW225776   3.434   4.154  14.262  0.7158  0.4965  0.0304
 4715SOL     OW25777   3.921   2.677   7.236 -0.4952  0.3130 -0.2700
 4715SOL    HW125778   3.998   2.711   7.191 -0.0194 -1.0494 -0.4607
 4715SOL    HW225779   3.958   2.660   7.323  0.1451  0.0944 -0.5900
 4716SOL     OW25780   3.835   0.636   7.570 -0.6132 -0.1521 -0.0365
 4716SOL    HW125781   3.886   0.614   7.491 -1.9464  0.2882 -1.0183
 4716SOL    HW225782   3.897   0.614   7.640 -0.2555 -0.4329 -0.4385
 4717SOL     OW25783   2.261   0.711  12.199  0.2804  0.4156 -0.2565
 4717SOL    HW125784   2.262   0.712  12.294  0.2697 -1.5607 -0.2302
 4717SOL    HW225785   2.353   0.715  12.174  0.2013 -1.6734 -0.8746
 4718SOL     OW25786   3.266   3.206   8.076  0.2144  0.4186  0.3786
 4718SOL    HW125787   3.237   3.196   8.167 -1.9067 -1.4159 -0.5043
 4718SOL    HW225788   3.298   3.119   8.053  1.0126  0.7995  0.0477
 4719SOL     OW25789   3.765   3.631   1.004 -0.8927  0.1757  1.1129
 4719SOL    HW125790   3.826   3.681   0.950 -1.7743  1.6064  1.4712
 4719SOL    HW225791   3.698   3.598   0.944 -1.9888  1.4617  1.6395
 4720SOL     OW25792   0.628   3.745   7.723 -0.4512  0.3609 -0.0540
 4720SOL    HW125793   0.638   3.840   7.729  0.0558  0.2013  1.7327
 4720SOL    HW225794   0.596   3.724   7.811 -2.5999  0.9878 -0.6832
 4721SOL     OW25795   3.096   4.266   6.147 -0.5676  0.0795  0.3090
 4721SOL    HW125796   3.039   4.211   6.093  0.5627 -1.9315  1.1460
 4721SOL    HW225797   3.101   4.345   6.093 -1.1793 -0.0149  0.1106
 4722SOL     OW25798   1.751   1.380  15.951  0.3771  0.7175 -0.3094
 4722SOL    HW125799   1.836   1.350  15.984 -1.1876 -2.2651  1.1027
 4722SOL    HW225800   1.707   1.373  16.036  1.5931  1.2897  0.3574
 4723SOL     OW25801   1.695   3.838   3.111  0.4214  0.7709 -0.3436
 4723SOL    HW125802   1.718   3.807   3.024  1.2635  0.8645 -0.1460
 4723SOL    HW225803   1.599   3.836   3.110  0.4607 -1.4683  0.0702
 4724SOL     OW25804   1.494   2.097  13.339  1.2112  0.2290  0.2772
 4724SOL    HW125805   1.460   2.013  13.368  2.6090 -0.3388  0.2704
 4724SOL    HW225806   1.512   2.130  13.428 -0.3512  0.8001  0.3797
 4725SOL     OW25807   1.377   3.937   8.848  0.3319  0.2232  0.4741
 4725SOL    HW125808   1.326   3.863   8.878  0.2997 -0.0342 -0.2287
 4725SOL    HW225809   1.402   3.968   8.936  0.8293 -1.4105  0.8992
 4726SOL     OW25810   1.033   4.281   9.298  0.8686  0.3514  0.0605
 4726SOL    HW125811   1.113   4.329   9.276 -0.3978  0.9917 -3.1537
 4726SOL    HW225812   1.065   4.231   9.373  0.3975 -2.3582 -1.5290
 4727SOL     OW25813   4.354   0.230   5.539  0.0440 -0.2391  0.1262
 4727SOL    HW125814   4.274   0.192   5.574 -1.1992 -0.0915 -2.6054
 4727SOL    HW225815   4.359   0.190   5.452 -1.9069  0.0967 -0.1350
 4728SOL     OW25816   4.373   0.350   3.869  0.1518 -0.4659  0.3383
 4728SOL    HW125817   4.354   0.256   3.869  1.2192 -0.6993 -1.2364
 4728SOL    HW225818   4.290   0.395   3.883  1.2165  2.4343 -2.5909
 4729SOL     OW25819   2.451   2.065   2.895 -0.4541  0.4534 -0.0949
 4729SOL    HW125820   2.545   2.051   2.902 -0.5740 -0.0536  0.5246
 4729SOL    HW225821   2.423   2.027   2.979  0.5348 -1.3993 -0.5973
 4730SOL     OW25822   4.103   3.248   5.427 -0.3179  0.4235  0.5937
 4730SOL    HW125823   4.151   3.269   5.507  0.2843  0.6922  0.1658
 4730SOL    HW225824   4.163   3.185   5.386 -0.9627 -1.2275  2.1585
 4731SOL     OW25825   0.524   2.184  13.286 -0.5037 -0.0589 -0.0798
 4731SOL    HW125826   0.594   2.201  13.348 -0.3292 -1.5303  0.1443
 4731SOL    HW225827   0.463   2.257  13.299  0.1163  0.8169 -2.1037
 4732SOL     OW25828   0.288   1.840   9.113  0.4024  0.1698 -0.1707
 4732SOL    HW125829   0.251   1.926   9.092 -3.1633 -1.5490 -0.7786
 4732SOL    HW225830   0.205   1.793   9.119  0.0018  0.9346  0.3159
 4733SOL     OW25831   1.507   2.685   8.734  0.2974  0.4230 -0.0536
 4733SOL    HW125832   1.568   2.754   8.707 -0.0620 -0.3157 -2.8077
 4733SOL    HW225833   1.531   2.650   8.819  0.0631  0.4463  0.0221
 4734SOL     OW25834   1.654   4.243   1.170  0.8993  0.3193  0.4414
 4734SOL    HW125835   1.587   4.310   1.170  2.6142  2.0368 -0.3418
 4734SOL    HW225836   1.710   4.283   1.104 -0.8168 -0.2157 -1.3203
 4735SOL     OW25837   4.716   2.732  15.347 -0.2424 -0.1643  0.0715
 4735SOL    HW125838   0.030   2.813  15.366 -2.8011  1.5215 -0.6834
 4735SOL    HW225839   4.673   2.756  15.264  1.2091 -0.4183 -0.7491
 4736SOL     OW25840   1.679   0.769   0.769 -0.5533  0.6669 -0.3553
 4736SOL    HW125841   1.631   0.757   0.851  0.9217 -3.6734 -0.1695
 4736SOL    HW225842   1.659   0.860   0.746  2.1009  1.3634  0.0825
 4737SOL     OW25843   2.279   4.337   2.975 -0.5782 -0.3250 -0.1126
 4737SOL    HW125844   2.298   4.286   3.055 -2.9042 -0.9495  0.0204
 4737SOL    HW225845   2.368   4.349   2.943  0.0660 -2.8023  0.6619
 4738SOL     OW25846   2.255   1.789   2.813  0.0958  0.7620  0.4288
 4738SOL    HW125847   2.294   1.723   2.755  0.4381  1.6240 -0.3151
 4738SOL    HW225848   2.312   1.780   2.889 -0.0685 -1.2176  0.3191
 4739SOL     OW25849   1.299   4.428   6.134  0.1839 -0.8165 -0.6805
 4739SOL    HW125850   1.337   4.493   6.075  0.6157 -1.1704 -0.7959
 4739SOL    HW225851   1.239   4.386   6.073 -0.2996 -2.4146  0.9069
 4740SOL     OW25852   1.488   0.858   9.740  0.2262  0.1251 -1.1007
 4740SOL    HW125853   1.513   0.949   9.755  0.1725  0.1566 -1.2095
 4740SOL    HW225854   1.393   0.862   9.741  0.2788  0.8279  0.5445
 4741SOL     OW25855   2.900   3.421   8.124 -0.5382 -0.3167  0.0397
 4741SOL    HW125856   2.869   3.400   8.211  2.0859 -0.5927  0.9233
 4741SOL    HW225857   2.834   3.485   8.097  0.2648  0.4493 -0.1169
 4742SOL     OW25858   2.982   4.163   2.303  0.0804 -0.0859  0.1799
 4742SOL    HW125859   2.966   4.088   2.360 -1.5076  0.2753  0.2065
 4742SOL    HW225860   3.020   4.221   2.368  1.9588 -0.3101 -0.7246
 4743SOL     OW25861   3.212   4.009   2.617  0.1825 -0.1747  0.2749
 4743SOL    HW125862   3.270   3.948   2.570 -0.8319  0.2943 -1.5763
 4743SOL    HW225863   3.215   3.969   2.703  0.2461 -3.2262 -1.1474
 4744SOL     OW25864   1.907   1.700   6.397  0.0175 -0.5553 -0.2835
 4744SOL    HW125865   1.992   1.743   6.388  0.0263 -0.5065  0.0177
 4744SOL    HW225866   1.893   1.683   6.304 -0.8092  0.9177 -0.4390
 4745SOL     OW25867   0.101   4.256   7.367 -0.2650 -0.1110 -0.1457
 4745SOL    HW125868   0.111   4.238   7.461 -1.6800  0.3762  0.0883
 4745SOL    HW225869   0.094   4.351   7.363 -0.8979 -0.2184 -1.5382
 4746SOL     OW25870   3.122   2.024   8.109 -0.5693 -0.3419 -0.3819
 4746SOL    HW125871   3.055   2.033   8.042 -0.0832  1.4297 -0.6326
 4746SOL    HW225872   3.202   2.051   8.065 -1.0986 -1.5703 -2.0793
 4747SOL     OW25873   0.823   2.329   8.695 -0.2267 -0.4858 -0.2086
 4747SOL    HW125874   0.865   2.406   8.734 -2.8531  1.2410 -0.8092
 4747SOL    HW225875   0.898   2.272   8.679 -0.6997 -1.3035  0.4416
 4748SOL     OW25876   1.233   0.346   4.080  0.3593 -0.3320 -0.3599
 4748SOL    HW125877   1.276   0.431   4.093  1.4964 -1.1460  1.1960
 4748SOL    HW225878   1.154   0.382   4.040 -0.9885 -0.6816  2.0129
 4749SOL     OW25879   3.018   0.361   8.835 -0.0912 -0.2123  0.0030
 4749SOL    HW125880   3.077   0.356   8.760 -1.3532 -1.3757 -0.9133
 4749SOL    HW225881   2.966   0.285   8.809 -0.8787 -0.3746  2.0508
 4750SOL     OW25882   0.802   3.738   8.452 -0.1917  0.3921 -0.1599
 4750SOL    HW125883   0.830   3.773   8.368 -0.5342 -0.3218 -0.5688
 4750SOL    HW225884   0.784   3.817   8.503  0.9691 -0.8963  2.2969
 4751SOL     OW25885   2.588   0.032   4.644  0.0891 -0.2111  0.5199
 4751SOL    HW125886   2.591   0.010   4.737  0.9435  1.4708  0.8869
 4751SOL    HW225887   2.539   0.113   4.661 -0.1380 -0.2067 -0.1553
 4752SOL     OW25888   1.313   2.613   0.818 -0.4235 -0.8199 -0.0948
 4752SOL    HW125889   1.380   2.580   0.757 -0.0134  0.3309 -0.2763
 4752SOL    HW225890   1.307   2.551   0.890 -3.1345  0.5012  0.7779
 4753SOL     OW25891   3.745   1.509   6.822 -0.1137  0.0941 -0.0593
 4753SOL    HW125892   3.719   1.541   6.736 -1.4649  0.6952  0.5684
 4753SOL    HW225893   3.788   1.588   6.855  0.0353 -0.4450  1.0494
 4754SOL     OW25894   2.937   0.929   3.651 -0.4035 -0.3513  0.3063
 4754SOL    HW125895   2.853   0.918   3.607 -0.1666  1.8961 -0.7468
 4754SOL    HW225896   2.965   1.012   3.613  1.4219 -0.0866  2.2355
 4755SOL     OW25897   3.045   2.705  11.311 -0.5175  0.7562 -0.0416
 4755SOL    HW125898   3.023   2.741  11.225 -0.8300  0.6835  0.0077
 4755SOL    HW225899   3.014   2.782  11.358 -4.6202 -1.5394  1.0549
 4756SOL     OW25900   2.693   2.189   4.010  0.3911  0.0899  0.7306
 4756SOL    HW125901   2.628   2.239   3.960 -0.0786 -0.3950  0.8476
 4756SOL    HW225902   2.653   2.102   4.003  0.1428  0.2725 -0.1072
 4757SOL     OW25903   3.111   0.273   4.563 -0.2035  1.0115 -0.0646
 4757SOL    HW125904   3.134   0.203   4.502 -1.2030  1.3852 -0.8657
 4757SOL    HW225905   3.083   0.347   4.509  0.2058  1.0885 -0.1731
 4758SOL     OW25906   0.553   0.307   9.995  0.2590  0.0874  0.5762
 4758SOL    HW125907   0.493   0.233   9.988  1.0450 -0.5104  0.1010
 4758SOL    HW225908   0.522   0.368   9.929  1.4647  0.2937  0.1945
 4759SOL     OW25909   4.237   4.640   4.689  0.3234  0.5083 -0.5240
 4759SOL    HW125910   4.239   4.607   4.779  0.4630  2.2783  0.1212
 4759SOL    HW225911   4.280   4.725   4.699 -0.5067  1.2022 -2.9260
 4760SOL     OW25912   2.774   2.609   6.487  0.2814  0.3403 -0.2112
 4760SOL    HW125913   2.681   2.585   6.496  0.6607 -1.5438 -1.3560
 4760SOL    HW225914   2.807   2.536   6.435 -1.4814  0.3191 -1.3083
 4761SOL     OW25915   3.612   4.710   3.637  0.1986  0.0424 -0.3269
 4761SOL    HW125916   3.521   4.691   3.613 -0.0702 -1.0384  1.5064
 4761SOL    HW225917   3.627   4.665   3.721 -0.6967  0.1607 -0.0987
 4762SOL     OW25918   3.689   2.435   5.084  0.2702  0.7953  0.2483
 4762SOL    HW125919   3.729   2.509   5.128  1.6646  0.5338 -0.5648
 4762SOL    HW225920   3.646   2.389   5.157 -0.9474 -0.1120 -1.0223
 4763SOL     OW25921   2.466   2.846  16.054  0.2159 -0.3564 -0.4588
 4763SOL    HW125922   2.492   2.923  16.004  0.4891 -1.0957 -1.4586
 4763SOL    HW225923   2.448   2.876  16.143  1.4650  1.0726 -0.6777
 4764SOL     OW25924   3.828   4.540  11.452  0.1758  0.7320 -0.1249
 4764SOL    HW125925   3.753   4.500  11.498  0.0309  0.3788 -0.6607
 4764SOL    HW225926   3.785   4.558  11.369  2.3971 -0.6982 -1.5900
 4765SOL     OW25927   3.352   2.593  17.584 -0.0749  0.2290  0.1497
 4765SOL    HW125928   3.375   2.521  17.525 -0.4878 -0.9269  1.3833
 4765SOL    HW225929   3.272   2.554  17.622  0.6189  0.1402  1.5132
 4766SOL     OW25930   1.329   3.555   1.594  0.0739 -0.4952  0.8681
 4766SOL    HW125931   1.369   3.614   1.657 -0.1683  1.1598 -0.5345
 4766SOL    HW225932   1.407   3.540   1.542 -0.7249 -1.1776 -0.1411
 4767SOL     OW25933   3.508   2.906   8.936 -0.2836 -0.4008 -0.5416
 4767SOL    HW125934   3.485   2.902   8.843 -1.2053  0.5629 -0.3443
 4767SOL    HW225935   3.580   2.969   8.936 -1.1504  0.5885 -1.2688
 4768SOL     OW25936   2.600   2.924   6.767 -0.1011 -0.2603  0.1523
 4768SOL    HW125937   2.674   2.881   6.723 -0.0612 -2.4008  2.3348
 4768SOL    HW225938   2.648   3.000   6.799  0.6027 -0.0799 -1.3102
 4769SOL     OW25939   2.523   3.194   9.513 -0.2238 -0.2690  0.0636
 4769SOL    HW125940   2.598   3.166   9.565  1.6955 -0.8143 -2.9987
 4769SOL    HW225941   2.459   3.125   9.533 -0.7714  1.5227  4.5308
 4770SOL     OW25942   1.084   2.313   8.106  0.1117  0.2237  0.3713
 4770SOL    HW125943   1.052   2.314   8.196  1.5655  1.8267  0.8517
 4770SOL    HW225944   1.006   2.303   8.050  0.2803 -2.7820  0.6970
 4771SOL     OW25945   1.363   3.890   4.349  0.4042  0.1584  0.0368
 4771SOL    HW125946   1.310   3.861   4.423  0.2241  1.7095  0.5121
 4771SOL    HW225947   1.427   3.819   4.353  0.1064 -0.2583 -2.9218
 4772SOL     OW25948   0.049   3.402   5.649 -0.6095 -0.6147  0.1258
 4772SOL    HW125949   0.030   3.399   5.742 -0.4035 -2.2762  0.1199
 4772SOL    HW225950   4.700   3.431   5.608 -1.2689 -1.5335  0.7853
 4773SOL     OW25951   2.365   3.462   3.032  0.4115  0.4720  0.0440
 4773SOL    HW125952   2.373   3.557   3.025  0.1417  0.4948  0.0350
 4773SOL    HW225953   2.295   3.448   2.968  0.8440  1.4165 -0.6273
 4774SOL     OW25954   2.756   3.569   1.971  0.4558 -0.4441 -0.6747
 4774SOL    HW125955   2.736   3.476   1.979 -0.0198 -0.3478 -0.7572
 4774SOL    HW225956   2.689   3.608   2.027  0.5399 -0.4001 -0.6026
 4775SOL     OW25957   0.499   0.740  14.130  0.5171  0.0549  0.1511
 4775SOL    HW125958   0.417   0.691  14.136  1.5166 -1.6197  0.1198
 4775SOL    HW225959   0.504   0.781  14.044 -1.7652  1.4483  0.7024
 4776SOL     OW25960   1.704   2.329   7.820 -0.3404 -0.1508  0.1530
 4776SOL    HW125961   1.755   2.397   7.865 -0.2105 -0.9063  1.1565
 4776SOL    HW225962   1.773   2.276   7.780 -0.7331 -0.7045  0.2063
 4777SOL     OW25963   1.671   1.399   4.786  0.3245  0.1787  0.2042
 4777SOL    HW125964   1.608   1.334   4.752 -0.5086  0.4699  1.1857
 4777SOL    HW225965   1.747   1.343   4.801  0.0347 -0.2242  0.1894
 4778SOL     OW25966   4.311   0.527   6.287 -0.4276  0.0500  0.1864
 4778SOL    HW125967   4.399   0.529   6.250 -0.9782 -0.8277 -1.1676
 4778SOL    HW225968   4.323   0.467   6.361  0.7378  0.2073  0.1308
 4779SOL     OW25969   1.190   1.310   3.133  0.6708  0.2150  0.4242
 4779SOL    HW125970   1.174   1.389   3.081  1.1150  0.5734  0.8320
 4779SOL    HW225971   1.269   1.277   3.092 -0.7946 -1.7792 -0.7845
 4780SOL     OW25972   1.556   0.934   3.754  0.2918  0.1780  0.4818
 4780SOL    HW125973   1.572   1.028   3.766  0.0655  0.1607  0.9144
 4780SOL    HW225974   1.499   0.911   3.827  0.2738 -2.0389 -0.2539
 4781SOL     OW25975   4.704   2.339   1.459  0.1943 -0.2300 -0.0773
 4781SOL    HW125976   4.699   2.266   1.397 -2.6899 -0.6644  0.6885
 4781SOL    HW225977   0.036   2.311   1.523  0.9076 -3.7282 -2.2974
 4782SOL     OW25978   3.013   2.416   3.114 -0.0409 -0.7583 -0.6301
 4782SOL    HW125979   3.062   2.485   3.068  0.8174 -0.9495 -0.0001
 4782SOL    HW225980   3.067   2.340   3.091  0.8147 -0.4159  0.2482
 4783SOL     OW25981   2.094   3.637  16.367  0.3230  0.0980 -0.2910
 4783SOL    HW125982   2.005   3.659  16.339 -0.2513  0.5455  1.9074
 4783SOL    HW225983   2.122   3.622  16.276  0.3538  0.7000 -0.3800
 4784SOL     OW25984   0.035   2.918   8.706  0.5112 -0.3731 -0.7319
 4784SOL    HW125985   0.064   2.927   8.797 -0.5611 -0.9906 -0.3292
 4784SOL    HW225986   0.025   2.824   8.692 -0.5449 -0.7099  2.2992
 4785SOL     OW25987   1.012   4.248   9.007 -0.2722 -0.0533 -0.2331
 4785SOL    HW125988   0.988   4.161   8.973 -0.5320 -0.1983  0.3259
 4785SOL    HW225989   0.945   4.258   9.074 -1.2800 -2.4554 -0.8603
 4786SOL     OW25990   1.073   0.418  10.934  0.7769  0.3941  0.1283
 4786SOL    HW125991   1.052   0.470  10.857 -0.6304 -2.5896 -1.5087
 4786SOL    HW225992   1.077   0.476  11.011  0.1051  3.5717 -2.2279
 4787SOL     OW25993   3.131   0.506  16.047 -0.0478 -0.3840  0.6334
 4787SOL    HW125994   3.182   0.497  16.127 -0.4331  1.0998  1.0457
 4787SOL    HW225995   3.184   0.569  15.999  3.0623 -4.0995 -0.8500
 4788SOL     OW25996   3.476   1.914   0.324  0.0102 -0.2484  0.6345
 4788SOL    HW125997   3.558   1.960   0.344  0.2518 -0.3257 -0.1661
 4788SOL    HW225998   3.405   1.975   0.345 -2.7800 -3.0460 -0.7422
 4789SOL     OW25999   2.442   2.946  11.750 -0.0370 -0.0445 -0.1421
 4789SOL    HW126000   2.429   2.924  11.657  0.8011  0.3025 -0.3351
 4789SOL    HW226001   2.383   2.888  11.799  0.4979  1.0013  1.7097
 4790SOL     OW26002   3.588   2.420   4.189  0.3881  0.3752  0.6044
 4790SOL    HW126003   3.644   2.493   4.213  2.1248 -1.5720  2.5079
 4790SOL    HW226004   3.594   2.370   4.271  1.7388  3.1069  2.1498
 4791SOL     OW26005   2.467   1.663   6.961  0.0497 -0.6348  0.3248
 4791SOL    HW126006   2.418   1.735   7.001  1.4856  1.5786 -1.9129
 4791SOL    HW226007   2.402   1.594   6.947 -0.1670 -0.7718  2.0471
 4792SOL     OW26008   0.637   0.962   4.694 -0.5083 -0.0544 -0.8637
 4792SOL    HW126009   0.549   0.998   4.685 -0.6216 -0.4112 -1.1892
 4792SOL    HW226010   0.632   0.874   4.657 -1.6142  1.7315 -4.9872
 4793SOL     OW26011   0.109   0.621   5.631 -0.3349  0.2459 -0.6570
 4793SOL    HW126012   0.195   0.660   5.641  0.0208 -0.8980  0.7084
 4793SOL    HW226013   0.082   0.613   5.723  0.0044 -0.8209 -0.6505
 4794SOL     OW26014   1.054   2.858   3.298 -0.6219  0.3032 -0.5846
 4794SOL    HW126015   1.087   2.768   3.297  1.3240  1.0061  0.5137
 4794SOL    HW226016   1.069   2.892   3.386 -0.8752 -3.8362  1.0602
 4795SOL     OW26017   3.720   3.711  16.073  0.6964  0.2039  0.1852
 4795SOL    HW126018   3.777   3.664  16.012  2.2645 -0.5235  2.2233
 4795SOL    HW226019   3.757   3.681  16.157 -0.4860  1.2893  1.0911
 4796SOL     OW26020   2.853   1.649  14.219  0.0441  0.1705  0.0144
 4796SOL    HW126021   2.856   1.704  14.141 -0.2810 -3.2544 -2.3974
 4796SOL    HW226022   2.902   1.574  14.187  1.6231 -0.2334  3.4321
 4797SOL     OW26023   2.116   0.549   7.791  0.3292 -0.3083 -0.6197
 4797SOL    HW126024   2.209   0.527   7.793  0.5970  0.9290  0.7828
 4797SOL    HW226025   2.075   0.464   7.801  1.1592 -0.9816 -2.7833
 4798SOL     OW26026   1.511   2.470   5.591 -0.0273  0.5413 -0.0583
 4798SOL    HW126027   1.552   2.488   5.676  0.4513 -0.7262 -0.0197
 4798SOL    HW226028   1.575   2.403   5.568  0.8945  1.3522  0.1333
 4799SOL     OW26029   1.468   0.676   8.112 -0.5813 -0.6078  0.2703
 4799SOL    HW126030   1.383   0.649   8.147 -1.5455 -0.1423 -1.7673
 4799SOL    HW226031   1.497   0.748   8.168  0.3545  0.6882 -1.9153
 4800SOL     OW26032   3.993   0.009   6.348 -0.0317 -0.5254 -0.1414
 4800SOL    HW126033   3.960   0.087   6.392  0.6024 -0.0568 -0.4909
 4800SOL    HW226034   4.057   0.048   6.288 -0.4729  0.5716  0.1005
 4801SOL     OW26035   2.647   4.367   8.578 -0.2505  0.7746  0.5216
 4801SOL    HW126036   2.712   4.431   8.607  0.0674  0.6730  0.0192
 4801SOL    HW226037   2.561   4.410   8.580 -0.6805 -0.1152  2.2979
 4802SOL     OW26038   2.078   3.080   8.413  0.1104 -0.3628 -0.2060
 4802SOL    HW126039   1.994   3.046   8.383 -0.1006  0.8180 -0.9604
 4802SOL    HW226040   2.088   3.132   8.333  0.3241  1.4801  1.0290
 4803SOL     OW26041   0.340   3.455   1.359  0.0469  0.6529 -0.0076
 4803SOL    HW126042   0.330   3.383   1.421 -1.0946  1.4704  0.7561
 4803SOL    HW226043   0.383   3.519   1.416 -2.8430 -0.1704  3.1114
 4804SOL     OW26044   0.390   1.119   4.619  0.1827 -0.6593 -0.2616
 4804SOL    HW126045   0.420   1.160   4.700  0.8315  0.9048 -1.2879
 4804SOL    HW226046   0.350   1.036   4.646  1.4406 -0.9748  0.6250
 4805SOL     OW26047   3.736   0.808   8.192  0.4094  0.0482 -0.2190
 4805SOL    HW126048   3.816   0.843   8.229  0.4831 -1.6596  1.2553
 4805SOL    HW226049   3.667   0.811   8.259  1.1773  0.1102  0.5721
 4806SOL     OW26050   1.748   2.364   6.275  0.2361  0.2067 -0.3862
 4806SOL    HW126051   1.817   2.305   6.305  1.7537  1.8964 -0.5322
 4806SOL    HW226052   1.680   2.310   6.236 -1.9668  2.3504  0.4341
 4807SOL     OW26053   1.732   2.296  16.664 -0.3251  0.0295 -0.1053
 4807SOL    HW126054   1.652   2.341  16.690 -0.5578 -0.7594  0.5297
 4807SOL    HW226055   1.690   2.223  16.619  0.1773  0.2602 -0.9485
 4808SOL     OW26056   3.655   3.377  11.971 -0.0490  0.1436 -0.4123
 4808SOL    HW126057   3.696   3.364  11.885 -1.8727 -0.5619 -1.1690
 4808SOL    HW226058   3.680   3.293  12.009 -0.8391  1.1145  2.2739
 4809SOL     OW26059   1.303   3.018   8.662  0.3259  0.4475  0.1675
 4809SOL    HW126060   1.252   3.013   8.582  0.2773 -1.0890  0.2873
 4809SOL    HW226061   1.313   3.113   8.668  0.4674  0.4646 -0.3886
 4810SOL     OW26062   1.081   4.712  10.915  0.2321  0.2538 -0.1731
 4810SOL    HW126063   1.077   4.657  10.837  0.4049  1.0490 -0.7489
 4810SOL    HW226064   0.999   4.679  10.953 -0.2881  1.7669  0.0537
 4811SOL     OW26065   0.390   2.768  17.297  0.2306  0.5958 -0.1043
 4811SOL    HW126066   0.456   2.710  17.337  0.9085  1.6289  0.2853
 4811SOL    HW226067   0.436   2.852  17.304  1.1103 -0.0907  2.2946
 4812SOL     OW26068   1.944   1.798   5.344  0.6947  0.4457 -0.6512
 4812SOL    HW126069   1.956   1.721   5.400  2.9658  0.1399 -1.5585
 4812SOL    HW226070   2.033   1.825   5.322  0.5075 -0.8541 -3.0097
 4813SOL     OW26071   0.071   0.593  14.018 -0.2037  0.7547 -0.5235
 4813SOL    HW126072   0.121   0.594  14.100  1.0259 -0.8900 -1.2446
 4813SOL    HW226073   0.140   0.567  13.957 -1.5107 -1.5944 -0.9994
 4814SOL     OW26074   0.007   3.463  13.056 -0.2854 -0.0162 -0.7807
 4814SOL    HW126075   0.066   3.502  12.991 -0.8414 -0.0588 -1.3149
 4814SOL    HW226076   4.674   3.422  13.000 -2.2209 -0.0638  1.5490
 4815SOL     OW26077   0.336   4.425  10.199 -0.1871 -0.2444  0.2250
 4815SOL    HW126078   0.344   4.511  10.158 -2.2380  1.2049  2.8350
 4815SOL    HW226079   0.279   4.447  10.272  1.0242  1.2530  0.6978
 4816SOL     OW26080   3.681   1.891   6.606  0.5057  0.9398 -0.2631
 4816SOL    HW126081   3.652   1.805   6.638  2.4080  0.8607  1.1980
 4816SOL    HW226082   3.728   1.866   6.527  1.3115  2.0021 -0.1070
 4817SOL     OW26083   1.314   1.426   3.355  0.0171  0.6676 -0.5646
 4817SOL    HW126084   1.314   1.348   3.410  2.9779 -0.1081 -1.6729
 4817SOL    HW226085   1.308   1.397   3.264  1.3266  1.6914 -0.9801
 4818SOL     OW26086   3.242   1.609   0.455  0.3796 -0.2505 -0.0735
 4818SOL    HW126087   3.206   1.694   0.481 -0.7460 -0.8874  0.4360
 4818SOL    HW226088   3.313   1.643   0.400  1.6124  0.0800  1.7278
 4819SOL     OW26089   3.784   4.175   1.848  0.3824 -0.1609  0.6833
 4819SOL    HW126090   3.796   4.226   1.928  0.6008 -1.2161  1.3207
 4819SOL    HW226091   3.814   4.088   1.874  1.5110  0.6549  2.0979
 4820SOL     OW26092   1.426   2.809  11.230  0.1979  0.5957  0.2914
 4820SOL    HW126093   1.339   2.844  11.210  1.2249  3.1946  0.3617
 4820SOL    HW226094   1.393   2.731  11.273 -0.7977  0.8775  0.0276
 4821SOL     OW26095   3.819   3.668   0.231  0.0973  0.7877  0.4337
 4821SOL    HW126096   3.741   3.723   0.237  0.0563  0.9783 -1.7846
 4821SOL    HW226097   3.791   3.593   0.283  1.2319  0.0849  0.0238
 4822SOL     OW26098   0.558   0.796  12.393 -0.2491 -0.2493  0.1854
 4822SOL    HW126099   0.535   0.881  12.356  3.5820  0.0556 -1.4961
 4822SOL    HW226100   0.529   0.819  12.481 -0.6261  0.2146 -0.0631
 4823SOL     OW26101   0.467   0.320   6.174  0.0337  0.1543 -0.1926
 4823SOL    HW126102   0.544   0.264   6.184  0.5952  0.3860 -3.1655
 4823SOL    HW226103   0.424   0.316   6.259  1.2978 -1.6580  0.3646
 4824SOL     OW26104   1.508   4.379   6.410 -0.4675 -0.6942 -0.3218
 4824SOL    HW126105   1.577   4.324   6.374  0.1305 -0.3028  0.2214
 4824SOL    HW226106   1.430   4.352   6.363 -1.5935  2.2494 -0.1326
 4825SOL     OW26107   0.892   1.352  10.095 -0.6159 -0.2988  0.2731
 4825SOL    HW126108   0.825   1.376  10.031  0.9764 -1.9074 -2.0130
 4825SOL    HW226109   0.840   1.322  10.170 -2.7550  2.0581 -0.2302
 4826SOL     OW26110   4.519   2.747   2.851  0.5946 -0.5586 -0.0561
 4826SOL    HW126111   4.505   2.795   2.933  0.4554 -0.0704 -0.3636
 4826SOL    HW226112   4.433   2.709   2.836  0.7926 -0.7081 -0.8049
 4827SOL     OW26113   0.747   0.485  10.827  0.7070  0.4448 -0.3035
 4827SOL    HW126114   0.767   0.574  10.857 -0.1489 -0.2443  2.3347
 4827SOL    HW226115   0.657   0.489  10.795  0.5929 -0.9397 -0.1627
 4828SOL     OW26116   3.403   4.524   0.885  0.1993  0.1934  0.5821
 4828SOL    HW126117   3.328   4.474   0.853  0.2210 -0.2843  1.2895
 4828SOL    HW226118   3.426   4.571   0.805 -0.9663 -0.1544  0.0445
 4829SOL     OW26119   2.799   0.227   3.893  1.0143  0.0520  0.3874
 4829SOL    HW126120   2.849   0.189   3.820 -2.1563  0.7219 -2.1151
 4829SOL    HW226121   2.740   0.153   3.906  2.5477 -1.3587 -0.6550
 4830SOL     OW26122   2.783   3.145   2.498  0.6069 -0.0157 -0.4900
 4830SOL    HW126123   2.750   3.101   2.420  0.1001  0.7539 -0.7078
 4830SOL    HW226124   2.875   3.117   2.502  0.0957 -1.7047 -0.5705
 4831SOL     OW26125   2.412   4.313   7.898  0.5072 -0.0450  0.1932
 4831SOL    HW126126   2.361   4.385   7.936  0.8713  0.8096 -0.9136
 4831SOL    HW226127   2.361   4.314   7.817  3.6565  2.0138 -1.7573
 4832SOL     OW26128   2.064   2.619   9.706 -0.2784  0.1416  0.1082
 4832SOL    HW126129   2.046   2.706   9.741  0.4363 -0.2049  1.3198
 4832SOL    HW226130   2.126   2.652   9.641  0.7468  0.3077  1.1602
 4833SOL     OW26131   1.715   3.731   5.991 -0.3293  0.0954 -0.7138
 4833SOL    HW126132   1.775   3.768   6.056 -1.1818 -1.1926  0.8058
 4833SOL    HW226133   1.653   3.671   6.032  2.3467 -1.7838  0.5047
 4834SOL     OW26134   1.738   4.125  11.910 -0.2443 -0.7313  0.1435
 4834SOL    HW126135   1.828   4.092  11.911 -0.0832 -0.3146 -0.6725
 4834SOL    HW226136   1.765   4.206  11.867  0.0950 -1.5750 -1.2250
 4835SOL     OW26137   3.362   3.665  14.948 -0.2386 -0.0123  0.0815
 4835SOL    HW126138   3.308   3.737  14.915  2.6579  1.8407 -0.6512
 4835SOL    HW226139   3.297   3.620  15.003 -0.6004 -1.3714 -1.4571
 4836SOL     OW26140   4.601   2.720   7.214 -0.0221  0.4582  0.6167
 4836SOL    HW126141   4.578   2.715   7.306 -1.0244  0.5816  0.3792
 4836SOL    HW226142   4.667   2.652   7.200  0.8791  1.4478 -0.0210
 4837SOL     OW26143   1.757   0.401   6.749  0.2365 -0.9470 -0.4556
 4837SOL    HW126144   1.701   0.459   6.697 -0.3666  0.5027  1.8183
 4837SOL    HW226145   1.789   0.335   6.688  0.6959  1.0775 -2.4220
 4838SOL     OW26146   3.972   3.673   6.759  0.2100 -0.1528  0.0388
 4838SOL    HW126147   4.036   3.741   6.780  0.8529 -0.7983  0.1693
 4838SOL    HW226148   3.992   3.658   6.667 -0.1545 -1.2871  0.1370
 4839SOL     OW26149   3.505   3.588  12.034 -0.1617  0.3036  0.3783
 4839SOL    HW126150   3.504   3.552  12.123 -0.5660  0.6098  0.4964
 4839SOL    HW226151   3.537   3.508  11.993  1.2409  0.3053  1.4740
 4840SOL     OW26152   2.886   0.177   5.229  0.1480  0.8006  0.4893
 4840SOL    HW126153   2.804   0.170   5.181 -0.2568  0.2003  1.2579
 4840SOL    HW226154   2.858   0.210   5.315  3.1277 -0.4168  1.9328
 4841SOL     OW26155   1.557   3.734   8.749 -0.1119  0.4645  0.1214
 4841SOL    HW126156   1.614   3.761   8.821  0.0043 -0.7504  0.4870
 4841SOL    HW226157   1.494   3.806   8.743 -0.7695 -0.2167 -1.2158
 4842SOL     OW26158   1.092   3.698  10.722 -0.3592  0.3957 -0.3651
 4842SOL    HW126159   1.000   3.672  10.720  0.2512 -1.7709  0.1048
 4842SOL    HW226160   1.103   3.689  10.816 -2.2597  1.2398 -0.0633
 4843SOL     OW26161   2.751   0.623   7.928 -0.2492  0.3673  0.1835
 4843SOL    HW126162   2.741   0.699   7.986  1.3057  0.0658  0.8525
 4843SOL    HW226163   2.756   0.552   7.992  0.0150 -0.4627 -0.7657
 4844SOL     OW26164   4.123   4.549   2.463 -0.6875  0.1101 -0.1222
 4844SOL    HW126165   4.198   4.608   2.460 -0.0871 -0.7244 -1.8346
 4844SOL    HW226166   4.070   4.567   2.385 -0.7402 -0.1457 -0.1468
 4845SOL     OW26167   1.002   1.055   7.222  0.3648  0.4214 -0.1875
 4845SOL    HW126168   0.908   1.036   7.225  0.5707 -0.9142 -1.9299
 4845SOL    HW226169   1.009   1.122   7.155  0.8517  0.3258 -0.2288
 4846SOL     OW26170   1.838   1.140   3.158  0.3418 -0.4896 -0.1072
 4846SOL    HW126171   1.765   1.179   3.109  0.2623 -0.4204  0.0647
 4846SOL    HW226172   1.870   1.077   3.094 -3.2702 -1.3891 -1.0104
 4847SOL     OW26173   3.525   1.992   3.592  0.2800  0.0101 -0.1940
 4847SOL    HW126174   3.502   2.078   3.558 -0.7639 -0.4088 -0.5462
 4847SOL    HW226175   3.499   2.002   3.684 -0.4520  2.7230 -0.7164
 4848SOL     OW26176   3.237   1.256   4.393  0.0852 -0.5378  0.4608
 4848SOL    HW126177   3.257   1.302   4.475 -0.8888 -1.0328  0.9729
 4848SOL    HW226178   3.316   1.281   4.344 -0.9790  0.8155 -0.5463
 4849SOL     OW26179   2.845   4.435  13.233 -0.5343  0.1467  0.3276
 4849SOL    HW126180   2.939   4.432  13.250  0.2864  0.2114 -4.3745
 4849SOL    HW226181   2.838   4.505  13.169  0.1191 -0.2498 -0.1813
 4850SOL     OW26182   0.600   1.316   7.547  0.2271  0.1790  0.4253
 4850SOL    HW126183   0.681   1.306   7.497  1.0728  1.6075  1.4885
 4850SOL    HW226184   0.562   1.397   7.513 -0.5978 -0.9598 -1.3205
 4851SOL     OW26185   4.600   0.048   0.204 -0.2934 -0.0445 -0.1099
 4851SOL    HW126186   4.504   0.054   0.203 -0.1925  1.6601 -0.0268
 4851SOL    HW226187   4.629   0.070   0.116 -0.2172  0.0223 -0.0684
 4852SOL     OW26188   0.111   2.752   2.640  0.4459  0.0663  0.2601
 4852SOL    HW126189   0.193   2.743   2.592  0.9966  0.1092  1.2011
 4852SOL    HW226190   0.100   2.846   2.654 -0.7264 -0.2395  1.4013
 4853SOL     OW26191   0.955   0.721   8.071 -0.2718 -0.2743 -0.2733
 4853SOL    HW126192   0.865   0.703   8.043 -0.2670 -2.7751  1.4362
 4853SOL    HW226193   0.955   0.815   8.091 -0.8376 -0.2328 -0.4496
 4854SOL     OW26194   1.741   4.516   9.514 -0.7344  0.7630  0.0258
 4854SOL    HW126195   1.829   4.478   9.515 -0.3713  1.6017 -0.2328
 4854SOL    HW226196   1.757   4.609   9.530 -2.8842  1.0874  0.3014
 4855SOL     OW26197   2.496   2.754   9.228 -0.0059  0.1298  0.3105
 4855SOL    HW126198   2.557   2.784   9.295  0.1104  1.0672 -0.2125
 4855SOL    HW226199   2.434   2.711   9.287  1.0997 -2.2981 -0.3152
 4856SOL     OW26200   0.165   1.662   1.079  0.3916  0.4645 -0.2580
 4856SOL    HW126201   0.233   1.727   1.062  0.8511 -0.2061 -1.0131
 4856SOL    HW226202   0.110   1.671   1.001 -0.1406  3.2047  0.4472
 4857SOL     OW26203   3.399   3.022   2.304 -0.9780  0.0588  0.2570
 4857SOL    HW126204   3.491   3.045   2.288 -1.0998  1.6810  1.8272
 4857SOL    HW226205   3.399   2.947   2.246  1.2279 -0.0654  0.4319
 4858SOL     OW26206   2.790   4.231  12.234 -0.2541  0.4265  0.1380
 4858SOL    HW126207   2.718   4.170  12.251 -0.0359  0.0521 -0.2969
 4858SOL    HW226208   2.747   4.307  12.193 -0.0886 -0.0988 -0.9984
 4859SOL     OW26209   3.398   0.618   4.083  0.3298 -0.2571 -0.3571
 4859SOL    HW126210   3.426   0.669   4.160  1.0426 -1.9546  0.5158
 4859SOL    HW226211   3.368   0.690   4.029 -0.4855  0.6266  1.2703
 4860SOL     OW26212   3.876   2.576   2.213 -0.7029  0.1896 -0.0521
 4860SOL    HW126213   3.895   2.552   2.303  0.2672 -1.5536 -0.7184
 4860SOL    HW226214   3.959   2.620   2.193 -1.1371  1.8491  1.9091
 4861SOL     OW26215   2.159   3.294   3.236  0.7105  0.4412  0.1123
 4861SOL    HW126216   2.176   3.200   3.251  0.6701 -0.0708 -3.1904
 4861SOL    HW226217   2.107   3.279   3.157 -0.3557  0.9803  0.7129
 4862SOL     OW26218   2.525   1.802   4.236 -0.0574 -0.4260  0.6363
 4862SOL    HW126219   2.481   1.756   4.307 -2.4129  1.6329  0.5117
 4862SOL    HW226220   2.615   1.782   4.261 -0.9111 -1.9243  2.4549
 4863SOL     OW26221   0.388   2.162   9.931  0.5668  0.7368 -0.1724
 4863SOL    HW126222   0.453   2.180   9.999  0.9806 -0.7993 -0.1511
 4863SOL    HW226223   0.404   2.075   9.894 -1.3008  0.2266  0.2285
 4864SOL     OW26224   2.724   2.245  13.453  0.8868  0.2559 -0.4051
 4864SOL    HW126225   2.642   2.254  13.406  1.0679  0.5470 -0.6668
 4864SOL    HW226226   2.689   2.268  13.539  0.2603  1.0853 -0.8831
 4865SOL     OW26227   4.380   4.054   3.857 -0.2339 -0.5352  0.1563
 4865SOL    HW126228   4.314   4.045   3.787 -1.2106  0.9951  0.8764
 4865SOL    HW226229   4.356   3.982   3.915 -0.1985 -0.1162  0.6929
 4866SOL     OW26230   3.858   3.910   1.114  0.3109 -0.2071  0.0367
 4866SOL    HW126231   3.884   3.992   1.155 -2.6726  1.0468 -0.5600
 4866SOL    HW226232   3.821   3.932   1.028  3.2185  0.8525 -0.9347
 4867SOL     OW26233   2.162   1.998   6.157  0.4670 -0.1302 -0.2039
 4867SOL    HW126234   2.163   2.085   6.196 -0.8508 -0.1941 -0.0206
 4867SOL    HW226235   2.084   1.990   6.102  1.8077  0.3044 -2.1803
 4868SOL     OW26236   0.640   4.017   8.766  0.4262 -0.2810 -0.0055
 4868SOL    HW126237   0.614   4.074   8.694 -0.2538 -1.5760 -0.7801
 4868SOL    HW226238   0.569   3.953   8.774 -0.0568  0.5222  2.1358
 4869SOL     OW26239   0.138   4.703   3.542  0.8790  0.1621  0.0408
 4869SOL    HW126240   0.233   4.703   3.531  0.7573 -0.2797 -1.0201
 4869SOL    HW226241   0.132   4.687   3.636 -1.0643 -0.8907 -0.2569
 4870SOL     OW26242   2.932   3.054   5.827  0.3127  0.1399  0.0729
 4870SOL    HW126243   2.953   3.100   5.746 -0.8126 -0.6409 -0.6600
 4870SOL    HW226244   2.873   3.118   5.867  0.1265 -0.9683  1.5810
 4871SOL     OW26245   0.803   2.932   2.147  0.1154  0.9384 -0.3800
 4871SOL    HW126246   0.865   2.990   2.191  1.8775 -0.2246 -1.3330
 4871SOL    HW226247   0.866   2.877   2.100 -0.2562 -0.2886  0.5611
 4872SOL     OW26248   0.524   4.143   6.651 -0.2083  0.7092  0.8047
 4872SOL    HW126249   0.560   4.062   6.617 -1.0119  0.4927  0.4588
 4872SOL    HW226250   0.475   4.164   6.572  0.3024  2.3767  0.9148
 4873SOL     OW26251   4.118   3.740   3.930  0.5000 -0.0230  0.3615
 4873SOL    HW126252   4.098   3.761   3.838  1.0531  0.5592  0.3705
 4873SOL    HW226253   4.040   3.688   3.946  2.0467 -2.4133  0.2061
 4874SOL     OW26254   2.324   3.593   1.762 -0.4043 -0.1596 -0.7222
 4874SOL    HW126255   2.283   3.507   1.773 -0.8734  0.4566  2.5056
 4874SOL    HW226256   2.402   3.570   1.713 -0.5462 -0.9907 -0.5505
 4875SOL     OW26257   1.514   0.111  12.324  0.0780 -0.4415  0.3877
 4875SOL    HW126258   1.450   0.101  12.254  0.4039 -1.1178  0.1873
 4875SOL    HW226259   1.598   0.130  12.281  0.1053 -2.2414 -0.3409
 4876SOL     OW26260   2.021   2.742   7.151  0.3922  0.5110 -0.1512
 4876SOL    HW126261   1.976   2.698   7.079 -0.7871 -0.5653  1.2578
 4876SOL    HW226262   1.982   2.829   7.139 -0.4392  0.1824  0.1977
 4877SOL     OW26263   3.004   0.582  15.581 -0.0767 -0.1832  0.7697
 4877SOL    HW126264   2.976   0.494  15.604  0.1251 -0.7854 -1.2243
 4877SOL    HW226265   3.058   0.564  15.503  0.2750  0.9628  0.7390
 4878SOL     OW26266   4.594   0.502   6.330  0.0173  0.1066  0.2394
 4878SOL    HW126267   4.638   0.514   6.246  2.4468  1.8607  1.7697
 4878SOL    HW226268   4.603   0.592   6.362 -1.7751  0.4409 -0.1906
 4879SOL     OW26269   3.221   3.072  12.031  0.4747  0.2486  0.4199
 4879SOL    HW126270   3.310   3.057  12.061  0.9027 -0.1318 -1.0375
 4879SOL    HW226271   3.223   3.030  11.945  0.7236  1.2446 -0.0665
 4880SOL     OW26272   3.643   2.228   2.492 -0.2405 -0.2586  0.5247
 4880SOL    HW126273   3.628   2.271   2.408  0.9121 -0.0861  0.4095
 4880SOL    HW226274   3.673   2.144   2.456 -0.9642 -0.3801  0.2028
 4881SOL     OW26275   0.948   1.271   2.114  0.0349 -0.5036  0.3228
 4881SOL    HW126276   0.962   1.243   2.023 -1.4554 -3.2684  0.9502
 4881SOL    HW226277   1.004   1.203   2.151  2.0412  0.3584 -1.1225
 4882SOL     OW26278   1.840   4.539   3.140  0.3066 -0.3992 -0.2736
 4882SOL    HW126279   1.827   4.522   3.047  0.2172 -0.4233 -0.2565
 4882SOL    HW226280   1.758   4.585   3.155 -0.1746 -1.1797 -0.5156
 4883SOL     OW26281   2.758   1.708   4.323 -0.6456  0.1439 -0.0396
 4883SOL    HW126282   2.764   1.745   4.411  0.1546  1.5106 -0.6684
 4883SOL    HW226283   2.809   1.629   4.342 -2.9937 -1.4737 -0.4771
 4884SOL     OW26284   3.842   1.337   5.267  0.6503 -0.4884 -0.0852
 4884SOL    HW126285   3.833   1.393   5.191 -0.7953  1.0789  1.2445
 4884SOL    HW226286   3.883   1.267   5.216  2.8234  0.8009 -0.0845
 4885SOL     OW26287   1.212   1.529   4.930 -0.1068 -0.2306  0.2174
 4885SOL    HW126288   1.214   1.597   4.997 -1.2221  0.7657 -0.7697
 4885SOL    HW226289   1.304   1.524   4.904  0.0780 -2.8128  1.3528
 4886SOL     OW26290   2.348   1.300   7.613 -0.0436  0.4121  0.3155
 4886SOL    HW126291   2.411   1.229   7.621 -0.5104  0.2142  2.2897
 4886SOL    HW226292   2.271   1.271   7.662 -0.8625  1.0131 -0.6081
 4887SOL     OW26293   0.522   0.802  10.465  0.1625  0.4283 -0.3718
 4887SOL    HW126294   0.480   0.823  10.381 -3.3364 -2.2614  0.7023
 4887SOL    HW226295   0.582   0.730  10.444  0.6984 -0.3277  3.7198
 4888SOL     OW26296   0.750   3.908   5.656  0.0049  0.5619  0.0804
 4888SOL    HW126297   0.687   3.877   5.721 -0.9485  5.5829  1.5198
 4888SOL    HW226298   0.820   3.939   5.712  0.1732 -1.4214  0.9947
 4889SOL     OW26299   2.444   0.565   4.601  0.3412 -0.0704 -0.1285
 4889SOL    HW126300   2.527   0.548   4.646  0.3307 -1.4545 -0.6223
 4889SOL    HW226301   2.436   0.660   4.610 -1.5781 -0.4562  2.0385
 4890SOL     OW26302   0.285   2.309   7.379  0.3980 -0.0764  0.5809
 4890SOL    HW126303   0.362   2.296   7.324  0.8318  0.0810  1.1469
 4890SOL    HW226304   0.316   2.263   7.457 -1.5928 -0.2564  1.2615
 4891SOL     OW26305   1.478   1.578  12.336 -0.0378 -0.1433  0.4992
 4891SOL    HW126306   1.547   1.640  12.360 -0.3599  0.4173 -0.0302
 4891SOL    HW226307   1.508   1.506  12.391  1.5882  0.3648  0.2896
 4892SOL     OW26308   3.574   2.488   5.827  0.0385  0.0221 -0.3276
 4892SOL    HW126309   3.653   2.521   5.868  1.3402 -2.6995 -0.6575
 4892SOL    HW226310   3.520   2.469   5.904  0.2588  0.5142 -0.0545
 4893SOL     OW26311   3.992   0.095   1.957 -0.2770 -0.6206 -0.5724
 4893SOL    HW126312   4.016   0.007   1.928 -3.2132 -1.7685  0.3926
 4893SOL    HW226313   3.902   0.075   1.984  0.1473 -0.5132  0.9564
 4894SOL     OW26314   4.430   4.476   5.019 -0.4142 -0.0148 -0.2386
 4894SOL    HW126315   4.491   4.406   5.042 -0.7228 -0.4608 -0.7612
 4894SOL    HW226316   4.343   4.450   5.049 -0.1967  1.6839  1.8212
 4895SOL     OW26317   1.255   0.676   9.685  0.1287  0.1959  0.6971
 4895SOL    HW126318   1.188   0.642   9.625  1.4975  1.3336 -1.4736
 4895SOL    HW226319   1.329   0.658   9.626 -2.0856  0.0239 -2.0586
 4896SOL     OW26320   3.092   2.513   8.591 -0.1565  0.1893 -0.1137
 4896SOL    HW126321   3.110   2.587   8.534  0.5349  0.7642  0.8427
 4896SOL    HW226322   3.015   2.545   8.639 -0.5132 -1.5466  0.4723
 4897SOL     OW26323   3.307   4.388  10.532  0.4160  0.5170 -0.6688
 4897SOL    HW126324   3.380   4.379  10.593 -0.9836 -0.3626  0.8833
 4897SOL    HW226325   3.320   4.473  10.490  1.1136  0.3895 -0.7116
 4898SOL     OW26326   2.067   2.897   3.447 -0.0976 -0.5441  0.1456
 4898SOL    HW126327   2.055   2.805   3.471 -1.8743  0.0824  1.6833
 4898SOL    HW226328   2.054   2.895   3.352 -3.1425  1.5710  0.4946
 4899SOL     OW26329   4.262   2.250   3.990 -0.2498  0.3243  0.5214
 4899SOL    HW126330   4.202   2.236   3.917 -0.7418  3.0745  0.3953
 4899SOL    HW226331   4.320   2.174   3.984 -0.2051  0.3457  0.6769
 4900SOL     OW26332   1.367   4.494  17.633 -0.2700  0.0350 -0.0513
 4900SOL    HW126333   1.330   4.508  17.546 -0.0674 -0.6394 -0.2493
 4900SOL    HW226334   1.397   4.403  17.624  0.1717  0.1577  0.1916
 4901SOL     OW26335   0.401   2.624  15.301  0.0577  0.2367  0.2046
 4901SOL    HW126336   0.365   2.699  15.348  1.5318  0.6715  0.6309
 4901SOL    HW226337   0.334   2.556  15.309  0.2503  0.0223 -0.0121
 4902SOL     OW26338   1.126   3.383   8.497 -0.2299 -0.0412  0.2942
 4902SOL    HW126339   1.071   3.336   8.560  1.1684  1.7705  2.8601
 4902SOL    HW226340   1.211   3.367   8.539  0.2471  1.2816 -0.1994
 4903SOL     OW26341   3.645   1.867   2.231  0.8551 -0.7436 -0.4692
 4903SOL    HW126342   3.720   1.898   2.283  1.3134  2.2161 -2.8861
 4903SOL    HW226343   3.596   1.818   2.297 -0.3436  1.2111  0.0956
 4904SOL     OW26344   1.427   0.174   8.498 -0.0355  0.6116 -0.0865
 4904SOL    HW126345   1.485   0.230   8.445 -0.5636  0.3097 -0.9852
 4904SOL    HW226346   1.486   0.099   8.490  0.5602  1.2233 -1.5200
 4905SOL     OW26347   3.829   3.228   6.849  0.3818 -0.1544  0.5680
 4905SOL    HW126348   3.911   3.190   6.816  0.5419 -0.3984  1.2568
 4905SOL    HW226349   3.829   3.315   6.810  1.3411 -0.5235 -0.2560
 4906SOL     OW26350   0.966   1.130   1.380  0.6136 -0.1547 -0.1450
 4906SOL    HW126351   0.897   1.152   1.317 -0.0936  0.6267  0.8880
 4906SOL    HW226352   1.042   1.156   1.329  1.2255 -1.3457  0.1775
 4907SOL     OW26353   4.056   4.055   8.978  0.1759 -1.0125  0.4855
 4907SOL    HW126354   3.991   4.019   8.918 -0.2462 -1.6942  1.3577
 4907SOL    HW226355   4.072   3.980   9.034  2.2367 -0.2767  0.8958
 4908SOL     OW26356   3.631   1.082   6.372 -0.2243 -0.5286 -0.4489
 4908SOL    HW126357   3.548   1.113   6.407  0.0268  1.1593 -1.3255
 4908SOL    HW226358   3.602   1.018   6.307 -0.7565  0.4348 -1.1653
 4909SOL     OW26359   1.120   3.177  12.865 -0.0086  0.0395 -0.6044
 4909SOL    HW126360   1.057   3.112  12.893 -1.0134  1.9316  1.5006
 4909SOL    HW226361   1.169   3.180  12.947  1.4930  0.5610 -1.5168
 4910SOL     OW26362   3.136   0.542   7.304 -0.3752  0.1964  0.0234
 4910SOL    HW126363   3.186   0.604   7.356 -1.4123  0.9701  0.1056
 4910SOL    HW226364   3.078   0.492   7.361  1.4586 -0.8470  0.9736
 4911SOL     OW26365   1.965   1.701   2.263  0.7646 -0.2109  0.1103
 4911SOL    HW126366   1.924   1.785   2.288 -0.5296 -0.6169 -0.6590
 4911SOL    HW226367   2.053   1.726   2.235  0.1642  1.6271 -0.1507
 4912SOL     OW26368   3.361   0.223   0.059  0.0235  0.3349 -0.1665
 4912SOL    HW126369   3.297   0.223  17.718  0.2780  0.8591 -0.3962
 4912SOL    HW226370   3.365   0.134   0.092 -0.1822 -0.1442 -1.4462
 4913SOL     OW26371   4.031   2.655  10.025  0.1507 -0.3050 -0.1152
 4913SOL    HW126372   4.062   2.602  10.099 -0.0553 -0.6360 -0.2619
 4913SOL    HW226373   3.940   2.622  10.026  0.0514 -0.0200  0.3567
 4914SOL     OW26374   2.480   0.249   8.541 -0.0986 -0.4633  0.1236
 4914SOL    HW126375   2.533   0.171   8.522 -0.2102 -0.8918  1.6048
 4914SOL    HW226376   2.541   0.307   8.587 -0.5056  0.7899 -0.9376
 4915SOL     OW26377   0.353   0.803  14.752  0.6205 -0.3353 -0.1560
 4915SOL    HW126378   0.265   0.829  14.726 -0.2148 -2.5078  0.4382
 4915SOL    HW226379   0.357   0.858  14.830  1.4770 -0.9209  0.2140
 4916SOL     OW26380   4.585   4.732   2.220  0.3415  0.7997 -0.0845
 4916SOL    HW126381   4.675   0.019   2.243  0.5414 -1.3522  1.0028
 4916SOL    HW226382   4.566   4.672   2.292  0.1387 -0.9804 -1.6060
 4917SOL     OW26383   0.046   2.006   9.102 -0.0039 -0.3703 -0.8222
 4917SOL    HW126384   4.722   1.951   9.156 -2.2436  1.3293 -1.4040
 4917SOL    HW226385   0.006   1.997   9.015  1.7235 -0.0086 -1.6588
 4918SOL     OW26386   3.989   2.817  14.313 -0.2851 -0.2456  0.3336
 4918SOL    HW126387   3.970   2.734  14.356  1.2635 -0.3659  0.7951
 4918SOL    HW226388   3.947   2.802  14.228  0.5612  2.9426 -0.6479
 4919SOL     OW26389   0.884   2.816  15.012 -0.4916 -0.3047  0.0185
 4919SOL    HW126390   0.945   2.806  14.939 -1.1823  0.9041 -0.7056
 4919SOL    HW226391   0.802   2.797  14.967 -0.7304 -0.3451  0.4643
 4920SOL     OW26392   3.172   2.270  15.982  0.8401  0.3744 -1.1821
 4920SOL    HW126393   3.213   2.350  16.013 -2.3346  0.2341  3.3605
 4920SOL    HW226394   3.238   2.225  15.929  0.2138 -0.4464 -1.2803
 4921SOL     OW26395   3.406   3.172   7.613 -0.7546 -0.0328 -0.4535
 4921SOL    HW126396   3.475   3.142   7.555  0.4859  2.8837 -0.4640
 4921SOL    HW226397   3.405   3.098   7.673  0.0748  1.1807  1.0737
 4922SOL     OW26398   4.183   2.345  15.177  0.8919  0.5526 -0.1181
 4922SOL    HW126399   4.191   2.301  15.092 -0.2955  0.5295 -0.2102
 4922SOL    HW226400   4.144   2.272  15.225 -4.3423  1.6733 -2.6343
 4923SOL     OW26401   1.416   4.437   7.131 -0.0598 -0.2317  0.0122
 4923SOL    HW126402   1.325   4.456   7.154 -0.2499  0.3987 -1.2502
 4923SOL    HW226403   1.453   4.524   7.118  1.5115 -0.4836  2.8552
 4924SOL     OW26404   4.606   3.612  15.424 -0.3039 -0.1070  0.0556
 4924SOL    HW126405   4.553   3.678  15.378  1.7284  1.3040 -0.2734
 4924SOL    HW226406   4.592   3.531  15.375 -2.0200  0.5069 -0.4743
 4925SOL     OW26407   1.989   2.152  11.621  0.2239 -0.3079 -0.0087
 4925SOL    HW126408   1.938   2.189  11.692 -0.8949 -1.9908  0.0561
 4925SOL    HW226409   1.920   2.111  11.568 -0.0900  0.5102 -0.2222
 4926SOL     OW26410   3.480   1.737   4.069  0.1944 -0.2382 -0.5451
 4926SOL    HW126411   3.439   1.651   4.057  0.3252 -0.0035 -2.6636
 4926SOL    HW226412   3.415   1.798   4.103  1.3165  0.0159  1.1413
 4927SOL     OW26413   4.236   4.361   1.846 -0.1689 -0.0451  0.0867
 4927SOL    HW126414   4.198   4.308   1.777 -0.6189 -0.6573  0.8015
 4927SOL    HW226415   4.291   4.299   1.894 -1.4792 -1.0700  0.2684
 4928SOL     OW26416   1.799   1.543   3.152 -0.0015 -0.6714  0.4839
 4928SOL    HW126417   1.838   1.627   3.128  4.2727 -2.5951  0.6621
 4928SOL    HW226418   1.790   1.500   3.067  1.2409  0.7144 -0.3400
 4929SOL     OW26419   1.554   4.688   5.345  0.0248  0.1833  0.1693
 4929SOL    HW126420   1.535   0.012   5.270  1.8267  1.5178  0.7104
 4929SOL    HW226421   1.586   0.022   5.406 -1.7104  0.5656  0.6776
 4930SOL     OW26422   1.295   2.613  12.766  0.2049 -0.1472  0.0287
 4930SOL    HW126423   1.225   2.556  12.735  0.1840  0.6602 -1.4318
 4930SOL    HW226424   1.362   2.598  12.700  0.0484  1.1015 -0.4305
 4931SOL     OW26425   0.299   3.184  11.059 -0.5117  0.3316 -0.4120
 4931SOL    HW126426   0.280   3.091  11.046  0.3406  0.1587 -0.4654
 4931SOL    HW226427   0.231   3.225  11.112 -1.3021 -1.2011 -0.2510
 4932SOL     OW26428   3.882   3.999  11.841  0.1918  0.0943 -0.0109
 4932SOL    HW126429   3.838   4.030  11.920 -0.4003  0.1472 -0.3594
 4932SOL    HW226430   3.827   3.923  11.823 -0.1971  1.2078 -3.6231
 4933SOL     OW26431   1.396   3.672   6.527 -0.4360 -0.4449 -0.0960
 4933SOL    HW126432   1.392   3.715   6.613  1.1360 -0.2174 -0.1265
 4933SOL    HW226433   1.478   3.624   6.536 -0.1063 -0.2101 -1.8355
 4934SOL     OW26434   2.346   3.643   3.476 -0.4691 -0.2781  0.4897
 4934SOL    HW126435   2.315   3.690   3.553 -1.5469 -1.1470  0.5825
 4934SOL    HW226436   2.302   3.558   3.473  2.7776 -1.9586  0.3235
 4935SOL     OW26437   3.425   2.781   7.164  0.8616  0.2857 -0.4465
 4935SOL    HW126438   3.333   2.799   7.179  0.5988  0.4682 -2.2952
 4935SOL    HW226439   3.463   2.770   7.251 -1.7532 -2.0647  0.3612
 4936SOL     OW26440   1.151   0.228   4.591 -0.0546 -0.4114  0.0411
 4936SOL    HW126441   1.056   0.223   4.578 -0.1751 -1.7398  1.3821
 4936SOL    HW226442   1.164   0.141   4.628  2.9258 -0.2738 -0.6696
 4937SOL     OW26443   0.501   0.120   4.988 -0.1252  0.7164 -0.2337
 4937SOL    HW126444   0.449   0.044   4.964  1.6969 -0.5816 -0.0972
 4937SOL    HW226445   0.584   0.100   4.944  0.4681  1.1338  0.7045
 4938SOL     OW26446   2.201   4.357   3.475 -0.3265  0.0003  0.1746
 4938SOL    HW126447   2.142   4.387   3.406 -2.4046 -0.6415  1.6401
 4938SOL    HW226448   2.138   4.298   3.519  1.3133  0.2059  2.7752
 4939SOL     OW26449   3.124   1.364  16.485  0.2043  0.8965 -0.0837
 4939SOL    HW126450   3.134   1.434  16.549  0.2028 -0.3279  1.2713
 4939SOL    HW226451   3.146   1.289  16.540 -0.5246  0.8184  0.1022
 4940SOL     OW26452   2.042   2.723   1.997 -0.0360  0.1463  0.7169
 4940SOL    HW126453   2.002   2.646   1.956  1.2324  0.5755 -1.3598
 4940SOL    HW226454   2.097   2.757   1.927  2.0011  0.7022  2.5945
 4941SOL     OW26455   0.936   3.603   5.093  0.4677 -0.0125  0.2728
 4941SOL    HW126456   0.955   3.512   5.069  2.7397  0.6243 -0.3265
 4941SOL    HW226457   0.960   3.597   5.186 -0.5593  0.1275  0.5430
 4942SOL     OW26458   2.422   2.841  10.753 -0.3584 -0.0776 -0.2216
 4942SOL    HW126459   2.392   2.910  10.693  2.1467  1.3111  0.1330
 4942SOL    HW226460   2.516   2.856  10.749 -0.5133  0.7901 -0.6448
 4943SOL     OW26461   1.235   4.506   4.886 -0.0269  0.3018  0.1519
 4943SOL    HW126462   1.207   4.471   4.801 -0.2850  0.9756 -0.0452
 4943SOL    HW226463   1.247   4.429   4.941  3.3659  1.2095  0.6538
 4944SOL     OW26464   0.337   1.056   3.150  0.1041 -0.0687 -0.3538
 4944SOL    HW126465   0.327   1.116   3.076 -1.6399  2.6186  2.0658
 4944SOL    HW226466   0.243   1.042   3.164  0.2249 -1.0741 -0.5133
 4945SOL     OW26467   2.421   2.575  10.203 -0.4056 -0.2184 -0.4444
 4945SOL    HW126468   2.434   2.494  10.252  0.2088  1.2926  1.9102
 4945SOL    HW226469   2.499   2.624  10.229  0.6455  0.0958 -4.1285
 4946SOL     OW26470   2.486   1.764  12.119 -0.0140  0.1560  0.3137
 4946SOL    HW126471   2.529   1.816  12.051 -1.1386 -2.6485 -2.5309
 4946SOL    HW226472   2.397   1.796  12.108 -0.3820 -0.5695  1.1657
 4947SOL     OW26473   0.509   1.858   9.274  0.7416 -0.0560  0.6741
 4947SOL    HW126474   0.443   1.847   9.206  0.3923 -1.0897  1.1811
 4947SOL    HW226475   0.470   1.925   9.329 -1.6880  0.1872 -1.3493
 4948SOL     OW26476   3.006   3.356  10.348 -0.1066  0.1506 -0.6116
 4948SOL    HW126477   2.927   3.386  10.303  0.3134  0.8387 -0.8976
 4948SOL    HW226478   3.023   3.424  10.413 -0.9586  0.9680 -1.2502
 4949SOL     OW26479   0.852   1.262   7.419 -0.4272 -0.2680 -0.2264
 4949SOL    HW126480   0.841   1.299   7.332 -0.2114 -0.0681 -0.1665
 4949SOL    HW226481   0.946   1.255   7.434 -0.5049 -0.7892  0.0421
 4950SOL     OW26482   3.754   0.739   0.794  0.2178  0.0896  0.0020
 4950SOL    HW126483   3.758   0.754   0.700 -0.5484 -1.3736 -0.2814
 4950SOL    HW226484   3.817   0.806   0.818  0.1907  0.2179 -0.2835
 4951SOL     OW26485   2.543   0.050   5.531 -0.4781  0.3469 -0.5008
 4951SOL    HW126486   2.472   0.000   5.572  1.1212  0.8263  2.8417
 4951SOL    HW226487   2.609   4.714   5.524  0.4237  1.4715 -3.1064
 4952SOL     OW26488   1.551   2.715   6.040 -0.2091 -0.3104 -0.4262
 4952SOL    HW126489   1.572   2.677   6.125  0.3414  0.3414 -0.2745
 4952SOL    HW226490   1.481   2.773   6.070 -0.5300 -0.1397 -1.4782
 4953SOL     OW26491   0.116   0.675  11.885 -0.3463 -0.1854 -0.0760
 4953SOL    HW126492   0.206   0.707  11.879 -0.6081  0.6141  0.1794
 4953SOL    HW226493   0.132   0.585  11.911 -0.3411 -0.9790 -2.7786
 4954SOL     OW26494   2.575   2.302   7.387 -0.2863 -0.2456  0.2154
 4954SOL    HW126495   2.548   2.242   7.317 -1.2596 -0.6577  0.9480
 4954SOL    HW226496   2.656   2.344   7.357 -2.4500  2.8916 -1.2351
 4955SOL     OW26497   4.594   0.762   9.613  0.3830 -0.4999 -0.3312
 4955SOL    HW126498   4.653   0.782   9.686 -0.3206 -1.3333  0.4671
 4955SOL    HW226499   4.576   0.846   9.572  2.4557 -0.1282 -0.4963
 4956SOL     OW26500   0.266   3.881   7.592 -0.3365  0.2223  0.1579
 4956SOL    HW126501   0.231   3.846   7.510 -1.4423  1.5020  0.0751
 4956SOL    HW226502   0.330   3.822   7.631  0.4733 -0.0805 -1.5790
 4957SOL     OW26503   3.957   2.497   3.888 -0.0729  0.0194  0.1635
 4957SOL    HW126504   3.863   2.505   3.870 -0.0687 -0.3763 -0.0263
 4957SOL    HW226505   3.972   2.589   3.910 -1.6936  0.5755 -1.0373
 4958SOL     OW26506   0.999   0.523   3.524 -0.2585  0.1508  0.2651
 4958SOL    HW126507   0.989   0.506   3.430 -1.6926  1.5999  0.1466
 4958SOL    HW226508   0.984   0.436   3.561 -0.2576 -0.7480 -1.8293
 4959SOL     OW26509   2.056   1.912  13.814  0.2429  0.3889 -0.0078
 4959SOL    HW126510   2.144   1.922  13.778  0.7646 -1.8877  0.6734
 4959SOL    HW226511   2.059   1.963  13.895  1.3905  0.5424 -0.1453
 4960SOL     OW26512   1.280   0.816   4.727  0.3969  0.4230 -0.0684
 4960SOL    HW126513   1.241   0.728   4.729  0.5647  0.3564  0.2527
 4960SOL    HW226514   1.288   0.817   4.631  0.2380  0.5735 -0.0791
 4961SOL     OW26515   3.423   1.092  11.861 -0.3120  0.0626 -1.0194
 4961SOL    HW126516   3.467   1.177  11.862  2.3968 -1.3492  0.0342
 4961SOL    HW226517   3.478   1.055  11.791 -0.2123 -1.5424 -0.0878
 4962SOL     OW26518   1.691   1.503   8.673  0.1667 -0.0997 -0.1117
 4962SOL    HW126519   1.626   1.534   8.737  1.4529 -1.3203  1.7940
 4962SOL    HW226520   1.725   1.582   8.632 -1.4625 -0.9557 -3.0941
 4963SOL     OW26521   0.784   3.014   6.769  0.3098 -0.0423  0.8022
 4963SOL    HW126522   0.690   3.016   6.754  0.5640 -1.7936 -1.0189
 4963SOL    HW226523   0.806   3.096   6.724  0.3568 -0.3754  0.2237
 4964SOL     OW26524   2.935   4.085   3.810 -0.2105  0.2164 -0.7281
 4964SOL    HW126525   2.895   4.063   3.894 -0.0881  2.6497 -0.0218
 4964SOL    HW226526   2.926   4.179   3.796  0.3380  0.7184  2.2928
 4965SOL     OW26527   3.809   3.058   6.487 -0.1513 -0.1834  0.0366
 4965SOL    HW126528   3.880   3.020   6.436  1.2117  2.8590 -0.2904
 4965SOL    HW226529   3.842   3.147   6.500  1.8421 -0.7462 -1.2333
 4966SOL     OW26530   0.599   0.314   6.805 -0.0711 -0.0857  0.2952
 4966SOL    HW126531   0.624   0.227   6.837 -2.0537 -1.0053 -0.6738
 4966SOL    HW226532   0.628   0.310   6.714  1.7522 -0.7698  0.9133
 4967SOL     OW26533   2.260   2.987  15.879 -0.4014  0.0068 -0.2079
 4967SOL    HW126534   2.287   2.909  15.928 -0.5410  0.1973  0.1682
 4967SOL    HW226535   2.296   2.961  15.794 -0.1287  1.9777 -0.6975
 4968SOL     OW26536   2.938   2.216  15.613  0.0819  0.9263  0.1066
 4968SOL    HW126537   2.894   2.131  15.623 -0.4254  1.2432  0.5483
 4968SOL    HW226538   2.922   2.243  15.523  0.8153 -0.0268 -0.3161
 4969SOL     OW26539   1.370   2.632   3.579  0.1373  0.1062 -0.4051
 4969SOL    HW126540   1.360   2.727   3.585 -1.0518  0.0600 -1.5939
 4969SOL    HW226541   1.306   2.605   3.513 -0.5265 -0.8315  0.6087
 4970SOL     OW26542   1.777   3.692  11.802 -0.6381 -0.0003  0.2355
 4970SOL    HW126543   1.690   3.659  11.780 -1.2641  1.0497  1.1450
 4970SOL    HW226544   1.758   3.725  11.890 -1.9106 -0.2570  0.0503
 4971SOL     OW26545   2.305   0.448   4.154 -0.5587 -0.1335  0.5466
 4971SOL    HW126546   2.375   0.404   4.106 -1.0675 -0.8722  0.4908
 4971SOL    HW226547   2.267   0.505   4.087  0.0465 -1.6413 -1.0666
 4972SOL     OW26548   2.946   0.775   8.600  0.7379  0.4847  0.8086
 4972SOL    HW126549   2.873   0.809   8.548  0.5938  0.6391  1.1121
 4972SOL    HW226550   2.898   0.713   8.654  0.6416 -0.6192 -0.5567
 4973SOL     OW26551   1.363   1.177   9.255 -0.4030 -0.1525 -0.4875
 4973SOL    HW126552   1.357   1.266   9.290  1.3564  0.0031 -0.5969
 4973SOL    HW226553   1.323   1.185   9.168 -0.4456 -0.9662 -0.5369
 4974SOL     OW26554   2.899   0.491   3.196 -0.0781  0.4360  0.6646
 4974SOL    HW126555   2.943   0.437   3.262  2.0829  1.4350  0.0492
 4974SOL    HW226556   2.966   0.549   3.160  3.0611 -2.1181  2.3689
 4975SOL     OW26557   4.583   1.623   8.789  0.3829  0.0350  0.1732
 4975SOL    HW126558   4.667   1.634   8.834 -1.4376 -0.6537  3.7250
 4975SOL    HW226559   4.536   1.698   8.824  3.5687  2.1181 -0.0205
 4976SOL     OW26560   3.644   3.511  12.495  0.0345  0.1916 -0.1766
 4976SOL    HW126561   3.558   3.491  12.456 -0.5077  0.4367  0.8828
 4976SOL    HW226562   3.626   3.590  12.545 -0.4812 -0.7644  1.1529
 4977SOL     OW26563   3.471   1.044   3.795 -0.3333  0.0600 -0.1552
 4977SOL    HW126564   3.461   1.116   3.733 -1.6630 -0.9908 -1.1503
 4977SOL    HW226565   3.419   1.064   3.872 -2.2162 -1.1845 -1.1170
 4978SOL     OW26566   3.736   2.007   7.731  0.2883  0.5338  0.3954
 4978SOL    HW126567   3.739   2.066   7.656  2.0579 -1.0618 -0.7964
 4978SOL    HW226568   3.686   2.054   7.798 -0.8541  0.9872 -0.7757
 4979SOL     OW26569   2.143   2.259  13.573 -0.0547  0.1224 -0.4998
 4979SOL    HW126570   2.119   2.306  13.493 -0.1300 -0.8389 -1.0333
 4979SOL    HW226571   2.084   2.184  13.573  0.7466 -0.5125 -1.3849
 4980SOL     OW26572   0.772   0.071   6.746  0.6064  0.0004 -0.2668
 4980SOL    HW126573   0.823   0.045   6.823 -0.2644  1.5880  0.8717
 4980SOL    HW226574   0.706   0.003   6.738  1.5580 -1.0425  0.8426
 4981SOL     OW26575   2.857   4.566  11.918 -0.7821  0.2827 -0.0560
 4981SOL    HW126576   2.909   4.576  11.838  0.0375 -0.3960  0.3941
 4981SOL    HW226577   2.919   4.509  11.963  0.3173  1.0816 -0.5728
 4982SOL     OW26578   3.597   1.177  10.265  0.6066 -0.2043 -0.0604
 4982SOL    HW126579   3.601   1.085  10.240 -0.3634 -0.0555 -0.7779
 4982SOL    HW226580   3.593   1.220  10.180 -2.0272  0.3650  0.3322
 4983SOL     OW26581   1.473   3.276   2.074 -0.0506 -0.3097  0.2508
 4983SOL    HW126582   1.397   3.306   2.123 -1.1427 -0.9518 -1.0360
 4983SOL    HW226583   1.438   3.253   1.988  0.5367  1.1606 -0.3819
 4984SOL     OW26584   2.039   3.051   5.134  0.1524 -0.3390 -0.7388
 4984SOL    HW126585   1.986   3.115   5.181 -1.0979 -0.3314 -2.1970
 4984SOL    HW226586   1.972   2.985   5.154 -0.1052  0.6217  1.6698
 4985SOL     OW26587   1.917   3.751  17.484  0.0812 -0.1683 -0.4305
 4985SOL    HW126588   1.895   3.828  17.433 -0.0953  1.1825  1.7108
 4985SOL    HW226589   1.882   3.779  17.568  1.2889 -0.7275  0.2707
 4986SOL     OW26590   1.175   3.793   9.194  0.7092  0.4062 -0.0558
 4986SOL    HW126591   1.181   3.840   9.111 -0.4106  0.6004 -0.0302
 4986SOL    HW226592   1.246   3.729   9.189 -0.3795 -0.9235  1.4325
 4987SOL     OW26593   2.686   2.918   3.801 -0.1612 -0.0565 -0.4293
 4987SOL    HW126594   2.641   2.836   3.784 -1.8569  1.1794 -1.9116
 4987SOL    HW226595   2.614   2.981   3.789 -0.4505 -0.2556  0.2167
 4988SOL     OW26596   2.242   2.401   5.397  0.0468 -0.7928  0.4012
 4988SOL    HW126597   2.168   2.462   5.393  0.5877 -0.0570  1.4330
 4988SOL    HW226598   2.191   2.320   5.394 -1.2674  0.0215  0.7483
 4989SOL     OW26599   0.888   0.555  17.277 -0.1652  0.7071  0.3765
 4989SOL    HW126600   0.968   0.544  17.225 -0.1270  1.1772  0.3399
 4989SOL    HW226601   0.819   0.529  17.216 -0.8864 -0.4632  1.6914
 4990SOL     OW26602   2.800   0.449   4.427 -0.6292  0.1107  0.0992
 4990SOL    HW126603   2.895   0.436   4.435 -0.3586  0.8076 -1.8560
 4990SOL    HW226604   2.766   0.462   4.515  0.2058  2.4109  0.0980
 4991SOL     OW26605   1.506   0.262  14.467 -0.7410 -0.2696 -0.0945
 4991SOL    HW126606   1.534   0.172  14.455  0.5492  0.3803 -1.9262
 4991SOL    HW226607   1.524   0.283  14.558  1.3175  1.2095 -0.8443
 4992SOL     OW26608   4.708   3.591   3.873 -0.0585 -0.2884  0.3285
 4992SOL    HW126609   0.016   3.676   3.889 -0.5337  0.2328 -1.2255
 4992SOL    HW226610   0.047   3.528   3.868  0.3038  0.1447  0.1832
 4993SOL     OW26611   0.361   1.896   9.903  0.1425  0.5002  0.0674
 4993SOL    HW126612   0.269   1.920   9.890 -0.2121 -1.1494 -0.4132
 4993SOL    HW226613   0.386   1.863   9.817  0.2371 -1.2183  0.7678
 4994SOL     OW26614   4.606   2.187   8.354 -0.1715  0.1071 -0.5877
 4994SOL    HW126615   4.520   2.206   8.391  0.3439  0.8069  0.2423
 4994SOL    HW226616   4.601   2.092   8.362 -1.5494 -0.0619 -3.2063
 4995SOL     OW26617   1.358   4.697   7.673  0.3372  0.0335 -0.7483
 4995SOL    HW126618   1.427   0.026   7.648  1.6726 -1.4175 -0.5575
 4995SOL    HW226619   1.320   0.021   7.740  1.6182  1.7062 -1.4287
 4996SOL     OW26620   1.560   3.475   2.991 -0.0573 -0.4188 -0.1769
 4996SOL    HW126621   1.498   3.512   3.053  0.4273 -0.5203  0.3605
 4996SOL    HW226622   1.507   3.411   2.944  0.2045  0.5431 -1.8024
 4997SOL     OW26623   3.134   1.584   5.318 -0.1285  0.0600  0.2225
 4997SOL    HW126624   3.156   1.649   5.251  0.1954 -0.8300 -0.5375
 4997SOL    HW226625   3.204   1.614   5.376  0.9143  1.5071 -1.7732
 4998SOL     OW26626   3.138   1.469   3.719 -0.1396 -0.1126  0.1835
 4998SOL    HW126627   3.087   1.548   3.700 -0.6092 -0.9813 -2.2416
 4998SOL    HW226628   3.208   1.476   3.653  1.1221 -3.2858  1.1877
 4999SOL     OW26629   0.063   1.308   1.290  0.0599  0.3658 -0.2685
 4999SOL    HW126630   0.135   1.269   1.340 -0.1999  1.2514  0.8143
 4999SOL    HW226631   4.723   1.253   1.317  0.4653 -0.2328 -0.4042
 5000SOL     OW26632   3.483   4.449   7.712 -0.2546  0.1689 -0.3377
 5000SOL    HW126633   3.483   4.387   7.785  0.2934  2.2459  1.4369
 5000SOL    HW226634   3.409   4.420   7.660 -2.0626  1.3380  1.5986
 5001SOL     OW26635   0.474   3.308   1.123  0.2036 -0.0608 -0.1562
 5001SOL    HW126636   0.521   3.386   1.154  1.5521 -1.4871  1.3723
 5001SOL    HW226637   0.400   3.303   1.184 -0.1896  0.7343 -0.5648
 5002SOL     OW26638   2.172   3.439   1.016 -0.4612  0.3060  0.3150
 5002SOL    HW126639   2.219   3.507   1.065 -0.1166 -0.2461  0.7458
 5002SOL    HW226640   2.086   3.482   1.010 -0.0558  0.8857 -1.3372
 5003SOL     OW26641   0.774   0.515   3.335  0.2137  0.0097  0.3153
 5003SOL    HW126642   0.697   0.536   3.283  0.1477 -2.7911 -0.7014
 5003SOL    HW226643   0.846   0.523   3.272 -1.1293 -2.2623 -1.5009
 5004SOL     OW26644   1.912   2.075   2.623 -0.5736 -0.6053  0.1760
 5004SOL    HW126645   1.856   2.019   2.678 -0.5408  0.1455  0.9693
 5004SOL    HW226646   1.991   2.075   2.676 -0.8487  0.1241  0.5867
 5005SOL     OW26647   3.986   2.941  16.904 -0.5743 -0.4173  0.4855
 5005SOL    HW126648   4.054   2.976  16.962  0.0777  0.4561 -0.8043
 5005SOL    HW226649   4.015   2.854  16.879 -1.1484 -0.5005  0.1134
 5006SOL     OW26650   3.599   0.825   3.707 -0.1912  0.2782  0.1116
 5006SOL    HW126651   3.565   0.908   3.740  2.1259  1.3163 -0.1136
 5006SOL    HW226652   3.542   0.818   3.630 -1.3770 -1.4690  1.1510
 5007SOL     OW26653   0.937   3.404   3.813 -0.1856 -0.3680 -0.2444
 5007SOL    HW126654   0.868   3.464   3.841  0.5893  0.4681 -0.0874
 5007SOL    HW226655   0.887   3.344   3.758 -0.7726 -0.7333  0.6898
 5008SOL     OW26656   4.050   3.331   7.606 -0.6703  0.0291 -0.2997
 5008SOL    HW126657   4.036   3.313   7.513  0.8918 -1.7804 -0.1720
 5008SOL    HW226658   3.963   3.336   7.647 -0.8491 -1.2708 -0.5259
 5009SOL     OW26659   4.276   3.797   9.849  0.1561 -0.5042  0.2496
 5009SOL    HW126660   4.257   3.704   9.837 -0.7910 -0.0936 -1.4310
 5009SOL    HW226661   4.215   3.824   9.918 -2.2806 -2.9105 -0.9387
 5010SOL     OW26662   1.614   0.105   9.753 -0.0802 -0.0930  0.1839
 5010SOL    HW126663   1.655   0.154   9.824  2.3918 -2.0685  0.1188
 5010SOL    HW226664   1.593   0.180   9.697 -1.3290  0.7475  1.7864
 5011SOL     OW26665   0.780   0.259   3.403 -0.5650 -0.2673  0.4285
 5011SOL    HW126666   0.875   0.270   3.403 -0.8693  2.4080  0.2093
 5011SOL    HW226667   0.759   0.351   3.387 -0.3848 -0.2778  0.1338
 5012SOL     OW26668   3.435   2.893  10.443 -0.2454 -0.0733  0.1082
 5012SOL    HW126669   3.407   2.965  10.386 -1.5808  0.2585  1.1952
 5012SOL    HW226670   3.356   2.872  10.493  1.3919 -0.1522  2.6556
 5013SOL     OW26671   2.565   3.345   9.768 -0.0540  0.1376  0.5857
 5013SOL    HW126672   2.482   3.300   9.778  2.0762 -3.4003  2.2925
 5013SOL    HW226673   2.627   3.273   9.753 -0.1442  0.5173 -1.6489
 5014SOL     OW26674   4.421   4.522   0.290 -0.4735  0.1774 -0.1977
 5014SOL    HW126675   4.407   4.430   0.265  2.3712 -0.7819  1.7400
 5014SOL    HW226676   4.489   4.551   0.230 -3.0676  1.5071 -2.5244
 5015SOL     OW26677   2.430   4.412   5.714 -0.2310 -0.2489  0.2208
 5015SOL    HW126678   2.521   4.439   5.703 -0.7931  1.8923  0.7819
 5015SOL    HW226679   2.392   4.499   5.700  0.4688  0.0180 -0.0185
 5016SOL     OW26680   3.713   1.338  16.705  0.3137  0.5660  0.1803
 5016SOL    HW126681   3.638   1.282  16.684  1.6561 -0.1630 -2.7966
 5016SOL    HW226682   3.716   1.324  16.799 -2.3404 -2.6650 -0.2160
 5017SOL     OW26683   4.479   1.276  11.434  0.1087  0.1783 -0.0008
 5017SOL    HW126684   4.454   1.193  11.393 -1.0343  0.6838 -0.3258
 5017SOL    HW226685   4.396   1.321  11.448 -0.1321  0.1596 -1.3985
 5018SOL     OW26686   4.640   4.146   8.869 -0.0032 -0.2350  0.2774
 5018SOL    HW126687   4.724   4.168   8.910  0.7039  1.8942 -2.3508
 5018SOL    HW226688   4.589   4.114   8.943  1.4919 -1.1573  0.9151
 5019SOL     OW26689   2.740   3.806   3.412  0.1684 -0.2832  0.0259
 5019SOL    HW126690   2.747   3.720   3.454 -1.7576  0.3685  1.6966
 5019SOL    HW226691   2.658   3.798   3.363  1.7645 -0.7663 -2.5544
 5020SOL     OW26692   0.029   3.475   1.799  0.9230  0.5123  0.4448
 5020SOL    HW126693   0.069   3.555   1.764  0.6478  1.0069  1.2723
 5020SOL    HW226694   0.077   3.459   1.881  0.6128  1.1850  0.7521
 5021SOL     OW26695   1.817   1.801   4.645 -0.0321  0.4603  0.1371
 5021SOL    HW126696   1.850   1.872   4.590  0.4002 -0.3977 -0.7091
 5021SOL    HW226697   1.759   1.756   4.584 -2.1219  1.3047  1.5003
 5022SOL     OW26698   4.371   1.270   0.303  0.2920 -0.5198  0.3308
 5022SOL    HW126699   4.331   1.184   0.316  0.6172 -0.9879 -1.8136
 5022SOL    HW226700   4.333   1.322   0.374  1.2516  3.5895 -2.1847
 5023SOL     OW26701   2.122   1.885   4.270 -0.5526  0.7772 -0.2474
 5023SOL    HW126702   2.174   1.951   4.225  0.9016 -0.5071 -0.4350
 5023SOL    HW226703   2.036   1.926   4.261 -0.1466  1.6464 -0.1065
 5024SOL     OW26704   1.018   1.000   2.853  0.0616  0.1483 -0.5207
 5024SOL    HW126705   0.980   0.941   2.917 -1.5536  1.8162  0.0641
 5024SOL    HW226706   1.113   1.006   2.864  0.0439  2.7374 -1.6596
 5025SOL     OW26707   4.455   3.381   6.560 -0.8871  0.7246  0.5341
 5025SOL    HW126708   4.433   3.317   6.627  1.6004  0.8053  1.4122
 5025SOL    HW226709   4.543   3.398   6.592 -0.6672  1.0293 -0.2295
 5026SOL     OW26710   3.094   3.855   4.017 -0.0558  0.1788  0.3280
 5026SOL    HW126711   3.124   3.766   4.039 -1.5182  0.0029  1.5588
 5026SOL    HW226712   3.134   3.861   3.930  2.3796 -1.2324  1.3270
 5027SOL     OW26713   3.506   0.993   1.542 -0.2892 -0.2021 -0.0688
 5027SOL    HW126714   3.571   0.959   1.604  0.3085 -0.4343 -0.8293
 5027SOL    HW226715   3.463   1.065   1.588 -1.3704  0.0573 -1.4992
 5028SOL     OW26716   2.206   3.358   5.537  0.6378  0.0132 -0.0574
 5028SOL    HW126717   2.274   3.342   5.603  0.7233 -1.5354 -0.5161
 5028SOL    HW226718   2.198   3.272   5.495  1.2804  0.2304 -0.6346
 5029SOL     OW26719   1.657   4.407   7.438  0.4656  0.0403  0.1238
 5029SOL    HW126720   1.570   4.387   7.403  0.5782 -0.6611  0.2575
 5029SOL    HW226721   1.686   4.488   7.396 -0.1659  0.1185 -0.1687
 5030SOL     OW26722   2.604   4.673  12.206  0.0261 -0.7753 -0.3389
 5030SOL    HW126723   2.634   4.663  12.296  0.3862 -0.1984 -0.3950
 5030SOL    HW226724   2.604   4.579  12.185 -1.5631 -1.0279  0.8538
 5031SOL     OW26725   4.312   0.255   4.410  0.1422 -0.1248  0.0212
 5031SOL    HW126726   4.377   0.234   4.477 -1.8335 -0.8150  1.7060
 5031SOL    HW226727   4.361   0.317   4.356 -1.8523  0.6815 -0.8437
 5032SOL     OW26728   1.790   2.541   7.959  0.0052  0.4361 -0.7701
 5032SOL    HW126729   1.717   2.590   7.921 -1.5158 -0.5253  0.9432
 5032SOL    HW226730   1.837   2.614   7.999 -0.4289  0.2659  0.0325
 5033SOL     OW26731   0.249   0.481   7.686 -0.5620  0.0080  0.6226
 5033SOL    HW126732   0.251   0.455   7.778  0.2084 -1.9733  0.0405
 5033SOL    HW226733   0.184   0.551   7.683 -0.6366 -0.1127 -0.5157
 5034SOL     OW26734   3.662   0.426   7.704 -0.4405  0.3619 -0.8070
 5034SOL    HW126735   3.703   0.407   7.788  0.7773 -0.3366 -1.5626
 5034SOL    HW226736   3.726   0.481   7.658  0.7931  0.5997  1.2208
 5035SOL     OW26737   1.916   2.483   1.544 -0.1402 -0.1361  0.1559
 5035SOL    HW126738   1.890   2.529   1.624 -0.0284 -0.5531  0.4349
 5035SOL    HW226739   1.970   2.412   1.580 -0.4878  0.0835  1.1202
 5036SOL     OW26740   3.791   4.385   3.537  0.2711  0.1261 -0.4594
 5036SOL    HW126741   3.764   4.368   3.628  1.3862 -1.6802 -0.4685
 5036SOL    HW226742   3.773   4.479   3.530  0.8382  0.0250 -3.1847
 5037SOL     OW26743   0.154   1.596   6.184 -0.5366 -0.7015  0.1472
 5037SOL    HW126744   0.225   1.557   6.134 -1.7199  1.9455 -3.5838
 5037SOL    HW226745   0.177   1.688   6.180 -0.7581 -0.6647 -0.2397
 5038SOL     OW26746   3.640   1.734  16.432  0.2985 -0.4583 -0.0077
 5038SOL    HW126747   3.732   1.741  16.454  0.8590 -1.8068 -1.8658
 5038SOL    HW226748   3.659   1.721  16.339  3.3386  0.7107  0.4583
 5039SOL     OW26749   2.496   4.443  12.713 -0.3769  0.7373 -0.1313
 5039SOL    HW126750   2.558   4.435  12.785 -0.0378 -0.4237 -0.5476
 5039SOL    HW226751   2.415   4.428  12.763  0.5975  2.3087  1.9035
 5040SOL     OW26752   3.208   1.137   7.488 -0.6348  0.1244 -0.0608
 5040SOL    HW126753   3.288   1.140   7.436 -0.1864  1.5918  0.7031
 5040SOL    HW226754   3.226   1.060   7.542  0.6112  1.9814  2.1637
 5041SOL     OW26755   3.687   2.781  10.555 -0.1565  0.3665  0.2094
 5041SOL    HW126756   3.685   2.783  10.651  0.8595 -1.9701  0.2741
 5041SOL    HW226757   3.641   2.858  10.522  1.3819  0.7364 -1.0390
 5042SOL     OW26758   2.577   0.498  11.448  0.1479 -0.0224  0.5091
 5042SOL    HW126759   2.615   0.429  11.392 -1.7088  0.0762 -0.8929
 5042SOL    HW226760   2.656   0.528  11.492  0.1806 -1.1942  1.2471
 5043SOL     OW26761   2.012   4.514   9.327 -0.2262 -0.0362 -0.2211
 5043SOL    HW126762   1.992   4.593   9.276 -5.7211 -1.2497  0.0264
 5043SOL    HW226763   2.104   4.532   9.346 -0.2938 -0.6406  0.6595
 5044SOL     OW26764   1.154   2.616   3.029 -0.2958  0.3812  0.2620
 5044SOL    HW126765   1.162   2.558   3.105  0.3733  0.3096  0.1393
 5044SOL    HW226766   1.241   2.614   2.989 -0.8666  2.7523 -1.1042
 5045SOL     OW26767   2.512   4.558   5.124  0.0045  0.0669  0.4642
 5045SOL    HW126768   2.417   4.556   5.134  0.0035 -0.5498  0.3334
 5045SOL    HW226769   2.517   4.473   5.080  1.3534 -0.3069  1.3308
 5046SOL     OW26770   2.159   0.019  10.955  0.0632 -0.2461 -0.1656
 5046SOL    HW126771   2.154   0.107  10.990  0.4167  0.5103 -2.0363
 5046SOL    HW226772   2.237   4.722  11.003  0.3672  1.2519  0.2392
 5047SOL     OW26773   0.367   3.323   9.139  0.4826 -0.0272  0.8521
 5047SOL    HW126774   0.395   3.413   9.120  0.2029 -0.0761  0.1974
 5047SOL    HW226775   0.370   3.323   9.235 -0.9574  1.9473  0.9025
 5048SOL     OW26776   4.225   0.508  16.637 -0.1942 -0.1035 -0.2889
 5048SOL    HW126777   4.183   0.584  16.678  0.2990 -0.3179  0.6188
 5048SOL    HW226778   4.316   0.536  16.626 -0.0468 -0.2233  0.5742
 5049SOL     OW26779   1.879   4.050  10.616  0.0927 -0.1942 -0.0055
 5049SOL    HW126780   1.825   3.974  10.595  3.1652 -1.8243 -1.9230
 5049SOL    HW226781   1.951   4.000  10.653  0.1928 -0.3148 -0.3605
 5050SOL     OW26782   4.694   3.661  17.543  0.2232  0.3082 -0.1922
 5050SOL    HW126783   4.611   3.706  17.528 -0.4446 -1.1417 -0.9094
 5050SOL    HW226784   0.020   3.720  17.498  0.0012  0.6925  0.0175
 5051SOL     OW26785   4.697   4.379   9.183 -0.4761  0.5640  0.0853
 5051SOL    HW126786   4.656   4.464   9.200 -0.3965  0.4696  0.7544
 5051SOL    HW226787   4.716   4.384   9.090 -0.6825  1.4723  0.0894
 5052SOL     OW26788   2.465   0.473   2.574  0.4992 -0.0909 -0.2032
 5052SOL    HW126789   2.389   0.417   2.555  1.6630 -1.6699 -0.2310
 5052SOL    HW226790   2.438   0.513   2.656  2.4496 -1.8424  1.2851
 5053SOL     OW26791   0.100   4.143   6.896  0.7571  0.6709  0.2137
 5053SOL    HW126792   0.076   4.137   6.804  0.1204  1.4723  0.3323
 5053SOL    HW226793   0.072   4.058   6.929 -1.2724  0.0665 -3.0848
 5054SOL     OW26794   4.711   2.005   0.035 -0.6496  0.0142 -0.1582
 5054SOL    HW126795   4.649   1.934   0.016  1.0931 -1.7294  0.6426
 5054SOL    HW226796   4.662   2.042   0.108 -0.6852  0.6922 -0.5224
 5055SOL     OW26797   0.619   0.445   4.013 -0.2237  0.2128 -0.1668
 5055SOL    HW126798   0.539   0.482   4.050 -0.1082 -0.8873  1.1537
 5055SOL    HW226799   0.661   0.529   3.994  2.1774 -0.8249  0.5748
 5056SOL     OW26800   3.087   2.389   3.935  0.9124  0.0138 -0.3697
 5056SOL    HW126801   3.027   2.430   3.998 -2.6175 -2.6359 -2.0294
 5056SOL    HW226802   3.055   2.407   3.847 -0.6668 -0.4634  0.1064
 5057SOL     OW26803   3.927   3.257   5.722  0.1659  0.1457 -0.2018
 5057SOL    HW126804   3.889   3.205   5.792 -2.4000  3.2364  0.7330
 5057SOL    HW226805   4.011   3.288   5.755  0.1580  0.5280 -0.5307
 5058SOL     OW26806   4.276   3.926  16.051  0.0087  0.3311 -0.3815
 5058SOL    HW126807   4.295   4.019  16.064  1.5288  0.2669 -2.2738
 5058SOL    HW226808   4.339   3.884  16.111 -0.8043  0.9913  0.9251
 5059SOL     OW26809   4.415   3.945   0.765 -0.5130  0.4396  0.1830
 5059SOL    HW126810   4.504   3.913   0.755  0.3479  2.1469  2.3487
 5059SOL    HW226811   4.354   3.901   0.706 -0.0841 -2.0543  1.5897
 5060SOL     OW26812   4.082   3.545   0.527 -0.2227  0.2906 -0.0423
 5060SOL    HW126813   4.100   3.590   0.444 -0.1581 -1.2234 -0.8568
 5060SOL    HW226814   4.134   3.467   0.504 -0.9435 -0.8648  2.3300
 5061SOL     OW26815   4.444   4.356  13.501  0.2376 -0.4495  0.0088
 5061SOL    HW126816   4.452   4.270  13.542  1.3273  0.3163  1.4194
 5061SOL    HW226817   4.474   4.345  13.410  2.3183  0.6096  0.5557
 5062SOL     OW26818   1.009   1.007   9.831 -0.4257 -0.2209 -0.2162
 5062SOL    HW126819   1.094   1.005   9.787  0.0792 -1.2292  0.7877
 5062SOL    HW226820   0.967   0.939   9.778  0.4211 -0.0218 -1.1441
 5063SOL     OW26821   3.806   1.916   8.489  0.1206  0.0527  0.1617
 5063SOL    HW126822   3.731   1.857   8.493  1.4976 -1.7714 -1.1139
 5063SOL    HW226823   3.876   1.852   8.496  0.7048  0.6518 -0.1188
 5064SOL     OW26824   0.979   2.171   6.824  0.3970 -0.7843  0.3115
 5064SOL    HW126825   1.025   2.255   6.833 -2.6877  0.9175  0.1386
 5064SOL    HW226826   1.043   2.114   6.866  1.0731 -0.2880 -0.0302
 5065SOL     OW26827   4.429   2.291  11.759  0.1008  0.1435  0.6240
 5065SOL    HW126828   4.383   2.374  11.768  0.0899  0.4712 -2.3536
 5065SOL    HW226829   4.490   2.320  11.691  0.6852 -3.0858 -0.2323
 5066SOL     OW26830   4.323   3.236  15.239  0.0337  0.4749 -0.0220
 5066SOL    HW126831   4.253   3.286  15.197 -0.9462 -1.9132 -1.2442
 5066SOL    HW226832   4.352   3.194  15.158 -1.7662  1.2394 -1.0594
 5067SOL     OW26833   3.476   1.486   1.091 -0.0018  0.6165  0.6877
 5067SOL    HW126834   3.389   1.462   1.058  0.1365  1.6988 -0.4960
 5067SOL    HW226835   3.515   1.502   1.005 -1.4830  0.3134 -0.0427
 5068SOL     OW26836   2.372   1.416   6.156 -0.2146  0.4819 -0.4195
 5068SOL    HW126837   2.463   1.385   6.161 -0.2735  0.3124 -0.3928
 5068SOL    HW226838   2.331   1.341   6.198 -1.5895  0.2812 -2.1212
 5069SOL     OW26839   0.343   3.395   0.491  0.1681 -0.0055  0.7599
 5069SOL    HW126840   0.263   3.389   0.544  1.5297 -1.4365  2.6052
 5069SOL    HW226841   0.382   3.476   0.524 -0.6505  1.0474 -0.8136
 5070SOL     OW26842   0.691   2.195   1.084 -0.3473 -0.5981  0.4135
 5070SOL    HW126843   0.736   2.237   1.011  0.5375  0.7772  1.7345
 5070SOL    HW226844   0.752   2.122   1.072  0.9715  0.6945 -0.7114
 5071SOL     OW26845   0.101   3.165  10.451 -0.0864 -0.4838  0.1458
 5071SOL    HW126846   0.013   3.136  10.428 -1.2743  1.9259  1.6274
 5071SOL    HW226847   0.099   3.172  10.547  0.0026 -4.1411  0.4278
 5072SOL     OW26848   1.497   4.217   4.098  0.0871  0.0490  0.1302
 5072SOL    HW126849   1.528   4.127   4.106  1.4832  0.4493 -0.7387
 5072SOL    HW226850   1.414   4.208   4.145 -0.4700 -0.8339 -1.0086
 5073SOL     OW26851   4.257   0.905  15.218 -0.7686 -0.0466  0.3317
 5073SOL    HW126852   4.248   0.996  15.193  1.2334 -0.0338 -0.2968
 5073SOL    HW226853   4.350   0.911  15.240 -0.6442 -2.6684  0.5266
 5074SOL     OW26854   1.069   3.898   3.524  0.5576  0.0571 -0.3365
 5074SOL    HW126855   1.098   3.863   3.609 -1.1771  1.8016  0.9526
 5074SOL    HW226856   1.151   3.934   3.491 -0.1642  2.4088  0.4636
 5075SOL     OW26857   1.921   1.004   4.724  0.0698  0.3049  0.4938
 5075SOL    HW126858   1.934   0.927   4.779  1.3500  0.2432  0.0850
 5075SOL    HW226859   1.827   1.004   4.705 -0.0372  1.0938  1.0422
 5076SOL     OW26860   3.138   4.102   7.858  0.0837 -0.4807  0.0462
 5076SOL    HW126861   3.132   4.041   7.932 -0.0979 -2.0026 -1.2276
 5076SOL    HW226862   3.145   4.042   7.783 -0.0231 -1.7476  1.0412
 5077SOL     OW26863   0.171   2.950  17.053 -0.1465 -0.2407  0.0356
 5077SOL    HW126864   0.178   2.860  17.086  3.3949  0.1374  0.2360
 5077SOL    HW226865   0.076   2.962  17.043  0.1455 -0.2141 -2.7508
 5078SOL     OW26866   0.244   3.045   5.386 -0.6223  0.4927 -0.2504
 5078SOL    HW126867   0.291   3.103   5.445  1.0490 -0.2013 -0.9001
 5078SOL    HW226868   0.160   3.029   5.431 -0.3945  0.7336  0.2607
 5079SOL     OW26869   3.094   0.957   2.152 -0.2617 -0.2136  0.5806
 5079SOL    HW126870   3.010   0.995   2.178 -0.3706  0.5837 -0.9450
 5079SOL    HW226871   3.066   0.947   2.061 -3.8190 -0.6175  1.7077
 5080SOL     OW26872   0.663   1.689  15.079  0.5088  0.6393  1.0327
 5080SOL    HW126873   0.732   1.649  15.026 -0.3641 -0.3250  0.6208
 5080SOL    HW226874   0.607   1.612  15.093  0.2294  0.6970  0.2104
 5081SOL     OW26875   0.066   2.647   2.905 -0.6077 -0.0291  0.2419
 5081SOL    HW126876   4.715   2.686   2.880 -1.1260 -2.1395 -1.4072
 5081SOL    HW226877   0.121   2.664   2.828 -0.3050  1.1675  0.7291
 5082SOL     OW26878   0.439   2.687   8.753 -0.2459 -0.5589  0.2010
 5082SOL    HW126879   0.533   2.709   8.756 -0.4205  0.0651  1.0331
 5082SOL    HW226880   0.434   2.626   8.679  1.3069 -1.4147  0.8024
 5083SOL     OW26881   4.212   4.027   0.913  0.7806  0.5183  0.7888
 5083SOL    HW126882   4.305   4.029   0.889 -0.0564  4.2330 -2.3388
 5083SOL    HW226883   4.210   3.934   0.934  2.6161  0.0209 -1.2342
 5084SOL     OW26884   2.430   1.986  13.894 -0.0771  0.4983 -1.0393
 5084SOL    HW126885   2.519   1.969  13.864  0.6986  0.7272  1.0918
 5084SOL    HW226886   2.386   1.982  13.810  0.3991  1.5150 -1.3470
 5085SOL     OW26887   1.363   3.341   5.542 -0.0561 -0.2500 -0.5986
 5085SOL    HW126888   1.308   3.286   5.486 -0.9502  1.5828 -1.5266
 5085SOL    HW226889   1.292   3.384   5.589 -0.0913 -0.3301 -0.5782
 5086SOL     OW26890   2.982   1.616  11.119 -0.2971 -0.1031  0.3764
 5086SOL    HW126891   3.076   1.611  11.101 -0.5790 -0.5467 -0.9463
 5086SOL    HW226892   2.987   1.590  11.211  0.0433  0.2130  0.4483
 5087SOL     OW26893   1.478   1.411  12.108  0.2685 -0.4216 -0.2856
 5087SOL    HW126894   1.467   1.468  12.184  0.0196  0.0707 -0.6926
 5087SOL    HW226895   1.572   1.418  12.097  0.4969 -0.7059  1.4612
 5088SOL     OW26896   0.502   4.011   4.127  0.5015 -0.0320 -0.1563
 5088SOL    HW126897   0.540   3.923   4.128 -0.5717 -0.4900 -0.5922
 5088SOL    HW226898   0.481   4.025   4.220 -1.2682  0.2436 -0.6115
 5089SOL     OW26899   1.447   0.387   3.769 -0.3773 -0.7886 -0.6163
 5089SOL    HW126900   1.443   0.303   3.723 -0.2406 -1.1863  0.0884
 5089SOL    HW226901   1.529   0.359   3.810 -1.7465 -1.9036  1.3522
 5090SOL     OW26902   3.627   1.746   7.659 -0.0287  0.0553  0.0277
 5090SOL    HW126903   3.582   1.715   7.737 -1.2964 -0.8003 -1.0388
 5090SOL    HW226904   3.681   1.821   7.684  1.1322 -0.3659 -1.1721
 5091SOL     OW26905   0.935   0.390   7.588  0.0439  0.1854 -0.3415
 5091SOL    HW126906   1.004   0.341   7.543 -1.8847 -1.5022 -1.4495
 5091SOL    HW226907   0.857   0.366   7.538  1.0983 -0.0487 -1.8900
 5092SOL     OW26908   1.035   2.721   2.510  0.6301 -0.0144 -0.4075
 5092SOL    HW126909   1.093   2.716   2.587 -2.2585 -1.6883  1.6389
 5092SOL    HW226910   1.043   2.632   2.477 -0.8959  0.2498 -1.4455
 5093SOL     OW26911   1.526   0.852   5.508  0.8010  0.6318  0.4779
 5093SOL    HW126912   1.491   0.919   5.449 -0.7457 -1.0124 -0.4979
 5093SOL    HW226913   1.604   0.821   5.462  0.1846  1.8548 -1.4126
 5094SOL     OW26914   3.056   3.498   6.722  0.2242  0.1686 -0.3662
 5094SOL    HW126915   3.065   3.414   6.676 -2.0893 -0.2656 -0.0579
 5094SOL    HW226916   3.145   3.504   6.755  1.3000 -1.2312 -3.0098
 5095SOL     OW26917   1.513   0.094  15.450 -0.1872  0.1808 -0.1657
 5095SOL    HW126918   1.495   0.003  15.472  0.3903  0.5158  1.7005
 5095SOL    HW226919   1.575   0.086  15.377 -0.2621  0.3804 -0.2492
 5096SOL     OW26920   4.039   2.544   2.689  0.9766  0.6244  0.6407
 5096SOL    HW126921   4.037   2.626   2.739 -0.2089 -0.5546  2.5021
 5096SOL    HW226922   3.953   2.505   2.705  1.1925  0.1550  0.6313
 5097SOL     OW26923   3.121   3.551  10.498  0.0460 -0.0642 -0.1857
 5097SOL    HW126924   3.070   3.513  10.569  0.6345 -1.3568 -0.4620
 5097SOL    HW226925   3.194   3.581  10.553 -0.2351  1.0820 -0.4308
 5098SOL     OW26926   1.238   4.189   3.082  0.1524  0.2682 -0.3926
 5098SOL    HW126927   1.315   4.162   3.031 -0.3541  0.8292 -1.4662
 5098SOL    HW226928   1.230   4.108   3.132  1.3241 -0.7146 -1.7718
 5099SOL     OW26929   4.606   0.292   4.686  0.0647  0.1486  1.0073
 5099SOL    HW126930   4.562   0.352   4.746 -3.7390  0.4473 -2.0566
 5099SOL    HW226931   4.696   0.325   4.692  0.9492 -1.8668 -1.1713
 5100SOL     OW26932   0.795   0.683   8.462 -0.3096  0.4906 -0.5615
 5100SOL    HW126933   0.731   0.631   8.413  2.4512 -1.4963 -2.1015
 5100SOL    HW226934   0.740   0.756   8.490  0.4676  0.6038  0.6529
 5101SOL     OW26935   1.567   3.448   6.803 -0.2954  0.3174 -0.2891
 5101SOL    HW126936   1.635   3.407   6.857  0.1015 -0.9497 -1.7476
 5101SOL    HW226937   1.509   3.371   6.795 -2.2011  1.6695  0.5950
 5102SOL     OW26938   3.101   2.126   4.117  0.5526 -0.0314  0.0985
 5102SOL    HW126939   3.133   2.213   4.091  0.5348 -0.2531 -0.6665
 5102SOL    HW226940   3.090   2.133   4.212 -3.2334 -0.6568 -0.2894
 5103SOL     OW26941   3.345   1.097  16.838  0.3223 -0.2529  0.0966
 5103SOL    HW126942   3.402   1.169  16.811 -1.0985  0.7569 -0.2227
 5103SOL    HW226943   3.325   1.120  16.929  0.9435  0.5117  0.0344
 5104SOL     OW26944   2.933   1.109   5.539 -0.0880  0.5036  0.2730
 5104SOL    HW126945   2.838   1.105   5.539 -0.0295 -1.2822  0.1566
 5104SOL    HW226946   2.934   1.046   5.612  0.7153  1.0133  0.7073
 5105SOL     OW26947   0.530   2.971  15.061 -0.0252  0.4085 -0.5571
 5105SOL    HW126948   0.544   2.906  14.992  0.4195 -0.4629  0.3713
 5105SOL    HW226949   0.607   2.977  15.117  0.9995  2.8802 -2.1852
 5106SOL     OW26950   1.959   4.340   6.264 -0.3600 -0.0600 -0.0312
 5106SOL    HW126951   2.027   4.312   6.324  0.3158  2.7288  0.4792
 5106SOL    HW226952   1.957   4.429   6.298 -0.7467 -0.3720  0.7512
 5107SOL     OW26953   4.073   1.574   8.344 -0.5969  0.5531  0.1264
 5107SOL    HW126954   4.037   1.492   8.311 -2.5777  0.7062  1.8658
 5107SOL    HW226955   4.165   1.550   8.358 -1.6450 -2.0168  2.6499
 5108SOL     OW26956   0.204   3.188  16.781  0.4030  0.1104 -0.5644
 5108SOL    HW126957   0.168   3.146  16.703 -0.9065  0.8266 -0.3456
 5108SOL    HW226958   0.218   3.265  16.727 -1.5788  1.2558  0.5892
 5109SOL     OW26959   2.896   3.827  10.966 -0.6438 -0.0412 -0.0625
 5109SOL    HW126960   2.938   3.888  10.905 -2.1652 -0.0682 -1.1203
 5109SOL    HW226961   2.843   3.772  10.908 -0.5240  0.0012 -0.2139
 5110SOL     OW26962   4.585   1.298  16.578  0.4375 -0.1453 -0.3095
 5110SOL    HW126963   4.590   1.251  16.495 -0.4269  1.5090 -1.3000
 5110SOL    HW226964   4.495   1.293  16.611  1.0637 -1.7803  1.1299
 5111SOL     OW26965   2.796   3.560   3.530  0.1616 -0.2075 -0.0867
 5111SOL    HW126966   2.789   3.525   3.619  1.7143 -1.7739 -0.5875
 5111SOL    HW226967   2.716   3.523   3.492 -0.1136 -2.3925  2.6034
 5112SOL     OW26968   0.438   1.104   4.022  0.0088 -0.4023  0.8951
 5112SOL    HW126969   0.434   1.026   4.078  0.0038 -2.4932 -1.9967
 5112SOL    HW226970   0.432   1.062   3.936  0.0797 -0.9418  1.1538
 5113SOL     OW26971   1.250   2.547   4.488 -0.0574 -0.2996  0.2315
 5113SOL    HW126972   1.303   2.509   4.418 -1.4886 -0.9115 -0.5176
 5113SOL    HW226973   1.241   2.634   4.449 -0.6492  0.0436  1.1514
 5114SOL     OW26974   3.351   4.639   3.516 -0.2396 -0.2126  0.6243
 5114SOL    HW126975   3.345   4.580   3.441 -1.0198 -0.6709  1.0481
 5114SOL    HW226976   3.270   4.620   3.564 -1.0529  1.6245  0.0126
 5115SOL     OW26977   2.344   4.721   3.119 -0.0500 -0.5151 -0.1241
 5115SOL    HW126978   2.327   0.006   3.026 -1.5427 -1.4506 -0.0325
 5115SOL    HW226979   2.264   4.691   3.162 -0.1066 -0.3183 -0.0912
 5116SOL     OW26980   2.261   0.269   3.022 -0.3102 -0.1480  0.0085
 5116SOL    HW126981   2.333   0.235   2.969 -1.7715 -1.9862 -0.7968
 5116SOL    HW226982   2.305   0.288   3.105 -0.3811  0.8075 -0.1749
 5117SOL     OW26983   2.964   3.070   3.284 -0.0081  0.4748 -0.3842
 5117SOL    HW126984   2.935   3.114   3.364 -0.1593  0.7368 -0.5814
 5117SOL    HW226985   2.976   2.980   3.312  2.7662  1.7950  2.6038
 5118SOL     OW26986   1.493   1.974   0.186  0.3294  0.2928 -0.1892
 5118SOL    HW126987   1.585   1.962   0.163 -0.1765 -1.8777 -1.1068
 5118SOL    HW226988   1.484   2.069   0.184 -2.0182  0.1090  3.1621
 5119SOL     OW26989   1.345   2.527   7.558 -0.2142 -0.4289 -0.1392
 5119SOL    HW126990   1.334   2.432   7.560  2.2907 -0.7111  1.5077
 5119SOL    HW226991   1.331   2.559   7.648  0.7568  0.9945 -0.4916
 5120SOL     OW26992   2.028   0.349   6.102 -0.3835 -0.2797 -0.1795
 5120SOL    HW126993   2.023   0.348   6.007  2.6525 -0.0298 -0.3250
 5120SOL    HW226994   2.088   0.422   6.115  0.1159 -0.6313 -0.5365
 5121SOL     OW26995   1.161   0.687   2.725 -0.1447  0.1027  0.5479
 5121SOL    HW126996   1.146   0.749   2.653  0.9639  0.2239  0.4209
 5121SOL    HW226997   1.254   0.668   2.711 -0.2752 -0.3827  0.3192
 5122SOL     OW26998   0.783   3.782   2.708 -0.0803  0.1171 -0.2644
 5122SOL    HW126999   0.803   3.868   2.671 -0.3662  0.1752 -0.2877
 5122SOL    HW227000   0.871   3.745   2.701 -1.2431 -2.3320 -1.7090
 5123SOL     OW27001   0.306   0.184   6.633  0.0986  0.3357 -0.0357
 5123SOL    HW127002   0.250   0.106   6.631  0.2322  0.2078  1.2328
 5123SOL    HW227003   0.249   0.240   6.580 -1.6241 -0.2072  1.2490
 5124SOL     OW27004   3.147   2.220   1.940 -0.1008 -0.3188  0.3400
 5124SOL    HW127005   3.095   2.160   1.886  0.9446  0.7914 -1.8717
 5124SOL    HW227006   3.233   2.214   1.899  0.7128  0.4767  1.9152
 5125SOL     OW27007   3.102   4.287   2.065 -0.3310 -0.2810  0.0223
 5125SOL    HW127008   3.041   4.243   2.124  1.8318 -1.1375  1.6303
 5125SOL    HW227009   3.074   4.248   1.983 -1.3570  1.7082 -0.5870
 5126SOL     OW27010   3.954   1.767  13.182 -0.7295 -0.2302 -0.0263
 5126SOL    HW127011   3.892   1.773  13.110  0.8647 -0.0706 -1.3761
 5126SOL    HW227012   4.022   1.818  13.137 -0.5342 -1.2153 -0.8433
 5127SOL     OW27013   2.075   1.056   9.350 -0.3187 -0.4326 -0.0411
 5127SOL    HW127014   2.139   1.051   9.279 -2.2263  0.8403 -1.8855
 5127SOL    HW227015   2.059   0.966   9.379  1.4287 -0.5820  0.4731
 5128SOL     OW27016   3.087   1.611   8.843 -0.1257  0.6867  0.3989
 5128SOL    HW127017   3.088   1.544   8.910 -1.6479 -1.5470 -1.8117
 5128SOL    HW227018   3.144   1.675   8.887  0.8249  1.1796 -1.5515
 5129SOL     OW27019   4.552   0.342   9.223  0.2770  0.1711 -0.0836
 5129SOL    HW127020   4.646   0.327   9.235 -0.0618  0.7908  3.4021
 5129SOL    HW227021   4.547   0.438   9.218  0.1880  0.2138  0.8050
 5130SOL     OW27022   1.141   1.554   3.010  0.1037  1.4362  0.0582
 5130SOL    HW127023   1.213   1.617   3.014 -0.5918  1.9561  4.3131
 5130SOL    HW227024   1.089   1.582   2.935 -0.0434  0.9463 -0.0230
 5131SOL     OW27025   1.074   1.945   5.271  0.2198 -0.1000 -0.5709
 5131SOL    HW127026   0.994   1.991   5.244 -0.2807 -0.2578  0.6744
 5131SOL    HW227027   1.137   2.002   5.228 -1.0366  0.3517 -1.8435
 5132SOL     OW27028   3.674   2.093   0.431 -0.1296 -0.2712 -0.1199
 5132SOL    HW127029   3.600   2.117   0.486  1.0720 -1.2253  1.9259
 5132SOL    HW227030   3.727   2.045   0.495  3.2211  1.0958 -1.8881
 5133SOL     OW27031   3.548   0.437   5.470  0.1819 -0.5619  0.1237
 5133SOL    HW127032   3.512   0.502   5.530  2.3410  1.3186 -0.5922
 5133SOL    HW227033   3.516   0.353   5.502 -0.5723 -1.2628 -2.4944
 5134SOL     OW27034   1.092   3.231   3.969 -0.1097 -0.0968  0.0656
 5134SOL    HW127035   1.053   3.300   3.915 -0.9230  0.0822  0.9009
 5134SOL    HW227036   1.165   3.199   3.915 -1.0976 -2.4065  0.1023
 5135SOL     OW27037   0.168   4.152  16.926  0.2575  0.0171 -0.0737
 5135SOL    HW127038   0.168   4.089  16.853 -0.8382  1.4654 -1.3208
 5135SOL    HW227039   0.245   4.203  16.900 -0.3851  0.0882 -1.8361
 5136SOL     OW27040   3.642   3.872   6.824  0.0011  0.1352 -0.1290
 5136SOL    HW127041   3.697   3.904   6.896 -0.2231 -0.1069  0.1446
 5136SOL    HW227042   3.586   3.949   6.810  1.9311  1.9698  2.2120
 5137SOL     OW27043   3.414   3.533  12.317  0.0742  0.2414 -0.5176
 5137SOL    HW127044   3.333   3.544  12.366  0.5333  1.2432  0.0292
 5137SOL    HW227045   3.406   3.442  12.289 -1.0879 -0.2297  1.3421
 5138SOL     OW27046   4.364   4.348   7.518  0.4688 -0.2819 -0.1907
 5138SOL    HW127047   4.326   4.295   7.587  1.4576  1.4473  1.6856
 5138SOL    HW227048   4.316   4.325   7.439  0.8367  0.0480 -0.5117
 5139SOL     OW27049   0.093   2.379   6.521  0.1866  0.0566 -0.6198
 5139SOL    HW127050   0.141   2.398   6.601  0.8345 -0.4117 -0.8907
 5139SOL    HW227051   0.118   2.287   6.529 -2.2421 -0.4840  0.7621
 5140SOL     OW27052   3.406   3.490   5.241 -0.7404  1.0541  0.0012
 5140SOL    HW127053   3.360   3.406   5.241  1.5704 -0.1908  1.4986
 5140SOL    HW227054   3.383   3.515   5.151 -1.8495  2.8327  0.7827
 5141SOL     OW27055   2.962   0.622   0.970  0.4347 -0.2719 -0.5385
 5141SOL    HW127056   3.014   0.547   0.942 -0.5230 -1.3900  0.6734
 5141SOL    HW227057   2.931   0.655   0.885  3.1045  1.1572 -0.9358
 5142SOL     OW27058   2.891   2.876   8.078 -0.0994  0.5908  0.4176
 5142SOL    HW127059   2.844   2.805   8.122 -0.6488 -0.0869 -1.2562
 5142SOL    HW227060   2.953   2.838   8.015  1.7016  1.3267  1.7568
 5143SOL     OW27061   0.674   1.985   2.778  0.4276 -0.4364  0.4308
 5143SOL    HW127062   0.657   1.997   2.871  2.1386  0.4858  0.6297
 5143SOL    HW227063   0.733   1.911   2.789 -0.6178 -1.2707  0.3891
 5144SOL     OW27064   1.490   2.736   4.318  0.2507  0.3196  0.3104
 5144SOL    HW127065   1.533   2.651   4.311  2.0884  1.1858  0.9360
 5144SOL    HW227066   1.461   2.755   4.229  1.7348  0.1737 -0.2005
 5145SOL     OW27067   1.420   1.847   4.312 -0.0696 -0.0255  0.3720
 5145SOL    HW127068   1.325   1.857   4.310 -0.1740 -0.9338  0.7353
 5145SOL    HW227069   1.450   1.934   4.338  3.1236 -0.7558 -0.8614
 5146SOL     OW27070   2.473   2.030  16.016  0.6292  0.6351  0.9564
 5146SOL    HW127071   2.566   2.038  16.040  0.9357  1.6555 -0.5352
 5146SOL    HW227072   2.473   2.036  15.920 -2.6872 -1.4802  0.8434
 5147SOL     OW27073   2.445   4.692   0.275  0.3859  0.4419 -0.5664
 5147SOL    HW127074   2.358   4.714   0.242 -1.3179 -4.1923  0.8780
 5147SOL    HW227075   2.489   0.042   0.253  0.4965  0.2198 -1.1798
 5148SOL     OW27076   3.419   2.424   6.625  0.0922 -0.3695  0.2897
 5148SOL    HW127077   3.476   2.501   6.624 -0.2178 -0.1460  0.0259
 5148SOL    HW227078   3.412   2.404   6.718  1.2319 -0.7947  0.2797
 5149SOL     OW27079   0.209   0.634   0.643 -0.0210  0.4394 -0.4053
 5149SOL    HW127080   0.156   0.669   0.714  0.0901 -0.6256  0.2002
 5149SOL    HW227081   0.174   0.684   0.569 -0.0569  0.8269 -0.1265
 5150SOL     OW27082   2.487   2.402   3.583  0.0070 -0.4078 -0.1957
 5150SOL    HW127083   2.537   2.322   3.567  0.6236 -0.0867  0.1241
 5150SOL    HW227084   2.554   2.467   3.561 -0.8705 -0.4546 -2.8983
 5151SOL     OW27085   4.602   3.031   8.469  0.4477  0.6614  0.5408
 5151SOL    HW127086   4.681   2.976   8.470  1.5142  2.2114  2.5646
 5151SOL    HW227087   4.569   3.009   8.556 -0.4202 -0.2215 -0.0165
 5152SOL     OW27088   0.850   0.213   9.191 -0.0707 -0.6581 -0.5201
 5152SOL    HW127089   0.781   0.200   9.126  0.4252 -1.1914 -0.9376
 5152SOL    HW227090   0.915   0.243   9.128  1.2230  0.0453  1.1526
 5153SOL     OW27091   0.086   1.468  12.086  0.2041 -0.0336  0.2559
 5153SOL    HW127092   0.036   1.420  12.152 -0.1028 -0.3939 -0.2471
 5153SOL    HW227093   0.110   1.404  12.019 -0.6882 -0.7373  0.6136
 5154SOL     OW27094   4.202   3.057  17.068  0.0725  0.2413 -0.2440
 5154SOL    HW127095   4.240   3.090  16.987 -0.2813  0.3105 -0.3833
 5154SOL    HW227096   4.126   3.114  17.081 -0.1771 -0.8594  2.9873
 5155SOL     OW27097   3.383   3.399   3.839 -0.3414  0.0742  0.5030
 5155SOL    HW127098   3.372   3.336   3.910 -0.3936 -0.7946 -0.2674
 5155SOL    HW227099   3.296   3.432   3.818 -1.2108 -1.6578  1.4487
 5156SOL     OW27100   1.968   0.010   2.663  0.1400  0.0926 -0.1521
 5156SOL    HW127101   1.881   4.714   2.692  0.7110 -2.2313 -0.6948
 5156SOL    HW227102   1.982   0.095   2.704 -0.5743  1.5556 -2.9550
 5157SOL     OW27103   1.142   0.831   7.901  0.3535  0.3326  0.0958
 5157SOL    HW127104   1.086   0.760   7.932 -0.3042  0.5880 -0.4941
 5157SOL    HW227105   1.119   0.829   7.808 -0.4160 -1.6393  0.3289
 5158SOL     OW27106   2.011   1.188   5.083 -0.1243 -0.6122 -0.2451
 5158SOL    HW127107   1.932   1.177   5.135 -0.5922 -1.4823 -1.1338
 5158SOL    HW227108   2.069   1.122   5.120  0.9545  1.0307  0.9700
 5159SOL     OW27109   0.258   2.766  16.037 -0.3706  0.0852  0.5412
 5159SOL    HW127110   0.282   2.820  16.112  4.0247  0.0874 -0.8797
 5159SOL    HW227111   0.296   2.685  16.072 -2.0936 -0.4683  1.1402
 5160SOL     OW27112   2.752   0.419   5.939 -0.3354 -0.2609  0.5554
 5160SOL    HW127113   2.698   0.416   6.018 -0.2216  1.5989  0.6952
 5160SOL    HW227114   2.834   0.443   5.981 -0.8806  0.3843  1.2429
 5161SOL     OW27115   1.244   1.684   7.953 -0.8594  0.1576  0.5409
 5161SOL    HW127116   1.171   1.636   7.915  0.9097 -1.2700 -1.0813
 5161SOL    HW227117   1.240   1.768   7.908 -0.1886 -1.1261 -1.9022
 5162SOL     OW27118   3.228   2.286   6.113  0.4324 -0.2927  0.3532
 5162SOL    HW127119   3.300   2.350   6.108 -0.9151  1.2226  0.3933
 5162SOL    HW227120   3.153   2.341   6.092  0.9466 -0.0393 -0.8742
 5163SOL     OW27121   0.685   4.627   3.138  0.4527 -0.5755 -0.0789
 5163SOL    HW127122   0.737   4.679   3.199  0.7327 -0.9227 -0.0223
 5163SOL    HW227123   0.724   4.541   3.151  1.5459  0.0928  1.0789
 5164SOL     OW27124   0.213   2.755   1.831 -0.0139  0.0057 -0.1800
 5164SOL    HW127125   0.270   2.813   1.781 -0.0097  1.7726  1.8918
 5164SOL    HW227126   0.128   2.776   1.792  0.7856  1.6008 -1.0450
 5165SOL     OW27127   1.482   1.610   3.488 -0.1251  0.4403 -0.2403
 5165SOL    HW127128   1.548   1.557   3.532  1.1025 -0.3134 -2.9726
 5165SOL    HW227129   1.429   1.541   3.447 -1.0540  2.1344 -1.9109
 5166SOL     OW27130   4.390   4.187   5.234 -0.1447  0.2672 -0.0882
 5166SOL    HW127131   4.361   4.192   5.325  0.5208  0.9147  0.0848
 5166SOL    HW227132   4.322   4.231   5.184 -1.9638 -0.9754  1.2638
 5167SOL     OW27133   4.376   4.081   5.826 -0.9280  0.1169  0.2450
 5167SOL    HW127134   4.306   4.036   5.778 -1.0191  0.4851  0.0324
 5167SOL    HW227135   4.442   4.044   5.768  0.1504  3.3657 -0.6108
 5168SOL     OW27136   2.323   3.338   8.682 -0.0173 -0.4995 -0.3916
 5168SOL    HW127137   2.385   3.377   8.744  0.7999 -0.7266 -1.0563
 5168SOL    HW227138   2.363   3.343   8.595 -1.4939  2.2632 -0.9245
 5169SOL     OW27139   0.271   2.697   9.360 -0.2860  0.1772  0.0051
 5169SOL    HW127140   0.265   2.610   9.400  0.9188  0.0500 -0.0956
 5169SOL    HW227141   0.355   2.689   9.316  1.1771  0.1424  2.8063
 5170SOL     OW27142   4.403   2.173   3.381 -0.2865 -0.0318 -0.5462
 5170SOL    HW127143   4.317   2.207   3.359  1.0062  2.5229 -1.6008
 5170SOL    HW227144   4.423   2.228   3.457 -0.5400  1.5175 -1.6112
 5171SOL     OW27145   3.304   2.478   7.358 -0.4372  0.5836  0.4741
 5171SOL    HW127146   3.257   2.531   7.422  0.5439  1.6254  0.3218
 5171SOL    HW227147   3.392   2.475   7.396 -0.6526  0.5322  0.9761
 5172SOL     OW27148   0.530   1.031  13.711 -0.0216 -0.1529  0.4689
 5172SOL    HW127149   0.514   1.001  13.622  2.4716  0.0005 -0.0120
 5172SOL    HW227150   0.564   1.120  13.696 -4.1489  1.3762  0.0510
 5173SOL     OW27151   4.627   0.178   5.553  0.0641 -0.4858  0.2230
 5173SOL    HW127152   4.540   0.219   5.556 -0.4824 -1.6150 -0.3178
 5173SOL    HW227153   4.681   0.254   5.531 -0.9275  0.6592  1.7469
 5174SOL     OW27154   1.463   1.433   5.479  0.8333  0.2189  0.1517
 5174SOL    HW127155   1.389   1.372   5.488  2.2379 -1.3306  1.0850
 5174SOL    HW227156   1.537   1.383   5.512  0.8583 -0.1054 -0.3978
 5175SOL     OW27157   4.371   0.231   8.558  0.0366  0.3083 -0.9900
 5175SOL    HW127158   4.441   0.286   8.524 -0.4981  0.9873 -0.9928
 5175SOL    HW227159   4.425   0.159   8.590 -0.6351  0.1102 -0.2977
 5176SOL     OW27160   0.236   1.034   6.536 -0.3782  0.1928 -0.2110
 5176SOL    HW127161   0.328   1.052   6.556 -0.0901 -0.9711 -0.4936
 5176SOL    HW227162   0.191   1.116   6.556 -2.2408 -0.9070  0.0765
 5177SOL     OW27163   3.794   1.330  13.211  0.1035 -0.2813 -0.1275
 5177SOL    HW127164   3.707   1.290  13.208 -0.5804  1.1534  0.6226
 5177SOL    HW227165   3.855   1.255  13.210 -0.0303 -0.3932  0.1077
 5178SOL     OW27166   1.928   4.228   2.849  0.0210 -0.1406 -0.1848
 5178SOL    HW127167   1.857   4.264   2.902  1.6210  0.6532  1.3985
 5178SOL    HW227168   1.894   4.242   2.761 -0.5629  1.0900  0.2313
 5179SOL     OW27169   2.930   2.434  11.004  0.3064  0.2535 -0.5121
 5179SOL    HW127170   2.944   2.341  10.987  1.0301  0.4541 -0.9878
 5179SOL    HW227171   2.891   2.457  10.919 -0.0336  0.5195 -0.2824
 5180SOL     OW27172   4.043   2.746  11.944  0.0334 -0.3183 -0.7867
 5180SOL    HW127173   4.080   2.827  11.909 -0.2733  0.5429  0.9091
 5180SOL    HW227174   4.030   2.699  11.861 -1.0684 -0.7190 -0.3907
 5181SOL     OW27175   4.469   2.816  12.083 -0.2988 -0.0560 -0.2134
 5181SOL    HW127176   4.462   2.899  12.035  0.2486 -0.3546 -0.8079
 5181SOL    HW227177   4.534   2.771  12.029  0.8384  2.7373 -1.1638
 5182SOL     OW27178   4.512   0.835   3.797 -0.0701 -0.3794  0.2405
 5182SOL    HW127179   4.512   0.872   3.885 -0.3148  0.2182 -0.0116
 5182SOL    HW227180   4.426   0.794   3.807 -0.6735  0.8838  0.2315
 5183SOL     OW27181   0.493   0.557   3.739  0.6560 -0.0641 -0.1521
 5183SOL    HW127182   0.585   0.556   3.713  1.0440  0.2145  1.2283
 5183SOL    HW227183   0.495   0.539   3.833 -1.0227 -2.8530 -0.6354
 5184SOL     OW27184   3.102   0.113   1.135 -0.4678  0.0211  0.2371
 5184SOL    HW127185   3.182   0.155   1.104 -0.7726 -1.5307 -2.6352
 5184SOL    HW227186   3.130   0.101   1.226  0.4860  2.1959  0.2237
 5185SOL     OW27187   0.971   2.348   5.568 -0.4538  0.3734  0.2800
 5185SOL    HW127188   0.992   2.437   5.595  1.3373 -0.0756  0.3867
 5185SOL    HW227189   1.035   2.317   5.504 -1.8055 -2.1224  0.1219
 5186SOL     OW27190   2.829   1.928   5.459 -1.2784  0.2058  0.5354
 5186SOL    HW127191   2.906   1.964   5.414 -2.0651  1.7023  0.3830
 5186SOL    HW227192   2.840   1.837   5.431  0.4273  1.0390 -1.5463
 5187SOL     OW27193   0.582   1.750   6.179  0.1941  0.4176  0.0143
 5187SOL    HW127194   0.569   1.665   6.221  1.9437  0.2777  0.2703
 5187SOL    HW227195   0.658   1.738   6.122  2.0003  1.3918  2.2054
 5188SOL     OW27196   0.098   3.435  15.959 -0.3179 -0.5295  0.2071
 5188SOL    HW127197   0.078   3.493  16.032  1.6175 -1.8003  1.7550
 5188SOL    HW227198   0.150   3.486  15.897 -2.1283  1.2469  0.1349
 5189SOL     OW27199   2.590   1.330   6.564 -0.0975 -0.0823  0.2241
 5189SOL    HW127200   2.597   1.422   6.588  1.8062 -0.0074 -0.6130
 5189SOL    HW227201   2.500   1.320   6.532  0.1394 -0.3631 -0.3554
 5190SOL     OW27202   2.206   4.450   7.494 -0.4662 -0.2042  0.1010
 5190SOL    HW127203   2.207   4.519   7.429  2.9877  0.5741  0.9708
 5190SOL    HW227204   2.114   4.425   7.487  0.1258 -2.3749 -0.1749
 5191SOL     OW27205   2.142   3.657  11.251 -0.0263 -0.1084  0.0618
 5191SOL    HW127206   2.111   3.692  11.334  0.6983  1.7284 -0.4524
 5191SOL    HW227207   2.062   3.605  11.239  0.5712 -0.9381 -0.3499
 5192SOL     OW27208   0.165   3.084   6.040 -0.2095 -0.8528 -0.3351
 5192SOL    HW127209   0.120   3.168   6.031  0.1640 -0.5418  0.6434
 5192SOL    HW227210   0.245   3.111   5.995  0.7013 -0.4036  1.5169
 5193SOL     OW27211   4.101   3.598   8.203 -0.3725 -0.1667 -0.7883
 5193SOL    HW127212   4.019   3.553   8.224  0.6590 -1.6745  0.1375
 5193SOL    HW227213   4.162   3.538   8.248 -0.9719 -2.7569 -3.4580
 5194SOL     OW27214   0.213   4.156   9.754 -0.1986 -0.3606 -0.2200
 5194SOL    HW127215   0.174   4.097   9.819 -1.4865 -0.5357 -1.1588
 5194SOL    HW227216   0.285   4.195   9.804 -1.3938  2.2749 -0.5718
 5195SOL     OW27217   1.113   2.757   4.846 -0.2316  0.3409  0.5779
 5195SOL    HW127218   1.077   2.800   4.769 -2.9026  0.0474  1.6632
 5195SOL    HW227219   1.165   2.691   4.800 -0.5828  0.2890  0.2497
 5196SOL     OW27220   2.073   1.466   7.027  0.3423  0.5301  0.5266
 5196SOL    HW127221   2.162   1.444   7.054  0.3918  0.1436  0.0361
 5196SOL    HW227222   2.046   1.522   7.100  3.9084  1.6151  1.0041
 5197SOL     OW27223   4.069   0.940  13.735  0.4051  0.4023  0.3054
 5197SOL    HW127224   4.115   1.020  13.760 -0.3259  0.5771  1.0818
 5197SOL    HW227225   4.060   0.892  13.817 -2.1034  0.4016  0.0281
 5198SOL     OW27226   4.305   1.916   8.560 -0.6451 -0.1271 -0.1269
 5198SOL    HW127227   4.353   1.908   8.477  0.4451 -0.3269  0.5234
 5198SOL    HW227228   4.265   2.003   8.554 -2.0796 -0.7961 -0.1858
 5199SOL     OW27229   0.938   0.170   2.089  0.1274 -0.0172 -0.8908
 5199SOL    HW127230   0.938   0.095   2.029  1.8624 -0.0178 -0.8943
 5199SOL    HW227231   0.966   0.236   2.026 -1.7379  2.2012  0.6032
 5200SOL     OW27232   1.364   1.313  17.487  0.9485 -0.3567  0.6050
 5200SOL    HW127233   1.426   1.370  17.533  1.3782 -1.7070  1.6856
 5200SOL    HW227234   1.306   1.379  17.449 -0.0849 -1.9300 -0.5520
 5201SOL     OW27235   1.826   2.531   3.712  0.1216 -0.0226 -0.1668
 5201SOL    HW127236   1.817   2.490   3.798 -1.8004  0.3993 -0.1601
 5201SOL    HW227237   1.738   2.512   3.679  0.2151 -0.5267 -0.1272
 5202SOL     OW27238   2.745   3.855   0.361  0.3296  0.3374  0.4860
 5202SOL    HW127239   2.774   3.764   0.369  0.2205  0.2893  0.3475
 5202SOL    HW227240   2.650   3.845   0.373  0.9169 -2.4037  2.8340
 5203SOL     OW27241   3.248   1.522   3.041  0.0991  0.1695 -0.0584
 5203SOL    HW127242   3.338   1.547   3.063 -0.8026  4.1704 -0.7838
 5203SOL    HW227243   3.207   1.567   3.116  1.1131 -0.6746  0.9889
 5204SOL     OW27244   1.358   0.371  17.214 -0.4311  0.8106 -0.1587
 5204SOL    HW127245   1.444   0.372  17.171 -0.0887 -1.3562  0.5101
 5204SOL    HW227246   1.338   0.278  17.216 -1.8783  1.1127 -0.7519
 5205SOL     OW27247   0.937   0.277   4.072  0.1283  0.4583  0.6555
 5205SOL    HW127248   0.992   0.218   4.124  0.8901  0.3397 -0.2831
 5205SOL    HW227249   0.952   0.245   3.983 -0.4651  2.0509 -0.0141
 5206SOL     OW27250   0.720   2.552   6.713 -0.2119 -0.2601  0.5974
 5206SOL    HW127251   0.656   2.618   6.738 -1.0802 -1.1773  0.7896
 5206SOL    HW227252   0.676   2.469   6.731  0.1836 -0.0656  2.4268
 5207SOL     OW27253   2.705   2.161   6.013  0.3023 -0.0355  0.3908
 5207SOL    HW127254   2.656   2.220   5.956  0.0724 -2.7517 -2.2595
 5207SOL    HW227255   2.632   2.112   6.053 -0.3406  0.9174  0.3797
 5208SOL     OW27256   3.328   0.512   5.292 -0.0312 -0.6484  0.0797
 5208SOL    HW127257   3.325   0.467   5.207  1.1884  0.7362 -0.6809
 5208SOL    HW227258   3.387   0.455   5.341  0.3248 -1.2457 -1.0505
 5209SOL     OW27259   4.007   1.479   3.193  0.2660 -0.2411 -0.2089
 5209SOL    HW127260   4.043   1.491   3.105  1.3698  0.4062  0.3177
 5209SOL    HW227261   4.089   1.483   3.244 -0.2374 -0.4661  0.6190
 5210SOL     OW27262   2.551   0.117  15.775 -0.5925  0.1777  0.2758
 5210SOL    HW127263   2.553   0.172  15.853 -1.4386  0.0019  0.4212
 5210SOL    HW227264   2.481   0.146  15.716 -1.1304 -0.2863  0.6766
 5211SOL     OW27265   0.413   4.555   7.398  0.2078  0.6153 -0.3043
 5211SOL    HW127266   0.500   4.591   7.378 -0.0386 -1.3951 -5.1042
 5211SOL    HW227267   0.434   4.463   7.412 -0.2434  0.9559  2.6211
 5212SOL     OW27268   1.237   0.179  13.638  0.1349  0.0999 -0.8052
 5212SOL    HW127269   1.227   0.157  13.545  1.9731  1.0881 -1.2484
 5212SOL    HW227270   1.196   0.099  13.668 -0.6902  0.4765 -0.9353
 5213SOL     OW27271   4.480   2.543   0.067 -0.5204 -0.6034  0.4020
 5213SOL    HW127272   4.510   2.526  17.707 -3.0034 -0.8587 -0.3824
 5213SOL    HW227273   4.521   2.627   0.084 -3.7849  1.1461 -0.2214
 5214SOL     OW27274   3.302   3.981  12.429 -0.1663  0.5365 -0.2250
 5214SOL    HW127275   3.264   3.952  12.512  1.6076  1.1103  0.7890
 5214SOL    HW227276   3.393   4.004  12.451  0.2078  0.9448 -2.2679
 5215SOL     OW27277   2.929   0.683   5.901  0.5922  0.3830 -0.3599
 5215SOL    HW127278   2.989   0.747   5.938  1.1746  0.5694 -1.6268
 5215SOL    HW227279   2.943   0.611   5.963 -1.3363  3.2461  3.3591
 5216SOL     OW27280   2.990   2.072   3.861  0.1767 -0.5032  0.3123
 5216SOL    HW127281   3.042   2.049   3.938 -1.0987 -0.0687  1.2991
 5216SOL    HW227282   2.920   2.128   3.896  1.1994  1.1732 -0.3105
 5217SOL     OW27283   1.570   0.169   6.748  0.0258 -0.3775  0.8180
 5217SOL    HW127284   1.613   0.251   6.773 -1.4226  2.1746 -4.9695
 5217SOL    HW227285   1.479   0.179   6.775 -1.0224 -2.1348 -2.0567
 5218SOL     OW27286   1.926   4.617   8.600  0.1200 -0.4505 -0.5522
 5218SOL    HW127287   1.978   4.685   8.643  0.4756 -1.1047  0.0444
 5218SOL    HW227288   1.869   4.676   8.551  1.2586  0.2364 -1.0631
 5219SOL     OW27289   3.234   2.365   0.188 -0.1448 -0.2309  0.1625
 5219SOL    HW127290   3.304   2.430   0.184  1.5334 -1.8999  2.5245
 5219SOL    HW227291   3.174   2.400   0.254  1.4661  0.3390  1.3333
 5220SOL     OW27292   3.525   2.513  13.972  0.4559  0.3059  0.1262
 5220SOL    HW127293   3.476   2.431  13.973  1.3777 -0.2414  0.7627
 5220SOL    HW227294   3.468   2.578  13.931 -2.7560 -1.9688  1.0014
 5221SOL     OW27295   0.943   4.110   8.093  0.7279 -0.3052 -0.3693
 5221SOL    HW127296   0.943   4.024   8.052  0.9694 -0.9300  0.9561
 5221SOL    HW227297   0.854   4.119   8.125  1.0615  1.2740  0.1357
 5222SOL     OW27298   2.884   0.905   7.726 -0.5145  0.2596 -0.1365
 5222SOL    HW127299   2.959   0.859   7.765  0.9590  1.3764 -1.6118
 5222SOL    HW227300   2.939   0.975   7.688  0.8645 -0.7213  0.0451
 5223SOL     OW27301   2.958   1.471   4.805  0.0875 -0.0768 -0.7713
 5223SOL    HW127302   2.964   1.567   4.804 -0.0616 -0.0652 -0.6088
 5223SOL    HW227303   2.981   1.440   4.893 -0.4031 -1.2336 -1.0543
 5224SOL     OW27304   1.306   4.036   2.236 -0.6303  0.4217 -0.3014
 5224SOL    HW127305   1.216   4.014   2.213  0.4577 -1.5500 -2.8122
 5224SOL    HW227306   1.291   4.128   2.256  0.9662  0.5961  0.1267
 5225SOL     OW27307   4.421   2.276   6.616 -0.4945 -0.3872 -0.0009
 5225SOL    HW127308   4.439   2.188   6.584  1.6529 -0.1373  0.5140
 5225SOL    HW227309   4.446   2.331   6.542  1.0337  2.1996  2.4408
 5226SOL     OW27310   2.691   4.448   5.694 -0.4763 -0.5224 -0.5677
 5226SOL    HW127311   2.746   4.374   5.718 -0.3025 -0.5042 -0.9186
 5226SOL    HW227312   2.665   4.475   5.782  1.3214 -0.3053 -0.1062
 5227SOL     OW27313   4.395   3.071  15.635  0.0453  0.1793  0.0002
 5227SOL    HW127314   4.488   3.058  15.654 -0.0669  1.4326  1.4247
 5227SOL    HW227315   4.373   2.990  15.590  1.6501 -1.6285  2.4554
 5228SOL     OW27316   2.774   2.833   7.022  0.3555 -0.0110  0.2579
 5228SOL    HW127317   2.812   2.756   6.979  0.6624  0.4335 -0.2636
 5228SOL    HW227318   2.791   2.807   7.112  1.0247  0.7490  0.3503
 5229SOL     OW27319   3.286   0.010   6.327 -0.1635  0.5292 -0.2360
 5229SOL    HW127320   3.234   4.710   6.254  1.6386 -2.4692 -0.1835
 5229SOL    HW227321   3.219   0.048   6.384  0.4717  0.4708  0.5570
 5230SOL     OW27322   4.727   1.667  10.509 -0.2626 -0.2221  0.2105
 5230SOL    HW127323   4.673   1.654  10.587  0.3887  0.6350  0.8067
 5230SOL    HW227324   0.027   1.578  10.496  1.6517  0.5112 -0.0223
 5231SOL     OW27325   4.424   3.111  14.999 -0.7629 -0.3302 -0.1745
 5231SOL    HW127326   4.513   3.144  14.983 -1.4469  0.8528 -1.4764
 5231SOL    HW227327   4.417   3.035  14.943 -0.6824 -2.5778  2.8496
 5232SOL     OW27328   1.624   0.927   4.993  0.0302 -0.1785  0.3935
 5232SOL    HW127329   1.717   0.904   4.992 -0.0943 -0.5935 -1.7432
 5232SOL    HW227330   1.623   0.967   4.906 -2.7474 -0.3738  0.3361
 5233SOL     OW27331   1.135   0.246   7.259 -0.6630 -0.0443  0.3650
 5233SOL    HW127332   1.113   0.339   7.261 -1.0965 -0.1495  0.4229
 5233SOL    HW227333   1.230   0.246   7.273 -0.5235  1.0944 -0.5845
 5234SOL     OW27334   4.194   4.287   2.486 -0.2101 -0.3780 -0.2169
 5234SOL    HW127335   4.179   4.381   2.485 -0.8495 -0.4576  1.6953
 5234SOL    HW227336   4.174   4.273   2.579  0.3325 -0.3298 -0.0949
 5235SOL     OW27337   2.269   3.928  13.546  0.2216 -0.5522  0.0353
 5235SOL    HW127338   2.285   3.977  13.627  0.2337 -1.2381  0.4441
 5235SOL    HW227339   2.213   3.994  13.504  1.2500 -0.2577 -0.8930
 5236SOL     OW27340   3.634   4.024   8.732  0.7097 -0.1959  0.5901
 5236SOL    HW127341   3.602   4.114   8.742 -0.1503 -0.3308 -0.8996
 5236SOL    HW227342   3.693   4.045   8.659 -1.2337  0.1764 -0.8793
 5237SOL     OW27343   1.610   0.111   5.544 -0.8397  0.5489  0.2310
 5237SOL    HW127344   1.588   0.057   5.620 -1.6418 -0.3705 -0.6578
 5237SOL    HW227345   1.582   0.199   5.569 -2.6959  0.9722 -3.3586
 5238SOL     OW27346   4.308   4.188   2.258  0.0008  0.4332  0.0538
 5238SOL    HW127347   4.396   4.190   2.297  0.6183 -0.7563 -1.2858
 5238SOL    HW227348   4.258   4.202   2.339 -0.9971 -1.0744 -0.3161
 5239SOL     OW27349   2.885   1.965  12.548  0.5077  0.6867  0.1088
 5239SOL    HW127350   2.884   1.959  12.644 -0.8257  3.1100  0.2493
 5239SOL    HW227351   2.912   2.057  12.544 -0.4170  0.9804  0.6513
 5240SOL     OW27352   1.001   0.872   1.164  0.0453 -0.4988  0.0362
 5240SOL    HW127353   0.965   0.940   1.221 -0.2867  0.4872 -1.3485
 5240SOL    HW227354   0.934   0.873   1.095 -0.2156  0.9479  0.3153
 5241SOL     OW27355   2.346   1.561   2.655 -0.8890 -0.3744  0.3067
 5241SOL    HW127356   2.400   1.486   2.681 -0.3882  0.4491  1.6554
 5241SOL    HW227357   2.411   1.609   2.605 -1.4408 -0.2565 -0.2980
 5242SOL     OW27358   4.666   1.949  13.560  0.5847  0.0936  0.3209
 5242SOL    HW127359   4.620   1.923  13.639 -0.9766  1.5361 -0.1128
 5242SOL    HW227360   4.671   2.044  13.561 -0.0667  0.1547 -1.5957
 5243SOL     OW27361   0.259   2.248   5.418 -0.1219  0.5626  0.7006
 5243SOL    HW127362   0.351   2.275   5.415  0.2062 -0.5290  0.7350
 5243SOL    HW227363   0.217   2.260   5.332  0.5786 -0.1113  0.2664
 5244SOL     OW27364   4.088   2.965   4.151  0.0656 -0.0226 -0.0058
 5244SOL    HW127365   4.121   2.879   4.176 -0.2208 -0.7280 -1.9921
 5244SOL    HW227366   4.043   2.991   4.231 -1.6515 -3.1961  0.0516
 5245SOL     OW27367   1.051   1.559  14.303 -0.3369 -0.4792  0.4905
 5245SOL    HW127368   1.110   1.486  14.284 -2.0895 -1.7667 -0.0322
 5245SOL    HW227369   1.115   1.626  14.326 -1.4577  1.2984 -1.6100
 5246SOL     OW27370   0.170   1.762   8.810 -0.6643  0.3538  0.1109
 5246SOL    HW127371   0.113   1.837   8.794 -4.4079 -2.2158  1.3905
 5246SOL    HW227372   0.253   1.809   8.799 -1.5169  1.8436  0.1668
 5247SOL     OW27373   0.392   4.436   8.430  0.1319  0.2121 -0.4058
 5247SOL    HW127374   0.400   4.410   8.338  1.4997 -3.9264  0.8727
 5247SOL    HW227375   0.300   4.448   8.454 -0.3762 -0.3540 -2.0690
 5248SOL     OW27376   1.090   1.386   6.881  0.2999  0.4647 -0.4339
 5248SOL    HW127377   1.122   1.420   6.797  0.3213 -1.4776 -1.2000
 5248SOL    HW227378   1.078   1.468   6.929  0.0144  0.6573 -0.8391
 5249SOL     OW27379   4.471   2.488   9.226 -0.4525  0.7730  0.2327
 5249SOL    HW127380   4.530   2.551   9.185  0.6657 -0.9962 -0.8971
 5249SOL    HW227381   4.455   2.526   9.312 -1.3574 -2.8728  1.6567
 5250SOL     OW27382   0.676   2.009  10.032 -0.8796 -0.1516  0.1268
 5250SOL    HW127383   0.673   2.006  10.128 -0.0233 -0.7166  0.1332
 5250SOL    HW227384   0.734   2.082  10.011  0.8644 -1.9231 -1.2014
 5251SOL     OW27385   4.385   3.790   4.395 -0.3190  0.4454 -0.4894
 5251SOL    HW127386   4.417   3.779   4.306 -2.5670  2.6647 -1.5505
 5251SOL    HW227387   4.298   3.826   4.377 -1.9651 -3.7353 -0.9684
 5252SOL     OW27388   4.050   1.503   5.650  0.3594 -0.0817  0.7618
 5252SOL    HW127389   3.996   1.425   5.661 -1.9008  1.4238  0.3071
 5252SOL    HW227390   4.005   1.531   5.570 -0.2500  0.5368  1.3172
 5253SOL     OW27391   3.839   4.278   6.323 -0.2528  0.5012 -0.4007
 5253SOL    HW127392   3.855   4.221   6.248 -1.0086 -0.5467  0.2398
 5253SOL    HW227393   3.864   4.364   6.289  1.0559  1.0498  1.9965
 5254SOL     OW27394   3.364   2.126   3.262 -0.4531 -0.0721 -0.3671
 5254SOL    HW127395   3.425   2.198   3.279 -1.5283  1.0318 -1.1304
 5254SOL    HW227396   3.415   2.089   3.190 -0.7572 -1.8939  0.3676
 5255SOL     OW27397   3.190   2.448   5.630 -0.1195 -0.0980  0.4886
 5255SOL    HW127398   3.099   2.420   5.641 -0.1934 -0.5923 -1.5713
 5255SOL    HW227399   3.231   2.389   5.694 -1.5741  1.8009  3.2091
 5256SOL     OW27400   3.628   2.230   4.816  0.2391 -0.1227 -0.2093
 5256SOL    HW127401   3.712   2.276   4.822 -0.6568  1.3721  0.6807
 5256SOL    HW227402   3.566   2.288   4.771 -0.0905 -0.7231 -0.5274
 5257SOL     OW27403   2.202   4.278   9.105 -0.4626  0.0187 -0.6597
 5257SOL    HW127404   2.190   4.207   9.041 -1.0397 -0.8406  0.4095
 5257SOL    HW227405   2.133   4.343   9.095 -0.1945  0.4218  0.0787
 5258SOL     OW27406   4.139   3.899  11.564  0.5143 -0.5081 -0.1302
 5258SOL    HW127407   4.201   3.887  11.635  0.4747 -2.4539 -0.4382
 5258SOL    HW227408   4.202   3.912  11.492  1.9776 -1.6829  0.9350
 5259SOL     OW27409   1.964   3.988   7.230 -0.4482  0.1647 -0.4063
 5259SOL    HW127410   1.897   4.055   7.243  1.0025  1.0848  2.2709
 5259SOL    HW227411   1.940   3.954   7.144 -0.7364 -1.0925  0.1743
 5260SOL     OW27412   2.385   4.663  11.093  0.2221  0.6161  0.1602
 5260SOL    HW127413   2.453   4.724  11.123  1.5888 -0.2462 -1.1949
 5260SOL    HW227414   2.427   4.581  11.119  0.4090  1.3823  2.2457
 5261SOL     OW27415   1.977   3.737   7.332 -0.3579  0.7467 -0.2879
 5261SOL    HW127416   1.906   3.779   7.380 -1.2460  1.5170 -2.2551
 5261SOL    HW227417   2.010   3.819   7.294 -0.0477  1.4364  1.4426
 5262SOL     OW27418   4.373   4.302   3.930 -0.6082 -0.1896 -0.1128
 5262SOL    HW127419   4.347   4.317   3.839  1.1124 -1.1753 -0.7791
 5262SOL    HW227420   4.383   4.207   3.926 -3.1420 -0.4481 -0.2453
 5263SOL     OW27421   0.500   1.800  14.907 -0.0390  0.3727  0.4050
 5263SOL    HW127422   0.581   1.831  14.866  0.9822 -1.0002  1.3551
 5263SOL    HW227423   0.531   1.757  14.987  1.1110 -1.4700 -1.0125
 5264SOL     OW27424   1.722   4.387   7.688 -0.0312 -0.2181  0.3185
 5264SOL    HW127425   1.642   4.410   7.734  0.3991 -1.3178  1.6392
 5264SOL    HW227426   1.689   4.385   7.598  0.1880 -2.9774  0.2793
 5265SOL     OW27427   4.058   4.656   5.474  0.6221 -0.2209 -0.5700
 5265SOL    HW127428   3.970   4.633   5.503 -0.0353  1.4132 -1.2866
 5265SOL    HW227429   4.104   4.704   5.543 -2.0697 -1.3339  2.0008
 5266SOL     OW27430   0.371   0.522  11.533 -0.3297 -0.5786 -0.1390
 5266SOL    HW127431   0.461   0.498  11.555  0.0845  0.2541 -0.9461
 5266SOL    HW227432   0.314   0.462  11.581  3.0403 -3.3166  0.4559
 5267SOL     OW27433   3.158   1.571  13.628  0.3883  0.7890 -0.1272
 5267SOL    HW127434   3.222   1.503  13.605 -0.0487  0.5476 -0.6417
 5267SOL    HW227435   3.075   1.529  13.605  0.0879  1.9769 -1.2216
 5268SOL     OW27436   1.426   3.909   4.727  0.3411  0.7657 -0.3340
 5268SOL    HW127437   1.426   3.994   4.684 -0.8694  0.2970 -1.2405
 5268SOL    HW227438   1.456   3.945   4.811  1.4144 -0.8817  0.0037
 5269SOL     OW27439   1.152   4.368  17.473 -0.0078  0.0106  0.2814
 5269SOL    HW127440   1.067   4.338  17.440  0.1443  0.9402 -0.9385
 5269SOL    HW227441   1.158   4.463  17.465 -1.2049  0.0453 -0.2412
 5270SOL     OW27442   3.357   0.453   8.137  0.0502  0.0260  0.3495
 5270SOL    HW127443   3.418   0.413   8.075 -0.6690  1.7819 -1.5168
 5270SOL    HW227444   3.417   0.485   8.204 -0.0815 -0.1940  0.5725
 5271SOL     OW27445   4.523   1.052  11.774 -0.3122 -0.0691  0.1814
 5271SOL    HW127446   4.572   1.132  11.757 -1.6771  0.8673  0.6565
 5271SOL    HW227447   4.585   0.982  11.753 -1.0265 -0.6141 -0.1304
 5272SOL     OW27448   2.392   1.921   9.433 -0.1839 -0.0223  0.2895
 5272SOL    HW127449   2.419   1.914   9.342 -3.2407 -1.8494 -0.5012
 5272SOL    HW227450   2.393   1.830   9.462  0.9766 -0.5037 -1.2519
 5273SOL     OW27451   0.709   2.525   8.446 -0.3296  0.3297  0.5390
 5273SOL    HW127452   0.739   2.611   8.476  0.8496 -0.5463  1.8353
 5273SOL    HW227453   0.748   2.474   8.516 -0.1665 -1.8934 -1.1849
 5274SOL     OW27454   1.058   0.700   8.456 -0.5970 -0.2049  0.1124
 5274SOL    HW127455   1.073   0.784   8.414  0.2030  0.2184  1.2477
 5274SOL    HW227456   0.963   0.701   8.461 -0.7005  0.4222 -1.9701
 5275SOL     OW27457   1.746   0.160   8.698  0.1852  0.2208 -0.2221
 5275SOL    HW127458   1.741   0.254   8.683 -0.7804  0.0837 -0.7490
 5275SOL    HW227459   1.729   0.111   8.618 -3.3635 -1.0398  1.2955
 5276SOL     OW27460   2.427   4.651  14.203  0.2815 -0.1349 -0.2135
 5276SOL    HW127461   2.423   4.606  14.287 -0.8649  2.3168  1.0040
 5276SOL    HW227462   2.474   4.595  14.140  0.2457 -0.2340 -0.1529
 5277SOL     OW27463   0.389   4.481  12.937  0.0363 -0.2917  0.2789
 5277SOL    HW127464   0.478   4.463  12.965  0.2897 -0.8578 -0.9208
 5277SOL    HW227465   0.349   4.402  12.974  1.3233 -2.0538 -2.0881
 5278SOL     OW27466   2.537   0.971  12.244  0.0516  0.5405 -0.4241
 5278SOL    HW127467   2.608   0.957  12.307  0.7106  3.3942 -0.5616
 5278SOL    HW227468   2.580   1.048  12.207 -1.4143  1.9457  0.8112
 5279SOL     OW27469   3.591   3.500   0.861  0.5683  0.4716  0.1514
 5279SOL    HW127470   3.507   3.521   0.819  0.6788  0.4446 -0.0799
 5279SOL    HW227471   3.593   3.404   0.852  0.2286  0.5765 -1.0745
 5280SOL     OW27472   4.515   4.467   4.721 -0.1835  0.5545 -0.1283
 5280SOL    HW127473   4.471   4.512   4.792  0.0046 -0.0349  0.3577
 5280SOL    HW227474   4.583   4.533   4.714  0.9338 -0.9148 -3.3309
 5281SOL     OW27475   4.204   4.651  16.605  0.0183 -0.3315  0.1642
 5281SOL    HW127476   4.228   4.678  16.516  0.6988  0.5803  0.6297
 5281SOL    HW227477   4.110   4.636  16.591  0.0775  1.9330 -2.6611
 5282SOL     OW27478   2.070   3.480   1.992 -0.7287  0.3510 -0.3660
 5282SOL    HW127479   1.989   3.519   2.026 -0.5294 -1.7094  2.5669
 5282SOL    HW227480   2.129   3.555   2.001  0.3807 -0.4076 -1.4269
 5283SOL     OW27481   1.175   3.755   8.514 -0.3701  0.1798  0.2748
 5283SOL    HW127482   1.197   3.847   8.531  0.8215  0.3579 -2.2114
 5283SOL    HW227483   1.161   3.731   8.605  0.2512 -0.2214  0.2619
 5284SOL     OW27484   2.929   2.708   5.996  0.2838  0.5575  0.3066
 5284SOL    HW127485   2.956   2.621   6.027 -0.3931  0.0343 -0.5794
 5284SOL    HW227486   2.980   2.764   6.054 -2.4956  2.5150  0.8302
 5285SOL     OW27487   4.182   0.522   1.779  0.7966 -0.1511 -0.0511
 5285SOL    HW127488   4.090   0.541   1.759  0.3871 -0.8673  1.1715
 5285SOL    HW227489   4.187   0.430   1.803 -1.2594  0.1083  1.3417
 5286SOL     OW27490   2.470   2.133   7.866 -0.2515  0.1271  0.3960
 5286SOL    HW127491   2.462   2.213   7.918 -0.5721 -0.4270  1.2083
 5286SOL    HW227492   2.525   2.164   7.794 -1.8478  1.1546 -0.3829
 5287SOL     OW27493   2.629   0.019   4.923 -0.2250 -0.1556 -0.1968
 5287SOL    HW127494   2.584   4.718   5.001 -0.3011 -2.8569 -1.3884
 5287SOL    HW227495   2.676   4.674   4.893  0.7440  0.3116  0.1233
 5288SOL     OW27496   0.620   1.708   9.019 -0.3713  0.0036  0.4519
 5288SOL    HW127497   0.570   1.724   8.939  0.0842 -1.4945 -0.1354
 5288SOL    HW227498   0.593   1.790   9.061 -1.5263  1.2869 -2.8006
 5289SOL     OW27499   1.303   4.242   1.773 -0.5499  0.7246 -0.0281
 5289SOL    HW127500   1.230   4.302   1.784 -0.3684  1.0450 -0.5471
 5289SOL    HW227501   1.257   4.161   1.752  1.0567  0.1722 -1.4803
 5290SOL     OW27502   0.721   2.807   5.888 -0.1160  0.1079  0.0736
 5290SOL    HW127503   0.707   2.815   5.794  0.3584 -0.1416 -0.0173
 5290SOL    HW227504   0.629   2.810   5.914 -0.4903 -0.3434 -1.2433
 5291SOL     OW27505   1.789   2.551   2.535  0.4250 -0.3616  0.1565
 5291SOL    HW127506   1.706   2.538   2.489 -0.7192  0.5104  2.0196
 5291SOL    HW227507   1.842   2.486   2.488 -0.1716  1.0515 -2.5052
 5292SOL     OW27508   0.872   2.517   7.352 -0.2022 -0.4032  0.1271
 5292SOL    HW127509   0.888   2.611   7.342  0.1653 -0.1887  2.7347
 5292SOL    HW227510   0.951   2.497   7.402  0.7516  1.3389 -0.6898
 5293SOL     OW27511   4.085   0.523   2.554 -0.4817  0.1316 -0.1529
 5293SOL    HW127512   4.063   0.602   2.603  0.3869  0.8608 -0.9335
 5293SOL    HW227513   4.012   0.501   2.497  1.7025  2.1016 -3.7057
 5294SOL     OW27514   0.133   3.051   1.864  0.1219 -0.7338 -0.5109
 5294SOL    HW127515   0.222   3.018   1.876  0.7005  0.9332 -0.2627
 5294SOL    HW227516   0.091   3.023   1.945  0.0517  1.5508  0.2572
 5295SOL     OW27517   2.321   3.363  14.746 -0.2954  0.1009 -0.2283
 5295SOL    HW127518   2.239   3.366  14.794  0.1419 -0.8242  0.5904
 5295SOL    HW227519   2.369   3.298  14.797 -1.5523 -0.3041  0.4280
 5296SOL     OW27520   0.132   2.014  13.205  0.4078  0.4481  0.3263
 5296SOL    HW127521   0.067   2.011  13.134  2.1125  2.7393 -1.3030
 5296SOL    HW227522   0.204   1.976  13.155  0.4129 -0.0932  0.7482
 5297SOL     OW27523   3.111   2.750   6.769 -0.4111  0.0387 -0.4760
 5297SOL    HW127524   3.017   2.743   6.759 -0.7969  1.5020  2.0423
 5297SOL    HW227525   3.136   2.692   6.697  0.5769  0.0658 -0.1645
 5298SOL     OW27526   1.074   3.567   3.327  0.1867  0.4159  0.1008
 5298SOL    HW127527   1.110   3.585   3.414  0.0675 -0.4708  0.3303
 5298SOL    HW227528   0.979   3.577   3.334  0.3244  3.2557 -1.9850
 5299SOL     OW27529   2.452   2.684   7.954 -0.0420 -0.5264 -0.1528
 5299SOL    HW127530   2.532   2.637   7.932 -0.1365 -0.6951 -0.1412
 5299SOL    HW227531   2.491   2.759   7.999  0.4640 -0.8747 -0.0225
 5300SOL     OW27532   3.751   1.753   4.070 -0.4840  0.1773  0.8847
 5300SOL    HW127533   3.771   1.781   3.981 -4.2344 -0.0683 -0.0584
 5300SOL    HW227534   3.655   1.754   4.061 -0.4614 -0.3634  0.6324
 5301SOL     OW27535   0.240   1.272   5.720 -0.5384  0.3995  0.1025
 5301SOL    HW127536   0.262   1.195   5.772  0.6656 -0.7240 -2.0719
 5301SOL    HW227537   0.226   1.235   5.633 -1.7427  0.1909  0.3739
 5302SOL     OW27538   2.975   2.222   7.417 -0.1287 -0.2397  0.2487
 5302SOL    HW127539   2.962   2.144   7.470 -2.8511 -0.4583 -0.7533
 5302SOL    HW227540   2.901   2.213   7.356  0.2643 -0.9550 -0.1141
 5303SOL     OW27541   0.349   0.145   7.745 -0.3690 -0.2985 -0.5187
 5303SOL    HW127542   0.271   0.201   7.740  0.0719  0.3892  0.4545
 5303SOL    HW227543   0.331   0.078   7.679  0.2821 -1.2641  0.2829
 5304SOL     OW27544   0.906   0.793  17.079 -0.0621  0.1097  0.3394
 5304SOL    HW127545   0.923   0.715  17.132  0.9919 -1.6933 -2.6289
 5304SOL    HW227546   0.984   0.842  17.106 -1.1314  1.2725  1.2955
 5305SOL     OW27547   0.157   2.723  15.096  0.0766  0.4598  1.0673
 5305SOL    HW127548   0.236   2.729  15.150  2.2380  0.6530 -2.1022
 5305SOL    HW227549   0.158   2.630  15.073 -0.2024  0.4655  1.0404
 5306SOL     OW27550   0.409   0.409   8.512 -0.1742 -0.0730 -0.1095
 5306SOL    HW127551   0.325   0.437   8.477  0.5375  2.3416  0.1132
 5306SOL    HW227552   0.400   0.316   8.490  0.9834 -0.5278  1.3470
 5307SOL     OW27553   3.822   0.195   2.313  0.2197 -0.8273 -0.5746
 5307SOL    HW127554   3.729   0.174   2.307 -0.6752  2.4746  1.6084
 5307SOL    HW227555   3.819   0.281   2.271  1.5058  0.1926  1.4352
 5308SOL     OW27556   3.099   1.839  16.233 -0.1006  0.0506  0.0979
 5308SOL    HW127557   3.047   1.776  16.183  0.0503 -1.3767  1.7311
 5308SOL    HW227558   3.104   1.915  16.175 -4.9839  1.5181  1.5637
 5309SOL     OW27559   4.456   1.772   7.936 -0.3938  0.3276  0.7585
 5309SOL    HW127560   4.402   1.724   7.874  0.4977  0.0606  0.1930
 5309SOL    HW227561   4.532   1.793   7.881  0.0857 -1.2044  0.8373
 5310SOL     OW27562   3.823   1.787   0.474 -0.2588 -0.3662  0.1360
 5310SOL    HW127563   3.917   1.781   0.464 -0.4535  1.1444 -2.4881
 5310SOL    HW227564   3.816   1.863   0.533 -2.0421 -0.6147  0.2709
 5311SOL     OW27565   0.902   4.670   0.663  0.1156 -0.3311  0.0257
 5311SOL    HW127566   0.891   4.674   0.758  1.6169  0.5524  0.1637
 5311SOL    HW227567   0.989   4.709   0.656 -0.3762  1.0810  2.0054
 5312SOL     OW27568   4.147   2.704   9.554  0.1444  0.3964  0.0504
 5312SOL    HW127569   4.074   2.650   9.584  2.4888 -3.1992 -0.7602
 5312SOL    HW227570   4.213   2.640   9.527 -0.2928 -0.2576  0.5281
 5313SOL     OW27571   3.032   3.511   3.109  0.0999 -0.0447 -0.3496
 5313SOL    HW127572   2.992   3.598   3.106  1.8099  0.7748  1.2410
 5313SOL    HW227573   3.005   3.483   3.197 -0.7071  2.2315  0.1315
 5314SOL     OW27574   1.358   4.343   7.981 -0.3396 -0.4432  0.0615
 5314SOL    HW127575   1.439   4.292   7.983 -0.2396 -0.1103  4.2011
 5314SOL    HW227576   1.307   4.279   8.030 -0.3978  1.4411  2.5017
 5315SOL     OW27577   1.706   0.784   8.622 -0.4853  0.0933  0.4043
 5315SOL    HW127578   1.655   0.725   8.567 -0.9896  1.9660 -1.1534
 5315SOL    HW227579   1.644   0.855   8.639  0.2986  0.4181  1.8721
 5316SOL     OW27580   1.425   3.222   6.897  0.2349 -0.4632  0.2176
 5316SOL    HW127581   1.343   3.267   6.875 -0.4232 -1.3785  0.8107
 5316SOL    HW227582   1.399   3.141   6.941  0.7810 -0.6906  0.1144
 5317SOL     OW27583   2.500   0.717   1.883  0.9206 -0.1160 -0.3894
 5317SOL    HW127584   2.560   0.716   1.809  0.1736 -0.1608 -0.9979
 5317SOL    HW227585   2.548   0.778   1.938 -1.0536  0.9173  0.1768
 5318SOL     OW27586   1.545   0.722   3.303 -0.3016  0.0516 -0.2220
 5318SOL    HW127587   1.583   0.737   3.390  0.8124 -0.6012 -0.5930
 5318SOL    HW227588   1.475   0.659   3.321  0.8885 -0.5445  2.3676
 5319SOL     OW27589   3.946   2.177  10.003  0.7663  0.5925 -0.6190
 5319SOL    HW127590   3.898   2.099  10.033 -0.9638  1.7955 -0.2900
 5319SOL    HW227591   4.030   2.132   9.994  0.4992  0.3547 -1.9226
 5320SOL     OW27592   1.696   4.002   9.501  0.0948  0.1235 -0.2165
 5320SOL    HW127593   1.778   3.960   9.528 -0.6039  0.8429  3.0016
 5320SOL    HW227594   1.654   4.029   9.583 -0.0764  0.6767 -0.4890
 5321SOL     OW27595   4.646   1.669  13.750  0.3583 -0.7689 -0.2232
 5321SOL    HW127596   4.683   1.704  13.669  2.7708  1.2688  1.7390
 5321SOL    HW227597   4.582   1.736  13.774  0.9762  0.3758 -1.8152
 5322SOL     OW27598   1.272   1.055   7.945  0.1406  0.0026  0.2992
 5322SOL    HW127599   1.334   1.040   7.873 -1.7095  1.5248 -1.5892
 5322SOL    HW227600   1.209   0.984   7.938 -1.3827  1.3846  0.1937
 5323SOL     OW27601   4.246   3.395   8.324  0.6688  0.1523 -0.0665
 5323SOL    HW127602   4.332   3.385   8.364  1.6470 -0.5929 -2.3190
 5323SOL    HW227603   4.235   3.315   8.271  2.0512  0.4030 -0.7170
 5324SOL     OW27604   0.313   4.670   2.999  1.1075 -0.5037 -0.0956
 5324SOL    HW127605   0.397   4.652   2.957  0.1337 -0.9082 -1.8319
 5324SOL    HW227606   0.323   0.027   3.032 -1.5249 -0.2883  0.1167
 5325SOL     OW27607   3.495   1.482   2.415  0.2193 -0.5250  0.0478
 5325SOL    HW127608   3.568   1.445   2.466 -0.9269  0.6673  2.5116
 5325SOL    HW227609   3.421   1.437   2.455 -0.5351 -0.6526 -1.4741
 5326SOL     OW27610   2.556   1.129   0.370  0.5247 -0.4153 -0.2666
 5326SOL    HW127611   2.593   1.189   0.435  4.8761 -0.4792 -2.6837
 5326SOL    HW227612   2.470   1.115   0.409  1.5757  0.6234  2.4144
 5327SOL     OW27613   0.405   3.320   4.633  0.2204  0.6091  0.3297
 5327SOL    HW127614   0.481   3.263   4.645  1.4577  2.1776 -0.1560
 5327SOL    HW227615   0.334   3.264   4.665 -1.6641  1.1777 -2.8608
 5328SOL     OW27616   2.769   2.590   2.825 -0.3958 -0.2228 -0.0802
 5328SOL    HW127617   2.752   2.683   2.844 -0.1571  0.3851 -2.9001
 5328SOL    HW227618   2.761   2.546   2.910  2.3199 -1.8684 -0.6890
 5329SOL     OW27619   4.220   0.677   3.541 -0.4736  1.5318  0.2476
 5329SOL    HW127620   4.279   0.622   3.593  0.0367 -0.3656 -2.3719
 5329SOL    HW227621   4.285   0.734   3.502 -0.3096  2.5066  1.9177
 5330SOL     OW27622   4.521   2.149   7.806 -0.7175  0.7369 -0.3539
 5330SOL    HW127623   4.513   2.116   7.896 -2.8025 -0.8561 -1.1307
 5330SOL    HW227624   4.432   2.175   7.782 -0.6094 -0.3434 -1.8782
 5331SOL     OW27625   2.213   4.459   8.486  0.1725 -0.0528 -0.2011
 5331SOL    HW127626   2.184   4.501   8.568  0.4146  1.0081 -0.6658
 5331SOL    HW227627   2.154   4.493   8.419  0.6813 -3.0297 -2.1413
 5332SOL     OW27628   0.295   0.277  15.231  0.6518  0.2532 -0.4221
 5332SOL    HW127629   0.368   0.220  15.252 -0.1400 -1.8256 -3.4462
 5332SOL    HW227630   0.260   0.229  15.156 -1.9550  1.0588  0.2732
 5333SOL     OW27631   1.709   2.569   6.561 -0.0292 -0.0817  0.1402
 5333SOL    HW127632   1.648   2.592   6.631  0.1693 -0.9375  0.5877
 5333SOL    HW227633   1.792   2.570   6.610 -0.6104  1.7575  1.0621
 5334SOL     OW27634   4.689   0.570   4.513 -0.1961  0.2897 -0.2395
 5334SOL    HW127635   4.698   0.482   4.476  0.8965  1.1599 -2.0106
 5334SOL    HW227636   4.600   0.589   4.484  0.2354  1.6598 -0.6459
 5335SOL     OW27637   0.743   3.222   3.685  0.0955 -0.5640  0.6250
 5335SOL    HW127638   0.671   3.186   3.737  0.2197 -1.3970  0.2255
 5335SOL    HW227639   0.687   3.244   3.610  0.4481 -1.3240  0.1468
 5336SOL     OW27640   3.083   1.062   2.602 -0.0028  0.3318 -0.1938
 5336SOL    HW127641   3.168   1.050   2.645  0.2408 -0.6706 -0.9532
 5336SOL    HW227642   3.029   1.011   2.663 -1.4627  0.7044 -1.1872
 5337SOL     OW27643   4.044   2.354   5.966  0.2400 -0.6023 -0.5663
 5337SOL    HW127644   4.048   2.406   5.885 -1.8193  1.2143  0.5210
 5337SOL    HW227645   4.077   2.421   6.025  0.5047 -1.3190  0.1018
 5338SOL     OW27646   3.923   1.080   6.370 -0.0610 -0.1030  0.8057
 5338SOL    HW127647   3.828   1.081   6.373 -0.0637 -3.0855  1.1629
 5338SOL    HW227648   3.951   1.053   6.282  0.8310 -0.4263  1.1858
 5339SOL     OW27649   3.983   0.723   2.946 -0.2456 -0.0263 -0.2749
 5339SOL    HW127650   3.909   0.782   2.961 -0.5848 -0.5887  0.2358
 5339SOL    HW227651   3.999   0.698   3.037  0.4782  0.2282 -0.3303
 5340SOL     OW27652   3.377   0.243  15.961 -0.0318  0.1820 -0.0838
 5340SOL    HW127653   3.418   0.295  15.892 -0.0672  1.3588  0.7856
 5340SOL    HW227654   3.282   0.259  15.958  0.0112  0.2617 -0.9225
 5341SOL     OW27655   4.696   2.519   5.697 -0.4650 -0.0874 -0.5373
 5341SOL    HW127656   0.037   2.458   5.697 -2.3501 -2.3592 -1.3466
 5341SOL    HW227657   4.729   2.608   5.705  0.2008 -0.5525  2.0170
 5342SOL     OW27658   0.704   2.325   8.245 -0.2616 -0.4804 -0.0091
 5342SOL    HW127659   0.744   2.404   8.283 -1.1976 -0.2010  0.3829
 5342SOL    HW227660   0.755   2.250   8.274 -2.1659 -0.7990  2.4810
 5343SOL     OW27661   2.398   0.309   5.472 -0.3445  0.2396  0.7114
 5343SOL    HW127662   2.402   0.215   5.451  0.5120  1.0245 -2.6218
 5343SOL    HW227663   2.468   0.312   5.538  2.2822  0.0076 -2.0682
 5344SOL     OW27664   1.621   4.184   2.472 -0.2668 -0.3042  0.0272
 5344SOL    HW127665   1.636   4.094   2.444  0.6994 -0.3501  0.7162
 5344SOL    HW227666   1.599   4.232   2.392 -0.2001  1.1521  0.8871
 5345SOL     OW27667   0.856   2.394   5.225 -0.0379 -0.4422 -0.1634
 5345SOL    HW127668   0.929   2.449   5.194 -0.9527  0.2990 -1.0170
 5345SOL    HW227669   0.776   2.430   5.186 -0.5873 -0.7015  0.7277
 5346SOL     OW27670   3.892   0.192   8.625  0.2346 -0.5466  0.3444
 5346SOL    HW127671   3.850   0.115   8.664 -2.0411 -0.0883 -1.2078
 5346SOL    HW227672   3.889   0.154   8.537  0.5021  0.3806 -0.0700
 5347SOL     OW27673   1.575   1.358   5.842  0.3712 -0.2310  0.2215
 5347SOL    HW127674   1.666   1.355   5.872 -0.1262 -2.4334  1.5449
 5347SOL    HW227675   1.582   1.321   5.754 -2.0466 -1.6711  0.6235
 5348SOL     OW27676   1.266   4.606  17.408 -0.5851  0.0320  0.9307
 5348SOL    HW127677   1.215   4.686  17.392  1.2734  1.0579  0.1262
 5348SOL    HW227678   1.343   4.626  17.355  0.1094  0.4781  2.1165
 5349SOL     OW27679   2.111   1.320  11.656 -0.1385 -0.6117 -0.3901
 5349SOL    HW127680   2.114   1.240  11.709  0.9140 -1.2764 -1.4383
 5349SOL    HW227681   2.144   1.277  11.576 -0.7447 -0.6432 -0.6210
 5350SOL     OW27682   3.415   4.687   8.995  0.0113  0.4798 -0.1942
 5350SOL    HW127683   3.501   4.646   8.999 -0.0642  0.4531  1.3421
 5350SOL    HW227684   3.352   4.621   8.969 -0.7852  2.1222 -2.3842
 5351SOL     OW27685   1.106   2.481   9.853 -0.3872  0.4454 -0.2764
 5351SOL    HW127686   1.082   2.574   9.858  0.4452  0.7900 -2.9172
 5351SOL    HW227687   1.143   2.474   9.765 -1.1389 -3.2425 -0.2714
 5352SOL     OW27688   4.564   0.527  13.957 -0.3464  0.0017  0.6311
 5352SOL    HW127689   4.652   0.561  13.970 -0.1468  1.3394 -4.1762
 5352SOL    HW227690   4.543   0.538  14.050 -0.5688 -1.7694  0.8034
 5353SOL     OW27691   3.515   0.645   0.821 -0.1099 -0.4409  0.1912
 5353SOL    HW127692   3.508   0.657   0.726  3.2163 -1.2673 -0.1733
 5353SOL    HW227693   3.597   0.691   0.837 -1.6029  1.9593  0.8800
 5354SOL     OW27694   2.628   1.092   4.222 -0.5296  0.5492  0.3899
 5354SOL    HW127695   2.536   1.100   4.199 -0.4078  2.0961  0.4233
 5354SOL    HW227696   2.653   1.185   4.225 -1.7326  0.8508  1.1273
 5355SOL     OW27697   0.398   2.054   9.435  0.8692 -0.1052  0.2098
 5355SOL    HW127698   0.344   2.099   9.371  0.9297  0.5615  0.6314
 5355SOL    HW227699   0.333   2.041   9.505  0.2405  1.6670 -0.0456
 5356SOL     OW27700   4.053   1.340   7.269  0.2851  0.3896 -0.0133
 5356SOL    HW127701   4.087   1.291   7.194  0.5041 -0.2379  0.4943
 5356SOL    HW227702   4.006   1.273   7.318 -0.2660  1.9274  1.5346
 5357SOL     OW27703   1.680   2.876   5.225  0.1783 -0.4681 -0.2591
 5357SOL    HW127704   1.719   2.834   5.302 -3.4397  0.0565  1.8532
 5357SOL    HW227705   1.644   2.950   5.274 -0.2987 -1.6165  1.0931
 5358SOL     OW27706   0.973   0.291  12.232  0.0518  0.6211 -0.2556
 5358SOL    HW127707   0.960   0.238  12.154 -1.2681  0.9639 -0.2650
 5358SOL    HW227708   0.910   0.260  12.297  1.7007 -0.0793  1.0280
 5359SOL     OW27709   0.535   0.836   9.237 -0.0212  0.2170 -0.0365
 5359SOL    HW127710   0.461   0.777   9.220  1.0006 -1.2654  0.6741
 5359SOL    HW227711   0.588   0.774   9.287  2.0964  1.7479 -0.3751
 5360SOL     OW27712   4.574   2.188   3.819 -0.7894  0.1299 -0.1207
 5360SOL    HW127713   4.516   2.228   3.753  0.1585  0.1851 -0.9350
 5360SOL    HW227714   4.530   2.197   3.903 -0.0146 -1.8724  0.4864
 5361SOL     OW27715   1.475   1.099   7.749 -0.7892 -0.6300 -0.3497
 5361SOL    HW127716   1.422   1.151   7.689  1.9300  2.0972 -0.3885
 5361SOL    HW227717   1.556   1.149   7.756 -1.1920 -0.1499  0.8002
 5362SOL     OW27718   2.479   0.194  14.107 -0.5797 -0.3115  0.5158
 5362SOL    HW127719   2.469   0.115  14.160 -0.8172  0.7376  2.0351
 5362SOL    HW227720   2.396   0.241  14.108  0.2621  1.1987 -0.7663
 5363SOL     OW27721   0.679   4.105   5.397 -0.1206  0.5009  0.6158
 5363SOL    HW127722   0.595   4.096   5.442  0.2397 -0.3549  1.1138
 5363SOL    HW227723   0.716   4.039   5.455 -1.5384  0.5830  1.6134
 5364SOL     OW27724   0.605   4.609   6.692 -0.3585  0.1737 -0.8636
 5364SOL    HW127725   0.638   4.520   6.675  1.9710  1.2336 -1.8763
 5364SOL    HW227726   0.530   4.592   6.749  0.9985 -1.4173  0.4779
 5365SOL     OW27727   1.822   2.601   5.676  0.6457 -0.3609  0.4169
 5365SOL    HW127728   1.765   2.560   5.741 -0.6466  2.1168  0.8302
 5365SOL    HW227729   1.872   2.667   5.725  1.2881  0.0299 -0.7579
 5366SOL     OW27730   2.245   2.253  15.742 -0.3998 -0.2920  0.3831
 5366SOL    HW127731   2.237   2.160  15.764  3.3706 -0.4597  0.9833
 5366SOL    HW227732   2.269   2.285  15.829 -1.0511  0.0613  0.4327
 5367SOL     OW27733   2.100   3.445  11.638  0.2792 -0.1014  0.2034
 5367SOL    HW127734   2.041   3.507  11.596  1.6539  0.5956 -0.6948
 5367SOL    HW227735   2.031   3.406  11.692 -0.5408 -1.5940 -1.9117
 5368SOL     OW27736   4.000   0.554   8.374  0.2182 -0.2451 -0.1643
 5368SOL    HW127737   4.043   0.476   8.407  1.2109  0.0625 -0.7449
 5368SOL    HW227738   3.924   0.522   8.326  0.6286 -0.7769 -0.4539
 5369SOL     OW27739   1.211   2.269   2.716 -0.0075  0.6224 -0.6409
 5369SOL    HW127740   1.147   2.228   2.658  0.4069 -0.1869 -0.5287
 5369SOL    HW227741   1.170   2.353   2.736 -0.4607 -0.0139  1.0579
 5370SOL     OW27742   1.224   1.165   4.553  0.1351 -0.5192  0.2105
 5370SOL    HW127743   1.142   1.115   4.550  0.4920 -1.0997  0.1635
 5370SOL    HW227744   1.257   1.139   4.467  1.5107 -1.4786  1.0240
 5371SOL     OW27745   1.261   3.088  15.073  0.0605  0.8722 -0.8432
 5371SOL    HW127746   1.279   3.144  14.998 -1.6945 -0.4350 -2.2621
 5371SOL    HW227747   1.207   3.028  15.021  1.7189 -1.7941  0.5149
 5372SOL     OW27748   3.256   1.182   1.894 -0.8400  0.4209  1.3434
 5372SOL    HW127749   3.179   1.160   1.841  0.0348 -2.2446  1.1632
 5372SOL    HW227750   3.217   1.223   1.971 -1.2294  0.8501  0.9157
 5373SOL     OW27751   4.532   3.373  10.463 -0.4005  0.6741  0.0767
 5373SOL    HW127752   4.479   3.407  10.390  2.5940 -0.1140 -2.4651
 5373SOL    HW227753   4.621   3.351  10.436 -0.9392 -1.6923  0.1843
 5374SOL     OW27754   4.576   3.448   2.847  0.2237  0.4947 -0.0617
 5374SOL    HW127755   4.516   3.374   2.853  0.4696  0.2250 -0.9335
 5374SOL    HW227756   4.516   3.521   2.830  0.2019  0.8365  1.5154
 5375SOL     OW27757   2.099   4.693   4.121 -0.1056  0.3478  0.3385
 5375SOL    HW127758   2.012   4.693   4.082  0.5214 -1.1915 -1.0395
 5375SOL    HW227759   2.148   0.016   4.061 -0.6431 -1.5263 -1.8359
 5376SOL     OW27760   0.051   1.136   9.110 -0.6141  0.2292  0.3990
 5376SOL    HW127761   0.030   1.122   9.202  1.4907  1.2423  1.0237
 5376SOL    HW227762   0.125   1.196   9.119  1.0735 -2.1704  2.3912
 5377SOL     OW27763   0.362   1.951   8.418  0.0194 -0.2302 -0.0759
 5377SOL    HW127764   0.393   2.017   8.479  1.6571 -0.6935 -0.4260
 5377SOL    HW227765   0.284   1.997   8.388  0.3009  0.6402  0.5320
 5378SOL     OW27766   2.518   2.465  10.577 -0.5633 -0.0276  0.1166
 5378SOL    HW127767   2.475   2.510  10.650  2.2214  0.2908  1.5675
 5378SOL    HW227768   2.443   2.405  10.579 -1.1640  0.6841 -1.7855
 5379SOL     OW27769   2.080   2.679   5.313  0.4456 -0.6903  0.0260
 5379SOL    HW127770   2.141   2.723   5.373  0.0614  1.1848 -0.9953
 5379SOL    HW227771   1.997   2.708   5.350 -0.1161 -0.8355 -1.1179
 5380SOL     OW27772   1.218   0.720   8.194 -0.3381 -0.2264  0.0716
 5380SOL    HW127773   1.157   0.703   8.122 -0.2195  0.6567 -0.2344
 5380SOL    HW227774   1.155   0.748   8.260 -0.5346  0.6181 -0.4742
 5381SOL     OW27775   3.128   0.288   9.060 -0.0637  0.4016 -0.2116
 5381SOL    HW127776   3.066   0.239   9.115  2.2105 -1.4460  0.7410
 5381SOL    HW227777   3.070   0.315   8.989  0.1061  0.6781 -0.2407
 5382SOL     OW27778   2.836   4.228   5.783 -0.0941 -0.0738 -0.3549
 5382SOL    HW127779   2.906   4.166   5.763 -1.0450 -1.2702  0.0423
 5382SOL    HW227780   2.825   4.204   5.875  0.2621 -1.2177 -0.6172
 5383SOL     OW27781   4.427   3.661   7.344 -0.0009  0.1924  0.5362
 5383SOL    HW127782   4.350   3.605   7.357  0.2408 -0.5744 -1.3247
 5383SOL    HW227783   4.447   3.646   7.252  3.6928  2.2594  0.9817
 5384SOL     OW27784   1.692   2.233   3.490 -0.7899 -0.6533 -0.0669
 5384SOL    HW127785   1.648   2.282   3.560  2.6383 -0.5510  1.9749
 5384SOL    HW227786   1.614   2.207   3.441  1.2349  0.6558 -3.9195
 5385SOL     OW27787   4.659   0.749   2.593  0.6657  0.0516 -0.0618
 5385SOL    HW127788   4.720   0.683   2.625 -1.2549 -1.0902  1.2214
 5385SOL    HW227789   4.678   0.734   2.500  0.0519 -2.4799  0.2133
 5386SOL     OW27790   4.521   2.050   8.058  0.5502 -0.2390 -0.1998
 5386SOL    HW127791   4.597   2.108   8.058 -0.4057  1.0144  0.4300
 5386SOL    HW227792   4.555   1.972   8.102 -0.5363 -0.4738  0.2351
 5387SOL     OW27793   2.925   0.660   1.220 -0.0307  0.2918 -0.2942
 5387SOL    HW127794   2.855   0.724   1.205  1.8491  2.1235 -1.1890
 5387SOL    HW227795   2.935   0.626   1.131  1.3083  0.5241 -0.2240
 5388SOL     OW27796   3.988   4.083   2.471  0.2530 -0.4265 -0.0443
 5388SOL    HW127797   3.961   4.080   2.563 -0.4831 -0.6654 -0.2671
 5388SOL    HW227798   4.054   4.153   2.474  1.9264 -2.0994  2.5800
 5389SOL     OW27799   0.585   1.394  10.329  0.4053 -0.1974  0.1981
 5389SOL    HW127800   0.656   1.457  10.318  1.4301 -1.7583 -2.1043
 5389SOL    HW227801   0.639   1.326  10.370  0.4550  0.0688  0.5774
 5390SOL     OW27802   2.062   3.366  14.606 -0.1168 -0.4184  0.1009
 5390SOL    HW127803   2.065   3.320  14.690  2.3144 -0.6055 -0.0912
 5390SOL    HW227804   2.042   3.455  14.635 -0.0924  0.2212 -1.8702
 5391SOL     OW27805   0.776   0.508  16.857  0.2047 -0.1546  0.3504
 5391SOL    HW127806   0.686   0.530  16.835  0.5502 -0.8830 -1.9030
 5391SOL    HW227807   0.809   0.477  16.772 -1.3007 -0.1804 -0.2323
 5392SOL     OW27808   3.345   1.384   7.879 -0.0482 -0.7958 -0.6831
 5392SOL    HW127809   3.392   1.382   7.795  0.8799 -3.7043 -0.1017
 5392SOL    HW227810   3.300   1.300   7.884  0.5858 -1.1272 -0.5378
 5393SOL     OW27811   0.285   4.629   4.875  0.0061 -0.2589 -0.0196
 5393SOL    HW127812   0.261   4.616   4.967  0.1199  0.3479  0.1019
 5393SOL    HW227813   0.205   4.659   4.833 -0.4242 -1.5720 -0.1319
 5394SOL     OW27814   0.976   4.026  12.988 -0.5253 -0.4809 -0.9718
 5394SOL    HW127815   0.997   4.112  13.023 -1.4346 -1.0684  1.0178
 5394SOL    HW227816   0.914   4.005  13.058  4.2792  0.4102  3.5786
 5395SOL     OW27817   3.222   1.382  13.422  0.0366 -0.4601  0.0121
 5395SOL    HW127818   3.226   1.305  13.366  0.3019  0.3184 -1.0468
 5395SOL    HW227819   3.184   1.442  13.357 -0.6297 -1.2661 -0.3346
 5396SOL     OW27820   0.757   2.140   6.973 -0.1399 -0.4725  0.1151
 5396SOL    HW127821   0.826   2.148   6.907  0.8240  0.8626  1.2850
 5396SOL    HW227822   0.771   2.221   7.022 -3.4444  1.3665 -1.9507
 5397SOL     OW27823   0.751   2.213  14.540  0.1572 -0.1397  0.0511
 5397SOL    HW127824   0.705   2.147  14.489 -2.1269  0.2550  1.5802
 5397SOL    HW227825   0.789   2.162  14.611 -0.0434 -2.1042 -1.2633
 5398SOL     OW27826   4.160   3.507  15.480  0.2239 -0.0408 -0.1100
 5398SOL    HW127827   4.148   3.523  15.573  1.2399 -1.0180  0.1761
 5398SOL    HW227828   4.194   3.418  15.474  0.9858  0.3007 -0.8803
 5399SOL     OW27829   4.045   4.171   6.811 -0.1611 -0.1886  0.4566
 5399SOL    HW127830   3.988   4.205   6.741 -0.2188  1.0910  1.1271
 5399SOL    HW227831   4.076   4.252   6.852  2.1992  0.2920 -2.2913
 5400SOL     OW27832   4.358   2.106   0.398  0.0968  0.0735 -0.2891
 5400SOL    HW127833   4.272   2.105   0.356  0.3170 -2.5865 -0.6812
 5400SOL    HW227834   4.413   2.138   0.327 -0.4207  1.1046 -0.2212
 5401SOL     OW27835   3.383   0.366   6.171  0.0830 -0.6664 -0.1483
 5401SOL    HW127836   3.452   0.416   6.127  1.5013 -1.6601  0.9512
 5401SOL    HW227837   3.408   0.356   6.263  0.7999  1.0370 -0.1630
 5402SOL     OW27838   4.415   0.423   8.104  0.2569 -0.3202 -0.0465
 5402SOL    HW127839   4.473   0.497   8.119 -0.1544 -0.1096  0.5245
 5402SOL    HW227840   4.341   0.464   8.060  0.2030 -0.5512 -0.1726
 5403SOL     OW27841   1.314   0.157   6.279 -0.1535 -0.4140 -0.1144
 5403SOL    HW127842   1.239   0.217   6.285 -0.5262 -0.7520 -1.4552
 5403SOL    HW227843   1.277   0.081   6.235  1.3185 -0.6157 -1.0041
 5404SOL     OW27844   2.336   3.528  11.078  0.0914 -0.3988  0.4395
 5404SOL    HW127845   2.282   3.457  11.113 -1.3925  0.6940  0.3794
 5404SOL    HW227846   2.305   3.611  11.116 -2.2385 -0.4620 -1.2758
 5405SOL     OW27847   1.408   0.542  10.128 -0.0063 -0.3963  0.6679
 5405SOL    HW127848   1.453   0.482  10.187 -0.6001  1.2497  2.7815
 5405SOL    HW227849   1.365   0.481  10.067  1.0065  0.2627 -0.7185
 5406SOL     OW27850   1.949   3.229   6.893 -0.2636 -0.0278  0.2462
 5406SOL    HW127851   1.885   3.240   6.822 -1.2839  0.5081  1.2485
 5406SOL    HW227852   1.892   3.238   6.969 -1.4193  3.8707 -1.1040
 5407SOL     OW27853   1.801   4.100  13.066  0.1406 -0.0259  0.5052
 5407SOL    HW127854   1.881   4.051  13.083  1.5398  1.9305 -0.5445
 5407SOL    HW227855   1.738   4.051  13.120  0.3963 -1.1951 -0.2643
 5408SOL     OW27856   2.027   0.102   8.765  0.3259  0.2498  0.5817
 5408SOL    HW127857   2.069   0.163   8.703 -1.3059  0.5781 -0.2090
 5408SOL    HW227858   1.933   0.117   8.752  0.4924 -0.7299 -1.7875
 5409SOL     OW27859   0.137   2.593   3.404  0.4881  0.7400  0.0159
 5409SOL    HW127860   0.229   2.599   3.375  0.2622  1.5520 -0.5271
 5409SOL    HW227861   0.097   2.562   3.322  1.1747  0.3595 -0.1790
 5410SOL     OW27862   2.689   2.820  10.623  0.3648  0.2748  0.3816
 5410SOL    HW127863   2.621   2.814  10.556  0.7571  1.4512 -0.1186
 5410SOL    HW227864   2.711   2.912  10.609 -0.4488  0.6324  1.4587
 5411SOL     OW27865   0.212   4.732  17.659  0.1095  0.3723  0.6041
 5411SOL    HW127866   0.117   0.009  17.650  0.0757  0.3466  0.9333
 5411SOL    HW227867   0.228   0.045   0.011  2.4096  2.6547 -1.1136
 5412SOL     OW27868   2.884   4.515   8.662  0.0728  0.0153  0.4424
 5412SOL    HW127869   2.933   4.594   8.639 -1.4555  0.6569 -0.6343
 5412SOL    HW227870   2.950   4.448   8.649 -0.2416 -0.3331  0.6451
 5413SOL     OW27871   2.274   1.806   7.135  0.8883 -0.2414  0.3800
 5413SOL    HW127872   2.241   1.847   7.055 -0.1218 -1.2985  0.2425
 5413SOL    HW227873   2.251   1.877   7.195 -0.0377 -0.1903 -0.0301
 5414SOL     OW27874   4.555   3.275   8.034 -0.3615  0.2423  0.7128
 5414SOL    HW127875   4.505   3.212   8.085 -0.3120  0.4470  1.0120
 5414SOL    HW227876   4.491   3.346   8.032  1.5664  1.9598 -0.5272
 5415SOL     OW27877   2.455   0.695  12.872  0.4099  0.4078  0.3447
 5415SOL    HW127878   2.489   0.644  12.799  1.2014 -3.1713  3.1896
 5415SOL    HW227879   2.393   0.754  12.830  1.5444 -0.3118 -2.3046
 5416SOL     OW27880   3.543   3.795   5.210  0.4367  0.5124 -0.3070
 5416SOL    HW127881   3.585   3.722   5.165  1.6694  1.3179 -0.4566
 5416SOL    HW227882   3.477   3.748   5.261 -0.5630  1.3401 -0.8459
 5417SOL     OW27883   1.732   1.253   2.652 -0.3478  0.0253  0.2056
 5417SOL    HW127884   1.784   1.327   2.620  0.5366 -0.5276  0.3511
 5417SOL    HW227885   1.801   1.228   2.714 -0.8907 -2.8660 -0.3819
 5418SOL     OW27886   0.160   3.455   8.662  0.3481 -0.1335  0.0762
 5418SOL    HW127887   0.135   3.494   8.746 -0.6619  2.0025 -1.2419
 5418SOL    HW227888   0.167   3.365   8.697  1.2366 -0.8184 -1.9115
 5419SOL     OW27889   4.011   4.596  17.270 -0.0508 -0.6282 -0.1171
 5419SOL    HW127890   4.002   4.632  17.182  0.6686  5.1547  2.1167
 5419SOL    HW227891   3.937   4.536  17.280  0.9597 -1.5086  1.9759
 5420SOL     OW27892   4.559   1.822   6.874 -0.7413 -0.4977 -1.1452
 5420SOL    HW127893   4.526   1.910   6.852 -0.5847 -0.9890 -3.3576
 5420SOL    HW227894   4.541   1.763   6.801  0.4233 -0.8585 -1.1407
 5421SOL     OW27895   2.558   4.526   5.956  0.4433  0.0222 -0.0096
 5421SOL    HW127896   2.467   4.556   5.956  0.5089  0.2516 -1.0521
 5421SOL    HW227897   2.553   4.434   5.981 -0.7844  0.1631  0.2342
 5422SOL     OW27898   2.954   3.247   2.962 -0.0327  0.3556 -0.0539
 5422SOL    HW127899   2.958   3.339   2.986 -1.2324  0.8177 -1.6814
 5422SOL    HW227900   2.912   3.214   3.042  0.2932  3.4545  1.3810
 5423SOL     OW27901   3.160   4.121   6.797  0.3055  0.3559  0.5823
 5423SOL    HW127902   3.092   4.172   6.755  1.2328  1.2120  0.1163
 5423SOL    HW227903   3.102   4.052   6.829 -0.0952  0.5691  0.3138
 5424SOL     OW27904   0.071   0.383  11.574  0.4602 -0.2043  0.1933
 5424SOL    HW127905   0.139   0.351  11.632 -0.3165  3.1965  3.0389
 5424SOL    HW227906   0.011   0.431  11.632  0.8019  1.3669 -0.7287
 5425SOL     OW27907   2.495   3.367   7.594  0.4952  0.2033 -0.0510
 5425SOL    HW127908   2.437   3.333   7.526  0.2800 -3.4467  1.9449
 5425SOL    HW227909   2.435   3.429   7.634  1.4614  1.4121 -0.4811
 5426SOL     OW27910   1.466   0.454   2.460  0.3055  0.6575 -0.5958
 5426SOL    HW127911   1.552   0.428   2.427  0.1516  0.7573 -1.0700
 5426SOL    HW227912   1.424   0.370   2.443 -1.5421  2.2658 -3.9410
 5427SOL     OW27913   4.238   3.375  14.358 -0.2130  0.1717  0.6355
 5427SOL    HW127914   4.171   3.324  14.312 -0.3714  0.9436  0.0200
 5427SOL    HW227915   4.270   3.426  14.284 -0.6099  0.7926  0.8989
 5428SOL     OW27916   0.234   2.160   1.626  0.1704  0.5346 -0.0016
 5428SOL    HW127917   0.186   2.129   1.703 -0.6392 -0.8831 -1.0849
 5428SOL    HW227918   0.248   2.082   1.572  0.5906  0.1935  0.5955
 5429SOL     OW27919   1.770   0.855   3.059  0.0426  0.1392  0.1391
 5429SOL    HW127920   1.684   0.818   3.041  0.6191 -0.7102 -0.9183
 5429SOL    HW227921   1.776   0.835   3.153  0.9016  2.5887  0.5978
 5430SOL     OW27922   0.939   0.035  17.605  0.1816  0.1102 -0.6403
 5430SOL    HW127923   0.993   0.061  17.530 -0.7868  2.7546 -0.4306
 5430SOL    HW227924   0.941   0.110  17.664  2.2026  0.3236 -0.9976
 5431SOL     OW27925   2.350   3.871   4.679  0.2177  0.3863 -0.0169
 5431SOL    HW127926   2.397   3.876   4.595  1.8139  1.4800  0.9470
 5431SOL    HW227927   2.296   3.950   4.671  0.4578  0.4535 -0.9688
 5432SOL     OW27928   2.998   4.029   5.415  0.1351 -0.1593  0.3169
 5432SOL    HW127929   2.908   3.998   5.426  0.3033  0.0509  2.4365
 5432SOL    HW227930   3.047   3.948   5.403 -1.5931 -1.3458  1.3219
 5433SOL     OW27931   1.130   4.527   5.569 -0.2761 -0.2565 -0.2197
 5433SOL    HW127932   1.099   4.514   5.480  0.6807 -0.8336 -0.4628
 5433SOL    HW227933   1.079   4.457   5.610 -0.7870  0.1757 -0.1134
 5434SOL     OW27934   4.004   0.322   4.742  0.1185  0.0249  0.1329
 5434SOL    HW127935   4.068   0.377   4.698 -1.0661  1.8035  0.6444
 5434SOL    HW227936   3.920   0.368   4.743  0.1658  0.1050  0.4545
 5435SOL     OW27937   2.830   2.531   8.700 -0.0867 -0.5264  0.6589
 5435SOL    HW127938   2.807   2.566   8.786  1.4457  0.8008  0.5449
 5435SOL    HW227939   2.756   2.571   8.655  2.5879  1.1089 -2.2384
 5436SOL     OW27940   3.869   3.985   1.620  0.2408 -0.0543 -0.6642
 5436SOL    HW127941   3.865   4.077   1.644  1.0700  0.2046 -1.5306
 5436SOL    HW227942   3.964   3.980   1.631  0.3227  3.8069  0.1384
 5437SOL     OW27943   3.021   1.690  10.240  0.2806  0.4971 -0.2757
 5437SOL    HW127944   2.941   1.666  10.287 -0.9875  2.1640 -1.6125
 5437SOL    HW227945   3.012   1.783  10.222 -0.7212  0.0354 -2.1561
 5438SOL     OW27946   1.502   1.814   2.255  0.1977 -0.3143 -0.1392
 5438SOL    HW127947   1.439   1.749   2.287  1.3322 -0.0820  2.5106
 5438SOL    HW227948   1.466   1.817   2.166  0.5868  1.1211 -0.2463
 5439SOL     OW27949   1.611   0.244   8.295  0.0433 -0.3320  0.1034
 5439SOL    HW127950   1.610   0.307   8.224 -0.9064  0.6435  0.9885
 5439SOL    HW227951   1.536   0.192   8.266 -1.4038  0.8928  1.6960
 5440SOL     OW27952   2.282   2.440   1.732  0.2832 -0.5581 -0.5270
 5440SOL    HW127953   2.324   2.419   1.815 -1.1805  1.0508  0.6271
 5440SOL    HW227954   2.199   2.392   1.728 -1.4785  2.4803 -0.3133
 5441SOL     OW27955   1.256   1.881   6.350  0.5660  0.4703 -0.2632
 5441SOL    HW127956   1.312   1.843   6.282  0.5284  0.4660 -0.2915
 5441SOL    HW227957   1.204   1.807   6.380  0.0069  0.7130 -0.6413
 5442SOL     OW27958   2.521   2.599   9.003  0.2850 -0.3735  0.1516
 5442SOL    HW127959   2.507   2.507   9.027 -0.2585 -0.2568  0.2934
 5442SOL    HW227960   2.502   2.642   9.087  4.1985  3.6076 -1.0140
 5443SOL     OW27961   2.981   4.564  16.986  0.3326 -0.3115 -0.0098
 5443SOL    HW127962   3.062   4.513  16.981  0.9986  0.5842  1.3595
 5443SOL    HW227963   3.007   4.653  16.962 -0.0218  0.0147  0.7950
 5444SOL     OW27964   3.375   3.421   9.430 -0.3186 -0.9357 -0.1914
 5444SOL    HW127965   3.417   3.358   9.489 -0.4704  1.9961  2.9816
 5444SOL    HW227966   3.324   3.361   9.374 -1.6542  0.4905 -0.4912
 5445SOL     OW27967   1.838   0.651   9.006 -0.3385 -0.0178 -0.0681
 5445SOL    HW127968   1.878   0.735   8.984 -0.2410  0.0575  0.3930
 5445SOL    HW227969   1.865   0.605   8.927  2.1311  2.7049 -0.7966
 5446SOL     OW27970   4.721   1.739   5.723  0.5894 -0.0406  0.5351
 5446SOL    HW127971   4.625   1.734   5.715  0.6362 -0.1835  0.0510
 5446SOL    HW227972   0.023   1.652   5.741  0.5502 -0.8617 -3.2581
 5447SOL     OW27973   3.956   3.680  11.646  0.0118 -0.2061 -0.1762
 5447SOL    HW127974   3.999   3.617  11.589  1.9384  0.5325  0.4889
 5447SOL    HW227975   3.995   3.764  11.625 -1.6455  0.7001  0.2983
 5448SOL     OW27976   2.980   3.970  11.386  0.6813 -0.6088 -0.1919
 5448SOL    HW127977   3.061   3.973  11.437 -0.2293  0.9716  1.1705
 5448SOL    HW227978   2.914   3.947  11.451  0.3366  1.2505  0.1421
 5449SOL     OW27979   0.334   2.253   5.852  0.1645  0.3086 -0.9004
 5449SOL    HW127980   0.358   2.171   5.808  0.3000  0.3570 -0.9170
 5449SOL    HW227981   0.416   2.282   5.891  0.0821 -1.1257  0.3680
 5450SOL     OW27982   3.602   3.453  16.183 -0.4009  0.5266 -0.0348
 5450SOL    HW127983   3.560   3.486  16.104 -0.3415 -0.4736 -0.4791
 5450SOL    HW227984   3.694   3.459  16.155 -0.5551  0.0086 -0.6709
 5451SOL     OW27985   0.963   2.968   2.387  0.3974 -0.2720 -0.5375
 5451SOL    HW127986   1.052   3.004   2.388  0.3070  0.0027 -2.3698
 5451SOL    HW227987   0.980   2.876   2.406  1.5042  0.5760  2.5254
 5452SOL     OW27988   3.592   2.459   7.430 -0.0063 -0.3112  0.3879
 5452SOL    HW127989   3.594   2.507   7.347  1.1324 -1.3695 -0.1995
 5452SOL    HW227990   3.684   2.457   7.457 -0.1482 -0.6485  0.8292
 5453SOL     OW27991   3.705   1.267   4.164 -0.5442 -0.1623  0.2875
 5453SOL    HW127992   3.768   1.336   4.184  0.0063 -1.0055  1.4306
 5453SOL    HW227993   3.683   1.296   4.075 -2.9406 -3.5349 -0.2203
 5454SOL     OW27994   2.139   2.315   7.716 -0.6077 -0.0686 -0.2162
 5454SOL    HW127995   2.189   2.376   7.771  1.0644 -0.8722 -0.8593
 5454SOL    HW227996   2.212   2.286   7.660 -0.6603  1.6275 -1.1621
 5455SOL     OW27997   2.146   1.879   4.589 -0.2916  0.2669  0.1432
 5455SOL    HW127998   2.178   1.865   4.499 -1.4359  0.5458 -0.3134
 5455SOL    HW227999   2.071   1.934   4.565  1.0429  1.7535 -0.5832
 5456SOL     OW28000   1.917   4.261   1.271 -0.2542  0.4051  0.0926
 5456SOL    HW128001   1.955   4.192   1.217 -0.9754  0.5824 -0.6268
 5456SOL    HW228002   1.823   4.244   1.266 -0.0636 -0.6676  0.1932
 5457SOL     OW28003   0.309   3.142   7.042  0.0319 -0.2130  0.3561
 5457SOL    HW128004   0.278   3.230   7.061  0.4079 -0.4822  2.1853
 5457SOL    HW228005   0.310   3.108   7.131  1.2721 -0.4664  0.2386
 5458SOL     OW28006   0.707   0.599  10.385  0.1057  0.4452  0.2301
 5458SOL    HW128007   0.704   0.581  10.291  1.0099 -1.6766  0.5960
 5458SOL    HW228008   0.800   0.585  10.402 -0.4954 -2.6898  0.9974
 5459SOL     OW28009   3.241   2.120   7.681 -1.1142  0.1385 -0.3446
 5459SOL    HW128010   3.321   2.166   7.656 -0.4717 -1.8711 -2.0222
 5459SOL    HW228011   3.231   2.152   7.771 -0.1958 -1.5446  0.3671
 5460SOL     OW28012   3.052   0.463   6.862  0.1789 -0.5154  0.7730
 5460SOL    HW128013   3.027   0.545   6.820 -1.4896 -0.4299  1.9365
 5460SOL    HW228014   2.972   0.411   6.866 -0.8868  1.3220  3.6605
 5461SOL     OW28015   0.851   3.983   8.928  0.7728 -0.0403  0.2524
 5461SOL    HW128016   0.819   3.914   8.986  1.2487  0.6467  1.3312
 5461SOL    HW228017   0.767   4.013   8.894  1.0182  1.4954  0.9777
 5462SOL     OW28018   2.895   3.321  14.677 -0.5076 -0.1952  0.0565
 5462SOL    HW128019   2.825   3.384  14.698 -0.0131  0.6165 -0.6829
 5462SOL    HW228020   2.852   3.275  14.605 -1.0455  0.8208 -0.2829
 5463SOL     OW28021   0.478   2.781  16.314 -0.1269  0.1459 -0.5198
 5463SOL    HW128022   0.558   2.818  16.276  0.7258 -0.8823  0.2837
 5463SOL    HW228023   0.419   2.856  16.308 -0.8096 -0.4878 -1.8022
 5464SOL     OW28024   4.480   4.064   4.747  0.0030  0.5565  0.0712
 5464SOL    HW128025   4.445   4.077   4.835 -0.6768 -0.1458 -0.1029
 5464SOL    HW228026   4.480   3.968   4.739  0.1406  0.5769 -0.2090
 5465SOL     OW28027   0.609   3.768   4.081  0.1719 -0.1101  0.4154
 5465SOL    HW128028   0.538   3.737   4.023 -0.1628 -0.9254  1.2646
 5465SOL    HW228029   0.623   3.700   4.146 -0.8048  0.6346  1.4207
 5466SOL     OW28030   3.653   2.906   8.287  0.0322  0.5894  0.0748
 5466SOL    HW128031   3.720   2.945   8.344  0.8300 -1.1363  0.3079
 5466SOL    HW228032   3.570   2.926   8.330 -0.2482 -4.3451  1.7494
 5467SOL     OW28033   3.520   0.367   4.075  0.2038  0.0273  0.1801
 5467SOL    HW128034   3.464   0.444   4.082  1.9292  1.2695  0.0854
 5467SOL    HW228035   3.473   0.325   4.147  2.5888  0.6746  2.0873
 5468SOL     OW28036   0.324   1.720  16.984 -0.2430  0.0327 -0.3507
 5468SOL    HW128037   0.294   1.667  17.058  0.6324  0.0566  0.0104
 5468SOL    HW228038   0.339   1.649  16.922 -0.2598 -0.0280 -0.2851
 5469SOL     OW28039   0.513   3.702  12.360  0.0586 -0.4373  0.4820
 5469SOL    HW128040   0.433   3.664  12.323  0.8080 -1.4748 -0.0433
 5469SOL    HW228041   0.463   3.779  12.387  3.3334  1.1018  2.1127
 5470SOL     OW28042   1.618   2.847  17.615 -0.3877 -0.1196  0.3533
 5470SOL    HW128043   1.680   2.798  17.670  0.3698 -0.7392 -1.0609
 5470SOL    HW228044   1.672   2.903  17.559  0.6599 -2.9365 -1.4664
 5471SOL     OW28045   2.003   3.399  15.323 -0.3066 -0.2018  0.9292
 5471SOL    HW128046   1.989   3.423  15.415  1.0840 -3.7971  2.1032
 5471SOL    HW228047   1.965   3.476  15.281  1.4037  0.7105  1.0722
 5472SOL     OW28048   3.638   0.178   1.592 -0.2960  0.6597 -0.1544
 5472SOL    HW128049   3.676   0.246   1.537 -0.9118  1.2487  0.1594
 5472SOL    HW228050   3.633   0.224   1.676 -1.7972  0.5421 -0.1780
 5473SOL     OW28051   2.370   1.388   4.026 -0.4319 -0.2061  0.3209
 5473SOL    HW128052   2.374   1.317   4.090  2.6545 -1.1225 -0.8768
 5473SOL    HW228053   2.309   1.449   4.067  0.2291 -0.1511  1.2156
 5474SOL     OW28054   3.966   3.865   4.512  0.0074 -0.2765 -0.1470
 5474SOL    HW128055   3.971   3.795   4.577 -1.2190 -1.2432 -1.0796
 5474SOL    HW228056   3.879   3.902   4.528  0.0444  0.2462 -1.1303
 5475SOL     OW28057   2.337   4.659   5.689 -0.1480  0.1705 -0.0192
 5475SOL    HW128058   2.319   4.651   5.783 -1.9802 -1.8753 -0.5511
 5475SOL    HW228059   2.271   4.722   5.662 -0.0821  0.4603  0.4838
 5476SOL     OW28060   0.520   3.705   1.165 -0.7429 -0.1563  0.4537
 5476SOL    HW128061   0.541   3.718   1.073  0.0165  2.1451  0.9589
 5476SOL    HW228062   0.572   3.629   1.192  0.8366  0.6627 -0.2620
 5477SOL     OW28063   4.239   3.097   2.263 -0.0045  0.1382  0.3681
 5477SOL    HW128064   4.274   3.013   2.232 -0.7428  0.1104 -0.3942
 5477SOL    HW228065   4.176   3.068   2.329 -0.1402  0.0714  0.2098
 5478SOL     OW28066   3.539   0.530  14.210 -1.0933 -0.3371  0.8336
 5478SOL    HW128067   3.586   0.613  14.213 -0.3868 -0.7231  0.3004
 5478SOL    HW228068   3.451   0.564  14.230 -1.2539  0.3911 -1.1024
 5479SOL     OW28069   4.401   3.650   2.865 -0.3962  0.8450  0.3354
 5479SOL    HW128070   4.318   3.694   2.849 -0.4866  0.1545 -1.0797
 5479SOL    HW228071   4.390   3.628   2.957 -1.5453  3.1206  0.7396
 5480SOL     OW28072   1.227   0.289   3.149  0.6539  0.1762 -0.0990
 5480SOL    HW128073   1.156   0.232   3.120 -1.0031  3.2522 -2.1373
 5480SOL    HW228074   1.239   0.348   3.075  0.9795  0.9165  0.5393
 5481SOL     OW28075   0.836   4.515   8.859 -0.0782 -0.1775  0.0179
 5481SOL    HW128076   0.792   4.431   8.874 -1.1056  0.1850 -0.9857
 5481SOL    HW228077   0.815   4.554   8.943  0.3889  1.7837 -0.7805
 5482SOL     OW28078   1.275   3.986  12.043 -0.5584  0.2442  0.0076
 5482SOL    HW128079   1.352   3.936  12.068  0.6886  1.1352 -1.9950
 5482SOL    HW228080   1.296   4.069  12.000  2.5279  1.0624  3.0756
 5483SOL     OW28081   4.055   0.246   0.844  0.0900  0.1852 -0.1611
 5483SOL    HW128082   4.018   0.175   0.896  0.9907  0.5827  1.0163
 5483SOL    HW228083   4.098   0.206   0.768 -2.1933 -2.6780  0.0515
 5484SOL     OW28084   0.419   2.334   8.261  0.4175  0.4280 -0.3385
 5484SOL    HW128085   0.508   2.318   8.229  0.2566  2.3461 -1.6952
 5484SOL    HW228086   0.414   2.262   8.324 -0.0444  0.4494 -0.3491
 5485SOL     OW28087   4.360   3.345   0.079  0.0058  0.2689 -0.1909
 5485SOL    HW128088   4.349   3.432   0.117 -1.3934  0.1724 -0.4058
 5485SOL    HW228089   4.456   3.338   0.072 -0.0277 -0.2682 -0.1389
 5486SOL     OW28090   4.471   1.787   3.224  0.8859  0.7125  0.1993
 5486SOL    HW128091   4.552   1.837   3.221  1.3046  0.0761  0.8045
 5486SOL    HW228092   4.500   1.699   3.201  2.0914  0.7499  1.5840
 5487SOL     OW28093   2.343   1.540  17.019 -0.6757  0.4869 -0.1744
 5487SOL    HW128094   2.289   1.543  17.098  1.1626  4.0831  0.9073
 5487SOL    HW228095   2.404   1.476  17.055 -1.7142 -0.5185 -0.1755
 5488SOL     OW28096   2.431   4.108  13.147 -0.3660  0.3137  0.2086
 5488SOL    HW128097   2.429   4.186  13.202  1.5103  0.7372 -0.3343
 5488SOL    HW228098   2.409   4.035  13.206  3.6197 -0.3419  0.9144
 5489SOL     OW28099   4.230   4.428  11.021  0.1120  0.1848 -0.4688
 5489SOL    HW128100   4.269   4.504  11.063  0.0330 -0.9940  1.7259
 5489SOL    HW228101   4.143   4.440  11.059  0.5779  2.0291  0.0035
 5490SOL     OW28102   1.071   3.044   6.886 -0.0428  0.8259  0.2960
 5490SOL    HW128103   0.991   3.004   6.852  0.7016  0.0990 -0.6119
 5490SOL    HW228104   1.091   3.117   6.828  1.0776 -0.3675 -0.8241
 5491SOL     OW28105   1.031   3.746  16.686 -0.2464 -0.0939  0.0750
 5491SOL    HW128106   1.117   3.717  16.717 -0.5962  0.1946  1.3145
 5491SOL    HW228107   0.986   3.662  16.688 -3.4055  1.5425 -1.8429
 5492SOL     OW28108   4.534   1.969   6.003 -0.6265  0.0783 -0.1254
 5492SOL    HW128109   4.464   2.034   6.006 -0.6911 -0.0003  0.0615
 5492SOL    HW228110   4.609   2.001   6.053  0.3939 -1.2270 -0.7906
 5493SOL     OW28111   4.657   3.812  16.759 -0.5040  0.3590  0.3813
 5493SOL    HW128112   4.567   3.842  16.748 -0.3069  1.0765  0.7238
 5493SOL    HW228113   4.637   3.742  16.822  0.0109  0.6580  0.8697
 5494SOL     OW28114   1.179   0.532   5.494 -0.0622 -0.0733 -0.3524
 5494SOL    HW128115   1.269   0.566   5.492  0.2675 -0.9545 -0.8672
 5494SOL    HW228116   1.202   0.441   5.474 -2.6197 -1.1813  1.8788
 5495SOL     OW28117   2.386   1.856   8.158  0.0378  0.8004  0.1245
 5495SOL    HW128118   2.472   1.817   8.145  0.5053  1.2770  1.7466
 5495SOL    HW228119   2.339   1.805   8.093 -1.6112  0.6832  1.4074
 5496SOL     OW28120   3.448   0.822   4.689  0.2652  0.8662  0.0651
 5496SOL    HW128121   3.412   0.883   4.625  0.3183 -1.5849 -2.2988
 5496SOL    HW228122   3.540   0.848   4.692  1.0541 -1.9870  0.3521
 5497SOL     OW28123   2.396   1.095  11.978  0.2143 -0.4126 -0.3580
 5497SOL    HW128124   2.368   1.005  11.963  0.2130 -0.6313  1.0351
 5497SOL    HW228125   2.321   1.146  12.007  0.5034 -0.0951 -0.1756
 5498SOL     OW28126   1.861   3.893   7.007  0.0666 -0.3661 -0.2210
 5498SOL    HW128127   1.831   3.975   6.970 -1.3514 -0.2267  1.2441
 5498SOL    HW228128   1.779   3.844   7.001 -0.4359  0.6345 -1.4034
 5499SOL     OW28129   0.278   4.097   1.170  0.1491 -0.6013  0.5837
 5499SOL    HW128130   0.258   4.082   1.078  2.8468  0.3013 -0.1638
 5499SOL    HW228131   0.372   4.116   1.178 -0.2719  1.2896  1.1277
 5500SOL     OW28132   0.232   2.973   8.498  0.4611 -0.3890  0.8831
 5500SOL    HW128133   0.220   3.068   8.489 -0.1911 -0.6497 -0.8855
 5500SOL    HW228134   0.144   2.941   8.521 -0.0366  0.0526 -0.4239
 5501SOL     OW28135   2.517   3.981   7.833  0.3901  0.4391 -0.3149
 5501SOL    HW128136   2.474   3.976   7.747 -0.9997 -0.2063  0.4071
 5501SOL    HW228137   2.469   4.056   7.867  0.2707 -0.7543  2.1720
 5502SOL     OW28138   2.792   2.264   5.281  0.2594 -0.4888 -0.0842
 5502SOL    HW128139   2.732   2.285   5.353 -0.8838 -2.5359 -0.4351
 5502SOL    HW228140   2.855   2.335   5.290  2.4683 -2.3203 -1.0244
 5503SOL     OW28141   4.704   0.033   2.957  0.2778 -0.1671 -0.3723
 5503SOL    HW128142   4.717   0.114   3.006 -2.4915  0.2975 -0.3903
 5503SOL    HW228143   0.013   4.702   3.014  0.7179  1.2813  0.9066
 5504SOL     OW28144   2.159   4.089   2.862  0.6255  0.2724 -0.2593
 5504SOL    HW128145   2.083   4.145   2.872 -0.5038 -1.1631 -0.7321
 5504SOL    HW228146   2.216   4.110   2.937 -1.9857  2.6673  1.0384
 5505SOL     OW28147   1.754   0.182   3.010 -1.0000  0.0209  0.4624
 5505SOL    HW128148   1.708   0.118   3.064  0.2686 -1.2486  0.0332
 5505SOL    HW228149   1.840   0.142   3.002 -0.8829  0.4264 -0.3023
 5506SOL     OW28150   1.174   3.720   7.254 -0.0666 -0.3046 -0.1982
 5506SOL    HW128151   1.115   3.699   7.326  0.1319  0.8974  0.3207
 5506SOL    HW228152   1.148   3.807   7.222 -1.5095 -1.2874 -1.6717
 5507SOL     OW28153   2.033   2.110   3.444  0.1053 -0.1794 -0.3263
 5507SOL    HW128154   2.009   2.127   3.353 -2.7719  1.6551  0.7916
 5507SOL    HW228155   2.105   2.173   3.443  0.2973 -0.4038 -0.9981
 5508SOL     OW28156   4.143   2.808   7.148 -0.0450  0.0720  0.3524
 5508SOL    HW128157   4.185   2.821   7.233 -0.1752  2.3884  0.0484
 5508SOL    HW228158   4.216   2.784   7.091  0.6252  2.5616  0.1705
 5509SOL     OW28159   1.912   1.488   3.387  0.1665  0.2643  0.3418
 5509SOL    HW128160   1.909   1.493   3.291 -1.0315 -1.6396  0.2890
 5509SOL    HW228161   1.911   1.583   3.397  0.8721  0.2294  0.7445
 5510SOL     OW28162   3.264   1.511   9.910 -0.5395 -0.3353 -0.3317
 5510SOL    HW128163   3.342   1.488   9.960 -1.2614  2.9244  2.2739
 5510SOL    HW228164   3.190   1.474   9.958  1.5646 -2.2442  1.4319
 5511SOL     OW28165   0.847   3.326   5.779 -0.0857 -0.6094  0.1606
 5511SOL    HW128166   0.835   3.239   5.741  0.8427  0.1970 -1.9485
 5511SOL    HW228167   0.814   3.388   5.715 -0.4142 -0.7928  0.1512
 5512SOL     OW28168   0.480   1.885  17.172 -0.6141 -0.0890  0.7586
 5512SOL    HW128169   0.449   1.816  17.114 -0.9994 -1.0145  2.0522
 5512SOL    HW228170   0.426   1.956  17.137 -0.8999 -0.7839 -0.1908
 5513SOL     OW28171   2.934   4.542   7.262 -0.7294  0.2379 -0.5936
 5513SOL    HW128172   2.899   4.459   7.229 -1.6716  0.0734  0.8357
 5513SOL    HW228173   2.919   4.531   7.356 -0.3373 -1.1540 -0.6912
 5514SOL     OW28174   1.321   3.957   8.125  0.0685 -0.0559 -0.5841
 5514SOL    HW128175   1.393   3.950   8.188  0.2965 -1.6131 -1.0349
 5514SOL    HW228176   1.353   3.898   8.057 -0.2918 -1.7490  0.7101
 5515SOL     OW28177   2.683   0.461   1.235 -0.4521  0.0480  0.0780
 5515SOL    HW128178   2.731   0.497   1.310 -0.3486  0.9713 -0.4309
 5515SOL    HW228179   2.603   0.431   1.277  1.6695 -1.1584  3.2294
 5516SOL     OW28180   2.305   2.721  16.866 -0.2799  0.7675  0.2504
 5516SOL    HW128181   2.381   2.744  16.811 -1.4494 -0.6065 -1.9286
 5516SOL    HW228182   2.280   2.642  16.819  1.0044 -0.5591  1.7655
 5517SOL     OW28183   0.982   3.432   6.715  0.5922  0.5717 -0.5503
 5517SOL    HW128184   0.930   3.466   6.787  0.8855  0.0807 -0.1055
 5517SOL    HW228185   0.962   3.493   6.645 -0.5595  1.1922  0.3350
 5518SOL     OW28186   0.874   1.919   9.453 -0.3291 -0.1661 -0.5028
 5518SOL    HW128187   0.831   1.855   9.510  2.1973 -2.7557 -1.4864
 5518SOL    HW228188   0.817   1.934   9.377 -0.2881  3.7536  0.2689
 5519SOL     OW28189   1.679   4.120   3.768 -0.2928 -0.0620  0.4904
 5519SOL    HW128190   1.636   4.198   3.801 -0.8479 -0.4867  0.7748
 5519SOL    HW228191   1.630   4.121   3.685 -0.9228 -1.2677  0.8440
 5520SOL     OW28192   0.509   0.950  13.126  0.3692 -0.9336  0.2990
 5520SOL    HW128193   0.524   1.005  13.203 -2.1239  0.3255 -0.1157
 5520SOL    HW228194   0.437   0.895  13.158  0.1242 -0.2232  0.9577
 5521SOL     OW28195   1.100   4.600   6.695  0.2280  0.1406  0.3276
 5521SOL    HW128196   1.046   4.521   6.704  1.9796 -1.1439 -0.4740
 5521SOL    HW228197   1.088   4.652   6.774  2.6141  2.3379 -0.7630
 5522SOL     OW28198   4.635   2.133  13.950  0.3321 -0.0324 -0.1841
 5522SOL    HW128199   4.572   2.204  13.963 -0.4760 -0.7843  0.0003
 5522SOL    HW228200   4.584   2.059  13.983  0.9889 -0.8395 -0.9965
 5523SOL     OW28201   2.850   0.601   8.782 -0.2244 -0.3049 -0.4423
 5523SOL    HW128202   2.815   0.634   8.865  1.0653  3.1399 -1.2726
 5523SOL    HW228203   2.884   0.515   8.806 -3.0980 -2.1117 -2.8425
 5524SOL     OW28204   3.700   1.781   5.604  0.1167 -0.6795  0.4531
 5524SOL    HW128205   3.722   1.823   5.687 -0.1411 -0.3612  0.3630
 5524SOL    HW228206   3.641   1.709   5.624 -2.4278  0.9542 -1.1295
 5525SOL     OW28207   4.083   2.065  13.799  0.1360 -0.0680  0.3481
 5525SOL    HW128208   4.119   1.985  13.760  1.8516  2.0760 -2.5246
 5525SOL    HW228209   4.079   2.119  13.720 -0.3843  0.9496  1.0858
 5526SOL     OW28210   1.237   0.121   7.009  0.3296  0.0064  0.3185
 5526SOL    HW128211   1.177   0.148   6.940  1.0250 -0.3550 -0.4203
 5526SOL    HW228212   1.184   0.134   7.088  0.2027  1.6271 -0.0356
 5527SOL     OW28213   3.829   2.355   7.917 -0.3042  0.0637  0.4328
 5527SOL    HW128214   3.745   2.309   7.913  0.0700 -0.6321  0.4891
 5527SOL    HW228215   3.892   2.284   7.932 -2.4718 -1.8662  0.4798
 5528SOL     OW28216   4.332   3.749   5.488 -0.1104 -0.5744  0.2201
 5528SOL    HW128217   4.308   3.730   5.397  1.2392  4.7427 -1.2356
 5528SOL    HW228218   4.265   3.694   5.529 -1.6460 -0.4519 -2.0827
 5529SOL     OW28219   2.515   1.351   2.676 -0.3207 -0.3277  0.1293
 5529SOL    HW128220   2.570   1.335   2.752  1.3618  1.1276 -0.7752
 5529SOL    HW228221   2.520   1.267   2.629  2.5038  0.2386 -0.5958
 5530SOL     OW28222   1.429   2.069   2.329 -0.3086  0.1982 -0.0079
 5530SOL    HW128223   1.451   1.976   2.323  2.2556  0.4650  5.1863
 5530SOL    HW228224   1.438   2.095   2.237 -1.3647 -1.5502 -0.5977
 5531SOL     OW28225   4.729   4.623   9.892  0.1717  0.2154  0.1401
 5531SOL    HW128226   0.010   4.692   9.827  1.8335 -1.1997 -1.0190
 5531SOL    HW228227   4.683   4.555   9.844 -0.7615  0.0098  1.3313
 5532SOL     OW28228   0.491   2.022   8.172 -0.2813  0.2933 -0.4229
 5532SOL    HW128229   0.446   2.007   8.255 -0.3505 -0.0718 -0.5239
 5532SOL    HW228230   0.416   2.000   8.118  0.3785  1.4947 -1.8266
 5533SOL     OW28231   0.270   1.814  11.204 -0.4449  0.0182 -0.4735
 5533SOL    HW128232   0.359   1.844  11.183  0.4220  0.8150  4.4302
 5533SOL    HW228233   0.261   1.820  11.299  0.4515  1.3559 -0.4662
 5534SOL     OW28234   0.521   4.475   0.649  0.1070 -0.4660 -0.2639
 5534SOL    HW128235   0.592   4.494   0.587  2.3259 -0.6493  2.2096
 5534SOL    HW228236   0.566   4.397   0.682  2.0285  0.5165 -0.5262
 5535SOL     OW28237   3.990   4.504   5.820 -0.4225 -0.2503  0.8063
 5535SOL    HW128238   3.954   4.543   5.741  2.2694 -1.4527 -0.9979
 5535SOL    HW228239   3.954   4.560   5.889 -0.6581  0.6192 -0.0320
 5536SOL     OW28240   4.256   0.297   2.899  0.0068  0.2398  0.3644
 5536SOL    HW128241   4.283   0.376   2.853 -0.7156 -0.4340 -1.2512
 5536SOL    HW228242   4.165   0.291   2.870  0.5988 -0.1434 -1.4269
 5537SOL     OW28243   4.213   2.071   8.073 -0.0863 -0.0891  0.4964
 5537SOL    HW128244   4.303   2.100   8.060  0.0873 -0.9876 -0.3605
 5537SOL    HW228245   4.229   1.987   8.116  0.7294  0.1882  0.7310
 5538SOL     OW28246   0.246   2.663   0.874 -0.4781  0.7290 -0.2066
 5538SOL    HW128247   0.317   2.726   0.886  0.1576 -0.2896  1.4828
 5538SOL    HW228248   0.181   2.686   0.940 -1.9978 -0.8906 -1.1581
 5539SOL     OW28249   3.485   2.677   8.752 -0.0510 -0.1027 -0.2509
 5539SOL    HW128250   3.457   2.638   8.834  0.0553  0.1150 -0.1129
 5539SOL    HW228251   3.580   2.675   8.750 -0.0058  1.7893 -0.8354
 5540SOL     OW28252   3.987   1.708   7.580  0.2752  0.1348  0.2321
 5540SOL    HW128253   4.027   1.632   7.623 -0.7100 -0.0451  0.8160
 5540SOL    HW228254   3.994   1.683   7.488 -2.6768  0.2577 -0.0075
 5541SOL     OW28255   4.084   0.502  12.583  0.0286 -0.0389  0.0879
 5541SOL    HW128256   4.133   0.424  12.559 -1.5074 -0.2927 -2.2685
 5541SOL    HW228257   4.023   0.508  12.509  1.6657 -1.2808 -1.3505
 5542SOL     OW28258   0.304   2.456  10.025  0.3556  0.5746 -0.1935
 5542SOL    HW128259   0.360   2.411  10.089 -1.9844 -1.6746  0.2710
 5542SOL    HW228260   0.286   2.536  10.074  0.0894  1.5904 -1.9655
 5543SOL     OW28261   3.276   4.328   2.263 -0.0793 -1.2018 -0.1144
 5543SOL    HW128262   3.234   4.291   2.185  0.2896 -0.4702 -0.6692
 5543SOL    HW228263   3.206   4.358   2.321  1.6627  1.3788  0.6670
 5544SOL     OW28264   3.762   3.185   7.106 -0.7861 -0.2534 -0.2862
 5544SOL    HW128265   3.840   3.151   7.149 -0.1795  1.5632  0.0314
 5544SOL    HW228266   3.790   3.194   7.015  1.5483  1.2463  0.5726
 5545SOL     OW28267   1.265   0.956   3.703  0.4331  0.3740  0.0302
 5545SOL    HW128268   1.334   0.971   3.639  0.5261 -1.7062 -0.3569
 5545SOL    HW228269   1.289   0.864   3.713 -1.1878 -0.1823 -1.2228
 5546SOL     OW28270   0.362   0.853   9.705  0.4973 -0.1899 -0.4474
 5546SOL    HW128271   0.322   0.787   9.649  1.0198  1.9044 -3.3137
 5546SOL    HW228272   0.312   0.857   9.787 -1.2109 -0.4539 -1.4769
 5547SOL     OW28273   0.779   0.973   2.428  0.2973 -0.3421  0.7948
 5547SOL    HW128274   0.740   1.061   2.432  1.0252  0.0138  0.1661
 5547SOL    HW228275   0.698   0.931   2.456  0.2118  0.2940  1.5082
 5548SOL     OW28276   3.751   3.145  12.086 -0.4622  0.1829  0.3021
 5548SOL    HW128277   3.785   3.140  12.175  1.2107 -1.8539 -0.4339
 5548SOL    HW228278   3.755   3.054  12.056 -1.0703  0.7042 -1.3583
 5549SOL     OW28279   2.169   4.364   8.792  0.1376 -0.9708 -0.0124
 5549SOL    HW128280   2.092   4.348   8.847  0.1283  0.2546  0.3400
 5549SOL    HW228281   2.172   4.459   8.807  2.2998 -1.0472 -0.0014
 5550SOL     OW28282   2.534   3.836   2.400 -0.0479 -0.5715 -0.1800
 5550SOL    HW128283   2.599   3.796   2.458 -0.9702  0.4461  1.5337
 5550SOL    HW228284   2.557   3.927   2.418  0.4169 -0.7694  0.2228
 5551SOL     OW28285   2.403   0.558   1.581 -0.3873 -0.0451 -0.1349
 5551SOL    HW128286   2.465   0.630   1.587 -2.0343  1.1894  2.4119
 5551SOL    HW228287   2.466   0.488   1.568 -0.7612 -0.0749 -1.7765
 5552SOL     OW28288   1.003   2.129   4.941 -0.1451  0.2219 -0.1109
 5552SOL    HW128289   0.970   2.096   4.858  2.1742 -0.4665 -0.7813
 5552SOL    HW228290   1.043   2.212   4.916 -1.0631 -0.1471 -2.7895
 5553SOL     OW28291   2.797   1.432   7.744 -0.1461  0.4673 -0.2961
 5553SOL    HW128292   2.784   1.384   7.662 -0.0423  0.1015 -0.0993
 5553SOL    HW228293   2.721   1.491   7.740  0.5279  1.4452  1.4585
 5554SOL     OW28294   0.595   4.384  16.725  0.5200 -0.2126 -0.1950
 5554SOL    HW128295   0.631   4.450  16.666 -1.4796 -0.0749 -1.2676
 5554SOL    HW228296   0.656   4.316  16.695 -0.6934 -1.1144 -0.6321
 5555SOL     OW28297   1.951   3.883   4.228  0.3689  0.0054 -0.2613
 5555SOL    HW128298   1.943   3.925   4.142 -1.1182  0.0167 -0.1264
 5555SOL    HW228299   1.956   3.788   4.215 -0.4001  0.2605 -2.5127
 5556SOL     OW28300   3.151   3.453   2.683 -0.0502 -0.5261 -0.3920
 5556SOL    HW128301   3.143   3.364   2.717 -2.3533  1.0575  3.2157
 5556SOL    HW228302   3.222   3.489   2.737 -0.3960 -1.3110  0.5865
 5557SOL     OW28303   3.491   4.700   0.686  0.3025 -0.3345 -0.1486
 5557SOL    HW128304   3.552   0.034   0.717 -0.6632  0.9457 -1.0468
 5557SOL    HW228305   3.404   0.007   0.686  0.1365 -0.6970 -0.0114
 5558SOL     OW28306   1.796   1.192   3.627 -0.0245  0.4390  0.0735
 5558SOL    HW128307   1.742   1.159   3.556  2.5685 -0.6981 -1.3610
 5558SOL    HW228308   1.880   1.156   3.598 -0.5172  2.1651 -3.4443
 5559SOL     OW28309   1.119   3.328   9.318 -0.1312  0.1098  0.4452
 5559SOL    HW128310   1.116   3.255   9.255  0.7756 -0.0722  0.6099
 5559SOL    HW228311   1.100   3.402   9.260  0.4572 -0.5330 -0.5646
 5560SOL     OW28312   4.580   3.890   2.335 -0.7465 -0.2122  0.2935
 5560SOL    HW128313   4.496   3.861   2.300 -1.1661  0.5886  0.6416
 5560SOL    HW228314   4.598   3.959   2.271  0.7866 -0.0719  0.8734
 5561SOL     OW28315   4.029   0.431   6.826  0.2653 -0.1465  0.6494
 5561SOL    HW128316   4.030   0.406   6.734 -1.0599 -0.7908  0.8216
 5561SOL    HW228317   4.088   0.363   6.857 -0.7921 -1.0740  0.6035
 5562SOL     OW28318   0.794   0.649  15.648 -0.8368  0.0438  0.3816
 5562SOL    HW128319   0.774   0.654  15.741 -0.4454 -1.0187  0.5188
 5562SOL    HW228320   0.712   0.607  15.621  0.6370 -1.8610 -1.1465
 5563SOL     OW28321   0.508   1.196   7.251  0.4167  0.2598 -0.2491
 5563SOL    HW128322   0.549   1.120   7.211  0.7259  0.6092 -0.5954
 5563SOL    HW228323   0.491   1.257   7.180 -1.5968  1.9561  1.6661
 5564SOL     OW28324   2.338   0.409  14.779 -0.3510  0.3444  0.1164
 5564SOL    HW128325   2.290   0.344  14.727 -0.2562  1.0192 -0.8336
 5564SOL    HW228326   2.397   0.440  14.710  0.3791  0.9145  0.9987
 5565SOL     OW28327   2.042   0.653   3.035  0.1308 -0.1925 -0.2203
 5565SOL    HW128328   1.957   0.610   3.028 -0.5150  0.7088  1.8443
 5565SOL    HW228329   2.102   0.618   2.969 -0.3097 -1.0149 -0.1857
 5566SOL     OW28330   0.432   2.118   0.972  0.2713  0.2922 -0.0461
 5566SOL    HW128331   0.437   2.078   0.885 -0.1699  0.7658 -0.2917
 5566SOL    HW228332   0.520   2.149   0.988  0.3357  0.4263 -0.6746
 5567SOL     OW28333   3.374   2.538   3.931 -0.7693 -0.3741 -0.2288
 5567SOL    HW128334   3.444   2.600   3.951 -1.0765  0.3408 -1.3277
 5567SOL    HW228335   3.312   2.589   3.879 -0.7430  1.0573  1.1564
 5568SOL     OW28336   1.259   4.630  10.262  0.0150  0.1123 -0.5808
 5568SOL    HW128337   1.268   4.612  10.169  0.3332  0.7528 -0.6755
 5568SOL    HW228338   1.262   4.536  10.283  2.7065  1.3275  4.4121
 5569SOL     OW28339   1.775   4.341   2.660 -0.1071 -0.2885  0.5657
 5569SOL    HW128340   1.727   4.285   2.599  0.4777 -2.2091  1.8651
 5569SOL    HW228341   1.738   4.424   2.631 -0.2869 -1.0335 -1.3654
 5570SOL     OW28342   4.681   3.494   8.388 -0.0633  0.5237 -0.6054
 5570SOL    HW128343   0.037   3.523   8.410  0.2591  0.1181 -1.3561
 5570SOL    HW228344   4.635   3.576   8.406 -1.7385 -0.6379  0.4526
 5571SOL     OW28345   2.492   1.189  17.618  0.0883  0.0898  0.2950
 5571SOL    HW128346   2.437   1.116  17.648 -0.6387  0.1506 -0.9101
 5571SOL    HW228347   2.500   1.237  17.701 -0.2397 -0.4975  0.6673
 5572SOL     OW28348   0.663   3.582  13.081 -0.3859 -0.3059 -0.0710
 5572SOL    HW128349   0.735   3.587  13.143 -0.1946 -1.6490 -0.1686
 5572SOL    HW228350   0.666   3.489  13.057  1.2119 -0.6187  1.3638
 5573SOL     OW28351   4.241   1.998   7.373 -0.5202  0.2923  0.5693
 5573SOL    HW128352   4.337   2.004   7.372 -0.5349  0.3068 -0.9261
 5573SOL    HW228353   4.219   1.966   7.461 -1.4035  1.5052  0.7858
 5574SOL     OW28354   1.642   2.395   7.309  0.0288  0.3752  0.5806
 5574SOL    HW128355   1.607   2.359   7.227  1.1656 -0.4880  0.4759
 5574SOL    HW228356   1.695   2.324   7.345 -0.2925 -0.0452  0.2185
 5575SOL     OW28357   2.343   0.101  14.873 -0.3749  0.2518  0.0668
 5575SOL    HW128358   2.286   0.123  14.800 -0.7843  0.8740  0.5734
 5575SOL    HW228359   2.429   0.108  14.833  0.0263 -0.4778  0.7939
 5576SOL     OW28360   0.207   3.167   4.813 -0.4443 -0.2920  0.0052
 5576SOL    HW128361   0.147   3.226   4.767  2.3456 -0.4573 -3.8026
 5576SOL    HW228362   0.247   3.229   4.874 -1.0116 -1.2479  1.3511
 5577SOL     OW28363   0.153   3.604  16.202 -0.1227 -0.4033 -0.4361
 5577SOL    HW128364   0.110   3.564  16.278 -0.7326 -0.8940 -1.0375
 5577SOL    HW228365   0.183   3.682  16.247  0.9679  0.0253 -1.8894
 5578SOL     OW28366   4.209   2.917  14.442 -0.0591  0.7551  0.7477
 5578SOL    HW128367   4.132   2.877  14.403  0.6704 -0.2297  0.3088
 5578SOL    HW228368   4.279   2.861  14.408 -1.0789 -0.2046  0.2442
 5579SOL     OW28369   3.841   4.436   6.760  1.1007 -0.1225 -0.2448
 5579SOL    HW128370   3.791   4.357   6.739  0.8172 -0.0350  0.0979
 5579SOL    HW228371   3.786   4.478   6.827  3.0415 -1.5087  2.1909
 5580SOL     OW28372   3.016   1.979   8.372  0.0304 -0.4783  0.0975
 5580SOL    HW128373   3.039   2.017   8.287  1.4375 -1.4511  0.0407
 5580SOL    HW228374   2.930   1.940   8.357  0.9540 -2.2530 -0.5650
 5581SOL     OW28375   4.408   3.762  17.544  0.3580 -0.9471 -0.0167
 5581SOL    HW128376   4.399   3.844  17.494 -1.3043 -1.6542 -0.8697
 5581SOL    HW228377   4.321   3.721  17.541 -0.1849  0.1388  0.8664
 5582SOL     OW28378   2.103   2.463   7.029 -0.1658  0.0911 -0.5314
 5582SOL    HW128379   2.114   2.457   7.124  2.0677  0.3814 -0.7611
 5582SOL    HW228380   2.093   2.372   7.002 -3.2894  0.0417  0.8600
 5583SOL     OW28381   1.083   4.505   1.550  0.3199 -0.2292 -0.1954
 5583SOL    HW128382   1.142   4.507   1.626 -2.2747  0.6814  1.7871
 5583SOL    HW228383   1.117   4.420   1.523  0.4986  0.4294 -2.0536
 5584SOL     OW28384   0.817   1.729   2.912  0.2345  0.0008 -0.0167
 5584SOL    HW128385   0.822   1.754   3.004 -1.2423  1.6614 -0.3950
 5584SOL    HW228386   0.899   1.757   2.872  0.8448  0.0391  1.2403
 5585SOL     OW28387   1.562   2.770  14.076  0.5199  0.0895 -0.1643
 5585SOL    HW128388   1.607   2.745  13.995  1.1322 -0.1877  0.2598
 5585SOL    HW228389   1.633   2.759  14.140 -0.4384 -0.1338  0.8457
 5586SOL     OW28390   4.438   1.484   9.676 -0.6802  0.7536 -0.4012
 5586SOL    HW128391   4.361   1.537   9.693 -0.1505  1.2458  0.4473
 5586SOL    HW228392   4.392   1.404   9.651 -0.8778  0.7128  0.0984
 5587SOL     OW28393   0.007   1.914   2.720 -0.4732  0.3742  0.1374
 5587SOL    HW128394   0.101   1.897   2.729 -0.8675 -0.6431  2.1768
 5587SOL    HW228395   4.708   1.847   2.780  1.4369  0.8256  1.6406
 5588SOL     OW28396   4.040   0.544   4.134  0.0722  0.0459 -0.2525
 5588SOL    HW128397   3.969   0.520   4.193 -0.1932 -1.2270 -1.1012
 5588SOL    HW228398   4.044   0.640   4.139  0.3750 -0.0219  0.8312
 5589SOL     OW28399   2.913   1.956   7.861 -0.1607 -0.2226 -0.3142
 5589SOL    HW128400   2.930   1.872   7.905  0.9891 -0.2611 -0.8115
 5589SOL    HW228401   2.822   1.966   7.887 -0.2828 -0.8153 -0.5042
 5590SOL     OW28402   1.602   0.484   9.787 -0.6208 -0.1667 -0.2326
 5590SOL    HW128403   1.646   0.560   9.825  0.1347 -0.0326 -1.3646
 5590SOL    HW228404   1.639   0.412   9.839  0.7800 -0.3793 -1.5168
 5591SOL     OW28405   0.725   3.694   1.780 -0.0096 -0.7308  0.1582
 5591SOL    HW128406   0.802   3.639   1.769  0.3238 -0.1770 -0.2607
 5591SOL    HW228407   0.645   3.641   1.776 -1.7482  2.0165 -1.5749
 5592SOL     OW28408   1.672   4.395   0.013 -0.2671 -0.0824 -0.3464
 5592SOL    HW128409   1.597   4.446   0.044 -0.5319 -0.2306 -0.7520
 5592SOL    HW228410   1.726   4.388   0.092  1.0345  0.3921 -1.2025
 5593SOL     OW28411   3.466   4.259  17.446  0.0150 -0.2210 -0.2639
 5593SOL    HW128412   3.519   4.335  17.472  0.5986 -0.5255 -0.5501
 5593SOL    HW228413   3.449   4.267  17.352 -1.4288  2.5298  0.2156
 5594SOL     OW28414   4.727   1.615   4.998 -0.5157  0.5688 -0.0037
 5594SOL    HW128415   0.020   1.691   4.946 -0.3457 -0.3965 -1.3357
 5594SOL    HW228416   4.727   1.642   5.090  0.3673 -0.1463  0.2059
 5595SOL     OW28417   3.888   1.426  10.109 -0.2078  0.1913  0.6631
 5595SOL    HW128418   3.959   1.471  10.063 -0.6482  0.9928  0.7492
 5595SOL    HW228419   3.929   1.345  10.140  1.5421  0.8315  0.0365
 5596SOL     OW28420   3.610   2.671   2.312  0.0784 -0.2044  0.1600
 5596SOL    HW128421   3.699   2.662   2.279 -0.1205 -2.4907  0.2387
 5596SOL    HW228422   3.610   2.585   2.353  2.2311 -1.0305 -1.5884
 5597SOL     OW28423   4.153   4.677   4.957 -0.0239  0.2078 -0.6158
 5597SOL    HW128424   4.132   4.585   4.946 -3.9276  1.4353 -3.1907
 5597SOL    HW228425   4.069   4.711   4.988  0.0255 -1.1486  0.9910
 5598SOL     OW28426   4.442   3.163   2.466  0.2529  1.1737  0.9935
 5598SOL    HW128427   4.529   3.142   2.432  0.0359  0.8234  0.6399
 5598SOL    HW228428   4.397   3.139   2.384  3.5197  0.6058 -0.6302
 5599SOL     OW28429   3.069   3.057   1.929  0.2601  0.3032  0.2519
 5599SOL    HW128430   3.127   3.070   2.004  0.1018  1.0874  0.2352
 5599SOL    HW228431   3.093   3.126   1.868 -0.6123  0.0970 -0.3238
 5600SOL     OW28432   0.145   4.362   7.055 -0.7895 -0.0415 -0.2089
 5600SOL    HW128433   0.140   4.285   6.998  0.3156  0.6008 -1.1836
 5600SOL    HW228434   0.053   4.353   7.080 -1.2684 -0.7968 -2.2327
 5601SOL     OW28435   4.042   3.330   8.532  0.7907  0.0684 -0.0789
 5601SOL    HW128436   4.074   3.240   8.526 -2.8396 -1.0412 -3.1039
 5601SOL    HW228437   4.128   3.371   8.537 -0.1315  2.2904 -2.8706
 5602SOL     OW28438   0.008   0.182  12.712 -0.5040 -0.4688  0.3041
 5602SOL    HW128439   0.009   0.276  12.696  0.8049  0.0575  3.4984
 5602SOL    HW228440   0.028   0.144  12.627 -1.6867  0.1352 -0.2372
 5603SOL     OW28441   4.182   0.829  14.814  0.3727 -0.2375 -0.1309
 5603SOL    HW128442   4.155   0.918  14.838  1.3548  0.6752 -2.3736
 5603SOL    HW228443   4.145   0.782  14.888 -0.4319  0.2570 -0.2217
 5604SOL     OW28444   0.924   0.725   6.302  0.0036 -0.5353  0.1925
 5604SOL    HW128445   0.887   0.799   6.350  2.0950  0.3731  0.4028
 5604SOL    HW228446   0.914   0.657   6.368  1.0642 -1.0235 -0.1448
 5605SOL     OW28447   2.515   2.297   5.815  0.2726  0.2624  0.3031
 5605SOL    HW128448   2.465   2.216   5.826 -0.5102  0.4996 -1.5650
 5605SOL    HW228449   2.455   2.346   5.759 -0.8711  0.1015  1.3813
 5606SOL     OW28450   4.368   2.127   2.868 -0.5415 -0.5219 -0.2588
 5606SOL    HW128451   4.386   2.157   2.957 -1.1954 -0.6657 -0.0789
 5606SOL    HW228452   4.404   2.039   2.875 -3.6904 -1.7476  0.4767
 5607SOL     OW28453   1.929   0.563   8.705  0.4428  0.2752  0.1886
 5607SOL    HW128454   1.932   0.615   8.625  1.2306 -0.3962 -0.2216
 5607SOL    HW228455   2.023   0.551   8.720  0.6702  1.8835  0.0719
 5608SOL     OW28456   2.393   2.908   9.034  0.5282 -0.5635 -0.1225
 5608SOL    HW128457   2.427   2.839   9.090  2.9137  0.7564  0.0987
 5608SOL    HW228458   2.390   2.868   8.947 -2.8355 -0.4609 -0.0300
 5609SOL     OW28459   4.009   3.048   7.129  0.0128  0.0342 -0.4564
 5609SOL    HW128460   4.096   3.087   7.116 -0.4313  1.5052  1.0114
 5609SOL    HW228461   4.029   2.955   7.141 -0.2454  0.0289 -0.0684
 5610SOL     OW28462   2.500   0.899  10.459  0.4689  0.2621 -0.1151
 5610SOL    HW128463   2.576   0.957  10.464 -1.2797  2.5550 -0.3315
 5610SOL    HW228464   2.464   0.913  10.546  0.7134  0.9265 -0.1240
 5611SOL     OW28465   3.689   4.050   8.432 -0.0219  0.4259 -0.2695
 5611SOL    HW128466   3.718   4.075   8.344  1.7894  0.4355  0.3240
 5611SOL    HW228467   3.605   4.010   8.409  0.2720 -0.3537  0.0305
 5612SOL     OW28468   2.783   2.638  12.223  0.3603 -0.6544  0.1047
 5612SOL    HW128469   2.709   2.616  12.279  0.2875 -0.3130  0.1462
 5612SOL    HW228470   2.752   2.620  12.134  1.9731  0.1409 -0.6197
 5613SOL     OW28471   2.298   1.119   2.806 -0.4956 -0.5832  0.0257
 5613SOL    HW128472   2.367   1.081   2.751 -0.7888 -0.5475 -0.3709
 5613SOL    HW228473   2.220   1.108   2.751 -1.7894  3.3928  1.0846
 5614SOL     OW28474   0.939   2.678  17.283  0.3467  0.4761  0.1839
 5614SOL    HW128475   0.918   2.599  17.333 -0.4397  0.4964 -0.1095
 5614SOL    HW228476   1.033   2.664  17.271  0.2501  0.2709 -0.3726
 5615SOL     OW28477   1.249   4.565   9.975 -0.8243 -0.2072 -0.4170
 5615SOL    HW128478   1.294   4.629   9.920  0.7784 -0.6219  0.4124
 5615SOL    HW228479   1.175   4.620   9.997  0.0516  0.6991  0.2364
 5616SOL     OW28480   0.933   2.572  12.385  0.5034  0.3346  0.2688
 5616SOL    HW128481   1.014   2.557  12.336 -1.3933  1.5415 -3.2438
 5616SOL    HW228482   0.902   2.653  12.344  0.4271  2.0358  3.6578
 5617SOL     OW28483   2.300   1.300   3.012  0.2601 -0.1298 -0.0377
 5617SOL    HW128484   2.249   1.369   2.971  0.9516  0.6229  0.3624
 5617SOL    HW228485   2.295   1.234   2.943  0.3579  1.8032 -1.8959
 5618SOL     OW28486   0.013   0.141  12.994  0.6616  0.1816  0.1150
 5618SOL    HW128487   0.018   0.164  12.901  0.9830 -1.6351 -0.3235
 5618SOL    HW228488   0.104   0.112  13.003  1.0723  1.4189 -0.0281
 5619SOL     OW28489   2.108   3.084  11.777 -0.2541  1.0922 -0.6375
 5619SOL    HW128490   2.133   3.051  11.863 -1.5107 -0.7525 -0.9785
 5619SOL    HW228491   2.078   3.011  11.723 -0.2200 -1.0762  2.2730
 5620SOL     OW28492   3.356   0.714   1.364  0.5203  0.0977 -0.3777
 5620SOL    HW128493   3.325   0.653   1.297  0.2437 -0.6229  0.4127
 5620SOL    HW228494   3.393   0.781   1.306  3.0114  1.1763  2.4680
 5621SOL     OW28495   0.799   4.045  13.415 -0.2069 -0.6876 -0.1844
 5621SOL    HW128496   0.860   4.118  13.410  0.2407 -1.0627 -0.2083
 5621SOL    HW228497   0.714   4.083  13.437 -1.0485 -2.1144 -0.8846
 5622SOL     OW28498   0.457   0.448  13.144 -0.0977  0.5258  0.3641
 5622SOL    HW128499   0.416   0.397  13.214  2.0597 -1.8468 -0.1131
 5622SOL    HW228500   0.507   0.514  13.193 -0.6622  1.0402  0.2470
 5623SOL     OW28501   1.793   3.292   6.660 -0.1279 -0.7027  0.7173
 5623SOL    HW128502   1.870   3.308   6.605  0.1121  0.3977  1.3755
 5623SOL    HW228503   1.722   3.313   6.599  2.0840  3.3405 -0.4558
 5624SOL     OW28504   1.642   0.124   2.015 -0.5742 -0.4432  0.2967
 5624SOL    HW128505   1.578   0.164   1.957 -1.0063 -0.9838  0.3971
 5624SOL    HW228506   1.691   0.059   1.965 -0.1616  0.2607 -0.2051
 5625SOL     OW28507   3.724   4.366   9.122 -0.4738  0.3488  0.0839
 5625SOL    HW128508   3.738   4.298   9.188  0.0587  1.4321  1.1027
 5625SOL    HW228509   3.712   4.446   9.174  2.4265  0.2350  0.9189
 5626SOL     OW28510   1.020   0.557   4.084 -0.4137 -0.1915  0.0840
 5626SOL    HW128511   0.990   0.468   4.105  0.0272  0.2752  2.6248
 5626SOL    HW228512   0.939   0.607   4.091  0.8829  2.2349 -2.5110
 5627SOL     OW28513   0.988   1.259   5.141 -0.1883 -0.2222  0.5445
 5627SOL    HW128514   0.952   1.196   5.203 -3.5697  2.1149  0.9772
 5627SOL    HW228515   1.020   1.328   5.200  1.1817 -0.0958 -0.3382
 5628SOL     OW28516   4.652   3.017   3.968  0.1799  0.0177 -0.6077
 5628SOL    HW128517   4.653   3.101   3.922  1.0137 -0.9455 -2.3345
 5628SOL    HW228518   4.589   2.975   3.910  1.5142 -0.7754 -1.4801
 5629SOL     OW28519   2.892   1.405  16.814  0.1707 -0.0913 -0.0256
 5629SOL    HW128520   2.937   1.483  16.780 -1.3091  0.5430 -0.5198
 5629SOL    HW228521   2.804   1.440  16.824 -0.4791 -2.0709  0.9617
 5630SOL     OW28522   3.138   0.847   1.111 -0.6653 -0.2841  0.5518
 5630SOL    HW128523   3.051   0.807   1.121 -2.4278  2.6060 -3.0344
 5630SOL    HW228524   3.129   0.913   1.179  4.2329 -1.8210  2.6890
 5631SOL     OW28525   0.081   3.846   3.917 -0.1500  0.0992  0.0364
 5631SOL    HW128526   0.025   3.837   3.994  0.5952  3.1438  0.9302
 5631SOL    HW228527   0.060   3.935   3.890 -1.7874 -0.7577 -1.4399
 5632SOL     OW28528   2.949   0.144   2.199  0.4383  0.3684  0.2019
 5632SOL    HW128529   2.898   0.081   2.249  0.8049 -1.2849 -1.4866
 5632SOL    HW228530   2.967   0.216   2.258 -2.3010 -1.5681  3.3818
 5633SOL     OW28531   3.872   1.192   7.454 -0.3461 -0.2574  0.3220
 5633SOL    HW128532   3.856   1.272   7.505 -1.7638 -0.5416  0.3423
 5633SOL    HW228533   3.784   1.159   7.433  0.3939 -1.9955  0.0027
 5634SOL     OW28534   2.240   0.935   0.476 -0.0379 -0.0020  0.3482
 5634SOL    HW128535   2.235   1.009   0.538  0.4356  0.4099 -0.1070
 5634SOL    HW228536   2.291   0.875   0.531 -1.1444 -1.1199  0.1526
 5635SOL     OW28537   4.577   1.601   1.435  0.2036 -0.1077  0.0270
 5635SOL    HW128538   4.604   1.584   1.344  0.2218  0.3237 -0.0448
 5635SOL    HW228539   4.529   1.519   1.450  1.0758 -0.2515  2.0311
 5636SOL     OW28540   4.483   2.237   0.185  0.4089  0.5348  0.3404
 5636SOL    HW128541   4.505   2.254   0.093 -0.9213 -0.5218 -0.1707
 5636SOL    HW228542   4.571   2.238   0.222 -0.1852 -2.0462  1.7694
 5637SOL     OW28543   0.508   4.005   4.390 -0.0845  0.9931  0.3496
 5637SOL    HW128544   0.413   3.995   4.394  0.0294  0.3007  1.2274
 5637SOL    HW228545   0.502   4.070   4.459  0.3364  2.0210 -0.5846
 5638SOL     OW28546   0.151   0.892   5.936  0.7704  0.5245 -0.2464
 5638SOL    HW128547   0.110   0.879   6.021  1.0948  0.1297 -0.1504
 5638SOL    HW228548   0.087   0.954   5.902  2.9589  1.9104 -1.8465
 5639SOL     OW28549   1.169   0.813   0.366 -0.3439  0.6256  0.5017
 5639SOL    HW128550   1.195   0.838   0.455  1.0530  0.1166  0.2507
 5639SOL    HW228551   1.222   0.868   0.309 -0.6170 -0.2599 -0.6203
 5640SOL     OW28552   4.409   1.013   3.039 -0.1004 -0.6393 -0.7103
 5640SOL    HW128553   4.359   0.964   2.974  0.0107 -0.5970 -0.8275
 5640SOL    HW228554   4.413   1.099   2.997  0.3612 -1.5228 -2.4565
 5641SOL     OW28555   3.205   4.083   9.450 -0.5363 -0.0470 -0.2503
 5641SOL    HW128556   3.164   4.015   9.503 -2.1251  0.5943 -0.6622
 5641SOL    HW228557   3.153   4.084   9.369 -0.0647  0.1830 -0.5537
 5642SOL     OW28558   1.480   0.166   3.649  0.4980 -0.0865  0.0222
 5642SOL    HW128559   1.498   0.076   3.621 -0.5169 -0.4590  0.5743
 5642SOL    HW228560   1.546   0.211   3.597 -1.1670  0.5924 -1.5007
 5643SOL     OW28561   3.652   2.404   3.897 -0.4324 -0.3439 -0.2674
 5643SOL    HW128562   3.661   2.420   3.991 -0.5458 -0.4101 -0.2458
 5643SOL    HW228563   3.562   2.427   3.874  0.5221  1.3186 -2.3064
 5644SOL     OW28564   3.473   2.239   7.603  0.1429 -0.4375  0.8303
 5644SOL    HW128565   3.479   2.331   7.575 -1.8182 -0.3373  0.7541
 5644SOL    HW228566   3.559   2.212   7.571  0.5399  1.5699  0.2059
 5645SOL     OW28567   0.694   1.138   4.115  0.1202 -0.4137 -0.1946
 5645SOL    HW128568   0.652   1.168   4.196  2.0125 -0.6773  0.8782
 5645SOL    HW228569   0.620   1.161   4.058  0.2249  0.9792  0.2284
 5646SOL     OW28570   1.314   1.784   8.836 -0.3330 -0.2811  0.1161
 5646SOL    HW128571   1.227   1.762   8.804 -0.9424  1.5054  0.5117
 5646SOL    HW228572   1.311   1.880   8.844  1.0517 -0.2406  0.2362
 5647SOL     OW28573   2.009   0.366   3.979  0.0761  0.1030  0.0145
 5647SOL    HW128574   2.044   0.374   3.890  0.1178  1.4164  0.1442
 5647SOL    HW228575   2.013   0.460   4.000 -2.3659 -0.1169  1.5354
 5648SOL     OW28576   4.546   3.114   5.768 -0.6829  0.0161 -0.3257
 5648SOL    HW128577   4.501   3.137   5.850  1.7816  2.6776  0.2762
 5648SOL    HW228578   4.489   3.148   5.699 -1.2306 -1.8271 -0.7756
 5649SOL     OW28579   2.823   4.243   8.441 -0.3077  0.0763  0.4156
 5649SOL    HW128580   2.746   4.293   8.467  1.0243  1.7689  1.1280
 5649SOL    HW228581   2.891   4.260   8.506  0.4466  2.9728 -1.0982
 5650SOL     OW28582   3.266   4.679   6.875  1.0242 -0.5445 -0.2943
 5650SOL    HW128583   3.181   4.666   6.915  0.4327  1.8024 -0.7658
 5650SOL    HW228584   3.250   0.034   6.840 -4.7251 -1.6991 -0.5516
 5651SOL     OW28585   2.780   4.583   1.968  0.2409 -0.1361 -0.6515
 5651SOL    HW128586   2.754   4.491   1.973  2.3433 -0.9082 -3.3171
 5651SOL    HW228587   2.856   4.590   2.027 -1.5571  0.4095  1.5874
 5652SOL     OW28588   0.369   1.045   5.859 -0.1541 -0.6758  0.0415
 5652SOL    HW128589   0.419   0.999   5.927 -2.2254 -0.2798  1.8456
 5652SOL    HW228590   0.284   1.002   5.858 -0.4181 -0.1347 -0.5384
 5653SOL     OW28591   2.044   1.430   2.195  0.3032  0.0811  0.2579
 5653SOL    HW128592   2.130   1.444   2.234  1.9975 -1.3106 -2.9784
 5653SOL    HW228593   2.004   1.514   2.214 -0.8282 -0.3753 -0.1312
 5654SOL     OW28594   1.957   0.891   8.980  0.5413 -0.4768 -0.2522
 5654SOL    HW128595   1.900   0.958   9.018  0.5040  0.8555 -2.6825
 5654SOL    HW228596   1.974   0.925   8.892 -0.9666  0.5618 -0.1283
 5655SOL     OW28597   0.395   1.486   8.800 -0.1348  0.2810  0.6826
 5655SOL    HW128598   0.443   1.476   8.718 -1.4276  0.2510 -0.0736
 5655SOL    HW228599   0.454   1.443   8.862  0.4680  2.8131  1.8586
 5656SOL     OW28600   4.057   4.666  11.301 -0.4398 -0.5393 -0.1983
 5656SOL    HW128601   4.134   4.655  11.358 -1.4329 -0.4849  1.1708
 5656SOL    HW228602   3.988   4.645  11.363  0.8144  0.3449  1.5175
 5657SOL     OW28603   1.370   2.976   7.047  0.1761 -0.0512  0.3875
 5657SOL    HW128604   1.317   2.981   7.127 -0.9874  1.9554 -0.5353
 5657SOL    HW228605   1.345   2.897   7.000  1.6064  0.4095 -1.1475
 5658SOL     OW28606   2.585   1.299   0.128  0.2055 -0.2466 -0.9622
 5658SOL    HW128607   2.540   1.263   0.205 -1.3095 -0.4060 -1.9178
 5658SOL    HW228608   2.669   1.317   0.171  0.5448  0.7188 -2.0480
 5659SOL     OW28609   3.659   1.687   4.734  0.0005 -0.1873 -0.3326
 5659SOL    HW128610   3.696   1.741   4.804 -1.8208  0.9396 -0.2469
 5659SOL    HW228611   3.744   1.663   4.696  0.6897 -0.9982  1.6993
 5660SOL     OW28612   1.690   1.911   5.744  0.0314 -0.0157  0.4601
 5660SOL    HW128613   1.719   1.833   5.696  1.2393 -1.0214  2.8308
 5660SOL    HW228614   1.762   1.971   5.725 -0.0289  0.3014  1.2421
 5661SOL     OW28615   2.286   1.641   5.569 -0.6483 -0.3418 -0.4483
 5661SOL    HW128616   2.361   1.583   5.558 -1.1874 -0.5633 -2.9071
 5661SOL    HW228617   2.321   1.712   5.623 -0.7311 -1.5673  1.2097
 5662SOL     OW28618   3.065   0.706   4.177  0.5077 -0.2100 -0.0355
 5662SOL    HW128619   2.975   0.673   4.181  0.0253  1.0648 -0.1815
 5662SOL    HW228620   3.049   0.800   4.182 -1.6730 -0.5266 -1.0018
 5663SOL     OW28621   2.592   1.322   5.959 -0.0083 -0.0739 -0.0460
 5663SOL    HW128622   2.550   1.408   5.968  0.7331  0.5494 -2.8091
 5663SOL    HW228623   2.588   1.309   5.865 -3.4428  0.5143  0.0143
 5664SOL     OW28624   1.071   0.230   9.043  0.4084  0.1140  0.1908
 5664SOL    HW128625   1.037   0.170   8.977 -0.1549  1.5378 -0.8143
 5664SOL    HW228626   1.161   0.227   9.010 -0.5964 -1.4613 -2.3745
 5665SOL     OW28627   1.359   4.283   5.090 -0.3103 -0.2116  0.1141
 5665SOL    HW128628   1.414   4.361   5.080  0.1157 -0.5106  0.1554
 5665SOL    HW228629   1.368   4.277   5.185  2.5743 -2.3215 -0.3216
 5666SOL     OW28630   1.801   2.095   8.097 -0.1700  0.5909 -0.5161
 5666SOL    HW128631   1.865   2.028   8.123 -0.6573  1.0685  1.9614
 5666SOL    HW228632   1.838   2.136   8.020 -0.1263  0.4648 -0.5628
 5667SOL     OW28633   1.955   3.055   5.845 -0.2776 -0.2513 -0.2930
 5667SOL    HW128634   1.938   3.130   5.902  0.3068 -1.4049  1.3990
 5667SOL    HW228635   1.912   2.986   5.897 -0.1422  0.1769  0.3861
 5668SOL     OW28636   2.870   1.449   5.617 -0.0897  0.3857  0.0906
 5668SOL    HW128637   2.908   1.404   5.692 -0.4069 -0.2439 -0.1275
 5668SOL    HW228638   2.908   1.392   5.550 -1.0636  0.3257 -0.4013
 5669SOL     OW28639   1.899   2.029   4.182 -0.4314  0.0084 -0.5325
 5669SOL    HW128640   1.832   2.081   4.138 -1.1156 -2.0869 -1.9590
 5669SOL    HW228641   1.861   1.941   4.186  0.8403 -0.5255 -0.4125
 5670SOL     OW28642   4.488   0.708  12.867 -0.8436 -0.6360  0.5846
 5670SOL    HW128643   4.522   0.794  12.892  0.3997 -1.3273  1.2602
 5670SOL    HW228644   4.534   0.658  12.935  1.8634  0.5625 -0.3501
 5671SOL     OW28645   2.200   0.521   2.834  0.2555  0.0539 -0.3868
 5671SOL    HW128646   2.222   0.452   2.897  0.6667  1.1477  0.6741
 5671SOL    HW228647   2.285   0.564   2.838 -0.5749  1.5642  1.3266
 5672SOL     OW28648   0.353   1.725   3.385  0.1837 -0.4759  0.1458
 5672SOL    HW128649   0.401   1.807   3.394 -0.8749  0.6403 -4.5718
 5672SOL    HW228650   0.329   1.712   3.477 -1.4773 -1.7489 -0.4829
 5673SOL     OW28651   1.486   3.534   8.530 -0.1337  0.1773  0.4578
 5673SOL    HW128652   1.505   3.579   8.612 -2.4783 -0.2788  1.2579
 5673SOL    HW228653   1.410   3.584   8.499 -0.2566 -0.2327  0.0942
 5674SOL     OW28654   3.626   4.149   3.516  0.6551  0.1793  0.0876
 5674SOL    HW128655   3.694   4.201   3.473 -1.0999  2.5993  0.2575
 5674SOL    HW228656   3.590   4.213   3.578 -2.3711 -1.0744 -0.4101
 5675SOL     OW28657   2.497   1.764   7.448 -0.6599 -0.1145 -0.1305
 5675SOL    HW128658   2.544   1.791   7.527 -0.0301 -0.6637 -0.3205
 5675SOL    HW228659   2.569   1.714   7.410 -0.6038 -0.5094  0.4916
 5676SOL     OW28660   0.081   3.174  17.444 -0.3977  0.0780 -1.1525
 5676SOL    HW128661   0.134   3.097  17.461 -0.9598  0.4622  2.2067
 5676SOL    HW228662   0.116   3.225  17.517 -0.0182 -2.3618  0.3524
 5677SOL     OW28663   3.449   4.489   5.319  0.1248  0.4969  0.2236
 5677SOL    HW128664   3.355   4.493   5.301 -0.0269 -0.0778  0.8551
 5677SOL    HW228665   3.499   4.556   5.273  1.5271 -1.0559 -0.5109
 5678SOL     OW28666   3.947   3.694   1.949 -0.1210  0.3045 -0.5572
 5678SOL    HW128667   3.865   3.705   1.901 -0.7570 -0.9745  0.2458
 5678SOL    HW228668   3.964   3.602   1.930  0.5822  0.5919 -1.3120
 5679SOL     OW28669   2.653   2.382   0.161 -0.4845  0.4581 -0.1185
 5679SOL    HW128670   2.637   2.471   0.130  2.9919  0.5415 -1.6638
 5679SOL    HW228671   2.593   2.361   0.232 -3.0339  0.8865 -2.1435
 5680SOL     OW28672   2.867   0.151   8.690  0.2828 -0.6763 -0.0140
 5680SOL    HW128673   2.911   0.089   8.632 -0.0389  1.7701 -2.9087
 5680SOL    HW228674   2.848   0.208   8.616 -0.3965 -1.1120 -0.1713
 5681SOL     OW28675   0.388   1.163  11.751  0.0030  0.1743  0.2263
 5681SOL    HW128676   0.393   1.176  11.656 -0.6225 -0.0583  0.1538
 5681SOL    HW228677   0.481   1.164  11.772  0.1589  1.4569 -0.5545
 5682SOL     OW28678   2.030   4.721   5.282 -0.1849 -0.0044  0.7064
 5682SOL    HW128679   1.980   0.039   5.217 -0.3651 -1.7991 -0.5496
 5682SOL    HW228680   1.987   0.015   5.363 -1.1619  2.5533 -0.6457
 5683SOL     OW28681   0.783   1.704   6.008  0.2620 -0.1213  0.1631
 5683SOL    HW128682   0.870   1.723   5.974 -0.5039  0.1452 -1.6291
 5683SOL    HW228683   0.749   1.658   5.932  0.9247 -0.1573 -0.1155
 5684SOL     OW28684   3.287   3.676  13.355  0.3488 -0.3618 -0.0360
 5684SOL    HW128685   3.296   3.602  13.295 -0.2645 -0.2763 -0.2286
 5684SOL    HW228686   3.219   3.646  13.415  2.6545 -1.7294  1.9029
 5685SOL     OW28687   0.918   0.151  13.963  0.1345  0.4760  0.2069
 5685SOL    HW128688   0.977   0.163  14.037 -1.0315  1.8139  0.9239
 5685SOL    HW228689   0.948   0.209  13.892 -1.8175 -1.1335 -1.9197
 5686SOL     OW28690   1.676   3.117   8.027  0.3121 -0.5533 -0.5173
 5686SOL    HW128691   1.701   3.206   8.050 -1.2180  0.0578 -1.2493
 5686SOL    HW228692   1.763   3.076   8.032  0.7172  0.6471  2.1780
 5687SOL     OW28693   3.259   0.085   0.706 -0.1874 -0.0471 -0.0603
 5687SOL    HW128694   3.223   0.114   0.790  2.3491 -2.5527  1.8876
 5687SOL    HW228695   3.222   0.148   0.644 -0.2510 -2.0593 -2.0589
 5688SOL     OW28696   2.824   4.456  13.739 -0.0900  0.0380  0.3035
 5688SOL    HW128697   2.811   4.485  13.649  2.6770 -3.4700 -1.2131
 5688SOL    HW228698   2.811   4.539  13.786 -1.9101 -0.5411  0.8476
 5689SOL     OW28699   3.022   1.239   7.114  0.2509  0.2443 -0.6104
 5689SOL    HW128700   2.985   1.327   7.105  0.0536  0.1470 -0.7569
 5689SOL    HW228701   3.018   1.201   7.026  1.1953 -1.0676 -0.0842
 5690SOL     OW28702   0.543   2.616  10.322  0.3653 -0.0248  0.9475
 5690SOL    HW128703   0.551   2.703  10.362  1.8883 -1.6153  4.1345
 5690SOL    HW228704   0.448   2.613  10.315  0.7373 -4.1145 -2.1526
 5691SOL     OW28705   1.416   1.809   3.712 -0.3765 -0.3924  0.0590
 5691SOL    HW128706   1.511   1.814   3.727 -0.3214 -1.5796  0.1149
 5691SOL    HW228707   1.428   1.750   3.638  0.4257  1.3734 -1.2379
 5692SOL     OW28708   3.291   0.945   7.648 -0.2941  0.1468 -0.0748
 5692SOL    HW128709   3.376   0.968   7.611 -0.5464  1.1307 -0.0524
 5692SOL    HW228710   3.278   0.855   7.619 -1.9706  0.6666 -0.9692
 5693SOL     OW28711   3.767   4.581  14.724 -0.0386  0.0822  0.0684
 5693SOL    HW128712   3.680   4.621  14.721  1.0482  2.4806  0.5669
 5693SOL    HW228713   3.801   4.598  14.636  0.3700 -1.4811 -0.0642
 5694SOL     OW28714   1.025   1.577  17.610  0.1501 -0.3789  0.5328
 5694SOL    HW128715   1.042   1.506  17.671  2.1020  0.8456  1.4039
 5694SOL    HW228716   1.092   1.567  17.543  0.3518  0.3796  0.6161
 5695SOL     OW28717   4.711   0.951   5.421  0.0587 -0.3156 -0.1518
 5695SOL    HW128718   4.668   0.914   5.498  0.1073  1.8089  0.8915
 5695SOL    HW228719   4.637   1.008   5.401 -0.8766 -1.2326  0.7323
 5696SOL     OW28720   4.182   0.313   4.989  0.6580  0.1863  0.8143
 5696SOL    HW128721   4.140   0.285   5.070  0.1995 -0.8861  0.2118
 5696SOL    HW228722   4.115   0.283   4.927 -0.0514  0.4340  1.4640
 5697SOL     OW28723   1.199   3.996   8.653  0.5984  0.4715 -0.4471
 5697SOL    HW128724   1.261   4.000   8.726  1.2090  0.9017 -0.9986
 5697SOL    HW228725   1.209   4.073   8.597  1.4829  2.8175  2.9382
 5698SOL     OW28726   4.025   2.475   8.537  0.0921 -0.1396 -0.2852
 5698SOL    HW128727   3.973   2.453   8.460  2.1164 -0.7015 -1.4875
 5698SOL    HW228728   3.989   2.411   8.599 -2.0135 -0.9392 -2.3653
 5699SOL     OW28729   3.392   3.516   3.160  0.3877  0.3950  0.2694
 5699SOL    HW128730   3.440   3.552   3.235  1.0455  1.1760 -0.5248
 5699SOL    HW228731   3.335   3.447   3.193  2.0887 -0.8084  0.7121
 5700SOL     OW28732   2.044   2.827   3.181  0.1670  0.3239  0.0402
 5700SOL    HW128733   1.969   2.767   3.179  0.3567  0.0806  0.1787
 5700SOL    HW228734   2.050   2.849   3.088 -0.8247 -0.2223 -0.1669
 5701SOL     OW28735   1.822   3.151   2.458 -0.7039  0.0549  0.4090
 5701SOL    HW128736   1.908   3.121   2.489 -0.3988  1.6762  1.1596
 5701SOL    HW228737   1.817   3.113   2.371  0.7593  1.1564 -0.1686
 5702SOL     OW28738   0.069   2.544   7.263 -0.0593  0.1433 -0.1546
 5702SOL    HW128739   0.130   2.587   7.322 -1.4041  2.1944 -0.2955
 5702SOL    HW228740   0.049   2.479   7.330 -1.4529  0.6903 -0.0521
 5703SOL     OW28741   4.353   4.618   1.829  0.5931  0.3042  0.5708
 5703SOL    HW128742   4.266   4.649   1.802  1.2680 -1.3798 -3.4422
 5703SOL    HW228743   4.332   4.526   1.845  0.3517  0.3733  0.6553
 5704SOL     OW28744   4.676   1.281  11.701  0.4556  0.0330 -0.2437
 5704SOL    HW128745   4.647   1.365  11.666  0.1216  0.2195  0.4845
 5704SOL    HW228746   4.689   1.225  11.625  0.3519 -0.0668 -0.1883
 5705SOL     OW28747   3.950   2.694  16.013 -0.7236  0.5893 -0.2415
 5705SOL    HW128748   3.981   2.775  15.974  1.0155 -0.4745 -1.0693
 5705SOL    HW228749   3.928   2.640  15.936 -0.2443 -1.1194  0.8097
 5706SOL     OW28750   3.696   3.611  11.507 -0.0647  0.0517  0.0538
 5706SOL    HW128751   3.742   3.613  11.423  1.0008  1.1224  0.6557
 5706SOL    HW228752   3.767   3.605  11.571 -0.9139  1.3224  1.1020
 5707SOL     OW28753   3.261   0.911   6.792 -0.3681 -0.2733  0.0124
 5707SOL    HW128754   3.309   0.991   6.811  0.5075 -0.4477 -1.4312
 5707SOL    HW228755   3.170   0.938   6.808  0.0532  0.7063  0.7317
 5708SOL     OW28756   4.588   0.122  15.795 -0.0503  0.3861 -1.0220
 5708SOL    HW128757   4.503   0.126  15.751  0.5951 -0.4926 -2.3628
 5708SOL    HW228758   4.647   0.137  15.721  2.6604 -0.9913  0.8630
 5709SOL     OW28759   1.202   3.393  12.137 -0.3139  0.2831 -0.6312
 5709SOL    HW128760   1.159   3.342  12.205 -1.0030  1.4798 -0.1753
 5709SOL    HW228761   1.130   3.437  12.092 -1.4714  0.7522  1.6938
 5710SOL     OW28762   1.441   4.216   5.341  0.4802  0.4910 -0.5408
 5710SOL    HW128763   1.438   4.309   5.364  2.7004  0.5307 -0.4404
 5710SOL    HW228764   1.472   4.181   5.424  1.0219  0.3458 -0.8072
 5711SOL     OW28765   1.370   3.439   2.744  0.2970  0.4068  0.5017
 5711SOL    HW128766   1.342   3.530   2.752 -0.5127  0.2853 -0.9332
 5711SOL    HW228767   1.461   3.455   2.718  0.1110 -1.1898 -1.1672
 5712SOL     OW28768   3.752   0.486   7.971  0.1117  0.5773 -0.4485
 5712SOL    HW128769   3.730   0.434   8.049 -2.0348  1.4513 -0.4714
 5712SOL    HW228770   3.823   0.522   8.024 -0.2275 -0.9746  1.0596
 5713SOL     OW28771   3.344   4.616  17.207  0.2934  0.2897 -0.3459
 5713SOL    HW128772   3.419   4.667  17.175  0.9198 -0.6268 -0.3396
 5713SOL    HW228773   3.275   4.651  17.151 -0.6756  0.3135  0.8641
 5714SOL     OW28774   2.405   1.545   8.189  0.2280 -0.1333 -0.4359
 5714SOL    HW128775   2.387   1.491   8.265 -1.6446  2.1930  0.7895
 5714SOL    HW228776   2.326   1.533   8.136  0.1627 -1.9798  0.1118
 5715SOL     OW28777   2.482   3.756   6.999  0.3882  0.1437 -0.6295
 5715SOL    HW128778   2.439   3.704   6.933 -0.4471 -0.0309  0.0496
 5715SOL    HW228779   2.405   3.798   7.038 -1.4318 -3.0352 -0.8385
 5716SOL     OW28780   4.667   2.483   4.622 -0.1296 -0.3952  0.0655
 5716SOL    HW128781   4.577   2.467   4.595 -0.3595 -1.8474  1.6673
 5716SOL    HW228782   4.656   2.524   4.708 -0.8244  0.7354 -0.5482
 5717SOL     OW28783   1.948   3.992   5.362  0.7008 -0.4259 -0.6135
 5717SOL    HW128784   1.859   3.960   5.349 -0.1332  0.6986  2.3077
 5717SOL    HW228785   2.003   3.932   5.311 -1.4891 -1.5125 -1.6919
 5718SOL     OW28786   2.595   0.970   8.982 -0.0347  0.1291 -0.4154
 5718SOL    HW128787   2.589   1.064   8.963  2.9123  0.5992  1.0075
 5718SOL    HW228788   2.677   0.960   9.030 -1.5750 -2.9590  1.5772
 5719SOL     OW28789   3.849   1.289   3.097  0.2406  0.6271  0.1534
 5719SOL    HW128790   3.907   1.349   3.144  2.6250 -1.9907  0.5729
 5719SOL    HW228791   3.818   1.243   3.175  2.4900 -0.9406  0.1087
 5720SOL     OW28792   4.235   1.520   2.417 -0.2810  0.0261  0.0800
 5720SOL    HW128793   4.146   1.548   2.398  0.4898  1.0205 -2.0926
 5720SOL    HW228794   4.278   1.551   2.337  0.2341 -2.9612 -0.7796
 5721SOL     OW28795   2.347   0.209   6.694 -0.2336  0.6856  0.2584
 5721SOL    HW128796   2.315   0.137   6.639  1.3356  1.0289 -1.0856
 5721SOL    HW228797   2.395   0.158   6.759 -0.3722  0.3301  0.0808
 5722SOL     OW28798   0.949   3.989   7.440  0.2803  0.2918 -0.4533
 5722SOL    HW128799   0.904   4.040   7.508  1.2368  1.6064 -0.8025
 5722SOL    HW228800   0.903   4.023   7.363 -0.8261 -0.3889 -0.1001
 5723SOL     OW28801   3.847   3.530   6.379  0.2500  0.3250  0.5109
 5723SOL    HW128802   3.857   3.563   6.289  0.0516  0.1906  0.4399
 5723SOL    HW228803   3.790   3.595   6.420 -1.9098 -0.0588 -1.9216
 5724SOL     OW28804   2.083   0.515  14.889  0.1827  0.3600  0.4820
 5724SOL    HW128805   2.033   0.588  14.852  0.2855 -0.1547 -0.6717
 5724SOL    HW228806   2.166   0.513  14.841 -0.3583  0.0924 -0.4468
 5725SOL     OW28807   0.649   3.981  12.836 -0.3623  0.5650  0.0372
 5725SOL    HW128808   0.695   4.021  12.909  0.4389  1.6075 -1.0335
 5725SOL    HW228809   0.729   3.970  12.785 -0.9333  1.2897 -1.0430
 5726SOL     OW28810   3.297   0.456   4.969  0.3236  0.0523  0.5236
 5726SOL    HW128811   3.301   0.550   4.949 -1.4768 -0.1672 -0.8582
 5726SOL    HW228812   3.208   0.456   5.003  0.9080 -2.2808  1.9880
 5727SOL     OW28813   0.041   4.271  10.086  0.0645 -0.4724 -0.2583
 5727SOL    HW128814   0.106   4.228  10.142 -1.1382 -3.4413 -1.1284
 5727SOL    HW228815   0.033   4.197  10.026 -0.1912 -0.3295 -0.3992
 5728SOL     OW28816   0.709   0.968   7.830  0.0665 -0.6584  0.1278
 5728SOL    HW128817   0.660   1.006   7.757  1.3384 -1.8393 -1.3254
 5728SOL    HW228818   0.787   0.934   7.788 -2.9475 -3.5739 -3.0415
 5729SOL     OW28819   3.522   1.786   8.484 -0.3386  0.0457  0.3805
 5729SOL    HW128820   3.433   1.762   8.457 -0.5687  0.6730  0.5769
 5729SOL    HW228821   3.581   1.716   8.457  0.0219  1.1222 -1.6905
 5730SOL     OW28822   1.489   4.630   3.623  0.7018  0.2393  0.2143
 5730SOL    HW128823   1.446   4.546   3.606  1.4166 -0.1923  0.5208
 5730SOL    HW228824   1.578   4.594   3.624  0.5411 -0.1557  0.0872
 5731SOL     OW28825   4.253   3.106  16.055 -0.0131 -0.0016  0.1195
 5731SOL    HW128826   4.344   3.124  16.079  0.7166 -0.0469 -2.6480
 5731SOL    HW228827   4.255   3.021  16.010 -1.0794 -0.8133  1.5823
 5732SOL     OW28828   1.960   2.708   5.965  0.0386  0.3744 -0.3290
 5732SOL    HW128829   2.007   2.750   6.037 -0.2234  0.5822 -0.2783
 5732SOL    HW228830   1.884   2.765   5.954 -0.3841  0.0263  0.8018
 5733SOL     OW28831   3.315   2.869   8.643 -0.2588 -0.2978  0.1104
 5733SOL    HW128832   3.260   2.803   8.601  3.1335 -1.2962 -2.8114
 5733SOL    HW228833   3.393   2.817   8.658 -0.0674 -0.0681 -0.0847
 5734SOL     OW28834   1.911   1.618   3.726  0.1021 -0.3598 -0.0981
 5734SOL    HW128835   1.940   1.634   3.816  1.5360 -0.9924 -0.4414
 5734SOL    HW228836   1.994   1.580   3.694 -0.0459  1.0874 -2.1684
 5735SOL     OW28837   3.906   2.066   8.693  0.4109  0.1861 -0.0876
 5735SOL    HW128838   3.895   2.015   8.613 -1.9904 -0.4739  0.6529
 5735SOL    HW228839   3.902   1.993   8.754  1.1571 -0.3589 -0.7056
 5736SOL     OW28840   1.913   3.870   4.518  0.2841  0.0033  0.1479
 5736SOL    HW128841   1.934   3.848   4.427 -2.5981 -0.8943 -0.3174
 5736SOL    HW228842   1.961   3.803   4.567  0.0509 -0.9155 -0.8604
 5737SOL     OW28843   3.418   2.739   6.002 -0.0878 -0.0408 -0.0426
 5737SOL    HW128844   3.422   2.826   6.043  1.6933 -0.2729  0.2667
 5737SOL    HW228845   3.491   2.756   5.943 -0.3115 -0.7725 -0.5237
 5738SOL     OW28846   2.204   2.045   8.081 -0.0701 -0.4035 -0.5084
 5738SOL    HW128847   2.292   2.010   8.096 -0.2654 -0.9058 -0.5469
 5738SOL    HW228848   2.226   2.121   8.026 -0.2571  0.3781  0.5178
 5739SOL     OW28849   4.683   0.742   4.926 -0.2459  0.3230 -0.1105
 5739SOL    HW128850   4.603   0.774   4.885 -0.3037 -0.3732 -0.5303
 5739SOL    HW228851   4.726   0.692   4.857  0.4074  1.9192 -0.8845
 5740SOL     OW28852   0.873   3.977  16.748 -0.1022 -0.1238  0.3889
 5740SOL    HW128853   0.934   3.912  16.714 -2.0441 -1.1348 -1.1979
 5740SOL    HW228854   0.845   3.924  16.823  1.6636 -0.1173  1.0414
 5741SOL     OW28855   2.226   2.525  10.536  0.3673 -0.1206 -0.1191
 5741SOL    HW128856   2.249   2.614  10.508  0.5830 -0.6721 -1.6891
 5741SOL    HW228857   2.229   2.519  10.632 -1.3154  0.0954 -0.0480
 5742SOL     OW28858   2.772   2.733   1.923 -0.0114  0.3284 -0.4746
 5742SOL    HW128859   2.758   2.697   2.011  0.8407  0.2595 -0.3698
 5742SOL    HW228860   2.823   2.811   1.945 -2.2694  2.0884 -1.4607
 5743SOL     OW28861   3.049   0.521   5.058  0.0526  0.1110  0.0897
 5743SOL    HW128862   3.037   0.597   5.001  2.0973  1.7373  1.8176
 5743SOL    HW228863   2.976   0.518   5.120  1.1926 -1.3598  1.3362
 5744SOL     OW28864   1.069   1.644   4.472 -0.4291 -0.2341 -0.2022
 5744SOL    HW128865   1.072   1.549   4.472  1.5870 -0.1747  1.2508
 5744SOL    HW228866   1.129   1.670   4.401 -4.1607  0.3868 -3.1310
 5745SOL     OW28867   3.200   2.017   3.542 -0.4042  0.0502  0.4214
 5745SOL    HW128868   3.133   2.060   3.594  1.5096  0.1788  2.7861
 5745SOL    HW228869   3.280   2.066   3.559  0.3051 -0.8283 -0.3728
 5746SOL     OW28870   1.795   3.597   7.165 -0.0868 -0.2857 -0.4565
 5746SOL    HW128871   1.816   3.509   7.197  0.0757  1.1069  3.3471
 5746SOL    HW228872   1.838   3.653   7.230  1.5448 -1.9236 -0.1275
 5747SOL     OW28873   4.055   2.543   2.412 -0.4429 -0.5771  0.0967
 5747SOL    HW128874   4.144   2.516   2.391 -0.1741 -0.3461  0.9638
 5747SOL    HW228875   4.050   2.519   2.504  1.1304 -0.7490  0.1273
 5748SOL     OW28876   4.255   3.801   1.042  0.1361 -0.0368 -0.6032
 5748SOL    HW128877   4.309   3.723   1.040 -0.2941 -0.3964  1.0627
 5748SOL    HW228878   4.270   3.836   1.130 -0.7925  2.6279 -1.5007
 5749SOL     OW28879   0.508   0.805   3.018 -0.2355  0.3352 -0.6090
 5749SOL    HW128880   0.498   0.747   3.094  0.6869 -0.0033 -0.7523
 5749SOL    HW228881   0.549   0.876   3.067 -0.7899  1.0637 -1.1925
 5750SOL     OW28882   1.603   3.718   5.736  0.5722  0.0444 -0.5675
 5750SOL    HW128883   1.662   3.728   5.810 -1.7766 -2.6444  1.6253
 5750SOL    HW228884   1.654   3.667   5.673 -2.1275 -2.1443 -0.9810
 5751SOL     OW28885   4.722   0.031   5.791 -0.4572 -0.1158  0.4017
 5751SOL    HW128886   0.025   4.724   5.711 -1.3667 -0.4590  0.1667
 5751SOL    HW228887   4.688   0.112   5.752  0.1523 -1.1563 -2.2757
 5752SOL     OW28888   2.005   0.780   1.660 -0.5277  0.2087  0.2122
 5752SOL    HW128889   1.952   0.704   1.685 -3.0177  2.0041  0.3710
 5752SOL    HW228890   1.951   0.814   1.589 -0.7861  1.0150  0.7973
 5753SOL     OW28891   3.721   0.485   3.992  0.2213  0.0158  0.1649
 5753SOL    HW128892   3.640   0.445   4.024  0.4437 -0.2508  0.3989
 5753SOL    HW228893   3.752   0.530   4.071  0.5008 -1.5265  0.9442
 5754SOL     OW28894   4.320   3.554   1.770  0.5734  0.4242  0.4834
 5754SOL    HW128895   4.316   3.518   1.682 -0.1993  0.2593  0.5831
 5754SOL    HW228896   4.244   3.611   1.769 -1.3018 -2.1748 -2.0499
 5755SOL     OW28897   1.700   2.572   1.394  0.2880 -0.1074 -0.3301
 5755SOL    HW128898   1.716   2.531   1.479  0.9670  0.7929 -0.0267
 5755SOL    HW228899   1.750   2.654   1.396  2.3140 -1.3610  0.9828
 5756SOL     OW28900   2.831   4.167  13.242 -0.3475  0.1532 -0.2720
 5756SOL    HW128901   2.834   4.262  13.234 -1.7874  0.3202  1.1684
 5756SOL    HW228902   2.811   4.149  13.334 -1.6483  1.1563 -0.3535
 5757SOL     OW28903   3.409   2.668   6.371  0.2892 -0.1258  0.4879
 5757SOL    HW128904   3.427   2.759   6.349 -0.2916 -0.0560  0.3107
 5757SOL    HW228905   3.482   2.649   6.430  0.8259 -0.1892 -0.1927
 5758SOL     OW28906   0.368   3.172  16.002 -0.2258  0.0334  0.0959
 5758SOL    HW128907   0.408   3.225  15.933 -0.9752 -1.2796 -1.3409
 5758SOL    HW228908   0.297   3.120  15.966  1.2227 -2.5765  0.9885
 5759SOL     OW28909   4.121   0.135   6.142 -0.0293  0.1269  0.9017
 5759SOL    HW128910   4.065   0.117   6.066  0.0984  3.1130  0.0604
 5759SOL    HW228911   4.131   0.228   6.119 -2.7032 -0.4821 -2.7884
 5760SOL     OW28912   3.598   2.496   3.094 -0.2101  0.0769  0.0881
 5760SOL    HW128913   3.658   2.543   3.037  2.2766 -1.8206  1.1299
 5760SOL    HW228914   3.589   2.412   3.049  0.3804 -0.9708  1.9067
 5761SOL     OW28915   4.318   1.201   9.314  0.4848  0.1644 -0.1209
 5761SOL    HW128916   4.229   1.184   9.283  0.6485 -0.7796 -0.0824
 5761SOL    HW228917   4.299   1.261   9.386  0.0876 -0.5343  0.3553
 5762SOL     OW28918   1.435   2.455   2.617 -0.3413 -0.0075 -0.2315
 5762SOL    HW128919   1.498   2.491   2.678 -1.3355  1.2633  0.0500
 5762SOL    HW228920   1.404   2.375   2.659 -1.0005 -0.1904 -1.0490
 5763SOL     OW28921   4.444   0.353   3.369 -0.5561  0.5167  0.3280
 5763SOL    HW128922   4.460   0.445   3.346  0.7079  0.6721  1.8540
 5763SOL    HW228923   4.378   0.324   3.306  0.3391 -0.2439 -0.2397
 5764SOL     OW28924   4.150   0.099  17.586 -0.4028 -0.0698  0.0801
 5764SOL    HW128925   4.130   0.171  17.526  3.1157  2.1167  1.5039
 5764SOL    HW228926   4.189   0.037  17.525  1.7705 -0.5409  1.9005
 5765SOL     OW28927   0.330   0.331   5.086 -0.1370 -0.2277  0.3982
 5765SOL    HW128928   0.264   0.277   5.130  0.2782 -1.3275 -0.3449
 5765SOL    HW228929   0.400   0.269   5.066 -1.8450 -1.4033 -1.8911
 5766SOL     OW28930   0.719   1.496   7.274 -0.1961 -0.5113 -0.0641
 5766SOL    HW128931   0.697   1.573   7.222 -3.3047 -1.0660  0.4333
 5766SOL    HW228932   0.632   1.464   7.297 -0.2532 -0.5060 -0.2776
 5767SOL     OW28933   2.099   2.181   4.526  0.0189 -0.0257 -0.5015
 5767SOL    HW128934   2.061   2.190   4.613 -0.0958  0.1369 -0.5669
 5767SOL    HW228935   2.181   2.230   4.524  0.2503 -0.2920  2.3632
 5768SOL     OW28936   0.309   1.464   1.321 -0.1932  0.2368  0.0632
 5768SOL    HW128937   0.221   1.434   1.297 -0.5717  1.6432 -0.2664
 5768SOL    HW228938   0.333   1.429   1.407  0.6141 -0.5029 -0.4561
 5769SOL     OW28939   1.833   0.082   2.326  0.1539 -0.3468  0.1255
 5769SOL    HW128940   1.794   0.150   2.271  1.0668  1.0484  1.2029
 5769SOL    HW228941   1.755   0.053   2.375 -1.0996  0.4461 -1.4029
 5770SOL     OW28942   2.063   4.315   4.848 -0.2414  0.2317 -0.1010
 5770SOL    HW128943   2.027   4.403   4.833 -1.6026 -0.3750 -0.3870
 5770SOL    HW228944   2.010   4.277   4.918  1.9380 -1.6330  0.5394
 5771SOL     OW28945   0.842   3.891   6.411 -0.2625  0.1593  0.2037
 5771SOL    HW128946   0.753   3.868   6.439 -0.3958 -0.8526 -1.0240
 5771SOL    HW228947   0.822   3.966   6.355  1.4731 -0.6484 -1.4879
 5772SOL     OW28948   4.446   2.602   3.129 -0.1699  0.2801  0.0473
 5772SOL    HW128949   4.361   2.583   3.170  1.6722 -1.8764  2.8468
 5772SOL    HW228950   4.445   2.695   3.150 -1.3906  0.6685 -1.7228
 5773SOL     OW28951   0.595   1.015   9.931 -0.0994  0.4199 -0.0675
 5773SOL    HW128952   0.671   1.070   9.951  1.2456 -1.2961 -0.5230
 5773SOL    HW228953   0.605   1.025   9.836 -1.2873 -2.6262 -0.4899
 5774SOL     OW28954   0.691   1.324  13.799 -0.0141 -0.2748 -0.6135
 5774SOL    HW128955   0.665   1.288  13.884 -2.2718 -1.7618 -1.9092
 5774SOL    HW228956   0.755   1.388  13.828 -0.7073  1.1187 -2.1136
 5775SOL     OW28957   2.296   2.943   6.329 -0.0817 -0.4127  0.0227
 5775SOL    HW128958   2.373   2.921   6.381 -0.4634  0.2134  0.8584
 5775SOL    HW228959   2.228   2.891   6.371 -1.6087  0.4125 -1.4213
 5776SOL     OW28960   2.573   3.941  13.574 -0.0342  0.1171  0.0568
 5776SOL    HW128961   2.508   3.946  13.643 -0.7223 -2.7280 -0.4090
 5776SOL    HW228962   2.609   4.030  13.586  2.7775 -1.0348  0.2422
 5777SOL     OW28963   4.265   1.343   9.534 -0.6458 -0.4661 -0.7936
 5777SOL    HW128964   4.186   1.318   9.581 -0.1899 -0.1579  0.1330
 5777SOL    HW228965   4.231   1.427   9.501  1.2361  0.7751  0.4509
 5778SOL     OW28966   2.010   4.484   1.880 -0.0140  0.2226 -0.1948
 5778SOL    HW128967   2.087   4.501   1.933 -0.0034 -1.7132  0.3823
 5778SOL    HW228968   2.047   4.504   1.794 -1.4944  0.6309 -0.7561
 5779SOL     OW28969   4.154   0.994   4.669 -0.1883  0.6179 -0.2641
 5779SOL    HW128970   4.063   1.005   4.644 -0.2463 -1.3458 -0.8736
 5779SOL    HW228971   4.193   1.064   4.616  1.2967 -0.4160 -0.5552
 5780SOL     OW28972   1.560   0.787   6.532  0.2519  0.4560  0.1587
 5780SOL    HW128973   1.604   0.792   6.617 -0.2015 -1.1311  0.4865
 5780SOL    HW228974   1.532   0.696   6.526 -0.0765  0.5404  0.3660
 5781SOL     OW28975   0.992   3.597   7.998 -0.1314 -0.5721 -0.4763
 5781SOL    HW128976   1.023   3.531   8.061  1.0950  3.0930  2.7612
 5781SOL    HW228977   0.915   3.554   7.962 -2.0790  3.3773 -1.0379
 5782SOL     OW28978   1.469   2.336   8.327  0.0951  0.0352  0.2749
 5782SOL    HW128979   1.550   2.306   8.286  1.3188 -0.0683  2.8154
 5782SOL    HW228980   1.421   2.363   8.248  1.2158  0.7029 -0.1863
 5783SOL     OW28981   0.520   3.514   7.047 -0.4791  0.0091  0.0862
 5783SOL    HW128982   0.532   3.420   7.061 -1.0223  0.1870  1.8179
 5783SOL    HW228983   0.425   3.527   7.049 -0.2654  1.4144  1.2281
 5784SOL     OW28984   2.539   0.722   1.324  0.3944  0.2674 -0.1193
 5784SOL    HW128985   2.459   0.775   1.323 -0.1613 -0.5715  0.1968
 5784SOL    HW228986   2.519   0.703   1.232 -0.2805 -0.2208  0.1271
 5785SOL     OW28987   1.188   1.543   5.584  0.5245 -0.0449  0.6705
 5785SOL    HW128988   1.152   1.470   5.635  0.8945  0.5735  1.8245
 5785SOL    HW228989   1.278   1.514   5.571 -0.0543 -0.8977 -1.3818
 5786SOL     OW28990   3.880   1.741   6.870  0.0128  0.1219  0.4386
 5786SOL    HW128991   3.848   1.781   6.789  1.4712  0.4629  0.0321
 5786SOL    HW228992   3.960   1.790   6.889  0.1577  0.0943 -0.0864
 5787SOL     OW28993   3.227   1.502   0.904 -0.2446  0.0301 -0.4704
 5787SOL    HW128994   3.206   1.580   0.852 -1.8381 -0.6813 -0.8871
 5787SOL    HW228995   3.188   1.524   0.988 -0.0264 -3.3735  0.5183
 5788SOL     OW28996   1.074   3.210   9.722 -0.5071  0.2232 -0.6107
 5788SOL    HW128997   1.144   3.259   9.679  1.0806 -2.1463 -0.7707
 5788SOL    HW228998   1.016   3.286   9.728  2.0988  1.9669  2.4381
 5789SOL     OW28999   4.253   2.701   6.496  0.0949  0.3709 -0.5041
 5789SOL    HW129000   4.269   2.731   6.586  1.5934 -2.5325  0.2148
 5789SOL    HW229001   4.338   2.692   6.454  0.7070  1.0139  0.5937
 5790SOL     OW29002   2.021   0.323  15.076 -0.1199 -0.4495  0.5667
 5790SOL    HW129003   2.024   0.400  15.020 -2.1294 -1.6625 -1.2150
 5790SOL    HW229004   2.109   0.329  15.113 -0.9990  4.0176  1.8633
 5791SOL     OW29005   0.979   3.843  14.942  0.0047 -0.9023 -0.2610
 5791SOL    HW129006   0.979   3.901  15.018 -0.1356  0.3062 -1.1926
 5791SOL    HW229007   1.011   3.900  14.872  1.3861 -2.4932 -0.9277
 5792SOL     OW29008   1.672   0.503   4.424 -0.0674 -0.2139 -0.3483
 5792SOL    HW129009   1.609   0.469   4.361 -0.5026 -1.3768  0.7024
 5792SOL    HW229010   1.710   0.577   4.378 -0.8685  0.0776 -0.5363
 5793SOL     OW29011   2.663   0.872   7.536 -0.0456 -0.5028  0.3663
 5793SOL    HW129012   2.737   0.839   7.586 -0.8698 -1.2395  1.1098
 5793SOL    HW229013   2.710   0.908   7.461  0.3866 -3.1829 -0.6468
 5794SOL     OW29014   3.535   1.613   7.868 -0.6110 -0.6776 -0.2150
 5794SOL    HW129015   3.569   1.635   7.955  0.3389 -0.2485 -0.6962
 5794SOL    HW229016   3.458   1.560   7.888 -1.2327  0.1724 -0.3482
 5795SOL     OW29017   0.753   2.405   9.627 -0.0344 -0.4689  0.3497
 5795SOL    HW129018   0.693   2.406   9.702 -0.5285  1.0614 -0.0693
 5795SOL    HW229019   0.810   2.330   9.646  0.4327 -0.4573 -1.0356
 5796SOL     OW29020   0.687   3.146   2.006  0.1960  0.1281  0.4791
 5796SOL    HW129021   0.760   3.090   2.032  0.2603 -0.3173 -0.6854
 5796SOL    HW229022   0.618   3.126   2.070 -0.1684  1.5362  0.5255
 5797SOL     OW29023   3.227   1.105   7.912  0.0168 -0.7737  0.0198
 5797SOL    HW129024   3.148   1.111   7.859 -0.0592 -1.3632  0.0685
 5797SOL    HW229025   3.257   1.024   7.872  0.7898 -0.1826 -0.6060
 5798SOL     OW29026   1.493   0.201   4.257  0.5928  0.1218  0.4300
 5798SOL    HW129027   1.465   0.293   4.258 -2.1915 -0.7171  2.2870
 5798SOL    HW229028   1.548   0.189   4.334  0.2876 -0.8823  0.4867
 5799SOL     OW29029   3.005   3.660   1.953  0.2428  0.1669  0.5498
 5799SOL    HW129030   3.061   3.582   1.943 -1.1670 -0.6928 -0.6803
 5799SOL    HW229031   2.918   3.621   1.957  0.7607 -0.8713  1.6077
 5800SOL     OW29032   4.384   0.229   2.120  0.4402  0.5751 -0.0205
 5800SOL    HW129033   4.369   0.167   2.191  0.8068  2.1370  1.4302
 5800SOL    HW229034   4.475   0.204   2.100  1.1308  1.2718  2.2978
 5801SOL     OW29035   4.451   2.182   3.114 -0.1167 -0.7856  0.3590
 5801SOL    HW129036   4.419   2.182   3.204  0.2017 -2.8820  0.4721
 5801SOL    HW229037   4.543   2.162   3.131  0.2384 -0.9025 -1.7812
 5802SOL     OW29038   1.642   4.008   3.474 -0.5662  0.2527  0.5683
 5802SOL    HW129039   1.678   3.919   3.473 -0.5877  0.2659 -0.8657
 5802SOL    HW229040   1.567   3.996   3.532 -2.2536 -0.0186 -1.6605
 5803SOL     OW29041   3.215   4.061   8.516 -0.0148 -0.5412 -0.4311
 5803SOL    HW129042   3.208   4.016   8.432  2.4548 -2.0008  0.1419
 5803SOL    HW229043   3.294   4.022   8.552 -1.2877 -2.3809  0.3438
 5804SOL     OW29044   1.005   3.692   0.528  0.2115  0.6009  0.3386
 5804SOL    HW129045   0.942   3.711   0.458  1.1946  1.0843 -0.4245
 5804SOL    HW229046   1.081   3.748   0.511  0.0255  1.2870  1.8461
 5805SOL     OW29047   4.564   3.271   2.048 -0.1700 -0.0845 -0.3614
 5805SOL    HW129048   4.519   3.327   2.111  1.8121  0.4475  0.5950
 5805SOL    HW229049   4.638   3.244   2.102 -0.1386 -0.5892 -0.6522
 5806SOL     OW29050   3.591   2.715   5.394 -0.0688 -0.3729 -0.3139
 5806SOL    HW129051   3.521   2.762   5.440  2.0353  0.1047  2.3478
 5806SOL    HW229052   3.598   2.744   5.303  3.9489  0.1953  0.2050
 5807SOL     OW29053   3.355   4.305   7.484 -0.3203 -0.0582 -0.3174
 5807SOL    HW129054   3.355   4.282   7.391 -1.5987 -0.0621 -0.3085
 5807SOL    HW229055   3.294   4.378   7.470  0.4829  0.8813  0.9541
 5808SOL     OW29056   3.046   4.662   5.866  0.0635 -0.7653  0.5582
 5808SOL    HW129057   3.046   0.024   5.884  0.3193 -0.9328  1.4595
 5808SOL    HW229058   3.015   4.669   5.776  3.0422  0.7167 -0.3594
 5809SOL     OW29059   4.691   4.480   5.381  0.7817 -0.1524 -0.1211
 5809SOL    HW129060   4.702   4.417   5.309  0.7206 -0.1428 -0.1394
 5809SOL    HW229061   4.637   4.425   5.437  0.2294  0.4964 -0.0120
 5810SOL     OW29062   1.033   0.197   3.447 -0.1869 -0.5085 -0.1720
 5810SOL    HW129063   1.089   0.183   3.523  0.5338 -2.5654 -1.0926
 5810SOL    HW229064   1.071   0.137   3.383  1.9666  1.7816 -1.0225
 5811SOL     OW29065   2.727   3.308   0.951  0.2611 -0.3836 -0.4257
 5811SOL    HW129066   2.644   3.351   0.930  1.0288 -0.0397 -2.6835
 5811SOL    HW229067   2.715   3.217   0.926 -1.4327 -0.9960  2.6011
 5812SOL     OW29068   1.602   3.893  15.639  0.3922 -0.0100  0.0658
 5812SOL    HW129069   1.512   3.907  15.669  0.4870 -0.9806  0.8326
 5812SOL    HW229070   1.628   3.975  15.598 -1.6759 -0.3018 -1.8257
 5813SOL     OW29071   0.047   2.838  16.404  0.2826  0.0074  0.0503
 5813SOL    HW129072   0.133   2.871  16.377  1.2471 -0.4056  2.6201
 5813SOL    HW229073   0.049   2.844  16.499  1.0794  0.6969 -0.0050
 5814SOL     OW29074   3.442   3.239   1.984  0.3537 -0.4598  0.1955
 5814SOL    HW129075   3.518   3.295   2.002 -0.4862  1.3295 -1.8876
 5814SOL    HW229076   3.435   3.253   1.890  0.5879 -0.6620  0.1459
 5815SOL     OW29077   2.505   0.484   6.670  0.1540 -0.1114  0.5006
 5815SOL    HW129078   2.471   0.402   6.706  0.6704 -0.5982 -0.1250
 5815SOL    HW229079   2.458   0.480   6.587  1.7383 -0.4697 -0.3835
 5816SOL     OW29080   2.626   1.877  14.159  0.4628  0.0426  0.1174
 5816SOL    HW129081   2.627   1.963  14.117  0.3404 -1.1356 -2.2811
 5816SOL    HW229082   2.708   1.834  14.136 -0.1212  0.2732 -2.4419
 5817SOL     OW29083   0.738   3.521  14.699  0.6747  0.7002  0.6514
 5817SOL    HW129084   0.690   3.487  14.624  0.1509 -0.8848  1.7047
 5817SOL    HW229085   0.711   3.460  14.767 -0.0538  0.3451  0.0452
 5818SOL     OW29086   3.764   2.998   4.995  0.5225 -0.1793  0.2103
 5818SOL    HW129087   3.760   2.963   4.906  1.9634 -1.7245  0.7559
 5818SOL    HW229088   3.815   3.078   4.979  1.5395 -1.2321 -1.7390
 5819SOL     OW29089   1.541   1.445  17.644  0.0489 -0.1567  0.1116
 5819SOL    HW129090   1.573   1.503  17.714  1.5295  0.3016 -0.9583
 5819SOL    HW229091   1.625   1.419  17.607  1.0769  0.2673  2.1539
 5820SOL     OW29092   4.522   2.029   7.148  0.7033  0.1945  0.5950
 5820SOL    HW129093   4.517   2.036   7.053 -2.4496 -0.1666  0.7304
 5820SOL    HW229094   4.531   2.121   7.172 -0.0032  0.3698  0.1777
 5821SOL     OW29095   1.636   3.680   3.742  0.4445  0.1220  0.0025
 5821SOL    HW129096   1.614   3.624   3.667 -0.7064  0.7099 -0.1005
 5821SOL    HW229097   1.709   3.731   3.708  0.2798 -0.6426 -1.5278
 5822SOL     OW29098   0.501   4.454   3.333 -0.0065  0.5337 -0.1812
 5822SOL    HW129099   0.560   4.381   3.320 -0.0016  0.2845  1.2803
 5822SOL    HW229100   0.509   4.497   3.248 -0.7665 -1.4979 -1.2818
 5823SOL     OW29101   2.229   1.318   5.917  0.5115  0.0927  0.2041
 5823SOL    HW129102   2.258   1.363   5.996 -1.0447  1.8031 -0.2190
 5823SOL    HW229103   2.135   1.304   5.929  0.1689  2.7623  0.4658
 5824SOL     OW29104   3.147   2.238   5.805  0.2069 -0.0531 -0.5121
 5824SOL    HW129105   3.215   2.207   5.865 -1.5784 -0.4344  1.3291
 5824SOL    HW229106   3.138   2.163   5.747 -0.1536  0.3330 -0.9515
 5825SOL     OW29107   0.085   1.967   5.827  0.4439 -0.2854 -0.0104
 5825SOL    HW129108   0.170   1.934   5.857  1.5096  1.9424 -0.5502
 5825SOL    HW229109   0.051   1.887   5.788  0.5155 -0.7959  0.9822
 5826SOL     OW29110   1.764   0.748   4.587 -0.3208 -0.1261  0.1433
 5826SOL    HW129111   1.720   0.697   4.519 -2.1824 -0.5246  1.6444
 5826SOL    HW229112   1.830   0.795   4.536 -1.2908  2.6865  1.4822
 5827SOL     OW29113   4.173   1.168   3.268  0.4188 -0.3373  0.2794
 5827SOL    HW129114   4.206   1.080   3.249  1.7018  0.1110  0.4290
 5827SOL    HW229115   4.177   1.211   3.183 -1.8525 -1.6594 -0.4941
 5828SOL     OW29116   0.380   2.700   2.547 -0.2148  0.1440  0.5942
 5828SOL    HW129117   0.408   2.630   2.488  0.0465 -0.0911  1.0012
 5828SOL    HW229118   0.428   2.778   2.519 -1.4285  0.8988  0.5703
 5829SOL     OW29119   3.983   0.990   6.131 -0.1614 -0.5187 -0.1937
 5829SOL    HW129120   3.962   0.953   6.045  3.2259 -3.8620  0.4285
 5829SOL    HW229121   4.076   1.009   6.126 -0.3240  0.4419  0.4685
 5830SOL     OW29122   0.050   1.020   4.990 -0.4931  0.4613  0.6560
 5830SOL    HW129123   0.141   1.009   5.017 -0.0661  0.5440 -0.7139
 5830SOL    HW229124   0.016   0.930   4.996 -0.2772  0.2854 -0.6078
 5831SOL     OW29125   1.542   0.069   2.436 -0.1348 -0.2018  0.3159
 5831SOL    HW129126   1.512   0.065   2.527  0.4752  1.0672  0.5802
 5831SOL    HW229127   1.497   0.146   2.401  2.6571  1.1878 -0.2923
 5832SOL     OW29128   0.612   3.328   2.902  0.5400  0.2544  0.2250
 5832SOL    HW129129   0.677   3.395   2.878  1.6450 -1.2370 -0.9779
 5832SOL    HW229130   0.536   3.379   2.929 -0.8870 -1.7799  0.0455
 5833SOL     OW29131   2.382   0.941  17.678 -0.0166  0.2007 -0.1264
 5833SOL    HW129132   2.380   0.851  17.644 -0.5736  0.1068  0.1562
 5833SOL    HW229133   2.326   0.926   0.024  1.3216 -4.4234 -0.0420
 5834SOL     OW29134   3.728   3.472   3.619  0.1835 -0.1605 -0.0846
 5834SOL    HW129135   3.701   3.396   3.567  1.7410  0.4723 -1.8004
 5834SOL    HW229136   3.726   3.430   3.705 -0.6861  0.8432  0.3859
 5835SOL     OW29137   0.371   3.592   6.162 -0.0858  0.0207 -0.1573
 5835SOL    HW129138   0.382   3.548   6.078  1.1470  0.2006 -0.0854
 5835SOL    HW229139   0.463   3.597   6.186  0.1284  0.4589 -1.0986
 5836SOL     OW29140   0.453   4.427  12.612  0.4165  0.1952 -0.0165
 5836SOL    HW129141   0.533   4.378  12.591 -1.7071 -1.2840 -4.5168
 5836SOL    HW229142   0.458   4.438  12.707 -2.4287  1.8498 -0.0783
 5837SOL     OW29143   0.221   4.382   8.842 -0.9215  0.6685  0.4056
 5837SOL    HW129144   0.301   4.413   8.800 -0.0749  0.1436  1.6710
 5837SOL    HW229145   0.256   4.316   8.901  2.1577 -2.2891 -4.6777
 5838SOL     OW29146   4.453   0.882  14.891  0.0562 -0.6624 -0.0423
 5838SOL    HW129147   4.471   0.799  14.934  1.0060  0.3847  1.6261
 5838SOL    HW229148   4.369   0.858  14.853 -0.1259  2.1449 -1.4205
 5839SOL     OW29149   4.495   2.994   2.045 -0.5096 -0.0089  0.1968
 5839SOL    HW129150   4.443   2.985   1.965  0.9081  1.6273 -0.9146
 5839SOL    HW229151   4.533   3.080   2.026 -0.6017  0.4814  2.2927
 5840SOL     OW29152   0.851   0.219  11.805  0.5303  0.4136 -0.0436
 5840SOL    HW129153   0.899   0.261  11.734 -0.3613  2.1100  0.3493
 5840SOL    HW229154   0.913   0.182  11.867  0.7389  1.2271  0.2228
 5841SOL     OW29155   3.958   4.703   0.661  0.2074  0.2698 -0.3315
 5841SOL    HW129156   3.972   4.613   0.690 -1.6169  0.3132  0.7012
 5841SOL    HW229157   4.046   0.001   0.682 -0.2943  1.5653 -0.1311
 5842SOL     OW29158   0.685   0.069   0.164  0.7914 -0.5041 -0.0477
 5842SOL    HW129159   0.671   0.155   0.122 -0.6976  0.5201  2.5265
 5842SOL    HW229160   0.779   0.072   0.178  0.9115 -0.3822 -0.8594
 5843SOL     OW29161   2.934   1.537   6.225  0.6605  0.2420 -0.1385
 5843SOL    HW129162   2.947   1.446   6.199  0.0237 -0.9386  3.6596
 5843SOL    HW229163   2.891   1.574   6.148  0.3179 -0.4554 -0.2758
 5844SOL     OW29164   2.805   2.563  10.787  0.0410  0.3526  0.0298
 5844SOL    HW129165   2.770   2.555  10.699 -0.0129  0.0467  0.0773
 5844SOL    HW229166   2.733   2.609  10.830 -0.0967 -0.2893  0.4794
 5845SOL     OW29167   1.489   3.760   8.015 -0.2394  0.2166 -0.4476
 5845SOL    HW129168   1.483   3.779   7.921 -1.7575 -0.0513 -0.4162
 5845SOL    HW229169   1.559   3.695   8.008 -0.5024 -0.0852 -0.2949
 5846SOL     OW29170   0.332   1.537  11.171  0.2025  0.1221  0.2803
 5846SOL    HW129171   0.259   1.475  11.163  0.0216  0.5158 -1.0658
 5846SOL    HW229172   0.290   1.623  11.182 -2.1067 -1.5424  4.4809
 5847SOL     OW29173   0.663   4.520   2.687 -0.1784  0.2269 -0.1451
 5847SOL    HW129174   0.656   4.587   2.619 -1.1898  0.3336  0.0651
 5847SOL    HW229175   0.641   4.574   2.764 -1.8835  0.8250 -1.0422
 5848SOL     OW29176   3.158   2.236   4.650 -0.2048  0.7573 -0.1525
 5848SOL    HW129177   3.170   2.290   4.571  1.0737 -1.3360 -1.3905
 5848SOL    HW229178   3.207   2.154   4.649  0.4241  1.1437 -0.9745
 5849SOL     OW29179   0.707   3.816  14.555 -0.5518 -0.6987 -0.2938
 5849SOL    HW129180   0.769   3.860  14.498  0.3353 -2.1154 -0.4329
 5849SOL    HW229181   0.725   3.723  14.543 -0.8343 -0.9284  0.9940
 5850SOL     OW29182   0.008   3.147   6.889  0.6521  0.1784 -0.1208
 5850SOL    HW129183   4.657   3.155   6.935  1.1933  0.6822  0.7670
 5850SOL    HW229184   0.028   3.055   6.905 -1.2437 -0.2227  0.0029
 5851SOL     OW29185   4.552   3.982  15.368  0.6413  0.2003  0.3060
 5851SOL    HW129186   4.502   3.919  15.420 -0.8549 -0.5283 -2.0052
 5851SOL    HW229187   4.638   3.947  15.392 -0.0077 -1.7764 -0.2576
 5852SOL     OW29188   1.748   1.566   8.260  0.1986 -0.4841 -0.5921
 5852SOL    HW129189   1.736   1.613   8.177 -1.0315  0.4036  0.0941
 5852SOL    HW229190   1.689   1.618   8.315 -0.5083 -1.1572 -0.7218
 5853SOL     OW29191   3.833   4.573   5.603  0.6860  0.0345  0.1770
 5853SOL    HW129192   3.787   4.490   5.591 -0.0589  0.7240 -1.7817
 5853SOL    HW229193   3.762   4.636   5.595 -0.0956 -1.0079 -1.0674
 5854SOL     OW29194   1.068   0.214  17.070  0.2700 -0.3224 -1.3415
 5854SOL    HW129195   0.993   0.191  17.125 -0.5894  0.7086 -2.0873
 5854SOL    HW229196   1.067   0.310  17.079  0.1444 -0.3662 -0.8860
 5855SOL     OW29197   4.452   1.518   3.140 -0.1741  0.0074 -0.2495
 5855SOL    HW129198   4.383   1.513   3.206 -0.5666  2.3393 -0.4694
 5855SOL    HW229199   4.406   1.549   3.061 -2.1526 -0.3481  0.7553
 5856SOL     OW29200   1.818   0.822   7.924 -0.2176 -0.0348  0.4164
 5856SOL    HW129201   1.748   0.792   7.981 -0.2946  2.9645  1.8795
 5856SOL    HW229202   1.812   0.762   7.849  0.5767  0.4669 -0.0546
 5857SOL     OW29203   1.820   1.379   6.021 -0.4225 -0.2669  0.0668
 5857SOL    HW129204   1.872   1.305   5.989 -1.1423 -0.3027 -1.0420
 5857SOL    HW229205   1.838   1.384   6.114 -0.8292 -1.8123  0.2351
 5858SOL     OW29206   0.230   4.703  14.178 -0.0038  0.0051  0.3007
 5858SOL    HW129207   0.163   0.033  14.152 -0.1486  0.4960  1.8420
 5858SOL    HW229208   0.202   4.630  14.123 -0.2076 -0.8887  1.5797
 5859SOL     OW29209   2.720   2.806   2.475  0.2268 -0.2579  0.8658
 5859SOL    HW129210   2.632   2.799   2.437 -0.2624 -0.1439  1.9491
 5859SOL    HW229211   2.778   2.811   2.399 -1.5047 -1.1055 -0.5110
 5860SOL     OW29212   4.639   3.027  10.123  0.3271  0.5885  0.2121
 5860SOL    HW129213   4.558   3.069  10.093 -0.8468  0.1465  2.7454
 5860SOL    HW229214   4.622   2.935  10.100  0.0993  0.2501  1.7431
 5861SOL     OW29215   0.157   1.140   2.704  0.2344  0.0366  0.1981
 5861SOL    HW129216   0.174   1.233   2.694 -0.3485  0.0421 -0.6969
 5861SOL    HW229217   0.061   1.143   2.694  0.2701 -0.1478 -0.1812
 5862SOL     OW29218   1.495   2.659   5.379 -0.2307 -0.0495  0.0007
 5862SOL    HW129219   1.540   2.604   5.315  0.3549  0.1229  0.2623
 5862SOL    HW229220   1.494   2.602   5.455  0.7296 -0.2452 -0.1382
 5863SOL     OW29221   2.377   3.173  16.738  0.0247 -0.2964  0.3736
 5863SOL    HW129222   2.374   3.263  16.769  0.5861  0.6595 -2.3122
 5863SOL    HW229223   2.301   3.132  16.778 -0.3310  1.4995  1.5257
 5864SOL     OW29224   4.420   4.037   4.205  0.1698  0.8204  0.7979
 5864SOL    HW129225   4.333   4.010   4.234 -0.5087  1.9186 -0.2328
 5864SOL    HW229226   4.425   4.125   4.243  0.7593  0.2015  2.1444
 5865SOL     OW29227   0.067   1.867   2.155 -0.3738  0.1284  0.6987
 5865SOL    HW129228   0.129   1.933   2.185 -0.8113  0.2864  1.2560
 5865SOL    HW229229   4.722   1.916   2.184  0.1925  0.8701  0.9396
 5866SOL     OW29230   3.187   0.843   3.674  0.2473 -0.1202  0.1874
 5866SOL    HW129231   3.098   0.879   3.667 -0.3834 -1.2838  2.0407
 5866SOL    HW229232   3.174   0.759   3.629 -0.7144 -0.0691  0.3655
 5867SOL     OW29233   0.848   4.580   5.918 -0.5985  0.2941 -0.1178
 5867SOL    HW129234   0.890   4.640   5.979  0.9946  0.2324 -1.1589
 5867SOL    HW229235   0.770   4.631   5.894  0.2279  1.2510 -0.8142
 5868SOL     OW29236   0.572   4.641  14.487  0.5060 -0.1457  0.5402
 5868SOL    HW129237   0.617   4.645  14.403 -0.4359  1.3879  0.1134
 5868SOL    HW229238   0.479   4.649  14.465  2.0154  1.3108 -5.1712
 5869SOL     OW29239   3.689   2.355   0.902 -0.1205 -0.2996 -0.1945
 5869SOL    HW129240   3.771   2.319   0.870 -0.1237  1.7818 -2.6165
 5869SOL    HW229241   3.714   2.430   0.956  1.3923 -0.6899 -0.3727
 5870SOL     OW29242   3.254   4.613   1.095  0.4430  0.0923  0.0570
 5870SOL    HW129243   3.274   4.581   1.008  1.6179 -2.2766  1.2064
 5870SOL    HW229244   3.204   4.691   1.070  1.2969  0.4128 -0.6210
 5871SOL     OW29245   2.427   3.437   8.451 -0.1625 -0.2668  0.2524
 5871SOL    HW129246   2.442   3.519   8.404  1.8434 -0.3484  0.7256
 5871SOL    HW229247   2.492   3.447   8.521 -0.0621  0.8460  0.0029
 5872SOL     OW29248   4.359   1.957   9.293 -0.2840  0.1399 -0.0175
 5872SOL    HW129249   4.408   2.038   9.308  2.8951 -1.5191 -1.5797
 5872SOL    HW229250   4.348   1.966   9.198 -3.2690  1.2241  0.4283
 5873SOL     OW29251   4.193   1.046   3.718 -0.1962 -0.0624  0.7265
 5873SOL    HW129252   4.286   1.065   3.725 -0.1589 -0.4908  1.4516
 5873SOL    HW229253   4.158   1.091   3.795 -1.9397 -0.9337  0.4582
 5874SOL     OW29254   2.695   0.823   0.912  0.6227  0.0554 -0.4216
 5874SOL    HW129255   2.639   0.775   0.973  0.5858 -0.7276 -1.0672
 5874SOL    HW229256   2.762   0.846   0.977  0.6881  1.3559 -0.9563
 5875SOL     OW29257   3.426   2.068   6.544  0.6043 -0.1116  0.8463
 5875SOL    HW129258   3.484   2.006   6.589  0.6296 -0.6769  0.0325
 5875SOL    HW229259   3.340   2.027   6.533  0.3515  1.1445 -1.7747
 5876SOL     OW29260   0.244   3.378   3.071  0.2960  0.4012 -0.0734
 5876SOL    HW129261   0.294   3.434   3.012  0.2816  0.7711  0.2682
 5876SOL    HW229262   0.157   3.413   3.055  0.5584  0.8414 -0.5372
 5877SOL     OW29263   0.750   4.008   7.685  0.6164 -0.1566  0.0982
 5877SOL    HW129264   0.680   4.025   7.623  1.5620  1.0872 -0.6244
 5877SOL    HW229265   0.719   4.062   7.758 -0.1040  0.3663 -0.5894
 5878SOL     OW29266   0.590   1.771  17.374 -0.0399 -0.3314 -0.1357
 5878SOL    HW129267   0.554   1.818  17.299  0.9195 -0.2205 -0.5214
 5878SOL    HW229268   0.509   1.757  17.423  0.1756  0.7937  0.5337
 5879SOL     OW29269   1.485   1.565  14.110  0.4275 -0.1435 -0.8131
 5879SOL    HW129270   1.513   1.657  14.121 -1.4584  0.4124 -0.7705
 5879SOL    HW229271   1.559   1.516  14.147  0.3942 -0.2320 -0.8662
 5880SOL     OW29272   3.510   4.271   8.730  0.0965 -0.4647 -0.4373
 5880SOL    HW129273   3.431   4.284   8.781  0.8866 -2.8124  1.3529
 5880SOL    HW229274   3.572   4.324   8.780  1.4921 -2.1253 -0.4221
 5881SOL     OW29275   0.105   4.454  14.547 -0.6182  0.2563 -0.5075
 5881SOL    HW129276   0.027   4.437  14.600  0.7612 -1.8475  0.8710
 5881SOL    HW229277   0.075   4.415  14.465  1.6169 -2.6716  0.0579
 5882SOL     OW29278   4.570   1.692   7.404  0.5862  0.2836  0.5646
 5882SOL    HW129279   4.511   1.625   7.438  1.1186 -0.8621 -0.7481
 5882SOL    HW229280   4.529   1.720   7.322 -1.6588 -0.5384  1.4183
 5883SOL     OW29281   4.367   4.680   3.193  0.4955 -0.1907 -0.1749
 5883SOL    HW129282   4.360   4.676   3.098  1.4355  1.2854 -0.2990
 5883SOL    HW229283   4.310   4.606   3.215 -0.2232  0.0470 -1.2377
 5884SOL     OW29284   2.082   2.998   4.446  0.6669  0.7986  1.1631
 5884SOL    HW129285   2.145   2.984   4.517  0.5756 -1.9689  0.7211
 5884SOL    HW229286   2.031   3.066   4.488  0.2126  1.5396 -0.5864
 5885SOL     OW29287   1.781   3.785   5.238 -0.9032  0.4627  0.3351
 5885SOL    HW129288   1.706   3.741   5.201 -0.6770 -0.0717  0.5137
 5885SOL    HW229289   1.793   3.733   5.318 -2.5476  0.4648  0.5766
 5886SOL     OW29290   1.780   0.790  16.848 -0.4578  0.2384  0.2670
 5886SOL    HW129291   1.825   0.866  16.886  1.8064 -0.0701 -1.8008
 5886SOL    HW229292   1.852   0.729  16.834 -1.7304 -0.8799 -1.3888
 5887SOL     OW29293   1.097   1.400   2.304 -0.1042  0.2043  0.0489
 5887SOL    HW129294   1.024   1.370   2.250 -0.3712 -1.7589  1.5103
 5887SOL    HW229295   1.061   1.484   2.333  0.0842 -0.7205  2.9552
 5888SOL     OW29296   0.434   4.465   3.710  0.4174  0.0716 -0.1814
 5888SOL    HW129297   0.396   4.528   3.650 -1.5297 -1.6074 -0.6913
 5888SOL    HW229298   0.526   4.492   3.716  0.5467 -0.6950  1.3533
 5889SOL     OW29299   3.794   1.500   0.867 -0.3076  0.6019  0.7939
 5889SOL    HW129300   3.752   1.416   0.885 -0.7527  0.2513 -1.7759
 5889SOL    HW229301   3.777   1.494   0.773 -0.5543 -0.4906  0.9084
 5890SOL     OW29302   2.505   2.019  12.913  0.1137  0.1203  0.2089
 5890SOL    HW129303   2.483   2.092  12.854 -1.3001 -1.2373 -0.9617
 5890SOL    HW229304   2.599   2.012  12.902  0.1012 -0.3330  0.3849
 5891SOL     OW29305   3.685   3.459   7.457 -0.3443  0.2768  0.6362
 5891SOL    HW129306   3.735   3.521   7.403 -2.5274 -0.7660 -2.5409
 5891SOL    HW229307   3.663   3.394   7.390 -0.2014 -0.3239  1.1751
 5892SOL     OW29308   2.218   2.840  10.957 -0.3238 -0.0597 -0.4960
 5892SOL    HW129309   2.268   2.832  10.876  0.1871  0.2920 -0.2095
 5892SOL    HW229310   2.235   2.929  10.988 -1.5149  0.4347 -1.2557
 5893SOL     OW29311   1.135   0.819  12.722  0.1006  0.2046  0.2326
 5893SOL    HW129312   1.095   0.810  12.808 -0.1518 -1.7689 -0.0937
 5893SOL    HW229313   1.063   0.848  12.666 -0.2145 -1.5472 -0.2637
 5894SOL     OW29314   1.320   3.006   3.264 -0.3115 -0.4369 -0.3445
 5894SOL    HW129315   1.238   2.962   3.287 -0.0568  0.0854  1.5555
 5894SOL    HW229316   1.285   3.069   3.201 -0.7165 -0.4600 -0.1414
 5895SOL     OW29317   4.518   3.008  14.618 -0.0134  0.2355  0.1550
 5895SOL    HW129318   4.486   2.940  14.677  1.8214  0.4657  1.4005
 5895SOL    HW229319   4.436   3.057  14.613  0.9538  2.0040  1.5499
 5896SOL     OW29320   2.648   3.232   8.492 -0.7502  0.6016  0.4560
 5896SOL    HW129321   2.720   3.295   8.483 -1.0213  0.3970 -3.1951
 5896SOL    HW229322   2.579   3.271   8.439 -2.6836  0.8788  3.2069
 5897SOL     OW29323   1.491   0.936  14.099  0.0842  0.3001 -0.0722
 5897SOL    HW129324   1.510   1.029  14.103 -2.4297  0.7484  1.7786
 5897SOL    HW229325   1.397   0.941  14.118 -0.0486  0.6204 -0.8376
 5898SOL     OW29326   2.129   3.766   3.987 -0.2726  0.3733  0.6869
 5898SOL    HW129327   2.181   3.834   4.031  2.1262 -0.3516 -1.0041
 5898SOL    HW229328   2.186   3.745   3.913 -0.3520  1.6910  0.2446
 5899SOL     OW29329   4.609   1.509   2.602  0.2012  0.9914 -0.0269
 5899SOL    HW129330   4.586   1.572   2.534 -2.2937  0.1643  0.0529
 5899SOL    HW229331   4.592   1.424   2.561  0.7168  0.4987  0.7969
 5900SOL     OW29332   1.213   1.223   1.225  0.2934 -0.0318 -0.2397
 5900SOL    HW129333   1.293   1.194   1.182 -1.2052 -3.1748 -0.9415
 5900SOL    HW229334   1.174   1.262   1.147  2.0528  3.1808  0.4978
 5901SOL     OW29335   0.050   0.698  13.685  0.2364 -0.1845  0.1810
 5901SOL    HW129336   4.732   0.638  13.629  0.5172 -0.0185 -0.2502
 5901SOL    HW229337   0.123   0.641  13.709  0.8029  0.7032  0.5648
 5902SOL     OW29338   4.264   4.255  17.383 -0.1520 -0.6104 -0.4631
 5902SOL    HW129339   4.190   4.197  17.365  0.9313 -1.6658 -1.4901
 5902SOL    HW229340   4.273   4.289  17.294  0.2259  0.3679 -0.0503
 5903SOL     OW29341   0.782   4.021   3.502  0.1789 -0.4823 -0.1327
 5903SOL    HW129342   0.867   3.981   3.521  0.1364 -0.8771 -0.7804
 5903SOL    HW229343   0.792   4.107   3.543 -0.6412 -0.4244 -0.0585
 5904SOL     OW29344   4.165   3.593   5.682 -0.5112  0.1207  0.2685
 5904SOL    HW129345   4.099   3.579   5.614  0.0067 -0.8541 -0.0280
 5904SOL    HW229346   4.194   3.506   5.711 -0.0723  0.5297  1.0519
 5905SOL     OW29347   3.958   1.869   7.829 -0.1110  0.6415  0.1168
 5905SOL    HW129348   3.897   1.932   7.791 -0.0550 -1.5840 -3.6708
 5905SOL    HW229349   3.967   1.801   7.762  2.8606  0.5062  0.6634
 5906SOL     OW29350   4.256   1.154   4.481  0.0848 -0.0340  0.1826
 5906SOL    HW129351   4.298   1.232   4.444  0.5583 -0.1835  0.4013
 5906SOL    HW229352   4.185   1.144   4.417  1.4592 -3.2690 -0.8588
 5907SOL     OW29353   4.195   0.460   5.299  0.2868  0.4127 -0.0027
 5907SOL    HW129354   4.188   0.508   5.382  1.9690 -0.4259  0.6452
 5907SOL    HW229355   4.195   0.531   5.235 -1.7970  1.7809  1.5425
 5908SOL     OW29356   3.428   3.827   3.355 -0.2285  0.2887  0.6548
 5908SOL    HW129357   3.491   3.829   3.427 -0.0099 -3.4983  0.5679
 5908SOL    HW229358   3.451   3.740   3.322  0.0379  0.0043  1.6119
 5909SOL     OW29359   2.813   4.032   6.557 -0.1865 -0.3745  0.3135
 5909SOL    HW129360   2.732   3.992   6.586  0.6454 -1.5308  1.0364
 5909SOL    HW229361   2.872   3.982   6.614  0.6603  1.8877  1.4514
 5910SOL     OW29362   4.249   4.578  11.470  0.1526 -0.2293  0.4069
 5910SOL    HW129363   4.178   4.567  11.532 -1.2135  2.5882 -0.6750
 5910SOL    HW229364   4.308   4.636  11.518  0.4113 -1.0355  1.0766
 5911SOL     OW29365   4.543   0.894   8.142 -0.4099 -0.5402 -0.5397
 5911SOL    HW129366   4.624   0.944   8.140 -0.1117 -0.9803  0.3783
 5911SOL    HW229367   4.497   0.956   8.086  1.4109  1.7578  0.5097
 5912SOL     OW29368   3.781   4.061   2.290  0.5092  0.3936 -0.1081
 5912SOL    HW129369   3.864   4.059   2.338  1.2452  2.2192 -1.3199
 5912SOL    HW229370   3.794   4.116   2.213  1.7819 -1.2917 -1.1012
 5913SOL     OW29371   3.286   2.490  16.045  0.1837  0.1606  0.3931
 5913SOL    HW129372   3.236   2.550  15.991 -2.1665 -0.9913  1.2900
 5913SOL    HW229373   3.361   2.546  16.063  0.0120  1.3562 -2.5114
 5914SOL     OW29374   3.723   1.181  14.056 -0.5578 -0.2414  0.8875
 5914SOL    HW129375   3.813   1.147  14.048 -1.4585 -1.8106 -2.6850
 5914SOL    HW229376   3.665   1.110  14.083  1.5432 -2.0250  0.7650
 5915SOL     OW29377   1.401   0.929   5.135  0.0246 -0.2320 -0.0470
 5915SOL    HW129378   1.486   0.902   5.100  0.7362  1.4897  0.3612
 5915SOL    HW229379   1.373   0.993   5.069 -1.2914 -1.7761 -0.9883
 5916SOL     OW29380   3.913   3.769   0.005  0.3866  0.2418  0.1222
 5916SOL    HW129381   3.827   3.787  17.698  0.0986  0.9925  1.1602
 5916SOL    HW229382   3.884   3.734   0.089  1.0223  2.0092  1.0768
 5917SOL     OW29383   2.467   0.144   2.581  0.0682 -0.0827  0.3890
 5917SOL    HW129384   2.504   0.161   2.495 -2.2971  1.4652 -0.3313
 5917SOL    HW229385   2.381   0.185   2.573  0.0728  0.1602  1.6107
 5918SOL     OW29386   3.785   2.359   1.738  0.4520 -0.0093 -0.4640
 5918SOL    HW129387   3.818   2.284   1.787 -1.9466 -0.2136  0.8676
 5918SOL    HW229388   3.691   2.343   1.737  0.8212 -2.3417  2.2122
 5919SOL     OW29389   1.314   4.630   8.978 -0.4940  0.1200  0.3838
 5919SOL    HW129390   1.264   4.706   8.948 -2.2737 -0.7721  1.1325
 5919SOL    HW229391   1.357   4.675   9.051  1.4841 -1.7997  0.3846
 5920SOL     OW29392   4.578   3.798   2.593  0.0466  0.3431 -0.0904
 5920SOL    HW129393   4.571   3.816   2.500  0.0722  0.6977 -0.0266
 5920SOL    HW229394   4.486   3.804   2.616  0.4061 -0.2557  1.5273
 5921SOL     OW29395   2.161   4.085   4.618  0.8102 -0.2368 -0.2145
 5921SOL    HW129396   2.105   4.111   4.545  0.2148  0.3881  0.4678
 5921SOL    HW229397   2.220   4.160   4.627  0.0406  0.3951 -0.4148
 5922SOL     OW29398   3.991   3.683  12.544 -0.0552  0.1093 -0.4496
 5922SOL    HW129399   3.969   3.658  12.634 -0.1102 -1.0949 -0.7895
 5922SOL    HW229400   3.972   3.597  12.505 -3.4751 -0.1952  1.8455
 5923SOL     OW29401   1.613   2.661  15.481 -0.3978 -0.4190  0.1974
 5923SOL    HW129402   1.649   2.636  15.396  0.3606  0.8616  0.1386
 5923SOL    HW229403   1.536   2.708  15.449 -1.1365 -1.3292  0.6526
 5924SOL     OW29404   2.923   0.920  17.252  0.4024 -0.6372 -0.2348
 5924SOL    HW129405   2.970   0.996  17.286 -1.2454  0.0186  0.6234
 5924SOL    HW229406   2.959   0.915  17.164  0.4648  0.7270 -0.2861
 5925SOL     OW29407   0.736   2.994   8.007 -0.1468 -0.1134 -0.1836
 5925SOL    HW129408   0.768   2.938   8.078  1.5269  0.0652 -0.7910
 5925SOL    HW229409   0.806   2.980   7.943 -1.1232 -0.8258 -1.1036
 5926SOL     OW29410   1.562   2.022  17.115  0.2185 -0.7096  0.3660
 5926SOL    HW129411   1.611   2.009  17.034  1.9020  0.1214  1.2538
 5926SOL    HW229412   1.525   2.109  17.099  0.4502 -0.7912 -0.6321
 5927SOL     OW29413   1.309   0.211   2.126 -0.2825 -0.3847  0.4191
 5927SOL    HW129414   1.352   0.251   2.051 -1.5941 -0.7281 -0.5170
 5927SOL    HW229415   1.333   0.119   2.129 -2.1067 -0.8402  1.4373
 5928SOL     OW29416   3.867   2.376   9.866  0.5290 -0.0147  0.5608
 5928SOL    HW129417   3.808   2.429   9.919  1.7712  0.2280  1.7093
 5928SOL    HW229418   3.890   2.301   9.921  0.4235 -1.0806 -0.8588
 5929SOL     OW29419   1.826   0.377   5.505  0.2831  0.8700 -0.1024
 5929SOL    HW129420   1.864   0.292   5.528 -0.3134  0.3647 -1.0160
 5929SOL    HW229421   1.876   0.436   5.561  0.3629  1.1710 -0.4928
 5930SOL     OW29422   3.050   4.609   7.029 -0.2831  0.1155  0.7467
 5930SOL    HW129423   3.018   4.584   7.115  0.1163 -2.3489  0.1703
 5930SOL    HW229424   3.023   4.701   7.023 -0.5197  0.2095  3.3526
 5931SOL     OW29425   3.921   3.466   2.667 -0.6509 -0.3799 -0.3450
 5931SOL    HW129426   3.928   3.375   2.695  0.0821  0.0416  0.8401
 5931SOL    HW229427   3.918   3.453   2.572 -0.2172 -1.0601 -0.2697
 5932SOL     OW29428   2.437   1.565   4.358  0.0387 -0.4356 -0.2731
 5932SOL    HW129429   2.377   1.564   4.284 -0.4019 -0.4748  0.0886
 5932SOL    HW229430   2.385   1.589   4.434  0.3225  1.9878 -0.8339
 5933SOL     OW29431   2.451   3.560   3.785 -0.2079 -0.0363 -0.5107
 5933SOL    HW129432   2.503   3.612   3.723  0.7432 -2.3115 -1.6053
 5933SOL    HW229433   2.362   3.567   3.750 -0.9375 -3.4832  0.6693
 5934SOL     OW29434   0.307   3.658   2.716 -0.0039 -0.3933 -0.1270
 5934SOL    HW129435   0.236   3.680   2.656  0.1518  1.3449  0.3439
 5934SOL    HW229436   0.308   3.739   2.767  1.7901  0.3941 -1.4291
 5935SOL     OW29437   2.163   2.050   2.764 -0.2418  0.5182 -0.2431
 5935SOL    HW129438   2.251   2.086   2.777  1.5756 -3.1311 -2.3700
 5935SOL    HW229439   2.179   1.957   2.779  0.1132  0.6311  0.0754
 5936SOL     OW29440   3.917   0.560   8.768 -0.2787 -0.3835  0.0269
 5936SOL    HW129441   3.952   0.477   8.800  0.3236 -0.4272 -0.7455
 5936SOL    HW229442   3.827   0.537   8.746 -0.7838 -0.4066  2.1272
 5937SOL     OW29443   2.762   0.012   3.670 -0.5123  0.6204  0.2888
 5937SOL    HW129444   2.798   0.039   3.585  0.6776 -0.9579  0.2889
 5937SOL    HW229445   2.795   4.655   3.663  1.2270  1.2427  0.4955
 5938SOL     OW29446   0.382   0.035  15.429 -0.3456  0.4030  1.0583
 5938SOL    HW129447   0.451   0.078  15.377 -2.2842 -0.3003 -2.0900
 5938SOL    HW229448   0.307   0.039  15.370  0.5913 -2.9872 -0.3148
 5939SOL     OW29449   3.409   4.483   1.262  0.1763  0.0158 -0.2645
 5939SOL    HW129450   3.348   4.510   1.194  0.4292 -1.1407 -0.9367
 5939SOL    HW229451   3.346   4.486   1.334 -1.1703 -0.5263 -1.4266
 5940SOL     OW29452   0.070   4.126   5.757 -0.1343 -0.1188  0.1065
 5940SOL    HW129453   0.040   4.195   5.817  0.9690  1.2202 -0.8661
 5940SOL    HW229454   4.720   4.081   5.742 -0.5835  0.1047  1.9474
 5941SOL     OW29455   2.358   3.358  16.296 -0.0748  0.0999  0.0979
 5941SOL    HW129456   2.287   3.306  16.257 -0.2339  1.1417 -1.0116
 5941SOL    HW229457   2.411   3.281  16.316  0.7370  0.8316  0.7497
 5942SOL     OW29458   0.902   3.295   0.991  0.8085 -0.5054 -0.3240
 5942SOL    HW129459   0.831   3.242   0.955  0.6250  2.4283 -4.2593
 5942SOL    HW229460   0.870   3.385   0.987  0.9344 -0.3253  2.4392
 5943SOL     OW29461   1.681   4.603   6.359 -0.5359 -0.0528 -0.1053
 5943SOL    HW129462   1.637   4.521   6.380 -2.6955  1.7925  2.5768
 5943SOL    HW229463   1.612   4.655   6.400 -0.5116 -1.6604  1.9802
 5944SOL     OW29464   0.039   2.837   1.302  0.0244 -0.8791  0.6682
 5944SOL    HW129465   0.024   2.765   1.363 -1.7544 -1.4860 -0.4994
 5944SOL    HW229466   0.080   2.904   1.357 -0.4716 -0.6655  0.7728
 5945SOL     OW29467   0.029   0.345  13.190 -0.5108  0.2897 -0.0592
 5945SOL    HW129468   0.040   0.283  13.118  0.2161  0.9816 -0.5386
 5945SOL    HW229469   4.723   0.287  13.255 -0.5306  1.3394  0.8732
 5946SOL     OW29470   0.566   1.502   8.556  0.0421 -0.1795  0.3420
 5946SOL    HW129471   0.658   1.480   8.572 -0.7190 -2.1250  1.9358
 5946SOL    HW229472   0.575   1.594   8.531 -2.5726  0.0714  0.2859
 5947SOL     OW29473   0.923   3.444   4.156  0.4311  0.0565  0.0388
 5947SOL    HW129474   0.874   3.368   4.126  1.6117 -1.4337  1.8982
 5947SOL    HW229475   0.853   3.498   4.192  1.2179  1.8031 -1.0192
 5948SOL     OW29476   3.629   0.096   4.503 -0.1917 -0.2254  0.0803
 5948SOL    HW129477   3.652   0.179   4.462 -0.3206  0.1260  0.7270
 5948SOL    HW229478   3.709   0.075   4.551 -1.0893  1.4231  2.2866
 5949SOL     OW29479   3.085   0.203   7.612  0.0616 -0.1417  0.4350
 5949SOL    HW129480   3.163   0.147   7.604  0.8404  1.4589 -3.2019
 5949SOL    HW229481   3.053   0.208   7.522  1.5517 -0.6973 -0.1412
 5950SOL     OW29482   4.122   3.141  12.229  0.4242  0.2920  0.0048
 5950SOL    HW129483   4.102   3.132  12.322  3.6463 -1.3809  0.5496
 5950SOL    HW229484   4.082   3.064  12.190  1.1482 -0.6695  1.1334
 5951SOL     OW29485   1.015   3.444   7.372  0.0604  0.5713 -0.0270
 5951SOL    HW129486   0.923   3.416   7.376  0.2930 -0.1974 -0.0341
 5951SOL    HW229487   1.003   3.538   7.380 -0.8407  0.5383 -0.9750
 5952SOL     OW29488   3.093   3.959   7.091  0.2587 -0.4772 -0.3225
 5952SOL    HW129489   3.175   3.931   7.050  0.6568  0.2381 -0.0016
 5952SOL    HW229490   3.044   3.877   7.103 -1.4342  0.1663 -2.8063
 5953SOL     OW29491   4.010   0.941  15.342  0.1832  0.6345  0.0673
 5953SOL    HW129492   4.016   0.941  15.438 -1.7255 -0.7188  0.1971
 5953SOL    HW229493   4.085   0.896  15.305 -0.2117 -0.3060  0.4024
 5954SOL     OW29494   1.040   4.384   1.790  0.0796 -0.3057  0.1182
 5954SOL    HW129495   0.997   4.428   1.716  0.9281 -2.4830 -1.6439
 5954SOL    HW229496   1.007   4.439   1.861 -0.5574  2.5220 -2.3254
 5955SOL     OW29497   1.603   2.541   5.841 -0.0923  0.6402  0.0038
 5955SOL    HW129498   1.579   2.611   5.901  0.1841 -1.4570  2.5860
 5955SOL    HW229499   1.555   2.473   5.889  0.8920 -1.0580 -1.4337
 5956SOL     OW29500   4.542   1.955  16.654 -0.5415  0.4749 -0.2014
 5956SOL    HW129501   4.561   1.883  16.595  0.3764  0.7310 -0.2220
 5956SOL    HW229502   4.564   2.029  16.597  0.7119 -1.8215 -2.6837
 5957SOL     OW29503   4.691   0.593  16.967  0.2732  0.5849  0.2614
 5957SOL    HW129504   0.030   0.632  17.018 -0.9672  1.8225  1.0433
 5957SOL    HW229505   4.723   0.504  16.953 -0.3088 -0.0630  3.1455
 5958SOL     OW29506   3.190   3.680   4.551 -0.4199  0.1523 -0.7110
 5958SOL    HW129507   3.203   3.748   4.617  4.3442 -1.5946  0.1920
 5958SOL    HW229508   3.238   3.610   4.595 -0.7731 -0.6322 -1.5699
 5959SOL     OW29509   4.223   4.615  10.246 -0.0344 -0.0531  0.1467
 5959SOL    HW129510   4.158   4.593  10.179 -0.1505  2.7251 -0.6465
 5959SOL    HW229511   4.281   4.667  10.190 -0.7449 -0.4332 -0.9349
 5960SOL     OW29512   2.048   4.389  12.129 -0.3278 -0.5175 -0.0883
 5960SOL    HW129513   2.016   4.315  12.077  0.7335 -2.2809  1.7523
 5960SOL    HW229514   2.113   4.419  12.066 -0.1073 -1.4527 -0.3123
 5961SOL     OW29515   4.203   0.021   8.473 -0.0629 -0.0500  0.1907
 5961SOL    HW129516   4.235   0.093   8.418  0.1105 -0.7836 -0.6703
 5961SOL    HW229517   4.116   0.011   8.434 -1.9070  2.2740  3.7318
 5962SOL     OW29518   1.321   0.449   5.185 -0.7819 -0.0530 -0.5008
 5962SOL    HW129519   1.333   0.394   5.262 -0.2822  2.0449  0.8865
 5962SOL    HW229520   1.408   0.483   5.162 -0.8737  0.5438  0.0395
 5963SOL     OW29521   0.490   4.080   8.525 -0.0103 -0.3498 -0.1806
 5963SOL    HW129522   0.461   4.110   8.439  0.9906 -0.6473 -0.6182
 5963SOL    HW229523   0.414   4.026   8.548 -0.0135  0.4196  1.6010
 5964SOL     OW29524   3.747   2.131   2.826 -0.0151 -0.1347  0.0376
 5964SOL    HW129525   3.671   2.093   2.782  0.0847 -0.8476  0.4814
 5964SOL    HW229526   3.811   2.104   2.760  2.0957  1.7902  1.3191
 5965SOL     OW29527   4.390   1.847   3.805  0.0932  0.0135  0.9340
 5965SOL    HW129528   4.459   1.798   3.761 -0.2461  1.2898 -0.9823
 5965SOL    HW229529   4.312   1.813   3.762  0.3462 -0.3807  0.7900
 5966SOL     OW29530   4.578   3.137  17.063  0.4599 -0.5312 -0.5383
 5966SOL    HW129531   4.590   3.042  17.067 -3.2379 -0.9382  0.5417
 5966SOL    HW229532   4.562   3.151  17.156  1.3422  0.4763 -0.5441
 5967SOL     OW29533   2.437   0.002   8.767  0.7740  0.1018  0.4115
 5967SOL    HW129534   2.516   4.713   8.815  1.2016 -1.7651 -1.1331
 5967SOL    HW229535   2.454   4.681   8.689  4.0273 -0.7026  1.7076
 5968SOL     OW29536   4.289   1.382   5.593 -0.0865  0.0832 -0.0176
 5968SOL    HW129537   4.262   1.356   5.505  0.9485 -1.2434  0.0723
 5968SOL    HW229538   4.209   1.424   5.624  0.1407 -0.7038  1.6357
 5969SOL     OW29539   2.497   3.199   2.279 -0.3128 -0.2517 -0.3429
 5969SOL    HW129540   2.479   3.114   2.240 -2.1448 -0.3472  0.6666
 5969SOL    HW229541   2.449   3.253   2.216 -1.6026  0.9655  1.6440
 5970SOL     OW29542   1.906   3.567   3.329  0.1051  0.1472  0.3154
 5970SOL    HW129543   1.907   3.526   3.243 -0.8011  0.3877  0.1949
 5970SOL    HW229544   1.880   3.497   3.389 -2.1163 -0.6389 -1.5619
 5971SOL     OW29545   1.182   4.177   8.195 -0.2825 -0.5918 -0.1303
 5971SOL    HW129546   1.221   4.098   8.159 -0.7158 -0.2243 -1.3796
 5971SOL    HW229547   1.094   4.165   8.162  0.6530 -0.8901 -2.4695
 5972SOL     OW29548   3.077   3.055   6.056 -0.4677  0.4922  0.2861
 5972SOL    HW129549   3.035   3.139   6.072 -2.0961 -0.0034 -1.3152
 5972SOL    HW229550   3.035   3.031   5.973  0.1158 -2.7418  0.9376
 5973SOL     OW29551   0.792   3.768   9.919 -1.0437 -0.6269 -0.2857
 5973SOL    HW129552   0.787   3.846   9.973  1.7259 -0.8153  0.2642
 5973SOL    HW229553   0.708   3.722   9.927 -1.6195  0.3115 -0.9889
 5974SOL     OW29554   4.335   1.275   0.009 -0.1303 -0.7906  0.2188
 5974SOL    HW129555   4.319   1.280   0.103  3.8222  0.8534  0.8015
 5974SOL    HW229556   4.431   1.264   0.008  0.4395  4.1194  0.5419
 5975SOL     OW29557   0.079   4.301  14.038 -0.3674  0.2966  0.4201
 5975SOL    HW129558   0.031   4.265  13.964  0.0125  2.7311 -1.0192
 5975SOL    HW229559   0.150   4.237  14.047  0.6787  1.5210  0.9398
 5976SOL     OW29560   3.087   3.652   2.236 -0.0201 -0.5009 -0.4170
 5976SOL    HW129561   3.060   3.653   2.145 -1.7916  1.0552  0.1155
 5976SOL    HW229562   3.063   3.562   2.259  0.2131 -0.1903  1.0572
 5977SOL     OW29563   2.406   4.154   7.480 -0.1628  0.5464 -0.1974
 5977SOL    HW129564   2.472   4.090   7.506  0.6787  0.4925 -2.3951
 5977SOL    HW229565   2.346   4.104   7.425 -0.1959  1.5911 -1.1261
 5978SOL     OW29566   2.309   1.389   1.261  0.5598 -0.4801 -0.2946
 5978SOL    HW129567   2.249   1.401   1.335  0.3311 -0.1578 -0.5355
 5978SOL    HW229568   2.390   1.379   1.311 -0.7836 -0.4941  1.9146
 5979SOL     OW29569   1.675   3.906  14.255 -0.6617  0.3752 -0.1221
 5979SOL    HW129570   1.738   3.848  14.296 -0.7047  0.0806 -0.4756
 5979SOL    HW229571   1.714   3.991  14.277  3.9375 -1.4253 -1.3778
 5980SOL     OW29572   4.685   2.525   2.546 -0.0993  0.2412 -0.1412
 5980SOL    HW129573   0.015   2.593   2.567  1.0515 -0.8732  0.0432
 5980SOL    HW229574   4.642   2.558   2.467 -2.2236  0.9175  1.2964
 5981SOL     OW29575   1.610   3.924   2.342  0.1303  0.0210  0.6965
 5981SOL    HW129576   1.620   3.925   2.247 -1.2287  1.2411  0.5585
 5981SOL    HW229577   1.514   3.929   2.348  0.0447 -0.5251 -0.1886
 5982SOL     OW29578   2.436   4.431  11.215 -0.3851 -0.0402 -0.3187
 5982SOL    HW129579   2.456   4.337  11.208  0.0210 -0.1768  2.5878
 5982SOL    HW229580   2.417   4.442  11.308 -2.0748 -0.7937 -0.5801
 5983SOL     OW29581   0.034   2.074   5.513 -0.3607  0.2806 -0.1519
 5983SOL    HW129582   0.113   2.118   5.483 -1.6373  1.9159 -1.1323
 5983SOL    HW229583   0.050   2.080   5.608  1.2529 -1.8586 -0.2817
 5984SOL     OW29584   3.417   0.852   3.487 -0.1167 -0.1391  0.0964
 5984SOL    HW129585   3.344   0.843   3.549  0.3088  0.1266  0.6380
 5984SOL    HW229586   3.381   0.838   3.400 -1.3923  3.6765 -0.0099
 5985SOL     OW29587   0.593   2.582  10.060  0.3756 -0.1942 -0.1059
 5985SOL    HW129588   0.670   2.634  10.037  0.2205  0.1802  0.2212
 5985SOL    HW229589   0.599   2.568  10.154 -1.8723  3.6408  0.6075
 5986SOL     OW29590   3.787   4.625  14.994  0.0687  0.0649 -0.3207
 5986SOL    HW129591   3.768   4.597  14.905 -1.0433 -0.0297 -0.0482
 5986SOL    HW229592   3.717   4.580  15.040 -0.6020 -0.8491 -2.2582
 5987SOL     OW29593   2.210   0.513   8.412 -0.3603  0.6643 -0.1596
 5987SOL    HW129594   2.126   0.558   8.425 -1.0002 -1.2618  2.4629
 5987SOL    HW229595   2.179   0.457   8.341  0.3328 -0.4191  0.3954
 5988SOL     OW29596   2.231   1.012   6.519 -0.5110  0.4112  0.2287
 5988SOL    HW129597   2.276   0.936   6.558 -0.2590  1.8099  2.6940
 5988SOL    HW229598   2.150   1.015   6.570 -0.1084  1.7018  0.7975
 5989SOL     OW29599   1.755   0.639   9.491  0.5527 -0.0476  0.3776
 5989SOL    HW129600   1.801   0.665   9.411 -0.3508 -2.5412 -0.9390
 5989SOL    HW229601   1.774   0.716   9.545 -3.0561  0.6112  0.6656
 5990SOL     OW29602   1.572   0.903  12.390  0.0658 -0.0580 -0.7463
 5990SOL    HW129603   1.613   0.819  12.370 -2.1196 -1.8851  2.5445
 5990SOL    HW229604   1.488   0.909  12.344 -0.1918 -1.1561 -0.4183
 5991SOL     OW29605   3.202   3.720  15.236 -0.0923  0.0396  0.4732
 5991SOL    HW129606   3.184   3.814  15.242  5.0435  1.0805 -0.3820
 5991SOL    HW229607   3.157   3.684  15.312  1.7706  2.0682  2.5576
 5992SOL     OW29608   4.481   3.041   4.236 -0.6172  0.6992  0.0206
 5992SOL    HW129609   4.572   3.060   4.214 -0.7934 -0.5419 -1.8011
 5992SOL    HW229610   4.472   2.952   4.200  0.1328  1.0708 -1.1140
 5993SOL     OW29611   2.341   1.430   6.891 -0.0792  0.3327 -0.0181
 5993SOL    HW129612   2.314   1.428   6.799  1.0673  0.9289 -0.3745
 5993SOL    HW229613   2.363   1.337   6.899 -2.2262 -0.0074  1.9607
 5994SOL     OW29614   1.622   3.722   7.014 -0.0477 -0.1928  0.2549
 5994SOL    HW129615   1.551   3.748   7.072 -0.3381  1.8797 -1.0692
 5994SOL    HW229616   1.685   3.677   7.071  1.1627  0.5484 -0.4863
 5995SOL     OW29617   4.275   1.151   2.299  0.3762 -0.0978 -0.0725
 5995SOL    HW129618   4.339   1.114   2.238  3.2614  1.4087  2.0483
 5995SOL    HW229619   4.234   1.070   2.330  2.3611 -1.1502 -0.2422
 5996SOL     OW29620   2.331   0.071   4.450 -0.2536  0.2994  0.5163
 5996SOL    HW129621   2.341   0.165   4.467  0.1529  0.8914 -2.9838
 5996SOL    HW229622   2.248   0.072   4.402 -1.3499 -0.9436  2.3785
 5997SOL     OW29623   1.663   3.334  16.444  0.4660  0.2192  0.0976
 5997SOL    HW129624   1.756   3.313  16.456 -0.2767 -2.1741  1.6277
 5997SOL    HW229625   1.626   3.260  16.396  0.5042 -0.3408  0.9394
 5998SOL     OW29626   4.685   2.497   4.928  0.3639 -0.5261  0.2722
 5998SOL    HW129627   0.006   2.553   4.984 -1.0408  0.4813  0.5824
 5998SOL    HW229628   0.016   2.428   4.906  0.8837  0.0377 -0.0200
 5999SOL     OW29629   0.129   0.372  10.281  0.0966 -0.5680 -0.5051
 5999SOL    HW129630   0.092   0.345  10.365  0.2918 -2.4674 -1.0329
 5999SOL    HW229631   0.221   0.346  10.289 -0.3045 -2.0851 -0.8846
 6000SOL     OW29632   3.402   1.575  14.080 -0.2086  0.2880 -0.7094
 6000SOL    HW129633   3.446   1.490  14.069 -1.4928 -0.3035 -1.3749
 6000SOL    HW229634   3.344   1.563  14.004  2.2236  2.7612 -2.9704
 6001SOL     OW29635   2.639   3.143   4.967 -0.6573 -0.7649  0.0018
 6001SOL    HW129636   2.566   3.124   4.907 -1.1158 -1.6466  0.8362
 6001SOL    HW229637   2.691   3.189   4.901 -0.3773 -3.1515 -1.4351
 6002SOL     OW29638   2.924   1.936   3.095  0.2251  0.7188 -0.2269
 6002SOL    HW129639   2.978   1.940   3.016  1.7564  1.3384  0.8358
 6002SOL    HW229640   2.994   1.938   3.160 -1.4513 -1.1949  1.5982
 6003SOL     OW29641   3.707   0.340   6.056  0.5126 -0.1226  0.4065
 6003SOL    HW129642   3.714   0.244   6.048  1.0971 -0.0044 -0.5139
 6003SOL    HW229643   3.634   0.353   5.995  1.4532  0.5301 -0.5639
 6004SOL     OW29644   0.369   4.037   6.428 -0.1617 -0.0750 -0.1606
 6004SOL    HW129645   0.280   4.064   6.408 -0.3239 -0.9596 -0.6570
 6004SOL    HW229646   0.375   3.958   6.374 -0.6443 -0.7496  0.7819
 6005SOL     OW29647   4.388   2.034  17.159  0.3738  1.0502 -0.2287
 6005SOL    HW129648   4.430   2.120  17.167  0.8180  0.9211 -1.1645
 6005SOL    HW229649   4.409   2.015  17.067  0.2478 -1.9288  0.3633
 6006SOL     OW29650   4.156   3.040   3.435  0.3602  0.2580  0.1100
 6006SOL    HW129651   4.251   3.035   3.441  0.3742  0.3398 -0.0548
 6006SOL    HW229652   4.127   3.040   3.526 -1.9733 -2.9618 -0.6335
 6007SOL     OW29653   3.824   4.381   1.083  0.0630 -0.0436 -0.1639
 6007SOL    HW129654   3.765   4.327   1.030  0.0367 -1.5326  1.3745
 6007SOL    HW229655   3.768   4.407   1.156  0.8982 -0.2330  0.5455
 6008SOL     OW29656   0.880   3.019   9.772 -0.0139  0.0641 -0.5908
 6008SOL    HW129657   0.940   3.091   9.753  0.0613  0.3516  0.7357
 6008SOL    HW229658   0.813   3.059   9.828  0.0450 -0.1219 -0.3849
 6009SOL     OW29659   3.440   2.296   5.688  0.0985  0.0481  0.2788
 6009SOL    HW129660   3.481   2.232   5.746  1.9854 -0.7607 -1.9443
 6009SOL    HW229661   3.476   2.374   5.729 -1.0785 -0.4516  2.2690
 6010SOL     OW29662   1.483   4.397   2.037 -0.2432 -0.5717  0.3372
 6010SOL    HW129663   1.541   4.375   2.110  0.1643 -0.5234  0.0211
 6010SOL    HW229664   1.545   4.393   1.965 -0.0346  1.3139  0.4200
 6011SOL     OW29665   2.318   3.314   3.629  0.4096  0.3801  0.0677
 6011SOL    HW129666   2.264   3.368   3.571  1.6626  2.8789  1.2331
 6011SOL    HW229667   2.255   3.279   3.691  1.7810 -0.3238  1.0640
 6012SOL     OW29668   4.325   1.116   5.169  0.2758 -0.1718 -0.1165
 6012SOL    HW129669   4.278   1.081   5.093  0.5259  0.6948 -0.6828
 6012SOL    HW229670   4.411   1.140   5.134  0.1528  0.3446 -0.0688
 6013SOL     OW29671   4.602   4.468  10.117 -0.2526 -0.2052 -0.3298
 6013SOL    HW129672   4.674   4.406  10.105  1.5471  1.7462  0.2779
 6013SOL    HW229673   4.642   4.555  10.122  0.3758 -0.4082 -1.9210
 6014SOL     OW29674   1.660   0.774   3.568 -0.3623  0.5100  0.5301
 6014SOL    HW129675   1.594   0.823   3.616  0.2576 -0.4190  2.3709
 6014SOL    HW229676   1.671   0.706   3.635 -1.4530  0.5465  0.7517
 6015SOL     OW29677   3.605   4.434   5.581 -0.4514  0.1395  0.6761
 6015SOL    HW129678   3.538   4.498   5.605 -0.0853  0.2054  1.4812
 6015SOL    HW229679   3.571   4.416   5.493  0.4105  0.6164  0.2553
 6016SOL     OW29680   3.208   2.693   7.544 -0.2811  0.4482  0.4501
 6016SOL    HW129681   3.189   2.774   7.497  0.5534 -0.1461 -0.9000
 6016SOL    HW229682   3.123   2.683   7.587  0.5895 -0.2561  2.0050
 6017SOL     OW29683   0.532   0.141   0.407  0.0743 -0.3492 -0.4941
 6017SOL    HW129684   0.564   0.124   0.319 -0.0105  0.3904 -0.6656
 6017SOL    HW229685   0.547   0.235   0.413 -0.4039 -0.2921 -0.1683
 6018SOL     OW29686   4.511   3.807   9.072  0.3574 -0.0818 -0.0023
 6018SOL    HW129687   4.451   3.746   9.115 -0.5913  0.3423 -0.7041
 6018SOL    HW229688   4.484   3.788   8.982 -0.0762 -0.2775  0.1701
 6019SOL     OW29689   3.662   2.547  12.148 -0.1079  0.0611 -0.2725
 6019SOL    HW129690   3.670   2.601  12.226 -1.5204  0.1356 -0.1720
 6019SOL    HW229691   3.757   2.549  12.135 -0.3061  2.1518 -1.3410
 6020SOL     OW29692   4.227   2.070  12.563  0.4768 -0.6391  0.0067
 6020SOL    HW129693   4.286   2.135  12.603 -0.8800  0.8370 -0.3925
 6020SOL    HW229694   4.232   2.090  12.470  1.2220  2.7003  0.7551
 6021SOL     OW29695   4.292   2.408   5.664  0.3179  0.1878  0.2041
 6021SOL    HW129696   4.227   2.382   5.600  3.0173 -0.3084 -2.3208
 6021SOL    HW229697   4.285   2.330   5.719 -1.0542 -0.6589 -1.1933
 6022SOL     OW29698   1.798   0.439   7.016 -0.3097  0.5473  0.4395
 6022SOL    HW129699   1.776   0.405   6.929 -0.9475 -0.5840  1.0265
 6022SOL    HW229700   1.893   0.443   7.010 -0.2161 -1.8635  0.3122
 6023SOL     OW29701   3.020   4.341   7.928  0.5925  0.4266  0.4879
 6023SOL    HW129702   3.055   4.256   7.903  0.2187  1.2690 -2.9051
 6023SOL    HW229703   2.997   4.322   8.019 -1.2539 -2.7991 -0.6805
 6024SOL     OW29704   0.247   3.793  16.367 -0.0114 -0.8675  0.1597
 6024SOL    HW129705   0.259   3.886  16.382  0.9604 -0.7554 -1.3384
 6024SOL    HW229706   0.163   3.776  16.409 -0.1417  2.0603  1.0754
 6025SOL     OW29707   2.886   3.450   5.606  0.0714 -0.4074 -0.1186
 6025SOL    HW129708   2.915   3.539   5.590  1.6802 -0.4852  2.4134
 6025SOL    HW229709   2.795   3.451   5.638 -0.3594 -0.6953 -1.3396
 6026SOL     OW29710   3.296   2.870  12.610 -0.4054 -0.0973  0.3365
 6026SOL    HW129711   3.315   2.955  12.572 -0.2865  0.3708  1.4511
 6026SOL    HW229712   3.201   2.883  12.618 -0.3466 -0.6821  2.0157
 6027SOL     OW29713   3.967   1.778   6.180 -0.2835  0.2799  0.6311
 6027SOL    HW129714   4.054   1.740   6.191 -0.6703 -0.0777  2.4506
 6027SOL    HW229715   3.976   1.786   6.085  0.5580 -1.5530  0.5486
 6028SOL     OW29716   1.062   2.706  16.840  0.3226  0.4336 -1.0460
 6028SOL    HW129717   1.116   2.762  16.785  2.1045 -0.8862 -0.6215
 6028SOL    HW229718   1.036   2.770  16.905 -0.2805 -1.1023  0.2390
 6029SOL     OW29719   3.032   4.198   0.497 -0.3355 -0.2082  0.3840
 6029SOL    HW129720   2.938   4.189   0.481 -0.2279  0.5585 -0.7566
 6029SOL    HW229721   3.059   4.216   0.407  1.6908 -0.1045  1.0270
 6030SOL     OW29722   0.098   4.341  12.323  0.5664 -0.0704  0.8615
 6030SOL    HW129723   0.117   4.267  12.379 -1.6491 -0.2420  1.4007
 6030SOL    HW229724   0.153   4.412  12.355  0.6414  0.0305  0.5155
 6031SOL     OW29725   1.433   0.582   5.572  0.4069 -0.1740  0.5042
 6031SOL    HW129726   1.457   0.666   5.533  0.2379  0.5688  2.0045
 6031SOL    HW229727   1.413   0.601   5.664  2.1012 -2.5838  1.3684
 6032SOL     OW29728   0.064   0.957  11.932  0.0343  0.0044  0.4575
 6032SOL    HW129729   0.049   0.990  12.021 -0.0100 -1.4659  0.9985
 6032SOL    HW229730   0.039   0.866  11.948  0.9586 -0.5744 -1.3327
 6033SOL     OW29731   2.151   0.485  13.274  0.1010  0.3500 -0.0179
 6033SOL    HW129732   2.066   0.527  13.291  0.2472  1.1918 -1.3405
 6033SOL    HW229733   2.181   0.532  13.196  1.9656 -1.4221 -0.3496
 6034SOL     OW29734   4.369   3.910   0.064  0.2346 -0.1420 -0.0426
 6034SOL    HW129735   4.279   3.938   0.048 -0.3689 -1.9342  0.1932
 6034SOL    HW229736   4.372   3.842  17.726 -0.4389 -0.2738  0.0606
 6035SOL     OW29737   1.117   0.697   9.926  0.0298 -0.1872  0.0779
 6035SOL    HW129738   1.144   0.707   9.834 -1.5913  0.4383 -0.3248
 6035SOL    HW229739   1.186   0.634   9.947 -2.4973 -2.2658  2.0948
 6036SOL     OW29740   4.618   2.702   8.354  0.3123 -0.3401 -0.0424
 6036SOL    HW129741   4.523   2.699   8.347  0.2591  0.4093  0.3292
 6036SOL    HW229742   4.635   2.732   8.265 -0.4341 -0.5872 -0.2674
 6037SOL     OW29743   1.472   1.942   5.525 -0.5722 -0.1531 -0.1525
 6037SOL    HW129744   1.483   1.871   5.588  0.0089 -0.4528 -0.5979
 6037SOL    HW229745   1.554   1.936   5.476  0.0376 -1.8943  1.1095
 6038SOL     OW29746   1.177   2.787   7.946  0.2483  0.0888 -0.2622
 6038SOL    HW129747   1.181   2.762   7.854  1.0923 -0.2176 -0.1398
 6038SOL    HW229748   1.229   2.867   7.943 -0.2937  0.4603  0.3154
 6039SOL     OW29749   3.853   3.176   4.227  0.0105  0.1319  0.2367
 6039SOL    HW129750   3.867   3.220   4.311 -1.6459  0.5655  0.2860
 6039SOL    HW229751   3.757   3.177   4.219  0.2521 -0.3336 -2.4938
 6040SOL     OW29752   1.984   1.291  16.064 -0.3584  0.5360  0.7454
 6040SOL    HW129753   2.057   1.339  16.104  0.2572  0.7586 -0.6658
 6040SOL    HW229754   1.999   1.200  16.089 -0.5753 -0.0956 -1.4463
 6041SOL     OW29755   4.336   1.485   1.725  0.6059  0.3026  0.0848
 6041SOL    HW129756   4.315   1.395   1.698  0.3083  0.6898 -0.9762
 6041SOL    HW229757   4.427   1.495   1.697  0.2513  1.8514 -0.5244
 6042SOL     OW29758   4.697   3.019   9.049 -0.1435  0.4114 -0.2781
 6042SOL    HW129759   0.025   2.946   9.038 -1.1935 -0.5956  0.6087
 6042SOL    HW229760   0.030   3.087   9.038 -0.4721  0.8459  0.4590
 6043SOL     OW29761   3.288   2.262   9.281 -0.2989  0.5368  0.3013
 6043SOL    HW129762   3.243   2.242   9.199 -2.2695  0.6533  1.3600
 6043SOL    HW229763   3.373   2.292   9.247 -0.6998 -1.2765 -2.2719
 6044SOL     OW29764   3.080   3.766   5.104 -0.6916  0.0156  0.3885
 6044SOL    HW129765   3.125   3.840   5.063  1.4272 -1.7710 -0.5284
 6044SOL    HW229766   3.038   3.724   5.029 -1.7216 -0.3863  1.1993
 6045SOL     OW29767   2.537   2.303   3.135  0.5091  0.1419  0.2184
 6045SOL    HW129768   2.566   2.266   3.218  0.0095 -1.0772 -0.1542
 6045SOL    HW229769   2.457   2.253   3.122  0.6067 -0.3215  1.3887
 6046SOL     OW29770   1.741   0.775   8.185 -0.7811 -0.0919  0.0646
 6046SOL    HW129771   1.827   0.795   8.149 -1.2156 -0.5991 -1.2657
 6046SOL    HW229772   1.759   0.684   8.209  2.1707  1.0593  2.2522
 6047SOL     OW29773   4.213   1.221  12.308  0.3261  0.2327 -0.0561
 6047SOL    HW129774   4.300   1.258  12.289  0.8218 -2.1284 -2.3862
 6047SOL    HW229775   4.199   1.178  12.224  2.3103 -2.2003  0.8560
 6048SOL     OW29776   0.683   0.324   7.440 -0.5424  0.5004  0.1180
 6048SOL    HW129777   0.707   0.359   7.354  0.2501  0.9979  0.5375
 6048SOL    HW229778   0.588   0.336   7.445 -0.3999  0.9235  1.6210
 6049SOL     OW29779   2.111   3.810   8.396  0.1244 -0.0371  0.2136
 6049SOL    HW129780   2.180   3.871   8.423 -1.5768  2.2543 -0.6465
 6049SOL    HW229781   2.105   3.747   8.468  0.6453 -1.9768 -1.4176
 6050SOL     OW29782   2.462   4.690   6.250  0.4666  0.1774  0.5885
 6050SOL    HW129783   2.527   4.630   6.287  1.9106  1.4453  0.0861
 6050SOL    HW229784   2.520   0.017   6.203 -0.3430  2.1579  2.1067
 6051SOL     OW29785   1.726   3.311   2.798 -0.3112  0.0127 -0.0925
 6051SOL    HW129786   1.713   3.385   2.739  0.2813 -0.7154 -1.1390
 6051SOL    HW229787   1.733   3.358   2.881  1.7526  0.6589 -0.6291
 6052SOL     OW29788   1.128   3.232  15.708  0.2231 -0.2384  0.4167
 6052SOL    HW129789   1.198   3.262  15.650 -0.0380  2.6811  1.5952
 6052SOL    HW229790   1.074   3.196  15.638  0.1998  2.2763 -0.8601
 6053SOL     OW29791   1.790   3.344   7.386  0.4439 -0.1422  0.6340
 6053SOL    HW129792   1.874   3.385   7.369  0.9235 -2.4406 -2.4641
 6053SOL    HW229793   1.783   3.345   7.482  1.3834 -0.9868  0.7160
 6054SOL     OW29794   1.234   0.628   4.933  0.1178 -0.6545  0.3891
 6054SOL    HW129795   1.167   0.690   4.960 -0.8309 -0.3871 -2.6124
 6054SOL    HW229796   1.230   0.559   5.000  0.5367 -1.0797 -0.0267
 6055SOL     OW29797   2.211   1.852  12.053  0.4734 -0.0247  0.1836
 6055SOL    HW129798   2.185   1.887  11.967  0.0650 -0.8928 -0.0430
 6055SOL    HW229799   2.164   1.769  12.058 -0.3143  0.5341  1.8377
 6056SOL     OW29800   2.893   0.225  16.358 -0.3221  0.1150  0.5194
 6056SOL    HW129801   2.895   0.298  16.295 -1.3326 -0.9335 -0.7214
 6056SOL    HW229802   2.888   0.150  16.299  0.3336 -0.0920  0.7236
 6057SOL     OW29803   0.169   0.458   6.625  0.8837 -0.4473  0.1378
 6057SOL    HW129804   0.076   0.439   6.638  0.3168  1.8219 -0.6026
 6057SOL    HW229805   0.181   0.535   6.682 -0.5343  0.9050 -1.3908
 6058SOL     OW29806   2.246   0.829   6.068 -0.4406  0.2711 -0.2768
 6058SOL    HW129807   2.299   0.892   6.118 -0.3599 -0.4392  0.5374
 6058SOL    HW229808   2.158   0.845   6.102 -0.9619  0.4953 -1.7763
 6059SOL     OW29809   1.547   2.805   0.179  0.4041 -0.1234 -0.2381
 6059SOL    HW129810   1.641   2.807   0.159 -0.1816  1.4992 -2.8671
 6059SOL    HW229811   1.544   2.895   0.213 -0.7688  0.1459 -1.0535
 6060SOL     OW29812   0.448   2.362   7.088  0.1879 -0.1906 -0.2125
 6060SOL    HW129813   0.514   2.429   7.108 -0.5751  0.9421 -1.5105
 6060SOL    HW229814   0.473   2.286   7.141 -0.7014  0.3857  1.0375
 6061SOL     OW29815   3.104   4.373   4.626 -0.1956 -0.5308 -0.9570
 6061SOL    HW129816   3.091   4.468   4.628  0.5944 -0.3767 -2.6870
 6061SOL    HW229817   3.195   4.368   4.656 -0.6866  0.8964  0.7128
 6062SOL     OW29818   2.661   2.559   9.869 -0.4177 -0.4825  0.3466
 6062SOL    HW129819   2.656   2.635   9.926  1.2832  0.7154 -1.0592
 6062SOL    HW229820   2.624   2.486   9.918  0.0758 -1.9568 -1.4345
 6063SOL     OW29821   1.655   0.032  11.095 -0.0824 -0.3429 -0.1878
 6063SOL    HW129822   1.652   4.671  11.114  2.3270 -0.1846  0.9990
 6063SOL    HW229823   1.602   0.036  11.015  0.0089  1.5612 -0.1587
 6064SOL     OW29824   3.978   4.018   7.536 -0.0119 -0.0654  0.1996
 6064SOL    HW129825   4.070   3.992   7.546 -0.0073 -0.6691 -1.3100
 6064SOL    HW229826   3.934   3.939   7.503 -1.8358  0.7321  0.7455
 6065SOL     OW29827   2.617   1.913   8.541  0.7798  0.1094 -0.3083
 6065SOL    HW129828   2.598   1.954   8.625  0.7953 -0.5350  0.0065
 6065SOL    HW229829   2.697   1.866   8.563  0.1052  0.2426  2.4173
 6066SOL     OW29830   1.641   1.509   5.037 -0.3981 -0.1040  0.4819
 6066SOL    HW129831   1.671   1.474   4.954 -1.4824 -1.4992  0.6922
 6066SOL    HW229832   1.727   1.511   5.080 -0.3341 -0.9664  0.3778
 6067SOL     OW29833   3.953   1.763   9.859  0.6004 -0.2785 -0.2795
 6067SOL    HW129834   3.906   1.681   9.844  0.5363 -0.2673 -0.1371
 6067SOL    HW229835   3.886   1.809   9.909  0.6196 -2.1380  1.4175
 6068SOL     OW29836   3.735   3.908   0.850 -0.1482  0.2666  0.9653
 6068SOL    HW129837   3.795   3.922   0.777  0.4292 -1.8601  1.0154
 6068SOL    HW229838   3.668   3.976   0.845  0.0259  0.4057  0.4853
 6069SOL     OW29839   1.271   2.695   7.330  0.3684  0.0939  0.0551
 6069SOL    HW129840   1.343   2.758   7.339  2.6013 -2.2355 -1.4984
 6069SOL    HW229841   1.303   2.624   7.386  5.1116  1.4919 -0.9012
 6070SOL     OW29842   3.996   2.922   6.305  0.0936 -0.0965  0.0462
 6070SOL    HW129843   4.075   2.976   6.299  1.3912 -1.8359  1.1976
 6070SOL    HW229844   3.990   2.870   6.224 -0.2701 -0.5861  0.3878
 6071SOL     OW29845   1.065   3.476  12.776 -0.6197  0.1401 -0.3273
 6071SOL    HW129846   1.064   3.475  12.681  1.6088 -1.1914 -0.3265
 6071SOL    HW229847   1.014   3.397  12.796  1.7654 -0.4582  3.5070
 6072SOL     OW29848   3.540   4.060  16.110 -0.1258  0.2674 -0.3835
 6072SOL    HW129849   3.599   4.093  16.041  1.6120  0.2501  1.0891
 6072SOL    HW229850   3.529   4.139  16.162  3.2463 -0.1219  0.9510
 6073SOL     OW29851   4.600   2.826  15.111  0.3704 -0.1456  0.2130
 6073SOL    HW129852   4.589   2.914  15.075  0.4476  0.0994  0.7911
 6073SOL    HW229853   4.590   2.776  15.030 -1.5089  0.2567  0.1918
 6074SOL     OW29854   2.918   1.418  14.499 -0.7949 -0.7148 -0.0643
 6074SOL    HW129855   2.961   1.391  14.580 -3.1699 -1.6728  0.8662
 6074SOL    HW229856   2.857   1.347  14.477 -1.2494 -0.3728  0.0921
 6075SOL     OW29857   1.095   1.391   4.421  0.2436 -0.1306 -0.0155
 6075SOL    HW129858   1.147   1.329   4.471 -0.2708  0.4684  1.2666
 6075SOL    HW229859   1.012   1.343   4.418  0.4503 -0.5332  1.0537
 6076SOL     OW29860   1.359   3.918  16.910 -0.5466 -0.0173 -0.0204
 6076SOL    HW129861   1.453   3.899  16.910 -0.5430  0.0259  0.8324
 6076SOL    HW229862   1.328   3.887  16.995 -1.3493 -0.5257 -0.4986
 6077SOL     OW29863   2.604   4.403  11.816 -0.1566  0.2366  0.1836
 6077SOL    HW129864   2.513   4.390  11.787 -0.7296 -0.3960  2.2658
 6077SOL    HW229865   2.617   4.497  11.801  1.0994  0.2124  1.1830
 6078SOL     OW29866   4.101   1.777  17.187  0.0264 -1.5433  0.0056
 6078SOL    HW129867   4.006   1.772  17.182 -0.0155  1.3762 -1.9980
 6078SOL    HW229868   4.104   1.839  17.260  1.0377 -0.2643 -1.1406
 6079SOL     OW29869   1.063   1.392   5.809 -0.6010  0.0716 -0.0923
 6079SOL    HW129870   1.082   1.430   5.895  0.4366 -2.7856  0.9253
 6079SOL    HW229871   0.980   1.437   5.793 -0.4026  0.4519 -0.0611
 6080SOL     OW29872   1.420   0.729   2.374  0.7995 -0.6522  0.4318
 6080SOL    HW129873   1.356   0.752   2.441  1.0243 -1.7906  1.0180
 6080SOL    HW229874   1.435   0.637   2.392  1.4679 -0.0367  3.0159
 6081SOL     OW29875   3.860   0.738  16.326  0.5382  0.0404 -0.1522
 6081SOL    HW129876   3.827   0.689  16.251  1.1024 -1.9521  0.8805
 6081SOL    HW229877   3.954   0.721  16.320  0.6286  0.1812  0.8858
 6082SOL     OW29878   4.690   4.492  12.152  0.0401  0.8196 -0.1780
 6082SOL    HW129879   4.640   4.421  12.113  2.5906 -0.6105 -0.8292
 6082SOL    HW229880   0.007   4.439  12.215 -0.8622 -2.1415 -1.9456
 6083SOL     OW29881   1.334   2.721  17.486  0.0253  0.5448 -0.1718
 6083SOL    HW129882   1.242   2.716  17.459  0.5605  0.3015 -1.9692
 6083SOL    HW229883   1.325   2.779  17.562 -1.5356 -0.0164  0.0828
 6084SOL     OW29884   2.606   3.343   3.475  0.5934 -0.4079  0.3893
 6084SOL    HW129885   2.558   3.346   3.392  0.9389 -0.0948  0.1977
 6084SOL    HW229886   2.532   3.318   3.530 -0.8105 -0.2256 -1.4209
 6085SOL     OW29887   0.734   1.494   8.046  0.3159  0.5106  0.0645
 6085SOL    HW129888   0.690   1.551   8.109 -1.1224 -1.3017  0.6952
 6085SOL    HW229889   0.748   1.415   8.097  2.0557  0.2471 -0.8104
 6086SOL     OW29890   3.960   4.292   4.978 -0.4289  0.0757  0.0006
 6086SOL    HW129891   3.946   4.233   5.052 -1.3038  0.2714 -0.0036
 6086SOL    HW229892   3.955   4.232   4.904 -1.2552 -0.6566  0.6541
 6087SOL     OW29893   1.702   3.707   1.618 -0.4682  0.6821 -0.0541
 6087SOL    HW129894   1.638   3.706   1.690 -0.6461 -1.8667 -0.2624
 6087SOL    HW229895   1.669   3.648   1.551 -0.4932  1.2433 -0.5301
 6088SOL     OW29896   2.898   0.152   4.256  0.0145 -0.0778 -0.1414
 6088SOL    HW129897   2.911   0.198   4.173  3.0677  0.7985  0.8314
 6088SOL    HW229898   2.822   0.199   4.292  1.4913 -0.0017  2.8623
 6089SOL     OW29899   4.325   0.956   2.509 -0.6283 -0.7267  0.0989
 6089SOL    HW129900   4.283   0.870   2.507 -0.5228 -0.8045  1.2964
 6089SOL    HW229901   4.416   0.937   2.484 -0.0220  0.0830  1.6636
 6090SOL     OW29902   4.215   2.482   6.966 -0.0655 -0.1769  0.5004
 6090SOL    HW129903   4.194   2.472   6.873  0.3850 -0.1846  0.4007
 6090SOL    HW229904   4.293   2.426   6.967  1.9139  2.6265  2.3668
 6091SOL     OW29905   2.859   0.893   6.150 -0.0840  0.0742  0.0091
 6091SOL    HW129906   2.914   0.844   6.211 -1.5213 -2.2591 -0.5699
 6091SOL    HW229907   2.897   0.980   6.157  2.2940 -0.8620 -1.0459
 6092SOL     OW29908   2.363   0.774   0.655 -0.5548  0.2005  0.4492
 6092SOL    HW129909   2.428   0.715   0.694 -0.4561  0.8816  1.3096
 6092SOL    HW229910   2.308   0.703   0.621  1.6759 -0.8117 -1.0967
 6093SOL     OW29911   1.268   4.698   5.087  0.1863 -0.3231 -0.0912
 6093SOL    HW129912   1.277   4.654   5.003  0.9691  0.0470 -0.2045
 6093SOL    HW229913   1.351   4.697   5.134 -0.9949  0.2086  2.0078
 6094SOL     OW29914   2.029   2.351   5.029 -0.0955  0.2969 -0.4339
 6094SOL    HW129915   2.088   2.423   5.048  1.6779 -1.2881  0.0582
 6094SOL    HW229916   2.060   2.328   4.942 -0.6526  1.1667 -0.8534
 6095SOL     OW29917   0.396   0.845  13.878  0.2727  0.2539  0.0889
 6095SOL    HW129918   0.447   0.898  13.817  0.4739 -2.0584 -1.7681
 6095SOL    HW229919   0.306   0.876  13.868  0.1736  0.3938  1.4462
 6096SOL     OW29920   2.698   4.253   2.314  0.8086  0.0331 -0.2822
 6096SOL    HW129921   2.741   4.176   2.278  0.3405 -0.6621  0.6415
 6096SOL    HW229922   2.605   4.239   2.295  0.0025  1.9720  2.1853
 6097SOL     OW29923   0.104   3.713   2.527  0.1973  0.4732  0.0890
 6097SOL    HW129924   0.118   3.657   2.450 -2.4940  0.6883 -0.5434
 6097SOL    HW229925   0.010   3.731   2.527  0.1461  0.2011 -0.7513
 6098SOL     OW29926   1.772   4.016   5.586  0.1913 -0.1095  1.0525
 6098SOL    HW129927   1.807   3.970   5.663  0.3814  0.3265  1.2234
 6098SOL    HW229928   1.823   3.960   5.527  0.0971 -0.8183  1.6351
 6099SOL     OW29929   4.079   4.062   5.862 -0.2521 -0.2983 -0.2647
 6099SOL    HW129930   4.121   4.012   5.792  1.7924 -0.4992  1.0981
 6099SOL    HW229931   4.140   4.057   5.936 -0.5047  0.0107 -0.0323
 6100SOL     OW29932   0.823   0.387  12.987  0.0820  0.4581  0.0044
 6100SOL    HW129933   0.774   0.460  12.949  1.1417  0.6002 -1.0735
 6100SOL    HW229934   0.910   0.420  12.965  0.7619 -1.2017  0.2337
 6101SOL     OW29935   0.271   4.517   2.124  0.8827  0.1837 -0.6982
 6101SOL    HW129936   0.322   4.437   2.132 -2.4950 -2.0671 -1.4705
 6101SOL    HW229937   0.209   4.525   2.197  0.5354  0.0899 -0.9810
 6102SOL     OW29938   3.798   3.402   7.707  0.2878 -0.6004  0.4114
 6102SOL    HW129939   3.751   3.423   7.627  0.9083  1.2811  0.5449
 6102SOL    HW229940   3.745   3.459   7.763 -0.1904  1.3208 -1.9907
 6103SOL     OW29941   3.959   1.524   2.498  0.1201 -0.1194  0.0167
 6103SOL    HW129942   3.958   1.429   2.489 -1.1182  0.0596 -1.6117
 6103SOL    HW229943   3.921   1.531   2.585 -1.5796  0.6910 -0.7919
 6104SOL     OW29944   0.555   0.657  17.539  0.1559 -0.8828  1.0063
 6104SOL    HW129945   0.611   0.714  17.590  0.2776  1.1958 -1.4383
 6104SOL    HW229946   0.604   0.575  17.543  0.2104 -0.8652  0.7254
 6105SOL     OW29947   1.931   2.295  14.673 -0.0455 -0.0080 -0.3749
 6105SOL    HW129948   2.022   2.317  14.696  0.0096  0.8849 -1.4508
 6105SOL    HW229949   1.937   2.228  14.605 -1.4109  0.0397 -0.5385
 6106SOL     OW29950   3.654   0.402   4.427 -0.2337 -0.4725 -0.2108
 6106SOL    HW129951   3.589   0.434   4.364 -0.2392  0.5241  0.3035
 6106SOL    HW229952   3.636   0.463   4.499  2.9142  0.7957 -0.5204
 6107SOL     OW29953   4.104   4.286   6.170 -0.2431  0.2347  0.0503
 6107SOL    HW129954   4.142   4.305   6.085  0.5234  0.5418  0.4642
 6107SOL    HW229955   4.062   4.371   6.180  0.4029  0.3703  1.5781
 6108SOL     OW29956   2.435   4.349  13.754  0.8793  0.5634 -0.3279
 6108SOL    HW129957   2.357   4.386  13.796 -0.5948 -1.2495 -1.4574
 6108SOL    HW229958   2.477   4.430  13.725  1.3787 -0.0101 -1.2031
 6109SOL     OW29959   0.319   3.128   0.951 -0.1691 -0.0366 -0.4097
 6109SOL    HW129960   0.240   3.112   1.002 -1.0363  0.2738 -1.6624
 6109SOL    HW229961   0.364   3.194   1.005 -1.4681  0.5106 -0.0064
 6110SOL     OW29962   0.897   0.212   4.577  0.2785 -0.2365  0.1961
 6110SOL    HW129963   0.870   0.120   4.581 -0.3968 -0.0426  0.1300
 6110SOL    HW229964   0.844   0.260   4.640 -0.2625  1.5781 -1.6277
 6111SOL     OW29965   1.174   0.856   6.450 -0.3360 -0.1712  0.3404
 6111SOL    HW129966   1.250   0.901   6.487 -0.0029 -1.2434  0.9555
 6111SOL    HW229967   1.117   0.933   6.450  0.5060  0.4591  1.7898
 6112SOL     OW29968   1.967   4.534   7.699  0.5771 -0.9262 -0.5465
 6112SOL    HW129969   1.947   4.608   7.643  0.9966 -2.2671 -2.4551
 6112SOL    HW229970   1.876   4.504   7.696 -0.0446  1.1221 -2.0242
 6113SOL     OW29971   3.179   4.691   8.286  0.0315 -0.0137  0.0702
 6113SOL    HW129972   3.229   0.016   8.227 -0.7973 -1.0207 -1.6207
 6113SOL    HW229973   3.242   4.658   8.350 -2.6538 -1.9789  1.6668
 6114SOL     OW29974   3.865   0.713   6.810  0.5295 -0.1006  0.3346
 6114SOL    HW129975   3.791   0.669   6.767 -0.7719  1.0052  1.4816
 6114SOL    HW229976   3.855   0.795   6.761 -1.7318  0.3575  1.5818
 6115SOL     OW29977   3.086   1.126  17.333  0.8995  0.1285  0.1587
 6115SOL    HW129978   3.021   1.144  17.401  0.0096  2.4872 -1.3409
 6115SOL    HW229979   3.169   1.119  17.379 -0.9135  0.2618  3.4754
 6116SOL     OW29980   1.046   1.548   9.378  0.6777 -0.3121 -0.7658
 6116SOL    HW129981   1.050   1.457   9.405 -0.9808  0.0324  0.6632
 6116SOL    HW229982   0.965   1.550   9.327  0.3418 -2.6121 -0.2863
 6117SOL     OW29983   1.975   2.512   6.632  0.8976  0.0440  0.5627
 6117SOL    HW129984   1.974   2.418   6.649 -2.5626 -0.5800 -3.1392
 6117SOL    HW229985   2.069   2.533   6.635  0.6966  1.4757 -2.3585
 6118SOL     OW29986   0.288   2.841   4.498 -0.4203  0.0463 -0.6214
 6118SOL    HW129987   0.357   2.906   4.512 -0.8893  0.4130 -0.0202
 6118SOL    HW229988   0.296   2.800   4.585 -0.7150 -0.8985 -1.0402
 6119SOL     OW29989   1.683   1.045   5.960  0.1444  0.2585  0.3053
 6119SOL    HW129990   1.614   1.066   6.023  0.7618 -1.0345  1.4195
 6119SOL    HW229991   1.631   1.018   5.885  1.3208  0.6976 -0.6623
 6120SOL     OW29992   4.007   3.921   7.225  0.1916 -0.1625  0.6962
 6120SOL    HW129993   4.036   3.833   7.204 -1.3985 -0.2824 -0.9236
 6120SOL    HW229994   3.941   3.907   7.293  0.7923  0.8624  1.5011
 6121SOL     OW29995   1.561   1.368   9.819  0.4289  0.5333 -0.3926
 6121SOL    HW129996   1.626   1.427   9.858 -0.5361  0.6518  1.0688
 6121SOL    HW229997   1.501   1.436   9.790 -1.3221  0.0912  2.1177
 6122SOL     OW29998   4.417   2.442  15.572  0.1830  0.1446  0.3527
 6122SOL    HW129999   4.361   2.509  15.611  0.9657  0.1268  1.5131
 6122SOL    HW230000   4.495   2.498  15.562  0.4483 -0.0579  1.3690
 6123SOL     OW30001   1.771   2.073  13.302 -0.7977 -0.4886 -0.2981
 6123SOL    HW130002   1.770   2.166  13.281 -0.1508 -0.2185  0.9068
 6123SOL    HW230003   1.680   2.042  13.292 -1.4491  2.1170 -2.4128
 6124SOL     OW30004   0.719   2.116  16.672  0.2583  0.1040 -0.3846
 6124SOL    HW130005   0.659   2.186  16.646  0.5523  1.0698  1.5597
 6124SOL    HW230006   0.706   2.102  16.765 -1.0021  0.9236 -0.4265
 6125SOL     OW30007   0.669   0.887   3.779  0.4390 -0.9463 -0.8730
 6125SOL    HW130008   0.683   0.811   3.835  1.4888 -0.0332  0.1091
 6125SOL    HW230009   0.588   0.865   3.733  0.1465  1.3318 -1.4377
 6126SOL     OW30010   3.339   3.283  12.236 -0.1659  0.0161 -0.2158
 6126SOL    HW130011   3.294   3.310  12.155  0.2407  1.7873  0.1577
 6126SOL    HW230012   3.371   3.196  12.214  0.8189  0.5085 -0.7237
 6127SOL     OW30013   4.339   0.516   0.158 -0.1740 -0.4860  0.2114
 6127SOL    HW130014   4.387   0.433   0.164 -2.3337 -1.7517  0.0619
 6127SOL    HW230015   4.250   0.486   0.177  0.2374 -1.2092  1.0145
 6128SOL     OW30016   3.126   1.391   3.972 -0.1624 -0.3810 -0.3892
 6128SOL    HW130017   3.033   1.383   3.996  0.3432 -1.5561  1.1881
 6128SOL    HW230018   3.135   1.421   3.881  1.7624  0.1023 -0.0354
 6129SOL     OW30019   2.534   0.125   3.326 -0.1622  0.0690  0.8499
 6129SOL    HW130020   2.624   0.141   3.353 -0.3537 -1.0594  2.1535
 6129SOL    HW230021   2.553   0.114   3.232 -2.7616  0.9853  0.2125
 6130SOL     OW30022   2.789   2.969   0.664  0.1571  0.3515 -0.6264
 6130SOL    HW130023   2.824   2.882   0.681 -2.6535 -0.7828 -0.6249
 6130SOL    HW230024   2.744   2.981   0.748 -0.0731 -1.8456 -0.4313
 6131SOL     OW30025   3.979   0.325   7.583  0.0551 -0.0524  0.3352
 6131SOL    HW130026   4.051   0.263   7.571 -0.1877 -0.3729  0.5361
 6131SOL    HW230027   4.016   0.374   7.657  2.0257  0.3754 -0.9155
 6132SOL     OW30028   4.518   3.632  14.334 -0.2926 -0.0487  0.1316
 6132SOL    HW130029   4.564   3.650  14.251 -2.6719 -1.7441 -1.5461
 6132SOL    HW230030   4.425   3.625  14.314 -0.6917  0.8239  1.6656
 6133SOL     OW30031   1.767   3.387   8.581 -0.1438 -0.2405 -0.9307
 6133SOL    HW130032   1.778   3.292   8.594 -0.9634 -0.0667  1.0991
 6133SOL    HW230033   1.729   3.388   8.494  1.3361  0.2070 -1.5705
 6134SOL     OW30034   1.395   3.741   5.068  0.1702 -0.0936  0.0488
 6134SOL    HW130035   1.328   3.735   5.000  0.5250 -0.6504 -0.2505
 6134SOL    HW230036   1.394   3.833   5.096 -3.6310  0.3696 -1.7111
 6135SOL     OW30037   3.277   3.122   0.877  0.1536  0.3488 -0.1528
 6135SOL    HW130038   3.208   3.143   0.941  0.6204  0.8500  0.1908
 6135SOL    HW230039   3.351   3.147   0.933 -0.2831  0.3033  0.4553
 6136SOL     OW30040   3.066   1.116  13.005  0.1789  0.2656 -0.5296
 6136SOL    HW130041   2.972   1.099  13.008  0.3627 -0.7146 -0.2323
 6136SOL    HW230042   3.057   1.211  13.012 -0.5973  0.1822 -0.3911
 6137SOL     OW30043   2.313   4.373   4.975 -0.4055 -0.2514 -0.4166
 6137SOL    HW130044   2.305   4.304   5.041 -1.1744  1.0473  0.8607
 6137SOL    HW230045   2.221   4.399   4.966 -0.4214 -0.9179 -2.0678
 6138SOL     OW30046   3.882   0.531   1.715  0.2733  0.5006  0.5143
 6138SOL    HW130047   3.852   0.568   1.632  0.3243 -0.0820  0.2343
 6138SOL    HW230048   3.827   0.576   1.779  1.3220  0.2022  1.6288
 6139SOL     OW30049   1.516   3.955   8.354  0.0138 -0.5092  0.2794
 6139SOL    HW130050   1.496   3.994   8.440  0.8272  0.8552 -0.1381
 6139SOL    HW230051   1.547   4.034   8.310 -2.5879 -1.4593 -3.1851
 6140SOL     OW30052   4.121   2.554   0.991  0.1123 -0.5921  0.0145
 6140SOL    HW130053   4.194   2.578   0.934  1.1364  1.5462  2.2566
 6140SOL    HW230054   4.168   2.501   1.055  1.0438 -1.2276 -1.2085
 6141SOL     OW30055   0.014   0.659  15.725  0.2156 -0.1619 -0.6094
 6141SOL    HW130056   0.013   0.744  15.682 -0.9272 -0.0325 -0.3317
 6141SOL    HW230057   4.717   0.605  15.652  2.2591 -0.2787 -1.3451
 6142SOL     OW30058   3.225   3.627   8.340  0.1112  0.7127  0.1452
 6142SOL    HW130059   3.209   3.553   8.399 -1.2238  1.3087  0.5300
 6142SOL    HW230060   3.317   3.617   8.316 -0.3072  0.6717 -1.4517
 6143SOL     OW30061   1.099   3.441  12.500 -0.0165  0.5272 -0.1904
 6143SOL    HW130062   1.147   3.523  12.492 -0.4782  0.7685 -0.4418
 6143SOL    HW230063   1.082   3.413  12.410  1.3895  1.8796 -0.8663
 6144SOL     OW30064   0.132   4.402   8.524 -0.2525  0.2848  0.2215
 6144SOL    HW130065   0.060   4.390   8.463  0.2719 -0.7389 -0.1910
 6144SOL    HW230066   0.110   4.323   8.573 -1.4443 -1.1495 -2.7008
 6145SOL     OW30067   2.201   0.797   9.346  0.1454 -0.5086  0.3535
 6145SOL    HW130068   2.152   0.728   9.301  1.0523 -0.5298 -0.5951
 6145SOL    HW230069   2.233   0.746   9.421  0.7789 -0.0626  0.3886
 6146SOL     OW30070   0.342   0.181   3.115  0.1318  0.3051 -0.9436
 6146SOL    HW130071   0.369   0.218   3.198 -2.7089  1.8635 -0.7241
 6146SOL    HW230072   0.247   0.185   3.128 -0.0750 -1.6252 -1.7110
 6147SOL     OW30073   3.121   3.064   5.127 -0.3966 -0.1252 -1.3543
 6147SOL    HW130074   3.028   3.049   5.108 -0.5312  0.5602 -1.2466
 6147SOL    HW230075   3.141   3.007   5.201 -0.3702  3.2075  1.2343
 6148SOL     OW30076   3.857   3.459   8.361 -0.5868 -0.8427 -1.1835
 6148SOL    HW130077   3.935   3.407   8.382 -1.9709 -1.9831  1.1987
 6148SOL    HW230078   3.795   3.396   8.324 -0.8575 -0.9442 -0.5671
 6149SOL     OW30079   0.926   3.500   5.511  0.1681  0.3078  0.2585
 6149SOL    HW130080   0.979   3.492   5.431  3.1888  0.3833  2.2727
 6149SOL    HW230081   0.835   3.495   5.481 -0.0558 -0.4030  1.0601
 6150SOL     OW30082   0.829   1.832   7.907 -0.0306  0.1033  0.2546
 6150SOL    HW130083   0.845   1.855   7.998 -0.4480 -0.3165  0.4342
 6150SOL    HW230084   0.872   1.748   7.889  1.9616  1.0949  0.3125
 6151SOL     OW30085   4.407   0.630   8.737  0.4452 -0.4665 -0.5238
 6151SOL    HW130086   4.403   0.681   8.818  2.4723 -0.7228 -0.2575
 6151SOL    HW230087   4.320   0.646   8.702  0.3715  0.7693  0.2570
 6152SOL     OW30088   1.723   2.436   4.770 -0.2843  0.2349 -0.0049
 6152SOL    HW130089   1.811   2.462   4.745 -0.8665  0.9374 -1.2791
 6152SOL    HW230090   1.677   2.512   4.806  2.4229  2.2498 -0.8499
 6153SOL     OW30091   1.583   4.207   7.986  0.0379  0.1414  0.5996
 6153SOL    HW130092   1.547   4.147   7.920 -2.9540  3.0444 -0.4511
 6153SOL    HW230093   1.664   4.237   7.945  0.3794 -0.4920  0.8079
 6154SOL     OW30094   3.841   2.000   0.632  0.1779  0.3788  0.9956
 6154SOL    HW130095   3.788   2.027   0.707 -1.1811  1.3016 -0.2859
 6154SOL    HW230096   3.929   2.007   0.668  0.9656  0.9014 -1.0426
 6155SOL     OW30097   3.079   4.500   5.234  0.4802 -0.4152 -0.1816
 6155SOL    HW130098   3.106   4.409   5.244  0.0025 -0.5783 -0.3859
 6155SOL    HW230099   3.157   4.536   5.192  1.4931 -0.2800  1.8194
 6156SOL     OW30100   3.801   1.027   8.780  0.6293 -0.4303  0.1233
 6156SOL    HW130101   3.714   0.987   8.784  0.2135 -0.0419 -4.6225
 6156SOL    HW230102   3.828   1.014   8.689  1.8002  2.0671  0.1158
 6157SOL     OW30103   3.539   0.294   6.665 -1.1506 -0.1437 -0.3641
 6157SOL    HW130104   3.521   0.294   6.759  1.2509  1.6035  0.0944
 6157SOL    HW230105   3.571   0.204   6.662  2.5078  1.1776 -0.5701
 6158SOL     OW30106   2.312   0.910   1.352 -0.2488  0.6026  0.1115
 6158SOL    HW130107   2.325   0.986   1.408 -1.4880  1.2144 -0.4044
 6158SOL    HW230108   2.283   0.843   1.413  0.3564  0.7422  0.5457
 6159SOL     OW30109   0.913   3.578  10.958  0.1809 -0.9214  0.0646
 6159SOL    HW130110   0.823   3.556  10.981 -0.2581 -1.0668 -1.7908
 6159SOL    HW230111   0.910   3.671  10.936 -1.4671 -0.2053  3.4085
 6160SOL     OW30112   1.025   3.300  13.109  0.2904 -0.0914  0.1520
 6160SOL    HW130113   1.065   3.385  13.122 -2.8749  1.6415 -1.4329
 6160SOL    HW230114   1.102   3.247  13.130 -1.4550 -2.3452  0.9107
 6161SOL     OW30115   3.150   2.583   1.974  0.3011  0.3155  0.0711
 6161SOL    HW130116   3.085   2.653   1.973 -0.8482 -0.7249  1.4549
 6161SOL    HW230117   3.112   2.513   2.027  0.6697  1.7583  2.2147
 6162SOL     OW30118   0.881   1.018   8.520  0.0355  0.2204  0.0806
 6162SOL    HW130119   0.953   1.051   8.575  2.0680 -2.6209 -0.8623
 6162SOL    HW230120   0.927   0.985   8.443 -0.8772  2.0361 -1.2209
 6163SOL     OW30121   0.033   1.788   2.975 -0.0888 -0.0250 -0.5109
 6163SOL    HW130122   0.009   1.701   2.943 -0.2232 -0.1906  0.0497
 6163SOL    HW230123   0.074   1.758   3.055  0.5887  0.5798 -0.6267
 6164SOL     OW30124   1.617   3.293   5.189 -0.3880 -0.3300 -0.0803
 6164SOL    HW130125   1.594   3.380   5.157  1.2090 -0.4655 -1.6014
 6164SOL    HW230126   1.550   3.235   5.151  0.3797 -2.3501  1.6391
 6165SOL     OW30127   4.286   0.024   9.012  0.6144  0.4633 -0.1989
 6165SOL    HW130128   4.293   0.079   8.934  1.8377  1.9220  0.9294
 6165SOL    HW230129   4.308   0.092   9.076 -3.0387  0.9897  0.5009
 6166SOL     OW30130   0.830   1.282   4.425 -0.1457 -0.2632 -0.3139
 6166SOL    HW130131   0.814   1.191   4.451 -0.9623 -0.3379 -1.0737
 6166SOL    HW230132   0.740   1.314   4.433 -0.5404 -1.6994  1.0798
 6167SOL     OW30133   0.189   2.511   4.564 -0.3012 -0.2014  0.2014
 6167SOL    HW130134   0.099   2.481   4.571 -0.3306 -0.2442 -0.3389
 6167SOL    HW230135   0.204   2.541   4.654 -0.3027  2.0924 -0.5496
 6168SOL     OW30136   3.350   1.264   5.273 -0.2823  0.3302  0.2752
 6168SOL    HW130137   3.359   1.311   5.191  1.2213 -0.9974 -0.3113
 6168SOL    HW230138   3.438   1.269   5.309 -0.0899 -1.3567  0.0414
 6169SOL     OW30139   1.045   3.488   0.683 -0.1545  0.0556 -0.0489
 6169SOL    HW130140   0.985   3.433   0.632  1.4944 -2.7576  1.0808
 6169SOL    HW230141   1.036   3.571   0.635 -0.0428  0.2904  0.3414
 6170SOL     OW30142   1.032   4.278   7.137 -0.7186 -0.5941  0.0188
 6170SOL    HW130143   1.015   4.313   7.049  1.2637  1.1920  0.3608
 6170SOL    HW230144   1.068   4.355   7.181 -1.4875 -0.8581  1.0952
 6171SOL     OW30145   1.203   3.997  13.207  0.0076  0.2294  0.0099
 6171SOL    HW130146   1.155   4.057  13.149 -3.2646  0.7901  3.3172
 6171SOL    HW230147   1.295   4.008  13.184  0.4038 -1.7629  0.6906
 6172SOL     OW30148   3.998   4.255   3.967  0.2645  0.7939 -0.6060
 6172SOL    HW130149   4.038   4.194   3.905  0.7465  0.0148  0.4793
 6172SOL    HW230150   3.972   4.199   4.040 -0.6926  1.4134 -0.4708
 6173SOL     OW30151   1.033   3.285  12.297  0.2424  0.4706 -0.2576
 6173SOL    HW130152   0.961   3.318  12.243  2.3292  0.0739 -3.2489
 6173SOL    HW230153   0.986   3.219  12.349 -0.5093  0.0272 -1.4961
 6174SOL     OW30154   3.340   0.164   5.261  0.0915  0.1188 -0.0887
 6174SOL    HW130155   3.314   0.128   5.345  0.0346 -2.0530 -1.0297
 6174SOL    HW230156   3.267   0.147   5.201  1.0275 -0.9244 -0.9464
 6175SOL     OW30157   1.124   2.317   1.435 -0.1872 -0.4833 -0.5524
 6175SOL    HW130158   1.150   2.275   1.516  3.0240 -1.1346 -1.9349
 6175SOL    HW230159   1.034   2.347   1.451  0.2274  0.6820 -0.4067
 6176SOL     OW30160   0.951   3.777   5.518 -0.0979  0.1757  0.2440
 6176SOL    HW130161   0.866   3.811   5.546  0.4752  0.6126  1.4814
 6176SOL    HW230162   0.933   3.683   5.520  0.6058  0.0089 -1.0075
 6177SOL     OW30163   2.130   0.446   5.471 -0.0417  0.8217  0.0761
 6177SOL    HW130164   2.219   0.432   5.437 -0.8999  0.2144 -1.9326
 6177SOL    HW230165   2.075   0.393   5.412  1.2569  0.0679 -0.4652
 6178SOL     OW30166   4.407   3.982  17.414  0.5506 -0.0834 -0.0194
 6178SOL    HW130167   4.366   4.066  17.431  0.1997 -0.2457 -0.0598
 6178SOL    HW230168   4.452   3.991  17.330 -1.5968  1.1881 -1.0309
 6179SOL     OW30169   2.173   2.068  14.015  0.3604 -0.1480  0.3314
 6179SOL    HW130170   2.259   2.036  13.989  0.6834 -0.3829  1.6863
 6179SOL    HW230171   2.175   2.151  13.967 -3.3513  0.5021  1.2731
 6180SOL     OW30172   3.740   1.538   3.476 -0.2899 -0.5308 -0.1412
 6180SOL    HW130173   3.774   1.578   3.555 -1.0194  0.6284 -0.4192
 6180SOL    HW230174   3.737   1.445   3.500 -0.9033 -0.4252  0.1804
 6181SOL     OW30175   2.770   2.716   8.946  0.1059 -0.2955  0.4853
 6181SOL    HW130176   2.795   2.696   9.036 -1.7939 -1.1238  0.8489
 6181SOL    HW230177   2.689   2.664   8.944  0.3323 -0.6171 -0.0986
 6182SOL     OW30178   0.749   1.458   2.305  0.2809 -0.0400  0.7104
 6182SOL    HW130179   0.711   1.496   2.227  1.9785 -0.6420 -0.4143
 6182SOL    HW230180   0.714   1.509   2.379  0.7005  0.5158  0.5284
 6183SOL     OW30181   0.614   2.648  17.414  0.1907 -0.4185 -0.6653
 6183SOL    HW130182   0.705   2.635  17.387  0.4506  1.0057 -0.4654
 6183SOL    HW230183   0.634   2.687  17.499  0.4525 -3.1400  0.5129
 6184SOL     OW30184   2.816   1.173   5.916 -0.2096 -0.0877  0.5581
 6184SOL    HW130185   2.732   1.210   5.943  0.3286  1.4192  0.1565
 6184SOL    HW230186   2.792   1.080   5.914 -0.4072 -0.0396  0.6386
 6185SOL     OW30187   0.991   1.555   0.746  0.3292 -0.0720  0.5510
 6185SOL    HW130188   0.999   1.460   0.740 -0.8225 -0.3830  4.0208
 6185SOL    HW230189   1.009   1.579   0.655 -0.7430 -0.7468  0.1595
 6186SOL     OW30190   1.722   3.022   6.687  1.0190 -0.6659 -0.0485
 6186SOL    HW130191   1.733   3.114   6.663 -0.9242 -0.6313 -0.8573
 6186SOL    HW230192   1.811   2.992   6.672  0.5252 -2.8588  1.3578
 6187SOL     OW30193   0.982   4.431   2.174 -0.0708 -0.0788 -0.0202
 6187SOL    HW130194   0.907   4.413   2.117  2.7132 -0.0369 -3.7052
 6187SOL    HW230195   1.041   4.472   2.110  0.4955 -1.6327 -0.4715
 6188SOL     OW30196   0.772   1.705  15.965 -0.9211  0.5609  0.2636
 6188SOL    HW130197   0.834   1.760  15.916 -0.6997 -1.4534 -1.7264
 6188SOL    HW230198   0.833   1.661  16.024 -2.3217 -3.7099 -1.4870
 6189SOL     OW30199   2.789   4.442   9.193  0.2225  0.1238  0.1578
 6189SOL    HW130200   2.801   4.366   9.136  0.1330 -0.1292  0.4724
 6189SOL    HW230201   2.696   4.432   9.215  0.2258  0.9960  0.5517
 6190SOL     OW30202   0.164   2.593   4.294  0.0245  0.3700 -0.2959
 6190SOL    HW130203   0.183   2.564   4.383  3.1474 -0.1097 -1.0958
 6190SOL    HW230204   0.098   2.660   4.312  1.5118  1.7095  0.1743
 6191SOL     OW30205   3.701   1.847   1.093 -0.1025  0.1828  0.0528
 6191SOL    HW130206   3.621   1.856   1.042 -0.2135 -0.1390  0.1726
 6191SOL    HW230207   3.769   1.850   1.026  0.7299 -2.2854  0.7890
 6192SOL     OW30208   1.304   1.435   9.079 -0.3018  0.2245  0.2407
 6192SOL    HW130209   1.311   1.505   9.144 -2.5507  1.8779 -1.3156
 6192SOL    HW230210   1.217   1.455   9.046 -1.0272 -0.6408  1.6367
 6193SOL     OW30211   3.374   2.892   5.230  1.1985  0.1372 -0.1142
 6193SOL    HW130212   3.445   2.953   5.210  0.1867  1.9119  1.6212
 6193SOL    HW230213   3.326   2.937   5.300  1.6387 -1.0668  0.9686
 6194SOL     OW30214   3.699   3.277   8.266 -0.0225  0.6773 -0.0299
 6194SOL    HW130215   3.643   3.239   8.197  2.9623  0.3390 -2.2692
 6194SOL    HW230216   3.761   3.208   8.290 -1.8530 -0.5844  1.1135
 6195SOL     OW30217   4.042   4.507   8.976  0.1087  0.4391 -0.4153
 6195SOL    HW130218   3.988   4.428   8.976  2.0535 -0.9085 -0.7115
 6195SOL    HW230219   4.072   4.506   8.885 -0.5763  0.7917 -0.6447
 6196SOL     OW30220   1.738   1.041   7.559  0.4281  0.9395 -0.4822
 6196SOL    HW130221   1.754   0.965   7.503  0.1168  0.8836 -0.4956
 6196SOL    HW230222   1.804   1.032   7.628  0.2578  1.1852 -0.2868
 6197SOL     OW30223   3.974   0.010   8.816  0.6097  0.6427  0.5452
 6197SOL    HW130224   3.999   4.708   8.902 -1.2640 -0.3324  0.7162
 6197SOL    HW230225   4.043   4.706   8.761 -0.5729 -1.8897  0.6977
 6198SOL     OW30226   2.445   2.588   8.736 -0.3414  0.7463  0.3804
 6198SOL    HW130227   2.432   2.575   8.830 -0.6581  0.9351  0.3601
 6198SOL    HW230228   2.359   2.618   8.709 -0.7268 -1.0459 -0.4014
 6199SOL     OW30229   1.095   1.523   6.053 -0.3867 -0.4573  0.4243
 6199SOL    HW130230   1.082   1.612   6.021  0.1457 -0.5232  0.0315
 6199SOL    HW230231   1.180   1.528   6.098 -0.0063  1.4051 -0.5064
 6200SOL     OW30232   3.022   4.501   6.298  0.2629 -0.2367 -0.0439
 6200SOL    HW130233   3.026   4.570   6.232  0.2184 -0.5077 -0.3300
 6200SOL    HW230234   2.947   4.532   6.349  1.0879  0.9689  0.4180
 6201SOL     OW30235   4.317   3.735  12.557 -0.2477 -0.3736 -0.2180
 6201SOL    HW130236   4.372   3.670  12.600  3.0099  1.2070 -1.9896
 6201SOL    HW230237   4.261   3.680  12.501 -0.7772 -0.1276  0.0676
 6202SOL     OW30238   4.250   0.732   4.629  0.0990  0.5271  0.0392
 6202SOL    HW130239   4.210   0.813   4.661 -3.7097 -0.6058 -1.9080
 6202SOL    HW230240   4.222   0.669   4.696 -0.5882  0.2136 -0.5482
 6203SOL     OW30241   3.827   0.586  11.254  0.2890  0.3908  0.5809
 6203SOL    HW130242   3.743   0.558  11.216  0.2577  0.2987  0.7179
 6203SOL    HW230243   3.829   0.562  11.347  0.9461  1.1592  0.7578
 6204SOL     OW30244   4.726   1.792   8.322 -0.2596  0.2262 -0.2624
 6204SOL    HW130245   4.721   1.821   8.231 -2.6284  1.0166  0.1207
 6204SOL    HW230246   0.069   1.733   8.321  1.4433  2.3701  0.3834
 6205SOL     OW30247   1.000   1.661   2.407 -0.1389  0.0356 -0.1637
 6205SOL    HW130248   0.993   1.751   2.375 -1.9327  0.0997  0.4163
 6205SOL    HW230249   0.914   1.653   2.447  0.3683 -1.2735  0.6714
 6206SOL     OW30250   2.532   1.987  17.572 -0.0422 -0.3107 -0.3310
 6206SOL    HW130251   2.501   2.068  17.612 -0.6878 -0.8432  0.2534
 6206SOL    HW230252   2.600   2.014  17.510 -1.0801  0.7803 -0.9965
 6207SOL     OW30253   1.657   0.812   6.788  0.1833  0.0867  0.7769
 6207SOL    HW130254   1.730   0.825   6.849  0.1759  0.3870  0.7175
 6207SOL    HW230255   1.581   0.817   6.845 -0.2380  2.3273 -0.0031
 6208SOL     OW30256   1.462   2.991   6.713 -0.0281  0.4151 -0.2217
 6208SOL    HW130257   1.553   3.003   6.687  0.0075 -1.1012 -0.7800
 6208SOL    HW230258   1.431   3.076   6.746  0.0626 -0.0219  0.9688
 6209SOL     OW30259   1.906   0.450  16.637 -0.0936  0.4918  0.2400
 6209SOL    HW130260   1.894   0.356  16.627 -0.5413  0.6358 -0.5150
 6209SOL    HW230261   1.890   0.481  16.548  1.6904 -0.5861 -0.4610
 6210SOL     OW30262   0.519   2.697   0.557  0.3131  0.0500 -0.2880
 6210SOL    HW130263   0.434   2.739   0.566 -0.2894 -0.8749 -1.6484
 6210SOL    HW230264   0.557   2.730   0.638  0.8476  0.7533 -0.8288
 6211SOL     OW30265   0.895   1.410   6.379 -0.4427  0.2435 -0.1013
 6211SOL    HW130266   0.819   1.469   6.381 -0.4733  0.2494 -1.2195
 6211SOL    HW230267   0.900   1.388   6.286 -2.1911  0.8031 -0.3304
 6212SOL     OW30268   2.727   0.121   8.940 -0.3151  0.3862 -0.4294
 6212SOL    HW130269   2.723   0.026   8.946 -0.5106  0.5492  1.8431
 6212SOL    HW230270   2.765   0.135   8.853  0.2081  3.6673  0.3166
 6213SOL     OW30271   3.754   4.138   7.170 -0.2052 -0.0661 -0.2938
 6213SOL    HW130272   3.765   4.072   7.102  1.5470 -3.0823  2.8585
 6213SOL    HW230273   3.708   4.206   7.122  1.2606  1.6441  0.7341
 6214SOL     OW30274   1.096   1.683   5.154 -0.1157  0.5543  0.3695
 6214SOL    HW130275   1.072   1.721   5.069  1.3174 -1.5302 -0.9511
 6214SOL    HW230276   1.104   1.761   5.209  0.0613 -0.4114  1.7152
 6215SOL     OW30277   1.311   1.619   7.609  0.4554 -0.2198  0.4359
 6215SOL    HW130278   1.255   1.694   7.628  1.6314  0.1712  2.2927
 6215SOL    HW230279   1.401   1.651   7.603  1.4718 -2.7429  2.4476
 6216SOL     OW30280   4.446   0.093   7.599 -0.0782  0.0798  0.4908
 6216SOL    HW130281   4.451   0.156   7.672 -0.7695  0.7535 -0.0489
 6216SOL    HW230282   4.395   0.017   7.627 -2.2302  1.1954 -0.3798
 6217SOL     OW30283   2.295   4.516   5.299 -0.6424  0.2691 -0.0147
 6217SOL    HW130284   2.359   4.458   5.342  0.5607  0.6116 -1.3281
 6217SOL    HW230285   2.221   4.496   5.356  2.0011 -0.4423  3.1796
 6218SOL     OW30286   1.004   0.498  17.022  0.4098  0.0129 -0.2227
 6218SOL    HW130287   0.927   0.507  16.966 -0.1757  0.7038  0.6863
 6218SOL    HW230288   1.067   0.485  16.951  0.7052  1.2688 -0.1884
 6219SOL     OW30289   0.065   1.457   6.901  0.1295 -0.6374 -1.0255
 6219SOL    HW130290   0.083   1.547   6.928 -2.3252 -1.7263  4.3377
 6219SOL    HW230291   4.704   1.459   6.884  0.3012  0.6846 -1.8243
 6220SOL     OW30292   1.065   0.115   7.532  0.0827  0.0415 -0.1446
 6220SOL    HW130293   1.013   0.037   7.518  0.1513  0.0406 -0.3929
 6220SOL    HW230294   1.144   0.092   7.483  1.2122  3.6427 -0.0818
 6221SOL     OW30295   3.684   1.837   6.230 -0.0805 -0.1858 -0.4058
 6221SOL    HW130296   3.761   1.801   6.186  2.0383  1.8732  1.6378
 6221SOL    HW230297   3.708   1.928   6.248 -0.7568 -0.9145  4.2459
 6222SOL     OW30298   3.970   1.353   6.130  0.2405 -0.4258 -0.0979
 6222SOL    HW130299   4.024   1.345   6.209  0.1906  2.8068  0.2791
 6222SOL    HW230300   4.022   1.415   6.079  1.0461 -0.8807  0.1741
 6223SOL     OW30301   0.272   3.967  14.756  1.3922  0.3063 -0.2137
 6223SOL    HW130302   0.201   3.971  14.692  3.6053 -1.4450 -2.7803
 6223SOL    HW230303   0.314   4.052  14.744  3.5636 -0.8404 -0.8836
 6224SOL     OW30304   3.358   2.720   9.830 -0.0994  0.3353  0.2578
 6224SOL    HW130305   3.344   2.634   9.791 -0.2137  0.2265  0.5425
 6224SOL    HW230306   3.441   2.723   9.878 -1.0773  1.0813  1.9057
 6225SOL     OW30307   3.717   3.065   8.867 -0.4192  0.0608  0.2343
 6225SOL    HW130308   3.774   3.079   8.791 -1.6805 -1.3897 -0.9832
 6225SOL    HW230309   3.763   3.107   8.939  0.2906 -0.2216 -0.0474
 6226SOL     OW30310   4.098   3.461   4.127  0.3329 -0.1677 -0.5145
 6226SOL    HW130311   4.083   3.554   4.145 -2.9338 -1.4810  3.6489
 6226SOL    HW230312   4.066   3.459   4.037  0.0138  3.8793 -0.4566
 6227SOL     OW30313   0.782   4.551  17.726  0.4845 -0.0904  0.1728
 6227SOL    HW130314   0.844   4.609  17.681 -0.8782  1.6696  0.5218
 6227SOL    HW230315   0.747   4.609   0.064 -0.9051 -0.2392 -0.4273
 6228SOL     OW30316   2.280   2.707   4.443 -0.4080  0.2005  0.1876
 6228SOL    HW130317   2.260   2.759   4.366  0.6297  0.2429 -0.0491
 6228SOL    HW230318   2.205   2.662   4.483 -1.3520  1.5697 -0.0713
 6229SOL     OW30319   4.127   4.060   1.703 -0.1674 -0.1162  0.6144
 6229SOL    HW130320   4.150   4.129   1.641  0.3406  0.0371  0.9717
 6229SOL    HW230321   4.213   4.045   1.743  0.3869  0.6704 -0.2718
 6230SOL     OW30322   2.860   4.485   3.650 -0.1391  0.2162 -0.2941
 6230SOL    HW130323   2.823   4.425   3.586 -1.9522 -0.4420  1.3607
 6230SOL    HW230324   2.927   4.530   3.599  0.1673  0.9116  0.7287
 6231SOL     OW30325   1.719   2.278   4.224  0.1697  0.0030 -0.0043
 6231SOL    HW130326   1.717   2.314   4.313 -1.9668  0.3994 -0.2163
 6231SOL    HW230327   1.704   2.354   4.167 -0.6973 -0.3062 -0.1946
 6232SOL     OW30328   3.694   0.965   5.194  0.0080  0.5084  0.0750
 6232SOL    HW130329   3.615   1.019   5.196  0.1667  0.7082  1.2341
 6232SOL    HW230330   3.751   1.021   5.247 -1.8841  0.3580  2.2745
 6233SOL     OW30331   0.876   1.204   8.890  0.4532 -0.6922  0.5858
 6233SOL    HW130332   0.929   1.160   8.824  1.4242 -1.6233  1.9796
 6233SOL    HW230333   0.826   1.134   8.932 -0.7689  0.7158  1.5226
 6234SOL     OW30334   1.519   2.796   9.498 -0.0088  0.3800 -0.2525
 6234SOL    HW130335   1.478   2.764   9.418  0.2730 -0.7467  0.0486
 6234SOL    HW230336   1.464   2.871   9.522  0.0460  1.2962 -3.0302
 6235SOL     OW30337   0.021   3.156   0.568  0.3147 -0.5369 -0.4493
 6235SOL    HW130338   0.065   3.099   0.505 -1.3880 -1.2966 -0.9731
 6235SOL    HW230339   4.672   3.182   0.525  1.8006 -0.1081 -2.9631
 6236SOL     OW30340   4.288   0.241   8.839 -0.3287  0.2054  0.2672
 6236SOL    HW130341   4.344   0.315   8.863 -1.0382  1.0356 -0.6410
 6236SOL    HW230342   4.318   0.226   8.750 -1.3143 -1.0304  0.1411
 6237SOL     OW30343   4.096   4.506   3.872  0.6368 -0.2472  0.2295
 6237SOL    HW130344   4.030   4.447   3.910 -0.6953  1.7889  1.0641
 6237SOL    HW230345   4.039   4.580   3.856  0.0244 -0.5588  0.9266
 6238SOL     OW30346   3.390   0.097  15.138  0.3580  0.1419  0.6375
 6238SOL    HW130347   3.373   0.003  15.138 -0.9681  0.3725 -0.6036
 6238SOL    HW230348   3.317   0.136  15.088 -0.2886  0.0621  1.5193
 6239SOL     OW30349   0.646   1.188  11.851  0.1074 -0.4566 -0.0535
 6239SOL    HW130350   0.681   1.260  11.797  0.7951 -0.4444  0.4028
 6239SOL    HW230351   0.724   1.174  11.905 -0.8333 -0.7396  1.2228
 6240SOL     OW30352   3.053   1.512   5.066 -0.0564  0.3466 -0.1584
 6240SOL    HW130353   3.024   1.517   5.157  1.8993 -1.5638  0.5687
 6240SOL    HW230354   3.081   1.602   5.048 -0.1382 -0.1916 -3.0348
 6241SOL     OW30355   4.301   2.629   0.822  0.4390 -0.8899  0.0261
 6241SOL    HW130356   4.362   2.667   0.885 -0.9350  0.6469  0.4203
 6241SOL    HW230357   4.274   2.706   0.772 -0.8305 -0.4395  1.4169
 6242SOL     OW30358   3.171   1.536   1.900 -0.5704  0.9149  0.3817
 6242SOL    HW130359   3.154   1.511   1.809  1.1878 -0.1514  0.3453
 6242SOL    HW230360   3.265   1.554   1.900 -0.8152  2.1638  0.8286
 6243SOL     OW30361   0.973   2.052   6.580  0.5261  0.0195  0.2312
 6243SOL    HW130362   1.051   2.105   6.561  1.3605 -1.5001 -0.5662
 6243SOL    HW230363   0.972   2.077   6.673 -3.5872 -2.0716  0.7524
 6244SOL     OW30364   2.732   1.372  11.231  0.5189  0.4203  0.1494
 6244SOL    HW130365   2.670   1.444  11.216  0.2322  0.3631  1.0584
 6244SOL    HW230366   2.703   1.341  11.317 -0.3643  1.5328  0.2576
 6245SOL     OW30367   0.793   0.678   8.902  0.2526  0.5072  0.7472
 6245SOL    HW130368   0.734   0.604   8.884 -1.9957  2.4961 -0.0780
 6245SOL    HW230369   0.868   0.648   8.851 -1.9937 -0.2113 -2.1972
 6246SOL     OW30370   4.483   1.906   3.480  0.0178  0.8341 -0.5220
 6246SOL    HW130371   4.426   1.974   3.446 -0.8739  1.4513  2.2097
 6246SOL    HW230372   4.494   1.855   3.400  2.4745  0.6677 -0.0967
 6247SOL     OW30373   3.790   0.388   8.244 -0.3958  0.4127 -0.7345
 6247SOL    HW130374   3.724   0.437   8.292 -1.6575 -1.3565 -0.6498
 6247SOL    HW230375   3.755   0.300   8.257 -0.7352  0.6155 -0.2844
 6248SOL     OW30376   0.021   0.180   9.820  0.0268 -0.2347 -0.4724
 6248SOL    HW130377   0.092   0.185   9.757  1.5977 -1.6331  1.2080
 6248SOL    HW230378   0.002   0.272   9.838 -0.6211 -0.3985 -0.3263
 6249SOL     OW30379   3.372   3.687   7.302 -0.1724  0.6613  1.0228
 6249SOL    HW130380   3.283   3.653   7.314  0.8669 -2.6366 -0.8876
 6249SOL    HW230381   3.406   3.690   7.391  2.5773 -0.0154 -0.0334
 6250SOL     OW30382   4.451   2.071   6.880  0.1257  0.1525 -0.2732
 6250SOL    HW130383   4.357   2.075   6.865  0.0512 -0.2721  0.0827
 6250SOL    HW230384   4.456   2.161   6.913  1.8105  0.7763 -2.2284
 6251SOL     OW30385   3.483   3.655   7.537  0.0592  0.7280  0.6193
 6251SOL    HW130386   3.427   3.578   7.551  1.3788 -0.4589 -0.6358
 6251SOL    HW230387   3.567   3.618   7.510  0.6557  0.8434  2.2929
 6252SOL     OW30388   4.105   2.016  13.279  0.1611  0.2735  0.2872
 6252SOL    HW130389   4.147   2.041  13.361  0.8017  0.5911 -0.1382
 6252SOL    HW230390   4.065   2.100  13.253  2.9832  0.8725 -2.0880
 6253SOL     OW30391   2.077   3.231   8.641 -0.3580  0.5176 -0.2080
 6253SOL    HW130392   2.170   3.254   8.632 -0.8929  2.2260 -1.4134
 6253SOL    HW230393   2.068   3.169   8.568  0.5151  0.6629 -0.4422
 6254SOL     OW30394   1.911   3.501  15.583 -0.7457 -0.5818 -0.4217
 6254SOL    HW130395   1.851   3.428  15.594 -0.0226 -1.0873  0.1622
 6254SOL    HW230396   1.895   3.558  15.658 -0.5815  0.6226 -1.2885
 6255SOL     OW30397   3.328   2.800   5.628  0.2847  0.1767 -0.4106
 6255SOL    HW130398   3.246   2.776   5.584  0.8495 -2.1325 -0.2329
 6255SOL    HW230399   3.333   2.739   5.702  0.3792  0.3576 -0.2667
 6256SOL     OW30400   0.243   0.340  13.364  0.1369  0.0648  0.6329
 6256SOL    HW130401   0.181   0.362  13.295  0.1172 -2.0151 -0.0222
 6256SOL    HW230402   0.203   0.380  13.441 -0.1418  0.0074  0.5199
 6257SOL     OW30403   1.627   4.198   8.263  0.1946  0.1705 -0.0299
 6257SOL    HW130404   1.721   4.219   8.272  0.0911  1.7026 -2.6065
 6257SOL    HW230405   1.616   4.202   8.169  0.9513 -0.1449 -0.1373
 6258SOL     OW30406   3.385   2.718   6.881  0.3438 -0.0318 -0.1716
 6258SOL    HW130407   3.299   2.743   6.847  0.4917  0.0527 -0.4929
 6258SOL    HW230408   3.357   2.656   6.948  0.9850 -1.6005 -1.3701
 6259SOL     OW30409   1.048   1.534   0.477 -0.4402  0.1088 -0.0807
 6259SOL    HW130410   1.057   1.606   0.414 -1.0371  0.7659  0.5814
 6259SOL    HW230411   0.978   1.482   0.437 -1.2691  1.1149  0.0445
 6260SOL     OW30412   1.828   1.167   9.335 -0.4343 -0.9462 -0.5697
 6260SOL    HW130413   1.901   1.105   9.333  0.1535 -0.2153 -1.8487
 6260SOL    HW230414   1.835   1.201   9.424 -3.6935  1.7293 -1.3330
 6261SOL     OW30415   0.291   3.395   4.984 -0.3582  0.0189  0.4588
 6261SOL    HW130416   0.256   3.437   4.906  2.3713 -0.5086 -1.0390
 6261SOL    HW230417   0.360   3.459   5.000  0.1830 -0.0829 -1.5697
 6262SOL     OW30418   2.788   0.735   9.002 -0.3509  0.1111  0.1609
 6262SOL    HW130419   2.755   0.669   9.063 -2.0637 -0.7441 -1.6750
 6262SOL    HW230420   2.785   0.812   9.059 -0.5588  0.2637 -0.0527
 6263SOL     OW30421   1.765   0.936  10.131  0.0044  0.0132 -0.1382
 6263SOL    HW130422   1.775   0.995  10.057 -0.4717  0.5849  0.2495
 6263SOL    HW230423   1.670   0.938  10.143  0.2125  2.2540  1.2142
 6264SOL     OW30424   0.148   0.621   2.682 -0.5198 -0.2006 -0.1466
 6264SOL    HW130425   0.236   0.590   2.703  0.7038  1.6585 -2.5663
 6264SOL    HW230426   0.160   0.716   2.688 -0.1706 -0.3727  2.0704
 6265SOL     OW30427   2.470   1.315   7.927  0.6107  0.3094 -0.7820
 6265SOL    HW130428   2.447   1.227   7.959  3.3264  0.6324  1.9899
 6265SOL    HW230429   2.551   1.295   7.882  2.5854 -0.0077  2.8976
 6266SOL     OW30430   0.800   2.225  10.164  0.4917 -0.1243  0.3453
 6266SOL    HW130431   0.852   2.224  10.083  0.5960  1.0478  0.3942
 6266SOL    HW230432   0.855   2.281  10.219  0.6558  0.9314 -0.8651
 6267SOL     OW30433   1.900   0.669   9.275 -0.4176  0.2820 -0.0226
 6267SOL    HW130434   1.979   0.615   9.271 -1.7114 -1.4842 -1.7829
 6267SOL    HW230435   1.866   0.664   9.186  2.1941 -1.2870 -0.9122
 6268SOL     OW30436   4.057   0.639  10.395  0.0454  0.0051  0.1489
 6268SOL    HW130437   4.141   0.685  10.398 -0.0081  0.1242 -0.2180
 6268SOL    HW230438   4.058   0.584  10.473 -3.0748 -0.7379 -0.3333
 6269SOL     OW30439   4.449   2.597  14.988  0.1624  0.6914  0.8985
 6269SOL    HW130440   4.384   2.547  14.940 -0.5991  2.2350  0.2981
 6269SOL    HW230441   4.426   2.583  15.080  1.7653 -0.6230  1.0839
 6270SOL     OW30442   3.763   1.413   8.319 -0.3872 -0.3630  0.1370
 6270SOL    HW130443   3.830   1.354   8.285 -0.4284 -1.7703  2.5133
 6270SOL    HW230444   3.691   1.350   8.316  0.6504 -1.4881 -0.7880
 6271SOL     OW30445   4.711   0.336   9.497 -0.3255 -0.4927 -0.2724
 6271SOL    HW130446   0.038   0.384   9.555 -0.2493  0.7562 -1.3751
 6271SOL    HW230447   4.631   0.368   9.539 -0.8162 -2.1369  0.0396
 6272SOL     OW30448   2.694   1.373   4.876  0.3795  0.8385  0.1361
 6272SOL    HW130449   2.632   1.304   4.855  0.1429  1.3972 -0.9743
 6272SOL    HW230450   2.778   1.342   4.842 -0.2683  1.1410 -1.7129
 6273SOL     OW30451   0.233   3.133   9.334  0.1432  0.4709 -0.1185
 6273SOL    HW130452   0.224   3.053   9.384 -2.3266 -0.0966 -1.4488
 6273SOL    HW230453   0.314   3.105   9.291 -0.9275 -1.9357 -0.5678
 6274SOL     OW30454   3.463   4.723   8.221 -0.0978  0.0007  0.0240
 6274SOL    HW130455   3.436   4.634   8.242  0.2163 -0.3760 -1.1935
 6274SOL    HW230456   3.477   4.728   8.126 -0.1255 -0.4765 -0.0063
 6275SOL     OW30457   0.324   1.972  14.604  0.1173 -0.5257 -0.1391
 6275SOL    HW130458   0.245   2.022  14.585  0.6120  0.0989 -0.5310
 6275SOL    HW230459   0.380   2.003  14.534 -1.5887 -1.5060 -1.9239
 6276SOL     OW30460   4.104   1.926   0.765 -0.4286  0.1376  0.2750
 6276SOL    HW130461   4.134   1.881   0.844  1.3423  0.0301 -0.4575
 6276SOL    HW230462   4.184   1.940   0.715 -0.3741  0.0686  0.3415
 6277SOL     OW30463   3.015   1.236  15.553  0.6456 -0.6830 -0.0496
 6277SOL    HW130464   3.011   1.217  15.647  1.4628  0.1001  0.1425
 6277SOL    HW230465   2.973   1.322  15.552 -0.1962 -1.1136 -1.3763
 6278SOL     OW30466   0.850   0.969   6.431  0.6784  0.0797 -0.4955
 6278SOL    HW130467   0.849   1.042   6.493 -3.7279  0.7261 -1.3037
 6278SOL    HW230468   0.798   1.011   6.362  1.3818  0.6025 -0.6992
 6279SOL     OW30469   3.909   0.673   2.094 -0.0951  0.1433 -0.1005
 6279SOL    HW130470   3.860   0.705   2.018  0.2142  1.6571  0.3358
 6279SOL    HW230471   3.908   0.751   2.150 -2.0220  0.7431 -0.9820
 6280SOL     OW30472   3.262   3.042   4.252  0.1939 -0.1068 -0.3947
 6280SOL    HW130473   3.239   2.978   4.185 -0.5736  0.1545 -0.3774
 6280SOL    HW230474   3.358   3.038   4.254  0.1814 -0.5019 -0.6762
 6281SOL     OW30475   3.948   1.246   2.486 -0.3077  0.9239  0.0321
 6281SOL    HW130476   4.032   1.222   2.525 -0.1890 -0.4477 -1.0502
 6281SOL    HW230477   3.967   1.220   2.396 -1.8706 -3.2101  0.8821
 6282SOL     OW30478   0.312   1.004   9.163 -0.3158  0.3047 -0.1493
 6282SOL    HW130479   0.341   1.084   9.119  1.1968 -1.4764 -2.4158
 6282SOL    HW230480   0.399   0.969   9.180 -0.8901 -0.4133  1.3206
 6283SOL     OW30481   0.241   1.722   3.643 -0.0098 -0.1242 -0.7859
 6283SOL    HW130482   0.235   1.787   3.713  0.7376 -1.1005  0.1960
 6283SOL    HW230483   0.153   1.684   3.645 -0.3631  0.7231  0.5388
 6284SOL     OW30484   0.778   1.142   5.329 -0.1387 -0.1617  0.3579
 6284SOL    HW130485   0.764   1.055   5.291  1.4841 -0.4597  0.4379
 6284SOL    HW230486   0.691   1.168   5.358 -0.5906 -1.7380  0.4422
 6285SOL     OW30487   4.193   2.606   3.208  0.0965 -0.9063 -0.3935
 6285SOL    HW130488   4.216   2.566   3.292  2.8390  2.0289  0.2969
 6285SOL    HW230489   4.119   2.549   3.190  1.4489 -2.3141 -1.4784
 6286SOL     OW30490   0.836   2.343   2.963  0.3583  0.1188 -0.0465
 6286SOL    HW130491   0.753   2.349   3.010  0.3689  3.2142 -0.4296
 6286SOL    HW230492   0.812   2.405   2.894 -1.8311  0.0730  0.6706
 6287SOL     OW30493   4.385   3.446   2.586 -0.0846 -0.2638 -0.0868
 6287SOL    HW130494   4.432   3.367   2.558  0.0720 -0.2905  0.2488
 6287SOL    HW230495   4.319   3.409   2.646  1.2190  0.6830  1.8968
 6288SOL     OW30496   2.653   3.009   9.048  0.1251 -0.0518 -0.1575
 6288SOL    HW130497   2.570   2.968   9.074  1.6784 -1.7266  2.0577
 6288SOL    HW230498   2.653   2.991   8.954  0.4918 -1.5053  0.1200
 6289SOL     OW30499   3.730   2.665   6.002 -0.4487 -0.1247  0.8672
 6289SOL    HW130500   3.726   2.741   5.944  0.2106 -0.6554  0.1150
 6289SOL    HW230501   3.762   2.707   6.081  0.8844 -0.9357  0.7522
 6290SOL     OW30502   4.437   1.499  15.426 -0.5081  0.5319 -0.2498
 6290SOL    HW130503   4.445   1.436  15.497 -0.5377  0.5112 -0.2652
 6290SOL    HW230504   4.343   1.518  15.428 -0.5617  0.3646 -1.0551
 6291SOL     OW30505   2.434   0.643  10.583 -0.2452 -0.2028 -0.0181
 6291SOL    HW130506   2.417   0.690  10.502  1.3132 -0.9348 -0.7729
 6291SOL    HW230507   2.427   0.710  10.652 -0.4936  0.2413 -0.4739
 6292SOL     OW30508   2.842   1.276   7.519  0.0719 -0.3100 -0.0672
 6292SOL    HW130509   2.782   1.225   7.466  2.1439  0.6951 -3.3853
 6292SOL    HW230510   2.874   1.339   7.455  0.8465 -1.4407 -0.8036
 6293SOL     OW30511   0.023   1.880   4.880 -0.8573 -0.0242 -0.7646
 6293SOL    HW130512   0.076   1.946   4.926  0.8564 -1.2627 -0.9390
 6293SOL    HW230513   0.071   1.884   4.797 -0.7725 -0.2896 -0.7274
 6294SOL     OW30514   0.671   4.075   9.411 -0.1271 -0.0619  0.4488
 6294SOL    HW130515   0.642   4.016   9.342 -0.8085 -0.2018  0.8425
 6294SOL    HW230516   0.619   4.038   9.483  1.5176  0.5207  1.9425
 6295SOL     OW30517   3.029   1.642   8.592  0.3551 -0.0405  0.7039
 6295SOL    HW130518   3.034   1.633   8.687  1.7910 -3.7756  0.2946
 6295SOL    HW230519   2.934   1.637   8.578  0.3513  1.2045  0.3670
 6296SOL     OW30520   4.390   3.744   3.974 -0.2175 -0.6952  0.3549
 6296SOL    HW130521   4.295   3.740   3.986 -0.0728 -0.9652  1.3820
 6296SOL    HW230522   4.411   3.661   3.929  0.0781 -0.1101 -0.5975
 6297SOL     OW30523   4.700   2.530  15.516  0.7721 -0.2873 -0.2415
 6297SOL    HW130524   4.706   2.610  15.464 -1.8561 -0.5953 -0.9692
 6297SOL    HW230525   4.711   2.457  15.456 -3.9266  0.3278 -1.8180
 6298SOL     OW30526   1.895   3.582   8.347 -0.5393  0.1121 -0.3504
 6298SOL    HW130527   1.817   3.634   8.365  0.3456  1.3262 -0.0709
 6298SOL    HW230528   1.850   3.501   8.321  1.1184 -0.8852 -0.1490
 6299SOL     OW30529   2.645   0.117   3.034 -0.2157 -0.4048 -0.1454
 6299SOL    HW130530   2.624   0.031   2.998  1.2794 -1.5625  1.8045
 6299SOL    HW230531   2.594   0.171   2.973 -1.6030  0.5622  1.8809
 6300SOL     OW30532   4.704   0.479  13.460 -0.0907  0.1312  0.1659
 6300SOL    HW130533   4.727   0.399  13.506 -0.4871 -0.7862 -1.2535
 6300SOL    HW230534   4.625   0.454  13.412  0.8933 -1.5301 -0.5677
 6301SOL     OW30535   1.874   1.575   5.135  0.1742  0.0322 -0.4411
 6301SOL    HW130536   1.861   1.569   5.229 -0.4852  3.0469 -0.3511
 6301SOL    HW230537   1.969   1.583   5.134  0.0199  1.8123  0.8239
 6302SOL     OW30538   1.287   0.546  15.989 -0.5227 -0.2191  0.1652
 6302SOL    HW130539   1.226   0.615  16.016 -0.3362  0.1150 -0.2816
 6302SOL    HW230540   1.366   0.595  15.966 -2.3592  2.7675  0.1673
 6303SOL     OW30541   3.799   1.523   0.607  0.3884 -0.3067  0.8616
 6303SOL    HW130542   3.716   1.513   0.559  1.4517  2.0652 -1.4784
 6303SOL    HW230543   3.821   1.613   0.585  0.9769 -0.9003 -1.0662
 6304SOL     OW30544   1.779   0.551   5.962 -0.2022 -0.0148  0.5719
 6304SOL    HW130545   1.745   0.468   5.928  0.6110 -0.3371  0.5356
 6304SOL    HW230546   1.702   0.584   6.008 -0.0048  1.4733 -0.1718
 6305SOL     OW30547   0.865   2.401  14.356  0.1517  0.2191  0.3848
 6305SOL    HW130548   0.826   2.336  14.415  0.6331  0.4602  0.9698
 6305SOL    HW230549   0.791   2.444  14.313  2.5022  0.1156 -3.7601
 6306SOL     OW30550   4.643   2.824  12.379 -0.4624 -0.3357 -0.0811
 6306SOL    HW130551   4.567   2.790  12.426 -0.0104 -0.4703  0.5634
 6306SOL    HW230552   4.624   2.917  12.367 -0.4493 -0.3115  0.0836
 6307SOL     OW30553   4.670   1.354   3.036  0.0096 -0.1678 -0.2906
 6307SOL    HW130554   0.021   1.360   3.082 -0.4712 -0.6852  0.6687
 6307SOL    HW230555   4.612   1.415   3.082  1.0162 -0.8538  1.8865
 6308SOL     OW30556   3.103   2.219   2.938  0.3829  0.2386 -0.8947
 6308SOL    HW130557   3.164   2.208   2.865 -0.1175  2.5166 -1.6801
 6308SOL    HW230558   3.081   2.128   2.957  3.1437 -0.5053 -1.1895
 6309SOL     OW30559   2.133   1.322  10.936 -0.4422  0.1640 -0.3135
 6309SOL    HW130560   2.053   1.323  10.989 -0.7671 -0.0503 -0.7995
 6309SOL    HW230561   2.123   1.395  10.876 -2.2088 -1.1822 -1.6829
 6310SOL     OW30562   0.295   1.927   1.449 -0.3962 -0.0076  0.2898
 6310SOL    HW130563   0.344   1.860   1.496  0.6389  1.5843  1.4698
 6310SOL    HW230564   0.219   1.884   1.409 -1.3629 -0.6929  2.8478
 6311SOL     OW30565   0.384   1.357   3.677 -0.0403  0.1121  0.3995
 6311SOL    HW130566   0.389   1.261   3.677 -0.4806  0.0860 -0.5920
 6311SOL    HW230567   0.433   1.379   3.598 -0.6597 -1.1899 -0.3485
 6312SOL     OW30568   0.504   4.462   9.117  0.2491  0.5158 -0.0679
 6312SOL    HW130569   0.440   4.399   9.149 -2.1854  0.9093 -4.2032
 6312SOL    HW230570   0.565   4.405   9.070  0.6821  0.0041  1.0930
 6313SOL     OW30571   0.064   4.712   7.175  0.3716  0.5716 -0.6983
 6313SOL    HW130572   4.729   4.670   7.121 -1.2701 -0.4279  2.1078
 6313SOL    HW230573   0.023   0.066   7.175  1.0854  0.9073 -1.3367
 6314SOL     OW30574   1.288   0.508   8.440 -0.1104  0.5181  0.6045
 6314SOL    HW130575   1.336   0.554   8.508  0.9383 -0.8384  0.7770
 6314SOL    HW230576   1.218   0.572   8.426 -0.2336  0.4407  0.8863
 6315SOL     OW30577   1.143   4.079   1.319 -1.0568 -0.5863  0.1921
 6315SOL    HW130578   1.126   4.134   1.243 -0.5498  1.2329  1.4043
 6315SOL    HW230579   1.080   4.007   1.313 -1.3550 -0.3678  0.7030
 6316SOL     OW30580   1.658   0.312  11.311  0.2649  0.2569  0.0593
 6316SOL    HW130581   1.665   0.389  11.254  1.6291  0.3642  0.3891
 6316SOL    HW230582   1.741   0.313  11.358 -0.6829  2.3814  1.6639
 6317SOL     OW30583   2.192   2.723   9.297  0.4425  0.1695 -0.3470
 6317SOL    HW130584   2.159   2.776   9.370  3.6365 -1.7566  2.5185
 6317SOL    HW230585   2.235   2.656   9.350 -0.5486  0.0528  0.3011
 6318SOL     OW30586   0.082   2.792   1.039 -0.0952  0.0070 -0.1179
 6318SOL    HW130587   0.063   2.788   1.133 -0.4295 -0.5714 -0.2131
 6318SOL    HW230588   0.109   2.883   1.049 -1.2969  0.2439  1.0727
 6319SOL     OW30589   4.030   2.565   6.375  0.3533  0.1559 -0.5250
 6319SOL    HW130590   4.082   2.620   6.433 -0.1268 -0.4638  0.4874
 6319SOL    HW230591   4.022   2.480   6.418  1.5204  0.6917  0.7460
 6320SOL     OW30592   3.820   0.216  13.841  0.0400  0.4064  0.6567
 6320SOL    HW130593   3.741   0.218  13.787 -0.0024 -1.2570  0.6612
 6320SOL    HW230594   3.818   0.302  13.884  1.5325  0.4852  0.5642
 6321SOL     OW30595   0.566   3.145   3.868  0.3763 -0.3131 -0.2341
 6321SOL    HW130596   0.536   3.072   3.923 -1.0464 -0.3310 -1.0229
 6321SOL    HW230597   0.624   3.188   3.931  1.7141 -3.1315  0.4429
 6322SOL     OW30598   0.081   1.933  14.905 -0.5469 -0.1233 -0.9937
 6322SOL    HW130599   0.086   1.839  14.924 -1.0097 -0.3733 -2.1116
 6322SOL    HW230600   0.172   1.961  14.899 -0.0467 -1.6584 -0.5910
 6323SOL     OW30601   1.693   4.591   2.553  0.5649  0.3798  0.1331
 6323SOL    HW130602   1.627   4.612   2.486 -1.1045 -0.8497  1.3772
 6323SOL    HW230603   1.773   4.597   2.501  0.9673 -1.9321  0.4771
 6324SOL     OW30604   2.956   3.443  10.682 -0.5043 -0.5606 -0.0112
 6324SOL    HW130605   2.887   3.378  10.697 -2.6731  1.7561 -0.0426
 6324SOL    HW230606   2.918   3.515  10.731  0.4340  0.3537 -0.6316
 6325SOL     OW30607   0.413   4.440   6.343  0.0327 -0.1983  0.3344
 6325SOL    HW130608   0.362   4.382   6.400 -0.0006  0.5654  1.0874
 6325SOL    HW230609   0.338   4.489   6.309  0.0712  1.3838  2.5491
 6326SOL     OW30610   2.758   2.639   2.182  0.2564 -0.7991  0.0052
 6326SOL    HW130611   2.852   2.632   2.200  0.3498  2.7236  0.7589
 6326SOL    HW230612   2.729   2.560   2.228 -1.0975 -0.9133 -1.0409
 6327SOL     OW30613   1.201   4.281   1.496  0.8584  0.0617  0.8659
 6327SOL    HW130614   1.271   4.238   1.546  2.7333  1.6825 -0.3341
 6327SOL    HW230615   1.186   4.212   1.432 -0.9402 -0.2711  1.6559
 6328SOL     OW30616   2.388   2.596   9.445 -0.0256 -0.1474 -0.3150
 6328SOL    HW130617   2.320   2.535   9.475 -1.1731  0.6503 -1.2875
 6328SOL    HW230618   2.425   2.624   9.528  0.2789 -1.3618 -0.0434
 6329SOL     OW30619   3.465   0.544   0.551 -0.3771 -0.4048 -0.3524
 6329SOL    HW130620   3.521   0.566   0.477 -0.4219  2.7066  0.5374
 6329SOL    HW230621   3.518   0.479   0.597 -1.0361 -1.0317 -0.4866
 6330SOL     OW30622   1.062   2.537   7.747  0.3214 -0.4168 -0.3138
 6330SOL    HW130623   0.990   2.547   7.809  0.7699 -0.6682  0.2458
 6330SOL    HW230624   1.080   2.624   7.713 -0.1897 -0.8304 -1.6535
 6331SOL     OW30625   0.387   3.608   3.977  0.6070  0.1689  0.1535
 6331SOL    HW130626   0.426   3.533   3.932 -1.6423 -0.5271 -0.6259
 6331SOL    HW230627   0.338   3.642   3.902 -2.3093 -2.7775  0.7079
 6332SOL     OW30628   2.113   2.728   6.415 -0.6264  0.6542  0.5157
 6332SOL    HW130629   2.147   2.673   6.486 -0.4714  1.1429  0.8123
 6332SOL    HW230630   2.087   2.650   6.364 -1.6166 -0.1011  2.1664
 6333SOL     OW30631   1.118   2.099   7.555 -0.0394 -0.0828  0.2806
 6333SOL    HW130632   1.069   2.160   7.610 -0.5322 -0.3690  0.1673
 6333SOL    HW230633   1.204   2.139   7.549 -0.4513  0.9344  1.3738
 6334SOL     OW30634   1.547   2.389   9.348 -0.0831 -0.0488  0.8157
 6334SOL    HW130635   1.539   2.469   9.399 -1.7764 -1.0515  2.1598
 6334SOL    HW230636   1.560   2.419   9.259 -1.6764  1.0761  0.9642
 6335SOL     OW30637   0.910   4.514   9.408  0.3167  0.3140 -0.1739
 6335SOL    HW130638   0.940   4.430   9.373  1.2830  0.8317 -0.5909
 6335SOL    HW230639   0.846   4.477   9.469  1.1197  1.1053  1.1316
 6336SOL     OW30640   0.863   0.274   6.066 -0.3399 -0.3378  0.4615
 6336SOL    HW130641   0.789   0.277   6.005 -0.7525 -0.2398  0.9667
 6336SOL    HW230642   0.904   0.188   6.053  1.0113  0.2843  0.6798
 6337SOL     OW30643   4.536   3.196   0.425  0.2394 -0.2299 -0.0442
 6337SOL    HW130644   4.515   3.182   0.333 -1.4162 -0.5696  0.3878
 6337SOL    HW230645   4.470   3.144   0.471  0.2147  0.8998  1.2187
 6338SOL     OW30646   2.769   3.048   7.756  0.8060  0.5356  0.8913
 6338SOL    HW130647   2.792   3.135   7.790  1.2193  0.4506  0.8321
 6338SOL    HW230648   2.705   3.031   7.825 -1.3037  0.1789 -1.1495
 6339SOL     OW30649   1.239   4.211   9.449  0.8237  0.5543  0.1630
 6339SOL    HW130650   1.246   4.257   9.532  0.5521  0.3445  0.3011
 6339SOL    HW230651   1.234   4.123   9.487  2.4763  1.4535  2.4673
 6340SOL     OW30652   2.477   1.090   1.731 -0.1647 -0.6228 -0.0975
 6340SOL    HW130653   2.530   1.101   1.810  1.6213 -1.6891 -1.1349
 6340SOL    HW230654   2.543   1.078   1.662  0.8017  3.0205  0.1635
 6341SOL     OW30655   3.812   4.495   5.065 -0.3674  0.3704  0.0936
 6341SOL    HW130656   3.883   4.461   5.010 -0.4522  0.8825 -0.3384
 6341SOL    HW230657   3.866   4.566   5.100  3.5173 -2.3747 -0.4266
 6342SOL     OW30658   3.028   4.287   2.811 -0.1876 -0.0405  0.0601
 6342SOL    HW130659   3.103   4.326   2.855  0.3987 -2.4289  1.1846
 6342SOL    HW230660   2.961   4.336   2.858  0.1932 -0.0374  0.6077
 6343SOL     OW30661   0.358   3.171   5.179  0.1613  0.0750 -0.3021
 6343SOL    HW130662   0.289   3.150   5.242  0.4267  0.3817  0.0944
 6343SOL    HW230663   0.402   3.086   5.174  0.7547  0.3764 -0.2033
 6344SOL     OW30664   2.694   2.499   6.136  0.0623 -0.4180 -0.3687
 6344SOL    HW130665   2.757   2.433   6.164  0.2138 -0.5743 -1.0919
 6344SOL    HW230666   2.734   2.584   6.157  0.1904 -0.4576 -0.4547
 6345SOL     OW30667   2.179   1.950   6.892 -0.4090  0.0403  0.4585
 6345SOL    HW130668   2.261   1.959   6.844 -0.0131 -1.4564  0.8447
 6345SOL    HW230669   2.143   1.867   6.860  1.2679  0.0311 -1.3735
 6346SOL     OW30670   2.464   2.376  17.435 -0.4407 -0.9284 -0.2237
 6346SOL    HW130671   2.553   2.399  17.408 -0.5323 -1.4267 -0.9253
 6346SOL    HW230672   2.482   2.328  17.516  0.6400 -0.2334 -0.0585
 6347SOL     OW30673   0.146   1.452   7.651 -0.3871  0.0270 -0.0186
 6347SOL    HW130674   0.072   1.506   7.680 -0.8420 -1.1425  1.0122
 6347SOL    HW230675   0.217   1.495   7.697 -0.5571 -0.6104  0.8527
 6348SOL     OW30676   4.385   2.833   5.187  0.5087  0.3281  0.7024
 6348SOL    HW130677   4.293   2.842   5.213  0.5975 -1.6304  1.6656
 6348SOL    HW230678   4.398   2.915   5.139 -0.7767 -0.5373 -1.0731
 6349SOL     OW30679   4.012   0.568  10.127 -0.4725 -0.1404  0.2032
 6349SOL    HW130680   3.944   0.501  10.125 -2.3076  1.7129  0.1084
 6349SOL    HW230681   4.011   0.590  10.220  0.0374  0.5527  0.0446
 6350SOL     OW30682   0.658   4.682   3.947 -0.1118 -0.3334 -0.4787
 6350SOL    HW130683   0.748   4.682   3.979  0.4540  0.9836 -2.0438
 6350SOL    HW230684   0.665   4.655   3.855  1.0986 -0.6365 -0.2946
 6351SOL     OW30685   0.639   3.499   4.240 -0.1758  0.3598  1.1634
 6351SOL    HW130686   0.548   3.502   4.268  0.8759  1.0434  4.6119
 6351SOL    HW230687   0.683   3.483   4.324  2.4426 -0.4415 -0.3461
 6352SOL     OW30688   3.397   0.225   4.305 -0.3416 -0.0761 -0.8302
 6352SOL    HW130689   3.441   0.145   4.333 -2.7451 -1.1771 -0.2076
 6352SOL    HW230690   3.307   0.197   4.324  0.5265 -0.2944  2.9677
 6353SOL     OW30691   0.155   2.856   3.559 -0.1624  0.7696 -0.3937
 6353SOL    HW130692   0.131   2.765   3.541 -1.1917  1.3602 -2.0416
 6353SOL    HW230693   0.170   2.874   3.466 -2.3131  0.0812 -0.8650
 6354SOL     OW30694   1.764   2.288  10.135 -0.1661 -0.2418 -0.3633
 6354SOL    HW130695   1.831   2.222  10.153 -1.1492 -1.0579  0.2925
 6354SOL    HW230696   1.743   2.304  10.227 -1.2786 -0.0660 -0.6396
 6355SOL     OW30697   0.158   0.836   5.218  0.6418 -0.1583 -0.1760
 6355SOL    HW130698   0.106   0.766   5.180 -1.9439  1.5995  0.1282
 6355SOL    HW230699   0.096   0.867   5.284 -1.0393 -0.4185 -1.6380
 6356SOL     OW30700   4.421   3.148   6.699 -0.0879  0.4098  0.1051
 6356SOL    HW130701   4.474   3.080   6.741 -2.3642  0.1958  2.6423
 6356SOL    HW230702   4.386   3.087   6.634 -0.0086  1.7724 -1.1998
 6357SOL     OW30703   2.579   1.139   0.979 -0.0382  0.9666  0.3992
 6357SOL    HW130704   2.573   1.100   0.892  0.5712  0.2720  0.6658
 6357SOL    HW230705   2.496   1.108   1.014 -0.8944  2.9120  0.0570
 6358SOL     OW30706   2.841   3.652   8.690  0.2313  0.1365  0.5540
 6358SOL    HW130707   2.788   3.719   8.647 -0.9323 -0.1010  1.6156
 6358SOL    HW230708   2.908   3.700   8.739 -1.0290  0.0322  2.3859
 6359SOL     OW30709   1.535   3.367   8.863 -0.1332  0.0738 -0.1596
 6359SOL    HW130710   1.572   3.281   8.881 -0.7858 -0.1422  0.1486
 6359SOL    HW230711   1.616   3.419   8.868  1.0404 -1.7053 -0.6802
 6360SOL     OW30712   0.820   3.610  12.361  0.7886 -0.2596 -0.0250
 6360SOL    HW130713   0.808   3.530  12.413  3.3738 -0.2383  0.6071
 6360SOL    HW230714   0.733   3.648  12.364  1.2160  0.9083 -2.2550
 6361SOL     OW30715   3.838   0.138   6.853 -0.5890  0.1527 -0.5758
 6361SOL    HW130716   3.807   0.208   6.910  1.2184  0.4543  0.0177
 6361SOL    HW230717   3.759   0.084   6.854 -0.2916 -0.2265  1.1525
 6362SOL     OW30718   1.680   0.718   5.328 -0.1248 -0.4488 -0.0882
 6362SOL    HW130719   1.686   0.783   5.258 -0.1345 -0.5747 -0.2051
 6362SOL    HW230720   1.774   0.712   5.343 -0.1641  1.3441  0.9326
 6363SOL     OW30721   4.042   2.981   2.425 -0.2224  0.3751 -0.4515
 6363SOL    HW130722   4.091   2.905   2.454  0.7348  0.4807 -1.7996
 6363SOL    HW230723   3.954   2.944   2.417 -1.5700  3.2453  1.0093
 6364SOL     OW30724   2.964   4.434   4.971 -0.0225  0.4197  0.3703
 6364SOL    HW130725   3.000   4.465   5.054 -2.0722  0.8499  1.0953
 6364SOL    HW230726   2.985   4.340   4.975  0.4977  0.5658  1.1525
 6365SOL     OW30727   0.616   3.917   1.831  0.2952 -0.5076 -0.6645
 6365SOL    HW130728   0.663   3.834   1.836  1.2353  0.0218 -0.9599
 6365SOL    HW230729   0.680   3.972   1.787 -0.3879  2.4409  1.9837
 6366SOL     OW30730   0.170   0.769   7.037  0.0637 -0.2616 -0.1603
 6366SOL    HW130731   0.154   0.855   7.077 -2.4006 -0.4644 -0.7140
 6366SOL    HW230732   0.239   0.731   7.092 -1.6902  0.3601  2.4572
 6367SOL     OW30733   0.099   3.519   2.332  0.1104 -0.4173 -0.4188
 6367SOL    HW130734   0.008   3.497   2.310 -0.4281  0.9670  0.3859
 6367SOL    HW230735   0.126   3.428   2.335  2.0194  0.1967  0.8288
 6368SOL     OW30736   2.878   4.521   2.901  0.0669  0.2321 -0.3216
 6368SOL    HW130737   2.782   4.528   2.898  0.0815  1.4356  1.8999
 6368SOL    HW230738   2.909   4.579   2.832  1.0658 -2.0301 -1.7711
 6369SOL     OW30739   1.203   3.961  12.353  0.3802  0.1545 -0.0955
 6369SOL    HW130740   1.159   3.878  12.331  0.9032 -0.2777  0.4835
 6369SOL    HW230741   1.228   4.003  12.271 -0.1446 -1.4675 -1.1040
 6370SOL     OW30742   3.467   1.382   5.052  0.2418 -0.1972  0.5684
 6370SOL    HW130743   3.511   1.451   5.101  0.1043  0.8895 -0.8334
 6370SOL    HW230744   3.448   1.433   4.973  1.7913 -0.7383 -0.1393
 6371SOL     OW30745   3.312   3.878  14.553 -0.4311 -0.0320  0.0664
 6371SOL    HW130746   3.295   3.861  14.646 -2.0770  0.5599 -0.1342
 6371SOL    HW230747   3.253   3.946  14.521  0.7126  1.3291  0.8855
 6372SOL     OW30748   3.282   3.219   4.023 -0.1290  0.0653 -0.2946
 6372SOL    HW130749   3.207   3.174   3.984 -1.4831  0.9206  1.3291
 6372SOL    HW230750   3.252   3.197   4.111 -1.0148 -1.1968 -0.9066
 6373SOL     OW30751   1.958   4.443   3.363 -0.1320  0.1843 -0.1212
 6373SOL    HW130752   1.912   4.471   3.284  1.3031 -1.2928 -1.4666
 6373SOL    HW230753   1.888   4.392   3.405 -2.0933  1.9643 -1.1957
 6374SOL     OW30754   1.982   0.308   5.279  0.2591  0.1485 -0.1692
 6374SOL    HW130755   1.944   0.256   5.208 -3.4871  1.8193  0.6182
 6374SOL    HW230756   1.898   0.335   5.316  0.5977 -2.3027  2.4371
 6375SOL     OW30757   0.087   4.356  13.241  0.3859 -0.3985  0.0939
 6375SOL    HW130758   0.143   4.313  13.176 -1.9346 -1.6250 -1.0909
 6375SOL    HW230759   0.074   4.279  13.297 -0.2246 -1.5440 -1.6193
 6376SOL     OW30760   3.949   2.808   9.040 -0.0232  0.0637 -0.3266
 6376SOL    HW130761   3.945   2.904   9.040  1.3817  0.1129  3.1290
 6376SOL    HW230762   3.980   2.788   8.952  2.3790 -2.5736  1.1064
 6377SOL     OW30763   0.618   2.112   5.042 -0.4343 -0.9057 -0.5438
 6377SOL    HW130764   0.690   2.052   5.023  0.3504 -0.2607  0.3696
 6377SOL    HW230765   0.554   2.089   4.975 -0.5551 -3.6426  0.5287
 6378SOL     OW30766   2.632   4.500   6.358  0.8329 -0.6728 -0.5085
 6378SOL    HW130767   2.692   4.459   6.296  2.9040  0.5150  0.7456
 6378SOL    HW230768   2.699   4.534   6.417  0.5324 -0.8782 -0.0462
 6379SOL     OW30769   3.149   1.700   6.359  0.2016 -0.0560  0.2002
 6379SOL    HW130770   3.117   1.616   6.326  1.5111  0.0225 -1.2741
 6379SOL    HW230771   3.104   1.769   6.309 -0.2399 -1.1646 -0.9357
 6380SOL     OW30772   4.480   3.437   8.693  0.6079 -0.5456 -0.4725
 6380SOL    HW130773   4.477   3.499   8.621 -0.9495  0.3238  0.3368
 6380SOL    HW230774   4.512   3.359   8.647  1.4980  2.0984 -4.3478
 6381SOL     OW30775   4.200   1.946   9.040 -0.2818  0.8887 -0.0792
 6381SOL    HW130776   4.133   1.884   9.010 -0.0194  0.2038  0.7300
 6381SOL    HW230777   4.139   2.000   9.091 -0.6001  0.7468 -0.3076
 6382SOL     OW30778   2.412   1.686   4.711  0.2648 -0.1072 -0.8915
 6382SOL    HW130779   2.370   1.750   4.768  2.3737  1.6741 -1.3480
 6382SOL    HW230780   2.332   1.660   4.664  0.0977  0.0938 -0.7172
 6383SOL     OW30781   1.975   2.497   4.291  0.4394  0.1266 -0.3347
 6383SOL    HW130782   2.046   2.460   4.343 -1.5013 -0.9516  1.5320
 6383SOL    HW230783   1.991   2.447   4.211  0.0770 -0.7523  0.1398
 6384SOL     OW30784   0.872   2.023   4.715 -0.1952  0.3210 -0.7890
 6384SOL    HW130785   0.861   2.044   4.622  3.4214 -1.3394 -1.6114
 6384SOL    HW230786   0.825   1.940   4.719  0.5378 -0.0162  0.7707
 6385SOL     OW30787   4.695   3.325   3.286 -0.2180 -0.3057 -0.0733
 6385SOL    HW130788   0.002   3.362   3.207 -1.7584  2.2352  0.3160
 6385SOL    HW230789   4.657   3.404   3.326 -1.9825 -1.6185  0.8348
 6386SOL     OW30790   3.455   1.427  11.657  0.0520 -0.5730 -0.2728
 6386SOL    HW130791   3.460   1.356  11.593 -0.0125 -0.1597 -0.7286
 6386SOL    HW230792   3.517   1.398  11.725 -0.7558 -2.1513 -0.1930
 6387SOL     OW30793   1.924   2.685   6.858  0.4669 -0.2420  0.4052
 6387SOL    HW130794   1.985   2.614   6.880  1.4913 -0.1352 -1.9725
 6387SOL    HW230795   1.943   2.692   6.764 -1.1166 -0.2028  0.0882
 6388SOL     OW30796   2.089   3.262   8.203  0.7088 -0.4611  0.3809
 6388SOL    HW130797   2.103   3.355   8.219 -1.7236 -0.1830  0.9790
 6388SOL    HW230798   2.118   3.261   8.112  1.3816 -0.1568  0.5931
 6389SOL     OW30799   2.832   4.062   0.197  0.1930  0.1019  0.0548
 6389SOL    HW130800   2.799   3.992   0.253  0.3142 -0.6091 -0.7588
 6389SOL    HW230801   2.812   4.135   0.254  0.8686 -0.4586  1.0141
 6390SOL     OW30802   1.001   1.962   3.291  0.4121  0.0535  0.7191
 6390SOL    HW130803   1.055   1.905   3.345 -0.0362 -1.0354  0.0089
 6390SOL    HW230804   1.062   1.999   3.227 -0.4523 -0.1139 -0.1993
 6391SOL     OW30805   3.771   2.662   8.731 -0.1781  0.3692 -0.3016
 6391SOL    HW130806   3.850   2.699   8.769  0.0132  0.1238 -0.4648
 6391SOL    HW230807   3.799   2.585   8.681  1.7600  1.6910 -1.2214
 6392SOL     OW30808   3.495   3.511  15.933 -0.0610 -0.1909 -0.4686
 6392SOL    HW130809   3.581   3.499  15.894 -0.2224  1.2164 -1.2250
 6392SOL    HW230810   3.443   3.532  15.856  0.1070  0.5694 -0.3661
 6393SOL     OW30811   1.057   3.520  16.435 -0.3039 -0.3241 -0.1054
 6393SOL    HW130812   1.044   3.610  16.403 -0.2073 -0.1715  0.2778
 6393SOL    HW230813   1.131   3.490  16.384 -0.1727 -2.6002  1.4104
 6394SOL     OW30814   3.407   1.732   7.199  0.1015  0.1924  0.3637
 6394SOL    HW130815   3.453   1.758   7.279 -1.3977  0.0970  1.2593
 6394SOL    HW230816   3.479   1.745   7.138  0.7851  0.6002  1.2579
 6395SOL     OW30817   3.691   0.932  16.371 -0.2188 -0.0164  0.0230
 6395SOL    HW130818   3.744   0.857  16.346  0.0045  0.0883  0.1800
 6395SOL    HW230819   3.617   0.911  16.314 -0.1288  1.2749 -0.5511
 6396SOL     OW30820   2.377   3.747   5.679 -0.0780  0.7038 -0.2090
 6396SOL    HW130821   2.431   3.673   5.651 -2.4393 -2.2175  2.9391
 6396SOL    HW230822   2.387   3.736   5.774 -0.4321 -2.1589 -0.5219
 6397SOL     OW30823   3.132   0.743   0.724  0.5694  0.1657 -0.5465
 6397SOL    HW130824   3.133   0.837   0.709  0.0082  0.3503  0.6563
 6397SOL    HW230825   3.040   0.720   0.710  0.2510  1.5491 -0.6375
 6398SOL     OW30826   3.746   2.816  10.194  0.6258 -0.3453  0.1113
 6398SOL    HW130827   3.668   2.850  10.152  1.2896 -0.5889 -1.3077
 6398SOL    HW230828   3.716   2.736  10.238  2.2604 -1.4989 -0.8817
 6399SOL     OW30829   3.206   2.281  17.643 -0.2273  0.0432 -0.1903
 6399SOL    HW130830   3.208   2.313   0.003 -2.7610  0.1010 -0.1633
 6399SOL    HW230831   3.294   2.289  17.605 -0.0582 -0.5438  0.0734
 6400SOL     OW30832   4.211   4.301   1.563  0.0388  0.0348 -0.4498
 6400SOL    HW130833   4.302   4.302   1.532 -0.3718  2.0021 -1.5684
 6400SOL    HW230834   4.189   4.391   1.541  1.2396  0.5135  0.3434
 6401SOL     OW30835   2.347   1.768   8.561  0.3507 -0.3827 -0.9723
 6401SOL    HW130836   2.433   1.808   8.550 -0.1794  1.1968  0.6708
 6401SOL    HW230837   2.356   1.678   8.528  1.4404 -1.2387  1.6865
 6402SOL     OW30838   2.137   4.142  13.443  0.0467  0.4662  0.0504
 6402SOL    HW130839   2.079   4.160  13.368  1.7774 -0.5071 -1.5354
 6402SOL    HW230840   2.132   4.219  13.498 -2.4701  0.5033 -0.2414
 6403SOL     OW30841   0.813   2.643   3.650  0.1392  0.2553  0.4296
 6403SOL    HW130842   0.768   2.561   3.670  0.8588 -0.1056  0.5663
 6403SOL    HW230843   0.902   2.641   3.685 -0.5365 -1.6705  2.0414
 6404SOL     OW30844   1.182   1.914   9.110  0.3173  0.1557  0.5774
 6404SOL    HW130845   1.202   1.972   9.183  1.6792 -0.3357  0.5897
 6404SOL    HW230846   1.219   1.974   9.045  2.1205  0.5252  1.9758
 6405SOL     OW30847   0.363   0.300   9.396  0.4446 -0.4747 -0.5794
 6405SOL    HW130848   0.457   0.291   9.415  0.3106  1.1460  0.8643
 6405SOL    HW230849   0.337   0.209   9.388 -1.7801 -0.1382  2.6215
 6406SOL     OW30850   0.392   1.764   9.681 -0.3555  0.2985 -0.2908
 6406SOL    HW130851   0.308   1.738   9.642 -0.2444  1.0998 -1.0642
 6406SOL    HW230852   0.464   1.751   9.620 -1.9032 -0.3497 -2.0022
 6407SOL     OW30853   3.125   0.382   7.835  0.2643  0.2134  0.1182
 6407SOL    HW130854   3.203   0.327   7.842  1.3385  1.3530 -2.6292
 6407SOL    HW230855   3.070   0.325   7.781 -0.7050  0.4473  0.8596
 6408SOL     OW30856   0.405   0.566   2.746 -0.7411  0.5811 -0.2528
 6408SOL    HW130857   0.416   0.543   2.838  2.4235  1.6588 -0.3610
 6408SOL    HW230858   0.415   0.477   2.710 -2.0331  1.7217 -3.4874
 6409SOL     OW30859   1.962   3.760   4.972 -0.0533  0.2096 -0.4760
 6409SOL    HW130860   1.968   3.830   4.908 -0.4235  0.2634 -0.4527
 6409SOL    HW230861   1.995   3.803   5.051  0.2801  0.9841 -1.0424
 6410SOL     OW30862   0.968   2.724   5.832  0.0775  0.6225  0.1127
 6410SOL    HW130863   0.989   2.798   5.774  2.0328 -1.3164 -1.6079
 6410SOL    HW230864   0.877   2.743   5.855 -0.3815 -0.5308 -0.7948
 6411SOL     OW30865   4.111   2.141  15.355 -0.0606  0.2250  0.2672
 6411SOL    HW130866   4.022   2.175  15.357 -0.3212 -0.4600  0.5081
 6411SOL    HW230867   4.119   2.087  15.434  0.0632 -1.8339 -1.1731
 6412SOL     OW30868   1.213   3.628  13.455  0.1178 -0.7955 -0.0037
 6412SOL    HW130869   1.270   3.652  13.528  5.2033 -3.0210 -3.2204
 6412SOL    HW230870   1.165   3.710  13.444  0.6822 -0.4422  0.1720
 6413SOL     OW30871   2.407   4.708   1.385 -0.4921  0.1575  0.1243
 6413SOL    HW130872   2.476   0.027   1.425  0.5636  0.4512 -2.0559
 6413SOL    HW230873   2.425   4.620   1.419  1.0276  0.0703 -0.8861
 6414SOL     OW30874   4.642   0.406   6.738  0.0203 -0.0978 -0.2705
 6414SOL    HW130875   4.592   0.329   6.764  1.6190 -1.1737 -0.3837
 6414SOL    HW230876   4.654   0.455   6.819  1.6161 -3.5228  1.5692
 6415SOL     OW30877   1.158   4.370   5.908 -0.6118  0.0738 -0.1029
 6415SOL    HW130878   1.144   4.335   5.820  0.1058  0.4386 -0.3582
 6415SOL    HW230879   1.070   4.360   5.945 -0.2720  3.1764  1.5296
 6416SOL     OW30880   2.144   0.833  13.228 -0.1817 -0.1380  0.1107
 6416SOL    HW130881   2.121   0.797  13.314  1.6321 -0.4606  0.4648
 6416SOL    HW230882   2.138   0.928  13.238  2.7179  0.1049 -0.3501
 6417SOL     OW30883   2.115   4.056   2.233  0.2904 -0.0125 -0.5374
 6417SOL    HW130884   2.115   4.122   2.302  0.0400 -2.3038  1.6508
 6417SOL    HW230885   2.139   4.104   2.153  2.0308  1.2548  0.7428
 6418SOL     OW30886   2.105   0.339  12.328  0.8270 -0.4847  0.0259
 6418SOL    HW130887   2.084   0.408  12.264  1.1437 -1.8384 -1.5221
 6418SOL    HW230888   2.049   0.364  12.402 -1.3781  1.8910 -2.4559
 6419SOL     OW30889   2.880   1.317   2.013  0.4900  0.0658 -0.3096
 6419SOL    HW130890   2.877   1.412   2.003  0.4084 -0.0283 -1.2592
 6419SOL    HW230891   2.960   1.303   2.064  0.6882 -0.2968 -0.7122
 6420SOL     OW30892   2.114   3.816   5.215  0.2429  0.1420  0.3136
 6420SOL    HW130893   2.096   3.722   5.219  1.5093 -0.0099  2.6394
 6420SOL    HW230894   2.179   3.827   5.285 -1.4765  1.2313  1.7329
 6421SOL     OW30895   2.815   4.628   3.377 -0.2992 -0.0259 -0.5585
 6421SOL    HW130896   2.736   4.578   3.358  0.1475 -0.8863 -0.1448
 6421SOL    HW230897   2.858   4.629   3.291  0.1180  0.7168 -0.3389
 6422SOL     OW30898   0.219   4.273   7.615  0.3527 -0.3121 -0.2642
 6422SOL    HW130899   0.224   4.211   7.688  0.3281 -0.0241 -0.0201
 6422SOL    HW230900   0.145   4.325   7.646  1.0836 -0.7623  2.2946
 6423SOL     OW30901   2.122   3.552  16.100  0.4176 -0.4334  0.2205
 6423SOL    HW130902   2.034   3.575  16.070  0.8827  1.2859  0.1919
 6423SOL    HW230903   2.165   3.514  16.024  3.1785  3.5944 -0.1858
 6424SOL     OW30904   0.812   3.403   3.258 -0.1578 -0.2545  0.3930
 6424SOL    HW130905   0.739   3.398   3.321  0.1116 -0.2442  0.7076
 6424SOL    HW230906   0.793   3.329   3.200  1.0677  0.5983 -1.1023
 6425SOL     OW30907   4.551   1.224   3.497 -0.2042 -0.3117  0.1306
 6425SOL    HW130908   4.465   1.261   3.478  0.0932  0.4313  0.2273
 6425SOL    HW230909   4.522   1.178   3.576  1.3328  1.2899  1.6659
 6426SOL     OW30910   4.317   0.805   7.833  0.2459  0.1255  0.3140
 6426SOL    HW130911   4.407   0.795   7.803 -0.3220 -1.4141 -0.8865
 6426SOL    HW230912   4.275   0.870   7.776 -0.9159 -1.2350 -0.4050
 6427SOL     OW30913   1.244   3.478   6.396  0.0377  0.9111  0.1378
 6427SOL    HW130914   1.301   3.540   6.442 -1.1099  0.8556  1.6232
 6427SOL    HW230915   1.164   3.486   6.448  0.7460 -0.3857  1.4220
 6428SOL     OW30916   0.130   0.843  16.636  0.2190 -0.2699 -0.1628
 6428SOL    HW130917   0.221   0.833  16.666  0.5512  1.3302 -0.6889
 6428SOL    HW230918   0.147   0.908  16.568  1.1484  2.3792  2.6187
 6429SOL     OW30919   0.990   3.872  11.599  0.2192 -0.1238 -0.2632
 6429SOL    HW130920   0.975   3.955  11.555  1.8571  1.8814  2.9040
 6429SOL    HW230921   0.908   3.862  11.647 -0.4541  0.0175 -1.4167
 6430SOL     OW30922   4.678   3.562  11.930  0.0887 -0.1482  0.0449
 6430SOL    HW130923   4.599   3.509  11.933  0.6718 -1.0003  0.2750
 6430SOL    HW230924   4.688   3.574  11.836  0.7146  1.5812  0.3279
 6431SOL     OW30925   3.004   3.346   9.388  0.0042 -0.4220  0.2150
 6431SOL    HW130926   2.922   3.354   9.340 -0.2932  1.0794  0.9851
 6431SOL    HW230927   2.972   3.292   9.460  0.5291 -0.4757  0.4135
 6432SOL     OW30928   3.738   1.073   4.838 -0.4734  0.3423 -0.1077
 6432SOL    HW130929   3.646   1.089   4.859 -0.5781 -1.0562  0.4656
 6432SOL    HW230930   3.737   1.116   4.752 -3.1562  0.1188 -0.2106
 6433SOL     OW30931   0.604   0.982   7.119 -0.3057  0.5120  0.0948
 6433SOL    HW130932   0.523   0.973   7.069 -0.4968 -1.4773  0.7809
 6433SOL    HW230933   0.680   0.974   7.062 -0.6645  0.1992 -0.3336
 6434SOL     OW30934   2.483   2.386   0.410  0.1912 -0.5285  0.2967
 6434SOL    HW130935   2.505   2.303   0.453  0.1278  0.2770  1.8730
 6434SOL    HW230936   2.481   2.447   0.483  2.4781  0.2794 -0.3090
 6435SOL     OW30937   2.312   3.149  13.629  0.4037  0.0536 -0.6831
 6435SOL    HW130938   2.389   3.141  13.685 -1.2054  1.4227  1.7380
 6435SOL    HW230939   2.317   3.067  13.581  0.2420  0.2245 -0.9881
 6436SOL     OW30940   0.483   3.713   6.659  0.8662 -0.3542  0.4116
 6436SOL    HW130941   0.406   3.728   6.714  0.6241 -1.3453  0.3488
 6436SOL    HW230942   0.454   3.626   6.630 -1.3615  0.4196  0.2689
 6437SOL     OW30943   4.119   0.363   8.544  0.3118 -0.2855 -0.4210
 6437SOL    HW130944   4.051   0.310   8.587  0.6008 -1.1648 -1.0508
 6437SOL    HW230945   4.194   0.304   8.546 -0.1661 -0.9252 -1.3721
 6438SOL     OW30946   0.790   3.232   6.154 -0.2307 -0.7102  0.0122
 6438SOL    HW130947   0.782   3.142   6.120 -2.4948 -1.2021  1.8550
 6438SOL    HW230948   0.707   3.228   6.201 -0.3315 -0.4658 -0.1468
 6439SOL     OW30949   2.801   4.682   2.347 -0.6535  0.6875 -0.3796
 6439SOL    HW130950   2.842   4.619   2.288 -0.8289 -1.3408  1.6364
 6439SOL    HW230951   2.761   4.620   2.408 -1.5280  0.1066 -1.5402
 6440SOL     OW30952   1.260   1.435   1.466 -0.7030  0.3849  0.4575
 6440SOL    HW130953   1.236   1.374   1.396  1.2743 -1.3812  1.3324
 6440SOL    HW230954   1.250   1.522   1.427  3.4929 -0.2781 -2.0699
 6441SOL     OW30955   2.881   0.182   3.168 -0.2871 -0.6285 -0.1838
 6441SOL    HW130956   2.913   0.093   3.154 -0.6413 -0.9225  0.8364
 6441SOL    HW230957   2.789   0.164   3.148 -0.6739 -0.1076  1.1587
 6442SOL     OW30958   4.463   1.023  12.961  0.0704  0.0704  0.3313
 6442SOL    HW130959   4.551   1.055  12.979 -0.3198  1.1544  0.3160
 6442SOL    HW230960   4.453   1.032  12.866  3.1319 -0.7760 -0.0654
 6443SOL     OW30961   4.242   4.623  17.397  0.2268  0.0840 -0.1584
 6443SOL    HW130962   4.149   4.601  17.384 -0.0094  0.7049  0.5152
 6443SOL    HW230963   4.273   4.551  17.341  0.8708  0.4246 -0.2376
 6444SOL     OW30964   4.636   0.662   8.299  0.3927 -0.3821 -0.4606
 6444SOL    HW130965   4.582   0.730   8.258 -2.4282 -2.0756  0.3832
 6444SOL    HW230966   4.668   0.689   8.385 -0.8911 -0.1429 -0.0507
 6445SOL     OW30967   0.687   2.789   8.534 -0.5852  0.6972 -0.0139
 6445SOL    HW130968   0.622   2.833   8.479 -1.6091 -0.5587  0.2011
 6445SOL    HW230969   0.707   2.857   8.599 -2.2906 -0.0976  1.3402
 6446SOL     OW30970   1.012   0.552  11.167 -0.2997  0.3187  0.4222
 6446SOL    HW130971   1.080   0.556  11.233  0.8449 -3.7230 -0.4871
 6446SOL    HW230972   0.974   0.465  11.184  0.9534 -0.5283 -1.0685
 6447SOL     OW30973   1.065   2.797  17.539  0.1423  0.2879 -0.2208
 6447SOL    HW130974   1.035   2.816  17.628 -1.0060 -2.0728 -0.1105
 6447SOL    HW230975   0.987   2.808  17.485 -0.5726 -2.0634  0.3502
 6448SOL     OW30976   0.592   2.268   6.628  0.1212 -0.5438  0.0414
 6448SOL    HW130977   0.549   2.333   6.572 -2.5626 -3.0778 -0.8146
 6448SOL    HW230978   0.681   2.278   6.593 -0.5642  1.2437 -1.2226
 6449SOL     OW30979   2.258   1.400   8.352 -0.6354  0.5258 -0.0560
 6449SOL    HW130980   2.215   1.316   8.336 -0.5025  0.0711  1.9467
 6449SOL    HW230981   2.186   1.463   8.352 -0.7930  0.3489  1.8747
 6450SOL     OW30982   0.595   2.849  11.917 -0.8461  0.3235  0.1672
 6450SOL    HW130983   0.612   2.896  11.999 -3.1085  0.6689  0.4257
 6450SOL    HW230984   0.523   2.894  11.873 -0.4334  1.3291  0.5021
 6451SOL     OW30985   1.858   2.130   7.090  0.3768 -0.2872  0.4331
 6451SOL    HW130986   1.825   2.158   7.175  0.9599 -1.8989  1.1844
 6451SOL    HW230987   1.785   2.073   7.065 -1.0606  1.5771  0.3715
 6452SOL     OW30988   2.526   2.297  15.745 -0.1801 -0.2374 -0.1011
 6452SOL    HW130989   2.542   2.212  15.705  1.8190 -0.6081  1.4737
 6452SOL    HW230990   2.433   2.304  15.725 -0.7543 -0.5823  2.4728
 6453SOL     OW30991   1.493   0.249  10.314  0.3519  0.4685 -0.3931
 6453SOL    HW130992   1.411   0.215  10.278  0.0454  1.6081 -0.7689
 6453SOL    HW230993   1.516   0.171  10.365  0.8680 -1.0464 -2.9281
 6454SOL     OW30994   4.710   3.365  14.631 -0.3365 -0.4232 -0.5756
 6454SOL    HW130995   4.731   3.416  14.709 -0.8445 -0.4371 -0.4302
 6454SOL    HW230996   4.621   3.394  14.613 -0.4467  0.4876  1.3859
 6455SOL     OW30997   2.695   4.076   2.525 -0.5047  0.3428  0.3864
 6455SOL    HW130998   2.775   4.080   2.577 -0.5521 -1.5773  0.6196
 6455SOL    HW230999   2.695   4.158   2.477 -1.9583  0.1822  0.0983
 6456SOL     OW31000   1.793   4.297   3.966 -0.3095 -0.4721 -0.0322
 6456SOL    HW131001   1.778   4.359   4.037  0.1784  2.1136 -2.1722
 6456SOL    HW231002   1.784   4.208   4.001 -1.3500  0.0643  1.0673
 6457SOL     OW31003   0.698   4.152   8.202  0.3417  0.5308 -0.3308
 6457SOL    HW131004   0.628   4.113   8.254  0.6779  1.0567  0.5181
 6457SOL    HW231005   0.671   4.244   8.202 -1.5066 -0.0042 -2.0897
 6458SOL     OW31006   0.920   2.842   9.375 -0.5998  0.3486 -0.5806
 6458SOL    HW131007   0.978   2.886   9.438  1.0160 -5.2464  1.8648
 6458SOL    HW231008   0.931   2.753   9.408 -1.4439  0.7018  0.6598
 6459SOL     OW31009   1.321   3.967   6.482  0.1703  0.0388  0.0350
 6459SOL    HW131010   1.246   3.925   6.526  0.7679 -0.8644  0.1898
 6459SOL    HW231011   1.343   4.046   6.531 -2.7024  2.7389 -2.9942
 6460SOL     OW31012   4.719   2.767   5.821 -0.5226 -0.0154 -0.2513
 6460SOL    HW131013   4.711   2.780   5.916  1.9638  3.1500 -0.4589
 6460SOL    HW231014   0.060   2.824   5.799  0.2659  0.0007  2.4499
 6461SOL     OW31015   1.328   4.265   6.635 -0.4825  0.5163 -0.7073
 6461SOL    HW131016   1.245   4.289   6.675 -0.7503  0.4576 -1.2302
 6461SOL    HW231017   1.314   4.301   6.548 -1.7672  1.1817 -0.2179
 6462SOL     OW31018   3.786   2.085   6.309 -0.5935 -0.1714  0.0201
 6462SOL    HW131019   3.714   2.130   6.353 -1.4352 -2.1529  0.6617
 6462SOL    HW231020   3.815   2.140   6.237  0.1258  0.1341  0.5389
 6463SOL     OW31021   0.958   1.326   5.478 -0.6925 -0.3316  0.3014
 6463SOL    HW131022   0.940   1.412   5.441 -1.4806 -1.4238 -1.8061
 6463SOL    HW231023   0.875   1.291   5.446  1.5145 -3.1374 -2.4060
 6464SOL     OW31024   2.052   3.067   2.491 -0.1130 -0.5491 -0.1199
 6464SOL    HW131025   2.024   2.985   2.452 -0.5139 -0.3685 -0.2114
 6464SOL    HW231026   2.148   3.061   2.489 -0.1744 -0.6617 -2.7345
 6465SOL     OW31027   2.319   3.708   8.914  0.0383  0.1742  0.5189
 6465SOL    HW131028   2.258   3.634   8.916 -0.5146  0.5640 -2.2010
 6465SOL    HW231029   2.359   3.699   8.827  1.7730 -2.0285  1.5120
 6466SOL     OW31030   2.358   3.683  13.701 -0.0885 -0.1179  0.1619
 6466SOL    HW131031   2.314   3.735  13.634  0.6860 -0.2451 -0.4441
 6466SOL    HW231032   2.429   3.651  13.646 -0.1091 -1.8779  1.1670
 6467SOL     OW31033   0.473   2.093   4.819  0.2670 -0.4262 -0.3851
 6467SOL    HW131034   0.464   2.082   4.724  1.7265  0.0343 -0.5878
 6467SOL    HW231035   0.482   2.188   4.820 -1.2139 -0.2795 -1.3018
 6468SOL     OW31036   2.379   0.262   4.671  0.1320  0.1266 -0.6545
 6468SOL    HW131037   2.293   0.284   4.706  1.3247  1.6860  1.2713
 6468SOL    HW231038   2.399   0.314   4.592 -1.0638  0.0579 -0.9986
 6469SOL     OW31039   2.246   3.849  10.122 -0.1269 -0.0343  0.3485
 6469SOL    HW131040   2.337   3.838  10.151  0.0509  1.2177  0.2750
 6469SOL    HW231041   2.229   3.935  10.162  0.5923  0.1287  0.3105
 6470SOL     OW31042   3.520   0.596   6.070  0.1814 -0.5836  0.0902
 6470SOL    HW131043   3.539   0.635   5.985 -1.5800  0.3319  0.1233
 6470SOL    HW231044   3.571   0.659   6.121 -0.3712 -0.2003  0.1593
 6471SOL     OW31045   3.257   3.830   2.820 -0.2064  0.0768 -0.0405
 6471SOL    HW131046   3.234   3.739   2.840  0.6006  0.0988  0.9811
 6471SOL    HW231047   3.292   3.862   2.904  2.8318 -1.1431 -0.8479
 6472SOL     OW31048   2.275   1.058  12.567  0.4889 -0.3840 -0.2565
 6472SOL    HW131049   2.358   1.105  12.572  1.1673 -1.9697  3.2567
 6472SOL    HW231050   2.266   1.054  12.471 -2.3562  0.9645 -0.0590
 6473SOL     OW31051   3.087   2.698   5.505 -0.4780 -0.1516 -0.0081
 6473SOL    HW131052   3.119   2.610   5.524 -0.0755  0.1401  0.6666
 6473SOL    HW231053   3.029   2.697   5.581  0.2051 -1.1858  0.5086
 6474SOL     OW31054   2.831   1.932  17.489 -0.0111  0.3011 -0.1111
 6474SOL    HW131055   2.795   1.991  17.422 -1.2327  0.1194  0.3760
 6474SOL    HW231056   2.803   1.841  17.476 -0.3711  0.4098 -0.1073
 6475SOL     OW31057   2.576   3.492   8.704  0.5978 -0.1839  0.1632
 6475SOL    HW131058   2.514   3.564   8.692 -1.4899 -2.2879 -1.5495
 6475SOL    HW231059   2.652   3.531   8.749  0.7740  1.8599 -1.8643
 6476SOL     OW31060   1.693   2.996  17.289 -0.1563  0.0441 -0.7428
 6476SOL    HW131061   1.736   3.079  17.306  1.8549 -1.2311  0.3493
 6476SOL    HW231062   1.766   2.945  17.255 -0.9061  0.4200 -2.9588
 6477SOL     OW31063   2.994   3.181   0.683 -0.6503  0.0066  0.1485
 6477SOL    HW131064   3.012   3.143   0.769  3.2464 -2.2003 -1.6426
 6477SOL    HW231065   2.903   3.210   0.691 -0.3498  0.9568  0.0688
 6478SOL     OW31066   1.291   3.910   1.971  0.5306 -0.4110  0.0691
 6478SOL    HW131067   1.324   3.951   2.051  0.8747  0.6527 -0.6204
 6478SOL    HW231068   1.235   3.840   2.006 -1.6388  0.7210 -1.1120
 6479SOL     OW31069   4.657   1.294   5.361  0.2417  0.4036  0.4046
 6479SOL    HW131070   4.601   1.264   5.288  0.3624 -1.9914  1.2822
 6479SOL    HW231071   0.012   1.272   5.331 -0.1589 -0.3991 -0.2074
 6480SOL     OW31072   3.382   0.118  14.680  0.1492  0.3793 -0.0200
 6480SOL    HW131073   3.434   0.068  14.743 -0.5350  0.4623  0.6171
 6480SOL    HW231074   3.322   0.155  14.745  1.4692  0.8143  0.9480
 6481SOL     OW31075   1.878   0.858   5.011  0.7327  0.6591  0.1267
 6481SOL    HW131076   1.960   0.894   5.045  0.1004  0.9543  1.3335
 6481SOL    HW231077   1.905   0.771   4.983  0.3536  1.0526 -1.4745
 6482SOL     OW31078   4.358   3.343  14.858  0.3355 -0.0884 -0.3630
 6482SOL    HW131079   4.393   3.259  14.826  0.4283 -0.4216  0.6122
 6482SOL    HW231080   4.424   3.375  14.919 -1.6364  0.3418  1.5236
 6483SOL     OW31081   1.485   0.156   3.997 -0.0464 -0.5323  0.0049
 6483SOL    HW131082   1.393   0.174   3.978  0.0171 -0.6532 -0.4236
 6483SOL    HW231083   1.492   0.178   4.090 -0.7493  0.1623 -0.1123
 6484SOL     OW31084   1.370   3.105   3.813  0.1814 -0.3614  0.1062
 6484SOL    HW131085   1.407   3.084   3.899 -0.1258 -0.3719  0.2353
 6484SOL    HW231086   1.368   3.198   3.789 -0.5480 -0.0503  1.3838
 6485SOL     OW31087   0.933   1.451  13.887 -0.2448 -0.0383 -0.0029
 6485SOL    HW131088   0.969   1.463  13.799 -0.2257 -0.1645 -0.0126
 6485SOL    HW231089   0.979   1.368  13.901  1.4420  0.8345 -0.3774
 6486SOL     OW31090   3.520   4.653   7.950  0.1875 -0.3305 -0.4096
 6486SOL    HW131091   3.489   4.621   7.865 -1.8608  1.9063 -0.5261
 6486SOL    HW231092   3.581   4.582   7.969 -1.3181 -0.9266  2.0379
 6487SOL     OW31093   0.407   3.031  11.814 -0.3444 -0.0579  0.2217
 6487SOL    HW131094   0.408   3.096  11.885 -1.4937 -2.0065  2.0597
 6487SOL    HW231095   0.376   3.097  11.752 -3.4968 -2.1902 -0.4748
 6488SOL     OW31096   4.361   3.932  11.405  0.1242  0.3939  0.3964
 6488SOL    HW131097   4.383   4.012  11.358  1.4323  1.3991  2.7198
 6488SOL    HW231098   4.424   3.931  11.476 -1.1431  1.1482  1.5213
 6489SOL     OW31099   2.250   1.444   2.375  0.2110 -0.2909  0.0587
 6489SOL    HW131100   2.338   1.406   2.375  0.4873  0.3579  0.3286
 6489SOL    HW231101   2.250   1.526   2.424  1.1335 -0.8061  0.8986
 6490SOL     OW31102   3.037   0.977   3.906 -0.0996  0.2221  0.1395
 6490SOL    HW131103   2.986   0.939   3.834  0.0550  0.3651 -0.0451
 6490SOL    HW231104   2.977   0.972   3.980 -1.5869 -0.8882 -1.1263
 6491SOL     OW31105   2.315   2.906   5.001  0.2733 -0.4432  0.4691
 6491SOL    HW131106   2.324   2.988   5.049 -0.6917 -0.0416 -0.0515
 6491SOL    HW231107   2.224   2.912   4.973  0.7663 -0.4003 -1.1465
 6492SOL     OW31108   2.141   2.787  10.046 -0.2991 -0.9041  0.1085
 6492SOL    HW131109   2.122   2.804  10.138 -1.6081  0.4026 -0.4035
 6492SOL    HW231110   2.071   2.724  10.033 -0.1335 -1.1534  0.4253
 6493SOL     OW31111   2.433   4.633   7.993  0.7696 -0.1581 -0.4771
 6493SOL    HW131112   2.352   4.606   7.949  0.4140  0.5805 -0.2734
 6493SOL    HW231113   2.480   4.682   7.925  1.1198 -1.3199 -1.0793
 6494SOL     OW31114   2.252   1.771   8.838 -0.1282  0.2986 -0.3374
 6494SOL    HW131115   2.304   1.785   8.760  2.5127 -3.2005  0.7749
 6494SOL    HW231116   2.179   1.831   8.821  1.2804  2.4935  1.3095
 6495SOL     OW31117   3.361   0.864   5.666 -0.1338  0.6887 -0.2076
 6495SOL    HW131118   3.320   0.946   5.639  0.3010  1.5336  1.7152
 6495SOL    HW231119   3.282   0.810   5.666 -0.6550  1.4519  1.4106
 6496SOL     OW31120   2.269   3.007   3.240  0.4728 -0.7984  0.1039
 6496SOL    HW131121   2.335   3.006   3.170 -2.5128  2.5686 -2.7170
 6496SOL    HW231122   2.222   2.927   3.214  2.1876 -1.5459 -0.7628
 6497SOL     OW31123   1.242   4.257   5.604  0.5790 -0.2294 -0.1401
 6497SOL    HW131124   1.261   4.346   5.573  0.6571  0.1587  1.0171
 6497SOL    HW231125   1.190   4.223   5.531  1.7286  0.1662 -1.1488
 6498SOL     OW31126   2.922   4.540   8.322  0.1754 -0.1600 -0.2745
 6498SOL    HW131127   2.911   4.457   8.368  0.9894 -0.3897 -0.4992
 6498SOL    HW231128   3.017   4.544   8.314  0.1957 -0.2241 -0.0441
 6499SOL     OW31129   0.693   3.044   5.166 -0.3136  0.3513 -0.6475
 6499SOL    HW131130   0.672   3.097   5.243  0.8501 -0.0720 -0.0294
 6499SOL    HW231131   0.608   3.009   5.140  0.0921 -0.0320 -1.4478
 6500SOL     OW31132   1.613   2.271   2.845  0.0746 -0.3305 -0.4099
 6500SOL    HW131133   1.595   2.250   2.754 -1.1984  3.2106 -0.9577
 6500SOL    HW231134   1.647   2.188   2.879 -1.3991 -1.6016 -2.1112
 6501SOL     OW31135   4.256   4.591   9.212  0.7488  0.3304 -0.0266
 6501SOL    HW131136   4.343   4.595   9.252  0.5993  3.0602  0.0243
 6501SOL    HW231137   4.266   4.654   9.142 -0.9139 -1.0867 -1.5478
 6502SOL     OW31138   2.566   1.466   8.821 -0.4010 -0.2823  0.1767
 6502SOL    HW131139   2.540   1.551   8.854  0.4825  0.5258 -1.1876
 6502SOL    HW231140   2.659   1.484   8.805 -0.7359  0.8754 -0.4718
 6503SOL     OW31141   2.375   2.424   2.006  0.0428 -0.0893 -0.2005
 6503SOL    HW131142   2.342   2.493   2.064  0.8610 -1.2145  1.6064
 6503SOL    HW231143   2.449   2.388   2.054  0.3998  1.1363  0.1707
 6504SOL     OW31144   4.306   1.815   6.287 -0.4769 -0.5334  0.1376
 6504SOL    HW131145   4.249   1.892   6.283  0.4287  0.1610  0.7130
 6504SOL    HW231146   4.366   1.827   6.361  1.4157  0.8611 -1.6262
 6505SOL     OW31147   4.026   4.513  11.653  0.6262  0.2283 -0.2884
 6505SOL    HW131148   3.975   4.545  11.579  0.3945  2.5722  0.8758
 6505SOL    HW231149   3.956   4.474  11.706  0.2729  3.7921  1.8694
 6506SOL     OW31150   2.470   0.653   5.032 -0.9306  0.1789 -0.2561
 6506SOL    HW131151   2.448   0.648   5.125  3.1969 -0.8362  0.6681
 6506SOL    HW231152   2.563   0.679   5.034 -1.2504  1.4866 -2.1781
 6507SOL     OW31153   1.798   1.194  11.727 -0.2634 -0.3390 -0.3423
 6507SOL    HW131154   1.781   1.273  11.778 -1.9652 -3.3669  3.7635
 6507SOL    HW231155   1.776   1.232  11.642 -0.7191 -0.8605 -0.4542
 6508SOL     OW31156   0.193   4.083   8.078 -0.1742  0.0544  0.3003
 6508SOL    HW131157   0.148   4.078   8.163  1.5858  0.9346  1.2916
 6508SOL    HW231158   0.206   3.991   8.054 -2.1354  0.4945 -2.3236
 6509SOL     OW31159   0.606   1.689  15.759  0.0681 -0.0891  0.4109
 6509SOL    HW131160   0.669   1.701  15.830  0.9001  0.3868 -0.4099
 6509SOL    HW231161   0.644   1.754  15.699  1.0451  1.9854  3.2516
 6510SOL     OW31162   0.437   0.079  10.097  0.7785  0.2164  0.1009
 6510SOL    HW131163   0.452   0.048  10.186  0.2515  1.0472  0.4728
 6510SOL    HW231164   0.392   0.006  10.055 -0.7614  0.8991  0.5720
 6511SOL     OW31165   3.282   0.457   2.911 -0.4236  0.2347 -0.1818
 6511SOL    HW131166   3.188   0.472   2.918 -0.6719 -1.0737 -0.7098
 6511SOL    HW231167   3.305   0.521   2.979 -1.9544  1.1432 -0.5265
 6512SOL     OW31168   2.601   1.464  16.810  0.1393 -0.1079 -0.1913
 6512SOL    HW131169   2.591   1.555  16.835 -0.7668  0.0051 -0.9432
 6512SOL    HW231170   2.511   1.434  16.793 -0.5362  2.0703 -0.3828
 6513SOL     OW31171   3.036   0.728   6.350  0.1725  0.2431 -0.0289
 6513SOL    HW131172   3.100   0.657   6.342  1.2247  1.0965  0.8165
 6513SOL    HW231173   3.084   0.772   6.419  0.7095  0.6878 -0.6850
 6514SOL     OW31174   3.438   2.067   2.103 -0.1947 -0.5515 -0.0948
 6514SOL    HW131175   3.497   2.038   2.173  0.6872  3.2524  0.7663
 6514SOL    HW231176   3.362   2.010   2.112  0.8978 -1.5483  3.1406
 6515SOL     OW31177   2.231   2.946   5.735 -0.7092  0.2305 -0.6373
 6515SOL    HW131178   2.173   2.995   5.793  0.1802  0.0890  0.3693
 6515SOL    HW231179   2.318   2.985   5.745 -0.1426 -0.6986 -1.8164
 6516SOL     OW31180   4.446   3.346   7.185  0.0278  0.4198  0.2015
 6516SOL    HW131181   4.538   3.327   7.168  0.3174  1.0040  1.1351
 6516SOL    HW231182   4.427   3.422   7.130 -0.9577  1.1147  1.5176
 6517SOL     OW31183   0.221   2.237   7.884 -0.2479  0.1970 -0.4054
 6517SOL    HW131184   0.171   2.229   7.803 -1.5687 -1.4796  0.5536
 6517SOL    HW231185   0.286   2.302   7.860 -1.8876  1.4695 -1.3446
 6518SOL     OW31186   1.516   2.083   3.149  0.6365  0.1920  0.0094
 6518SOL    HW131187   1.451   2.030   3.101 -1.0156 -0.1460  2.6190
 6518SOL    HW231188   1.469   2.120   3.224  0.8013 -1.3177  0.8438
 6519SOL     OW31189   1.449   2.216   3.856  0.2012  0.1810 -0.5544
 6519SOL    HW131190   1.499   2.158   3.913 -1.8498 -1.5224 -0.4763
 6519SOL    HW231191   1.398   2.150   3.809  1.1393 -0.2056 -1.0394
 6520SOL     OW31192   0.395   0.418   9.142 -0.0051 -0.3071 -0.5038
 6520SOL    HW131193   0.413   0.374   9.225  0.3824  1.3212  0.2659
 6520SOL    HW231194   0.378   0.343   9.085  0.1547  0.6278 -1.7678
 6521SOL     OW31195   4.558   1.806  17.706  0.2224  0.8025  0.1784
 6521SOL    HW131196   4.466   1.781  17.710  0.9262 -1.8385 -0.5208
 6521SOL    HW231197   4.585   1.765  17.624 -1.9936 -2.2034  0.9513
 6522SOL     OW31198   2.861   1.423   4.072  0.2183 -0.2864 -0.2141
 6522SOL    HW131199   2.795   1.492   4.067  0.0698 -0.5006 -1.2521
 6522SOL    HW231200   2.858   1.410   4.167  1.4936 -1.1907 -0.3039
 6523SOL     OW31201   4.283   3.265   7.391 -0.5155 -0.4761  0.2371
 6523SOL    HW131202   4.310   3.174   7.377  4.0623  0.2332  4.2756
 6523SOL    HW231203   4.352   3.309   7.342  1.2579 -2.9836  0.4450
 6524SOL     OW31204   0.463   2.226   1.936  0.7705  0.0288 -0.5231
 6524SOL    HW131205   0.448   2.216   2.030 -1.4188  1.0047 -0.7883
 6524SOL    HW231206   0.417   2.310   1.935  1.3172  0.3372  0.1324
 6525SOL     OW31207   4.027   4.029   1.987 -0.3446 -0.0320 -0.0300
 6525SOL    HW131208   4.041   4.107   2.041 -2.0125 -0.3545  0.8367
 6525SOL    HW231209   4.084   4.049   1.912  1.2751  2.0824  1.7590
 6526SOL     OW31210   3.460   1.354   4.279  0.1178 -0.1753 -0.5054
 6526SOL    HW131211   3.495   1.430   4.327 -2.9071  0.3821  0.8226
 6526SOL    HW231212   3.533   1.334   4.221  0.7338  1.4316 -0.3007
 6527SOL     OW31213   3.063   3.758  13.609  0.1619 -0.2336  0.4834
 6527SOL    HW131214   2.996   3.746  13.677 -1.0404  2.0996 -0.3089
 6527SOL    HW231215   3.086   3.673  13.571  2.3152  1.1025 -1.2192
 6528SOL     OW31216   4.400   4.420  16.665  0.1695  0.4106  0.7165
 6528SOL    HW131217   4.320   4.455  16.625  0.6410 -0.8082 -1.2772
 6528SOL    HW231218   4.456   4.497  16.655  2.8315 -1.4339  1.7223
 6529SOL     OW31219   3.276   0.589   0.943 -0.3964  0.4316  0.3946
 6529SOL    HW131220   3.362   0.612   0.907 -1.3364  2.0497 -0.8423
 6529SOL    HW231221   3.216   0.647   0.896  1.0552  0.2480 -1.6830
 6530SOL     OW31222   0.937   2.085  16.039 -0.1446  0.4903  0.0601
 6530SOL    HW131223   0.851   2.119  16.016 -0.0377  0.3822 -0.4997
 6530SOL    HW231224   0.945   2.028  15.962  1.8820  0.6876  0.1116
 6531SOL     OW31225   2.473   3.251  12.153  0.0955 -0.2823  0.1685
 6531SOL    HW131226   2.495   3.296  12.072 -0.3936 -2.4435 -1.1560
 6531SOL    HW231227   2.505   3.167  12.119 -0.5338  0.3671 -1.9996
 6532SOL     OW31228   1.405   3.641   4.572 -0.3407 -0.2670  0.1566
 6532SOL    HW131229   1.467   3.673   4.507 -0.7170  0.0925 -0.0300
 6532SOL    HW231230   1.426   3.701   4.644  3.7422 -1.3911 -0.1325
 6533SOL     OW31231   1.296   3.139  13.093 -0.2527 -0.3038  0.0035
 6533SOL    HW131232   1.366   3.108  13.036 -0.0775 -0.8405  0.5137
 6533SOL    HW231233   1.333   3.151  13.180  0.2633 -0.8016 -0.1425
 6534SOL     OW31234   2.620   0.451   3.463  0.1497  0.0872 -0.2884
 6534SOL    HW131235   2.691   0.511   3.487  0.3807 -0.9019  1.5262
 6534SOL    HW231236   2.620   0.382   3.529  2.0160 -2.2540 -2.7535
 6535SOL     OW31237   2.120   1.996  11.836  0.9207  0.3308 -0.1029
 6535SOL    HW131238   2.176   1.970  11.763  0.1742 -2.7469  0.4186
 6535SOL    HW231239   2.058   2.043  11.780 -0.3297  0.1156  1.0925
 6536SOL     OW31240   1.874   2.481   3.985 -0.1524  0.2397 -0.1278
 6536SOL    HW131241   1.927   2.561   3.985  1.2076 -0.6488  0.6937
 6536SOL    HW231242   1.802   2.508   4.042  0.6603 -1.1530  1.5571
 6537SOL     OW31243   4.009   1.330   9.660  0.2415 -0.4272 -0.4227
 6537SOL    HW131244   3.976   1.246   9.692 -1.5347  0.9242  1.3229
 6537SOL    HW231245   3.958   1.325   9.579 -0.1502  1.5382 -0.3055
 6538SOL     OW31246   0.779   3.827   9.126 -0.2030 -0.3297  0.3163
 6538SOL    HW131247   0.741   3.745   9.156  0.8300  0.3150  3.4465
 6538SOL    HW231248   0.854   3.842   9.184 -0.1848  0.5611  0.0703
 6539SOL     OW31249   0.543   1.096   6.603 -0.4178 -0.8379 -0.1711
 6539SOL    HW131250   0.598   1.173   6.589 -1.2856  0.1658  1.9967
 6539SOL    HW231251   0.506   1.103   6.690 -2.6840 -0.6119 -1.1499
 6540SOL     OW31252   3.246   3.980   1.978 -0.1561  0.1518  0.1077
 6540SOL    HW131253   3.295   4.061   1.990  0.3833 -0.4590  2.1891
 6540SOL    HW231254   3.279   3.931   2.054  1.2628  0.4656 -0.3050
 6541SOL     OW31255   0.762   1.218   3.118 -0.0435 -0.7875  0.9073
 6541SOL    HW131256   0.826   1.251   3.055  0.0306  0.3044  1.5629
 6541SOL    HW231257   0.818   1.198   3.193  0.3348  0.6156  0.9983
 6542SOL     OW31258   1.479   3.931   4.108  0.2918  0.3216  0.0104
 6542SOL    HW131259   1.523   3.846   4.111 -0.2055  0.0995  1.1516
 6542SOL    HW231260   1.433   3.929   4.192 -1.2955  0.6874 -0.8632
 6543SOL     OW31261   1.769   1.545   0.045 -0.6247 -0.0729  0.5084
 6543SOL    HW131262   1.838   1.484   0.073  0.9552  1.2713 -0.4081
 6543SOL    HW231263   1.740   1.572   0.132 -1.1188 -0.3061  0.4128
 6544SOL     OW31264   1.567   0.410   3.254 -0.1184  0.2057 -0.1650
 6544SOL    HW131265   1.613   0.390   3.336  1.6778 -2.1297 -1.7548
 6544SOL    HW231266   1.597   0.497   3.230  3.4738 -0.7442  0.9109
 6545SOL     OW31267   1.191   0.215   9.921  0.2029  0.5507 -0.3092
 6545SOL    HW131268   1.234   0.179   9.998  3.0075  1.0000 -1.6573
 6545SOL    HW231269   1.117   0.154   9.921 -1.4030  2.5116  0.3297
 6546SOL     OW31270   4.048   2.169   9.612 -0.7478  0.6137  0.0749
 6546SOL    HW131271   4.123   2.167   9.672 -0.3519  1.7307 -0.3797
 6546SOL    HW231272   4.006   2.090   9.645  3.1299 -1.4828  0.0593
 6547SOL     OW31273   1.896   0.828   5.976  0.1583 -0.5042  0.3988
 6547SOL    HW131274   1.874   0.735   5.974  2.3136 -0.9929 -0.6487
 6547SOL    HW231275   1.812   0.875   5.973 -0.4132 -1.5471  0.2433
 6548SOL     OW31276   1.421   1.931  12.412 -0.1658 -0.2266  0.2065
 6548SOL    HW131277   1.491   1.996  12.406 -1.0322  0.5242 -1.5731
 6548SOL    HW231278   1.409   1.892  12.325  1.7688  0.4726 -0.3850
 6549SOL     OW31279   1.729   0.156   0.291 -0.8026  0.5734  0.0462
 6549SOL    HW131280   1.733   0.156   0.387  0.5736  1.0054 -0.0138
 6549SOL    HW231281   1.703   0.067   0.265 -1.1606  0.9860 -0.9922
 6550SOL     OW31282   0.222   1.544   5.751  0.4333 -0.2557 -0.4086
 6550SOL    HW131283   0.206   1.450   5.743 -1.2718  0.1426 -1.6974
 6550SOL    HW231284   0.259   1.554   5.664 -0.0628  2.8488 -0.2792
 6551SOL     OW31285   0.393   1.079   3.710 -0.2497  0.9818  0.0417
 6551SOL    HW131286   0.480   1.105   3.679  1.7288 -0.5584  4.2911
 6551SOL    HW231287   0.364   1.060   3.620 -2.0554  0.5670  0.7150
 6552SOL     OW31288   0.584   0.771  14.427  0.1690 -0.2628  0.3905
 6552SOL    HW131289   0.533   0.852  14.421 -0.0829 -0.3668  1.0788
 6552SOL    HW231290   0.563   0.728  14.344 -0.7453 -1.0621  1.0376
 6553SOL     OW31291   0.641   4.276   5.734  0.3160 -0.2154 -0.3046
 6553SOL    HW131292   0.552   4.310   5.741  1.4083  1.8336  3.5311
 6553SOL    HW231293   0.645   4.203   5.795  0.9902  0.8894  0.9638
 6554SOL     OW31294   2.008   2.170  12.340  0.1969 -0.2477  0.0956
 6554SOL    HW131295   2.068   2.160  12.266 -1.0169 -0.7292 -0.8129
 6554SOL    HW231296   2.050   2.226  12.405 -0.8774 -0.5751  1.0638
 6555SOL     OW31297   4.479   2.453   9.658  0.4611  0.1117  0.7154
 6555SOL    HW131298   4.527   2.382   9.700  2.6487  1.3951  0.4247
 6555SOL    HW231299   4.489   2.517   9.729 -1.8503  1.0948  0.1568
 6556SOL     OW31300   0.674   3.822   7.209 -0.0004 -0.0596 -0.2210
 6556SOL    HW131301   0.749   3.809   7.150  0.4088 -0.6542  0.4233
 6556SOL    HW231302   0.687   3.914   7.229 -0.6199 -0.3437  1.4514
 6557SOL     OW31303   3.388   3.048  16.789  0.0062  0.2244 -0.7135
 6557SOL    HW131304   3.317   2.984  16.779 -0.0550 -0.2106  2.4161
 6557SOL    HW231305   3.425   3.062  16.702 -1.9765  1.6523 -1.3269
 6558SOL     OW31306   4.231   3.010   8.990  0.8019  0.5190  0.0314
 6558SOL    HW131307   4.322   3.039   8.997  1.9950 -2.5226 -2.6983
 6558SOL    HW231308   4.251   2.916   8.987 -0.3009  0.3212 -0.8426
 6559SOL     OW31309   3.811   2.993   7.627  0.7920  0.1467  0.3121
 6559SOL    HW131310   3.856   2.915   7.660 -1.0913 -0.9966  0.2196
 6559SOL    HW231311   3.783   3.024   7.714  3.1205  1.7696  0.4622
 6560SOL     OW31312   1.211   1.050   4.297  0.1176 -0.4483  0.7469
 6560SOL    HW131313   1.277   1.004   4.246 -0.5031  0.7191 -1.1332
 6560SOL    HW231314   1.124   1.012   4.286 -1.5350  3.6716 -0.6371
 6561SOL     OW31315   0.347   0.140   8.467 -0.1984  0.5083 -0.2856
 6561SOL    HW131316   0.386   0.064   8.425  0.2625 -0.8589  2.6423
 6561SOL    HW231317   0.293   0.089   8.527 -0.0368  1.4874  0.6876
 6562SOL     OW31318   0.861   1.698  13.992  0.0479 -0.4862 -0.3203
 6562SOL    HW131319   0.928   1.759  13.961  0.5454  0.1201  1.9048
 6562SOL    HW231320   0.889   1.613  13.959  0.2842 -1.8591  3.4717
 6563SOL     OW31321   1.795   0.207   6.540 -0.1335 -0.0211  0.4244
 6563SOL    HW131322   1.819   0.236   6.452 -3.4738  1.1000 -0.1139
 6563SOL    HW231323   1.713   0.161   6.527 -0.2924  0.6432 -0.9066
 6564SOL     OW31324   2.224   0.315   7.291  0.2625  0.1137 -0.6040
 6564SOL    HW131325   2.231   0.377   7.363 -2.3484 -0.8101  0.4624
 6564SOL    HW231326   2.131   0.324   7.270 -0.2866 -0.9866  1.3331
 6565SOL     OW31327   0.597   1.793   7.217 -0.7248  0.6969 -0.2091
 6565SOL    HW131328   0.522   1.788   7.276 -0.8491 -0.0335 -0.4232
 6565SOL    HW231329   0.646   1.869   7.250 -2.2687  0.8107  1.7855
 6566SOL     OW31330   1.575   4.701  13.624  0.1741 -0.3482  0.4747
 6566SOL    HW131331   1.660   4.716  13.666  0.2848  2.4851 -0.7512
 6566SOL    HW231332   1.589   4.614  13.586  0.1738 -0.4943  0.8094
 6567SOL     OW31333   3.240   3.405  13.236  0.1420  0.1072 -0.6045
 6567SOL    HW131334   3.253   3.310  13.230 -2.6018 -0.2953 -0.3177
 6567SOL    HW231335   3.178   3.402  13.309  1.1145  1.9344  0.2862
 6568SOL     OW31336   1.545   1.976   5.972  0.4152  0.0926  0.4610
 6568SOL    HW131337   1.580   1.964   5.884  1.4786  0.6212  0.8169
 6568SOL    HW231338   1.503   1.891   5.979 -1.8120  1.0924 -0.5434
 6569SOL     OW31339   1.090   1.314  17.717 -0.3366 -0.2468  0.6746
 6569SOL    HW131340   1.177   1.289   0.016 -0.1534  2.3627  2.2981
 6569SOL    HW231341   1.051   1.227  17.711 -0.3814 -0.2048  0.3429
 6570SOL     OW31342   0.296   1.641   2.592 -0.0433  0.1816  0.4484
 6570SOL    HW131343   0.267   1.716   2.643  0.9364  0.7259  0.1999
 6570SOL    HW231344   0.292   1.673   2.502 -0.7215  0.1186  0.4563
 6571SOL     OW31345   0.785   2.579   6.170 -0.0423  0.3841  0.3998
 6571SOL    HW131346   0.854   2.605   6.231 -0.7447 -0.6418  1.6217
 6571SOL    HW231347   0.848   2.529   6.117 -0.1835  2.1504 -1.4214
 6572SOL     OW31348   2.076   4.112   4.342  0.1977 -0.3310  0.5610
 6572SOL    HW131349   2.023   4.039   4.310  0.9430 -0.3813 -0.5422
 6572SOL    HW231350   2.032   4.187   4.303 -1.3341 -2.4115 -1.7492
 6573SOL     OW31351   2.347   0.081   3.786 -0.0922  0.8060 -0.8601
 6573SOL    HW131352   2.324   0.126   3.868 -1.8943  1.0345 -1.4788
 6573SOL    HW231353   2.281   0.011   3.787 -2.6061  3.1620  1.4967
 6574SOL     OW31354   3.930   1.939   4.363  0.1468 -0.5059  0.5035
 6574SOL    HW131355   3.926   2.022   4.316 -1.7514 -0.6768  0.3769
 6574SOL    HW231356   4.017   1.942   4.402 -0.5458  2.0760  1.8462
 6575SOL     OW31357   1.032   0.041   6.059  0.1674  0.4029  0.1932
 6575SOL    HW131358   1.082   4.719   6.120 -1.1244  0.0400  0.9260
 6575SOL    HW231359   1.099   0.058   5.993 -0.3802 -3.3605 -1.3326
 6576SOL     OW31360   0.973   2.882  17.065 -0.2905  0.2337 -0.1598
 6576SOL    HW131361   0.983   2.817  17.134  1.1508  0.4816 -0.1351
 6576SOL    HW231362   1.059   2.924  17.065 -0.7020  1.0758 -0.8608
 6577SOL     OW31363   1.894   1.675  14.207 -0.1082  0.0233 -0.1304
 6577SOL    HW131364   1.873   1.583  14.225  0.0741 -0.0288 -0.1774
 6577SOL    HW231365   1.982   1.668  14.169 -0.1375 -0.6821 -0.0784
 6578SOL     OW31366   0.794   4.076   1.288 -0.2008  0.3007 -0.0153
 6578SOL    HW131367   0.741   4.122   1.222 -0.2829  1.4539  0.8581
 6578SOL    HW231368   0.858   4.021   1.243 -1.2680 -1.4667  0.6225
 6579SOL     OW31369   0.416   2.274  15.380 -0.0201  0.0705  0.1515
 6579SOL    HW131370   0.336   2.311  15.342  1.1208 -1.2630 -3.5628
 6579SOL    HW231371   0.420   2.199  15.321 -0.2348  0.0540  0.1568
 6580SOL     OW31372   3.853   3.848   3.414  0.0217  0.4566 -0.7239
 6580SOL    HW131373   3.926   3.908   3.420  0.3420  0.0168 -0.2278
 6580SOL    HW231374   3.900   3.765   3.424 -1.9622 -0.8414 -2.1228
 6581SOL     OW31375   0.288   3.423  10.214  0.4196 -0.2819  0.2202
 6581SOL    HW131376   0.344   3.351  10.243  1.7255 -0.2754 -2.3590
 6581SOL    HW231377   0.211   3.414  10.271 -0.0165 -0.6539 -0.4318
 6582SOL     OW31378   1.339   0.280   8.738 -0.1666  0.5767  0.2793
 6582SOL    HW131379   1.373   0.250   8.654 -2.2232 -1.0538  0.0280
 6582SOL    HW231380   1.326   0.374   8.728  2.0797  0.9704  1.0888
 6583SOL     OW31381   4.632   2.779   4.803 -0.1567 -0.4082  0.1105
 6583SOL    HW131382   4.561   2.771   4.739  1.3005  0.3666 -1.6070
 6583SOL    HW231383   4.685   2.839   4.750 -0.0970 -1.0864 -0.5905
 6584SOL     OW31384   3.597   3.558   3.930 -0.0515 -0.4459  0.3376
 6584SOL    HW131385   3.538   3.494   3.891 -0.5287  1.3727 -1.9703
 6584SOL    HW231386   3.572   3.645   3.898 -1.2822 -0.0024  2.5370
 6585SOL     OW31387   1.545   2.027   2.651 -0.5514  0.0776  0.2529
 6585SOL    HW131388   1.457   1.990   2.644  1.6680 -4.6981 -2.0984
 6585SOL    HW231389   1.603   1.951   2.650 -0.8539 -0.1482 -0.3759
 6586SOL     OW31390   2.895   0.085   8.034  0.2629 -0.2471 -0.7048
 6586SOL    HW131391   2.990   0.097   8.038 -0.0654  2.7564 -1.7167
 6586SOL    HW231392   2.879   0.108   7.942  0.7710  1.4298 -0.3839
 6587SOL     OW31393   3.849   3.372  11.743 -0.0998 -0.1298 -0.6018
 6587SOL    HW131394   3.916   3.342  11.681 -0.5713 -5.2544  1.2976
 6587SOL    HW231395   3.774   3.351  11.687  0.2828 -2.2048 -0.3602
 6588SOL     OW31396   2.341   0.994   6.956 -0.0905 -0.3994  0.0846
 6588SOL    HW131397   2.375   1.063   6.899 -0.2909  0.0971  0.5629
 6588SOL    HW231398   2.336   1.038   7.041 -0.0832  2.9206 -1.6683
 6589SOL     OW31399   4.146   2.060  17.297  0.1575  0.3744  0.1849
 6589SOL    HW131400   4.103   2.136  17.255  2.4097  1.8731  0.5996
 6589SOL    HW231401   4.218   2.044  17.236 -1.1105  1.5488 -1.6564
 6590SOL     OW31402   2.561   2.159   4.788 -0.5432 -0.4435 -0.0118
 6590SOL    HW131403   2.539   2.235   4.842  2.2617  1.3758 -1.4538
 6590SOL    HW231404   2.546   2.086   4.848 -0.1695  1.2593  2.1637
 6591SOL     OW31405   0.659   4.560  16.530  0.5966  0.2402  0.4219
 6591SOL    HW131406   0.670   4.620  16.604 -0.2254  0.7130  0.1740
 6591SOL    HW231407   0.670   4.610  16.449 -1.1293  0.4482  0.3047
 6592SOL     OW31408   1.520   2.002   9.150 -0.1805 -0.4507 -0.1545
 6592SOL    HW131409   1.539   1.977   9.240  0.6754 -0.2580 -0.2736
 6592SOL    HW231410   1.449   2.065   9.158 -0.1919 -0.2522 -1.8146
 6593SOL     OW31411   2.305   1.304  14.715  0.0416  0.1284  0.1923
 6593SOL    HW131412   2.255   1.336  14.790 -1.0146 -1.1310  0.0363
 6593SOL    HW231413   2.235   1.294  14.650  0.5186 -1.1052 -0.1351
 6594SOL     OW31414   3.210   0.099   9.758 -0.3896 -0.1132  0.2390
 6594SOL    HW131415   3.236   0.009   9.738  0.7193  0.3758 -0.5428
 6594SOL    HW231416   3.125   0.107   9.714  1.1506 -0.0883 -2.7293
 6595SOL     OW31417   2.730   0.936  16.867  0.1160  0.0870  0.2770
 6595SOL    HW131418   2.769   0.920  16.781  0.7220 -0.8402  0.7254
 6595SOL    HW231419   2.769   1.021  16.889  2.0423 -0.4574 -1.0341
 6596SOL     OW31420   4.008   2.398   2.007 -0.0324  0.0529  0.3210
 6596SOL    HW131421   3.978   2.475   2.055 -2.2389 -0.9155  0.5027
 6596SOL    HW231422   4.038   2.344   2.080  0.4023 -1.3914 -0.9328
 6597SOL     OW31423   4.624   3.233   9.846  0.5432  0.2107  0.1605
 6597SOL    HW131424   4.571   3.239   9.767  0.3277  0.4858  0.3237
 6597SOL    HW231425   4.556   3.221   9.912  0.5356  1.5765  0.4069
 6598SOL     OW31426   3.757   2.338   9.063  0.2144 -0.0814  0.1463
 6598SOL    HW131427   3.812   2.302   9.132 -1.3290  1.1365  2.0045
 6598SOL    HW231428   3.758   2.432   9.084 -1.1317 -0.3422  1.3748
 6599SOL     OW31429   4.031   4.629   3.593 -0.5188 -0.1676  0.6551
 6599SOL    HW131430   4.056   4.693   3.659  1.4885 -0.2563  0.0080
 6599SOL    HW231431   3.961   4.677   3.550 -0.5428 -2.5147 -1.9550
 6600SOL     OW31432   3.408   0.141   2.785  0.3067  0.5097 -0.5688
 6600SOL    HW131433   3.377   0.077   2.849 -2.2737  2.4848  0.1522
 6600SOL    HW231434   3.437   0.219   2.834  0.9797 -2.5908  3.9813
 6601SOL     OW31435   2.519   1.101   7.661 -0.1443 -0.2136 -0.3431
 6601SOL    HW131436   2.572   1.079   7.737  0.2415  0.8758 -0.2934
 6601SOL    HW231437   2.553   1.035   7.601 -0.2632 -1.5614  1.0762
 6602SOL     OW31438   1.122   3.044   3.518  0.6686 -0.1452 -0.2477
 6602SOL    HW131439   1.097   3.118   3.462 -0.2993 -1.1592 -1.1319
 6602SOL    HW231440   1.065   3.067   3.592 -0.0168 -0.4433 -0.6897
 6603SOL     OW31441   2.949   4.237  12.928 -0.1777 -0.6002 -0.4207
 6603SOL    HW131442   2.938   4.178  13.003 -0.5568 -0.1960 -0.1609
 6603SOL    HW231443   2.867   4.221  12.881 -0.4241 -0.8784  0.1054
 6604SOL     OW31444   4.136   0.453   5.818 -0.0700 -0.5055  0.4922
 6604SOL    HW131445   4.110   0.446   5.910  1.7418 -0.7114  0.9934
 6604SOL    HW231446   4.230   0.470   5.826 -0.0183 -0.8526  0.6525
 6605SOL     OW31447   3.212   3.669   9.491  0.2861 -0.1786 -0.3147
 6605SOL    HW131448   3.291   3.701   9.534  0.0988 -1.2884  0.8766
 6605SOL    HW231449   3.229   3.575   9.498 -0.9874 -0.4307 -0.5330
 6606SOL     OW31450   1.607   1.687  16.813 -0.6446 -0.7976  0.0361
 6606SOL    HW131451   1.526   1.636  16.807 -0.5533 -1.0231  0.6789
 6606SOL    HW231452   1.670   1.615  16.812 -1.2147 -1.3061  0.8125
 6607SOL     OW31453   3.711   1.231   3.433  0.2420 -0.2888  0.4236
 6607SOL    HW131454   3.630   1.237   3.382  0.0798 -0.2186  0.6900
 6607SOL    HW231455   3.773   1.182   3.379  0.1115  0.2294 -0.1915
 6608SOL     OW31456   0.114   2.532   7.736  0.1709 -0.3860  0.4188
 6608SOL    HW131457   0.187   2.534   7.797  1.3179 -1.3736 -0.9151
 6608SOL    HW231458   0.100   2.626   7.727 -2.9139 -1.0665 -1.8560
 6609SOL     OW31459   3.430   1.210   1.687 -0.0264  0.1981 -0.0010
 6609SOL    HW131460   3.376   1.184   1.761  0.2266 -1.0465 -0.2548
 6609SOL    HW231461   3.507   1.252   1.724  1.7336 -2.4402 -0.6914
 6610SOL     OW31462   3.591   0.724   7.963  0.1009 -0.2821  0.1493
 6610SOL    HW131463   3.635   0.639   7.973 -0.8566 -0.9702 -1.4781
 6610SOL    HW231464   3.634   0.777   8.029 -2.4574 -0.0990  1.6772
 6611SOL     OW31465   0.743   2.372   3.300 -0.0847  0.1182  0.6815
 6611SOL    HW131466   0.699   2.362   3.215 -1.8980  1.2642  1.4801
 6611SOL    HW231467   0.734   2.287   3.342  1.5698  0.1496  1.1123
 6612SOL     OW31468   4.265   1.618   7.251 -0.7330  0.3914 -0.8188
 6612SOL    HW131469   4.276   1.562   7.175  0.6428 -1.5199  0.7669
 6612SOL    HW231470   4.320   1.696   7.237 -0.3241  0.6151  2.0010
 6613SOL     OW31471   2.221   1.491   4.889 -0.5698  0.2146  0.1267
 6613SOL    HW131472   2.176   1.563   4.844  0.3551  0.6904 -0.0224
 6613SOL    HW231473   2.229   1.543   4.968  0.9229  0.5677 -0.2614
 6614SOL     OW31474   0.608   0.203   9.385 -0.2964  0.6427 -0.5152
 6614SOL    HW131475   0.658   0.160   9.316  0.1342 -1.6506  1.2401
 6614SOL    HW231476   0.678   0.208   9.451 -0.7832  2.7367 -0.1563
 6615SOL     OW31477   2.476   2.340  13.947  1.0356 -0.5617 -1.2883
 6615SOL    HW131478   2.509   2.250  13.945 -0.4352 -1.1068 -1.5443
 6615SOL    HW231479   2.542   2.391  13.994 -0.4116 -0.2058  0.3505
 6616SOL     OW31480   3.831   4.515   0.493 -0.5046  0.3779 -0.0874
 6616SOL    HW131481   3.842   4.576   0.566 -0.4610 -1.1769  1.2066
 6616SOL    HW231482   3.922   4.489   0.475 -0.7385  0.6443 -1.6602
 6617SOL     OW31483   0.549   2.251   7.574  0.6388  0.0404 -0.0140
 6617SOL    HW131484   0.602   2.205   7.510  0.9051 -1.6260  1.4240
 6617SOL    HW231485   0.564   2.342   7.547 -0.3307 -0.1524 -1.2021
 6618SOL     OW31486   2.999   3.121  10.623  0.1135  0.1278 -0.0741
 6618SOL    HW131487   3.086   3.082  10.633  0.3225  1.0188  1.5033
 6618SOL    HW231488   3.026   3.207  10.591  0.3621 -0.1081 -0.4976
 6619SOL     OW31489   3.169   2.587   6.556  0.3041  0.2101  0.6250
 6619SOL    HW131490   3.140   2.496   6.549  0.4352  0.3312 -1.2459
 6619SOL    HW231491   3.260   2.580   6.529  0.2071  0.7477  0.1680
 6620SOL     OW31492   0.919   1.025  14.022 -0.1561  0.3164  0.7572
 6620SOL    HW131493   0.886   0.943  14.059 -2.6793  1.4482  0.9816
 6620SOL    HW231494   0.869   1.095  14.063 -1.0436 -1.2727  2.4263
 6621SOL     OW31495   2.515   2.691   5.618  0.2650  0.6725 -0.1968
 6621SOL    HW131496   2.579   2.736   5.673  1.1076 -0.6432 -0.0928
 6621SOL    HW231497   2.478   2.624   5.676 -0.8770  0.3660 -1.2923
 6622SOL     OW31498   3.942   1.106   4.556  0.1515 -0.3004  0.3738
 6622SOL    HW131499   3.972   1.168   4.490 -0.8319  0.7470  0.9085
 6622SOL    HW231500   3.855   1.102   4.516 -0.2370  1.8328  1.0209
 6623SOL     OW31501   4.107   4.268   5.664 -0.0776 -0.0397  0.0263
 6623SOL    HW131502   4.109   4.201   5.733 -0.4471 -0.2470 -0.1650
 6623SOL    HW231503   4.075   4.345   5.711  0.0476 -0.1876  0.3551
 6624SOL     OW31504   0.688   3.655   3.131  0.0917  0.1473  0.5734
 6624SOL    HW131505   0.719   3.627   3.044 -1.3501 -3.0697  1.0894
 6624SOL    HW231506   0.744   3.595   3.180 -0.5365 -1.0984 -0.2157
 6625SOL     OW31507   0.944   1.820  15.532 -0.0050  0.1104 -0.4452
 6625SOL    HW131508   1.022   1.872  15.510 -0.1791  0.7278  0.4082
 6625SOL    HW231509   0.892   1.836  15.454 -0.6341 -2.5899 -0.5686
 6626SOL     OW31510   1.079   0.508  12.100  0.2696 -0.4625  0.5924
 6626SOL    HW131511   0.989   0.540  12.095 -0.9156 -3.5184  3.4778
 6626SOL    HW231512   1.054   0.418  12.118  1.6256 -0.8355  0.6208
 6627SOL     OW31513   2.194   1.988  15.786  0.3961  0.0799  0.4691
 6627SOL    HW131514   2.221   1.983  15.877  1.5852 -1.0901  0.0426
 6627SOL    HW231515   2.203   1.902  15.745  0.6953  0.9080 -1.2146
 6628SOL     OW31516   3.874   3.502   7.213 -0.3484 -0.1771  0.7415
 6628SOL    HW131517   3.800   3.562   7.211 -0.4750 -0.3943 -0.9901
 6628SOL    HW231518   3.860   3.461   7.128  1.0590  1.8674 -0.4674
 6629SOL     OW31519   2.022   1.744   3.016 -0.4174  0.3028  0.1488
 6629SOL    HW131520   2.093   1.760   2.954  1.2538 -4.1366  0.8566
 6629SOL    HW231521   2.029   1.827   3.062  1.4969  1.0746 -1.5355
 6630SOL     OW31522   0.292   2.467   2.671 -0.0175 -0.2224 -0.1057
 6630SOL    HW131523   0.363   2.525   2.644 -1.3959  2.0918  1.2239
 6630SOL    HW231524   0.225   2.480   2.604 -0.1826  0.8976  0.2708
 6631SOL     OW31525   3.184   2.605   2.463 -1.1161  0.6032 -0.5148
 6631SOL    HW131526   3.134   2.536   2.420  0.1520  0.2276 -1.3786
 6631SOL    HW231527   3.126   2.623   2.538 -0.8885  1.0789 -0.4512
 6632SOL     OW31528   2.696   1.051   1.581  0.4158  0.1273 -0.3844
 6632SOL    HW131529   2.776   1.000   1.565  0.4884 -0.2602  1.2329
 6632SOL    HW231530   2.725   1.143   1.577 -0.2215  0.3895  1.2083
 6633SOL     OW31531   2.057   4.441   2.635 -0.2458 -0.1093 -0.2248
 6633SOL    HW131532   2.028   4.530   2.615  0.3149 -0.5928 -3.2890
 6633SOL    HW231533   1.978   4.400   2.672  0.3655 -1.8745 -0.8388
 6634SOL     OW31534   1.976   2.048  17.444 -0.7432 -0.3256 -0.2985
 6634SOL    HW131535   2.045   1.999  17.399  2.2162  0.8001  3.0631
 6634SOL    HW231536   1.948   2.107  17.374  0.0309  0.2749 -0.1082
 6635SOL     OW31537   1.295   0.291   5.434 -0.6886  0.2322 -0.1981
 6635SOL    HW131538   1.259   0.203   5.422 -0.3334 -0.0583  0.8535
 6635SOL    HW231539   1.361   0.280   5.503 -0.0897 -0.4119 -0.8725
 6636SOL     OW31540   1.872   4.502   2.347  0.0787  0.4682 -0.0930
 6636SOL    HW131541   1.857   4.582   2.298  0.4130  0.2611 -0.5356
 6636SOL    HW231542   1.966   4.485   2.344 -0.5083 -2.6065 -1.0169
 6637SOL     OW31543   4.405   3.813  16.258 -0.0237  0.6978  0.2077
 6637SOL    HW131544   4.361   3.728  16.260  0.7830  0.3363  2.4013
 6637SOL    HW231545   4.474   3.806  16.324 -1.0742 -1.5445  1.0496
 6638SOL     OW31546   3.921   2.755   7.739  0.4026 -0.1979  0.4327
 6638SOL    HW131547   4.015   2.746   7.721  0.2685 -1.5271  0.4473
 6638SOL    HW231548   3.910   2.716   7.825 -1.8914 -1.0005 -0.2350
 6639SOL     OW31549   1.021   3.007   1.720  0.4778 -0.7546 -0.1185
 6639SOL    HW131550   0.994   3.048   1.638 -1.0178  1.4043  1.4482
 6639SOL    HW231551   1.103   2.968   1.690  0.5954 -0.4223 -0.2252
 6640SOL     OW31552   1.588   0.684  16.576 -0.2810  0.6105  0.2010
 6640SOL    HW131553   1.588   0.717  16.486  1.0188 -2.1649 -0.8167
 6640SOL    HW231554   1.661   0.734  16.614 -0.9395  1.9518 -0.2742
 6641SOL     OW31555   1.480   3.404  12.572  0.8260  0.3305 -0.7008
 6641SOL    HW131556   1.414   3.398  12.640  2.2696  0.3958  0.6974
 6641SOL    HW231557   1.482   3.495  12.541  2.2335  0.1194 -1.2286
 6642SOL     OW31558   4.036   1.943   4.776 -0.2599 -0.0988  0.8138
 6642SOL    HW131559   3.948   1.941   4.813 -1.0148 -0.4795 -1.0196
 6642SOL    HW231560   4.082   1.898   4.847  0.1255 -3.0836 -1.3295
 6643SOL     OW31561   1.961   0.158   6.827 -0.0208  0.4290 -0.4836
 6643SOL    HW131562   2.037   0.100   6.815 -1.6243 -1.6709 -0.3871
 6643SOL    HW231563   2.005   0.220   6.885 -0.4434 -0.5652  0.9074
 6644SOL     OW31564   1.772   1.480   7.490 -0.4296  0.0231  0.4811
 6644SOL    HW131565   1.746   1.454   7.401  3.2864  0.6647 -0.8161
 6644SOL    HW231566   1.742   1.571   7.494  0.0185  0.2195 -0.5831
 6645SOL     OW31567   4.367   4.137   7.991 -0.1115  0.2896 -0.3791
 6645SOL    HW131568   4.351   4.231   8.003  1.8023  0.8800 -2.4778
 6645SOL    HW231569   4.427   4.128   7.918  0.4037  2.7724 -0.2698
 6646SOL     OW31570   3.161   0.848  16.882 -0.5285  0.4070  0.4452
 6646SOL    HW131571   3.220   0.782  16.920 -0.7091 -0.6282 -1.0751
 6646SOL    HW231572   3.203   0.928  16.915  0.5914  0.0358 -0.0681
 6647SOL     OW31573   3.016   3.715   2.639 -0.4137 -0.1949  0.0698
 6647SOL    HW131574   3.017   3.621   2.656  0.4683 -0.3713 -1.0007
 6647SOL    HW231575   3.105   3.727   2.670 -1.3074  2.3629  1.6896
 6648SOL     OW31576   4.115   3.923   6.810  0.1517  0.5589 -0.1515
 6648SOL    HW131577   4.103   4.016   6.792 -2.9906  0.3043  0.7181
 6648SOL    HW231578   4.156   3.896   6.728  1.8828  0.0199  0.8851
 6649SOL     OW31579   1.419   3.157   4.112 -0.3416 -0.1627 -0.0396
 6649SOL    HW131580   1.468   3.226   4.157 -0.1963 -0.0763 -0.3242
 6649SOL    HW231581   1.336   3.165   4.158 -0.1843  0.1236  0.1993
 6650SOL     OW31582   0.911   0.124   8.277  0.0095  0.0420  0.1136
 6650SOL    HW131583   0.919   0.170   8.360  1.6881 -0.1152  0.0443
 6650SOL    HW231584   0.818   0.141   8.259  0.1376 -0.7747 -1.3576
 6651SOL     OW31585   1.743   2.974   2.902  0.4664 -0.0647  0.2786
 6651SOL    HW131586   1.718   2.904   2.841 -1.5028  1.5587 -0.7783
 6651SOL    HW231587   1.820   3.012   2.859  0.3309 -0.2909 -0.1657
 6652SOL     OW31588   2.601   3.436   4.236 -0.3110  0.5637  0.0424
 6652SOL    HW131589   2.515   3.474   4.220 -0.3449  1.1914  1.7150
 6652SOL    HW231590   2.656   3.514   4.225 -0.6099  1.1526  2.7857
 6653SOL     OW31591   3.602   0.118  15.274 -0.5824 -0.2362  0.2892
 6653SOL    HW131592   3.634   0.175  15.205  0.8132  1.1420  2.0818
 6653SOL    HW231593   3.527   0.076  15.231 -0.0565 -1.2243  0.3350
 6654SOL     OW31594   1.590   0.319   1.457  0.1842  0.2644 -0.3391
 6654SOL    HW131595   1.640   0.306   1.537  1.3576 -1.4568 -1.3426
 6654SOL    HW231596   1.628   0.252   1.400 -1.5087 -0.6138 -0.4634
 6655SOL     OW31597   0.255   1.076   5.471  0.2588 -0.0991  0.5258
 6655SOL    HW131598   0.167   1.058   5.438  0.1816  1.2285  0.0290
 6655SOL    HW231599   0.297   0.990   5.467 -0.1257 -0.2588 -0.0289
 6656SOL     OW31600   1.978   0.994   6.663  0.6623 -0.2125  0.5781
 6656SOL    HW131601   1.890   0.977   6.632  0.4456  0.8048  0.6335
 6656SOL    HW231602   1.966   1.068   6.723 -0.8070  0.4654 -0.5715
 6657SOL     OW31603   3.534   0.340   8.818 -0.1800 -0.1493 -0.0072
 6657SOL    HW131604   3.606   0.278   8.829  0.1604 -0.2012 -2.4441
 6657SOL    HW231605   3.478   0.309   8.889  0.2491 -1.0153 -0.0584
 6658SOL     OW31606   3.979   3.775   5.865 -0.0641 -0.4418 -0.0513
 6658SOL    HW131607   3.945   3.783   5.776  0.8357 -2.8594 -0.6044
 6658SOL    HW231608   4.013   3.863   5.878 -1.7186  0.1500  0.2764
 6659SOL     OW31609   2.951   1.135   8.391  0.1150 -0.4902 -0.8027
 6659SOL    HW131610   2.914   1.101   8.309  0.4975 -2.7426 -0.0358
 6659SOL    HW231611   2.870   1.110   8.435 -0.5808  0.2671 -1.6471
 6660SOL     OW31612   4.169   4.562   1.488 -0.6139  0.4225  0.5820
 6660SOL    HW131613   4.088   4.523   1.455  0.5039 -0.2829 -1.2620
 6660SOL    HW231614   4.135   4.630   1.547 -0.6414  0.8705  0.0492
 6661SOL     OW31615   3.149   3.664   6.301 -0.4167 -0.1617 -0.5225
 6661SOL    HW131616   3.104   3.586   6.270  1.1535 -1.2583 -0.0474
 6661SOL    HW231617   3.125   3.658   6.393 -2.1042  3.6475 -0.7253
 6662SOL     OW31618   3.021   0.699   2.409 -0.1752  0.0310 -0.0250
 6662SOL    HW131619   3.052   0.787   2.389 -0.7778  0.2996  0.2410
 6662SOL    HW231620   3.098   0.666   2.456  0.0085 -0.8142 -0.9200
 6663SOL     OW31621   1.351   0.005   0.003  0.0236 -0.2234 -0.0176
 6663SOL    HW131622   1.324   4.652  17.701  0.0713 -0.4757  0.6019
 6663SOL    HW231623   1.370   0.053  17.653  0.4106  2.3124  1.6206
 6664SOL     OW31624   1.289   0.610   4.146 -0.1577 -0.0443  0.1492
 6664SOL    HW131625   1.290   0.697   4.106  0.7926  0.3956  1.1458
 6664SOL    HW231626   1.195   0.596   4.136 -0.4477  1.0552  1.4176
 6665SOL     OW31627   3.182   3.276   5.844 -0.2554 -0.0226  0.1491
 6665SOL    HW131628   3.126   3.270   5.921 -1.7051  1.4012 -0.7832
 6665SOL    HW231629   3.192   3.182   5.827  1.9931  0.1228  0.5959
 6666SOL     OW31630   0.015   3.502   6.459 -0.0862  0.4364 -0.0165
 6666SOL    HW131631   4.680   3.490   6.393 -0.2786 -2.0041  0.6470
 6666SOL    HW231632   4.702   3.566   6.514 -2.0272  1.0773 -2.3604
 6667SOL     OW31633   4.173   1.576   9.399  0.0353 -0.4947 -0.2782
 6667SOL    HW131634   4.185   1.516   9.324  0.9533 -3.2366  2.0495
 6667SOL    HW231635   4.085   1.606   9.376  0.3713  0.5553 -0.1884
 6668SOL     OW31636   2.511   3.193  12.413  0.0967 -0.7931  0.4552
 6668SOL    HW131637   2.488   3.226  12.326 -1.7383 -2.3510  0.3416
 6668SOL    HW231638   2.607   3.197  12.411  0.0812  0.0545  0.9830
 6669SOL     OW31639   0.744   2.388   3.899 -0.0158  0.2071 -0.3668
 6669SOL    HW131640   0.670   2.448   3.888 -0.1352 -0.2378 -2.0097
 6669SOL    HW231641   0.807   2.454   3.926  1.1261 -0.9465 -0.2247
 6670SOL     OW31642   3.842   4.214  16.314 -0.1522 -0.1993 -0.3671
 6670SOL    HW131643   3.801   4.210  16.400 -0.8134 -0.0147 -0.6646
 6670SOL    HW231644   3.895   4.135  16.312  0.7866  0.4341 -0.6173
 6671SOL     OW31645   2.615   4.525  12.432  0.5011 -0.3785  0.2771
 6671SOL    HW131646   2.698   4.501  12.472  0.2655 -1.8206 -0.1086
 6671SOL    HW231647   2.560   4.448  12.446  1.7932 -1.6277 -1.5841
 6672SOL     OW31648   1.026   0.676   3.797 -0.8161 -0.1331 -0.2256
 6672SOL    HW131649   0.957   0.613   3.777 -0.5147 -1.2465  2.2332
 6672SOL    HW231650   1.026   0.719   3.712  0.5316  0.5513  0.1121
 6673SOL     OW31651   3.542   2.760   4.521  0.0115  0.4957  0.2305
 6673SOL    HW131652   3.463   2.766   4.467 -1.5452  0.3036  2.4834
 6673SOL    HW231653   3.514   2.795   4.605 -0.9721 -0.4518  0.3023
 6674SOL     OW31654   0.406   3.212   5.547 -0.3109  0.1918  0.1511
 6674SOL    HW131655   0.475   3.279   5.551  0.9684 -1.1125 -0.3105
 6674SOL    HW231656   0.341   3.251   5.488  0.5134  0.2836 -0.7025
 6675SOL     OW31657   2.356   3.149   6.034 -0.8135  0.1014  0.2432
 6675SOL    HW131658   2.299   3.076   6.058 -1.2859  0.4672  0.2269
 6675SOL    HW231659   2.369   3.120   5.943 -3.0778 -0.4365  0.0926
 6676SOL     OW31660   0.936   1.356  15.911 -0.1733 -0.1939  0.3234
 6676SOL    HW131661   0.931   1.408  15.992 -0.4728 -0.2686  0.3520
 6676SOL    HW231662   1.021   1.378  15.872 -1.0789  0.3854 -1.3428
 6677SOL     OW31663   0.615   4.575   9.609  0.1536 -0.0732 -0.2231
 6677SOL    HW131664   0.616   4.603   9.517 -1.6713 -1.6916 -0.7566
 6677SOL    HW231665   0.636   4.482   9.600  1.2686  0.2264 -0.6058
 6678SOL     OW31666   0.764   1.918   9.204  0.4380 -0.1473  0.0959
 6678SOL    HW131667   0.681   1.895   9.244  1.5541 -2.3823  1.1846
 6678SOL    HW231668   0.733   1.985   9.144  0.0951  0.0513  0.5049
 6679SOL     OW31669   1.964   2.435  16.985 -0.0060  0.0076  0.3046
 6679SOL    HW131670   2.043   2.396  17.021 -1.2159  0.8023  3.8186
 6679SOL    HW231671   1.898   2.395  17.042  1.4708 -1.9893  0.6348
 6680SOL     OW31672   0.004   0.711  14.855 -0.0073  0.2841 -0.7694
 6680SOL    HW131673   0.036   0.759  14.778  0.6126 -0.1752 -0.7945
 6680SOL    HW231674   0.026   0.619  14.840 -1.6641 -0.1021 -0.8287
 6681SOL     OW31675   4.075   1.705  11.291  0.0343 -0.0996 -0.2261
 6681SOL    HW131676   4.072   1.769  11.362  0.4441  0.7547 -0.9831
 6681SOL    HW231677   4.167   1.681  11.302  0.0206 -0.8655 -1.8395
 6682SOL     OW31678   3.588   4.572   1.830  0.1987  0.1465 -0.1787
 6682SOL    HW131679   3.512   4.537   1.877  0.4810  2.5702  2.0892
 6682SOL    HW231680   3.552   4.598   1.745 -0.5501 -1.6716 -0.4133
 6683SOL     OW31681   1.686   3.262   4.369  0.0828 -0.0094  0.1469
 6683SOL    HW131682   1.651   3.347   4.342  2.0260  1.6181  2.7706
 6683SOL    HW231683   1.702   3.219   4.285 -1.6965 -2.4586  1.0543
 6684SOL     OW31684   0.301   4.039  17.482 -0.0977 -0.1054 -0.3564
 6684SOL    HW131685   0.389   4.055  17.448  0.3372  1.9567  1.6751
 6684SOL    HW231686   0.275   4.127  17.510 -1.7461 -0.7308  0.0379
 6685SOL     OW31687   1.362   0.436   7.057  0.1549 -0.3216  0.2207
 6685SOL    HW131688   1.279   0.418   7.101 -0.3262 -0.4445 -0.7306
 6685SOL    HW231689   1.329   0.433   6.968  0.3455  1.7851  0.0764
 6686SOL     OW31690   4.189   1.007   4.100 -0.0708 -0.1672 -0.6673
 6686SOL    HW131691   4.174   0.918   4.067 -2.4179  0.5532 -1.5559
 6686SOL    HW231692   4.132   1.049   4.035 -0.9594  0.8917  0.7986
 6687SOL     OW31693   3.936   1.262   4.808 -0.2984  0.0596 -0.0161
 6687SOL    HW131694   3.940   1.203   4.733 -0.2798  0.3790 -0.2669
 6687SOL    HW231695   3.931   1.202   4.882 -0.3693  2.7358  2.1560
 6688SOL     OW31696   3.570   1.684   0.718 -0.2722  0.3397  0.4853
 6688SOL    HW131697   3.544   1.615   0.657  2.2416 -0.9217  0.8110
 6688SOL    HW231698   3.666   1.686   0.724 -0.1993 -1.9420  0.1997
 6689SOL     OW31699   0.924   3.412   6.008 -0.2069  0.2115 -0.1630
 6689SOL    HW131700   0.912   3.327   6.052  0.6319  1.0373  1.6658
 6689SOL    HW231701   0.897   3.378   5.923  1.3785  1.2208 -1.0613
 6690SOL     OW31702   0.597   1.335   2.741 -0.0888 -0.0732  0.2764
 6690SOL    HW131703   0.590   1.430   2.740 -2.3786 -0.2531 -0.5580
 6690SOL    HW231704   0.553   1.308   2.660 -0.1159  0.9999 -0.0641
 6691SOL     OW31705   0.749   2.943   4.185 -0.4738 -0.0913  0.1484
 6691SOL    HW131706   0.837   2.935   4.221 -0.3204 -3.9394 -1.0950
 6691SOL    HW231707   0.714   3.004   4.250  0.4526 -1.4854  1.9537
 6692SOL     OW31708   0.273   3.520   7.830 -0.2527  0.0025  0.3586
 6692SOL    HW131709   0.336   3.583   7.864 -1.6405  2.5052 -1.7258
 6692SOL    HW231710   0.304   3.505   7.740  0.2218 -0.8608  0.6677
 6693SOL     OW31711   2.771   3.277   9.009 -0.4333 -0.2895  0.0467
 6693SOL    HW131712   2.755   3.201   9.065  0.7589 -1.1937 -0.8443
 6693SOL    HW231713   2.708   3.272   8.937  0.2910 -3.1378 -0.3551
 6694SOL     OW31714   2.407   1.355   9.855  0.0762  0.4448  0.4254
 6694SOL    HW131715   2.494   1.395   9.844  0.7500 -1.1638 -0.0226
 6694SOL    HW231716   2.384   1.384   9.943 -1.1383  2.0287 -0.4119
 6695SOL     OW31717   2.131   1.196   0.141  1.0529  0.8403  0.1063
 6695SOL    HW131718   2.177   1.114   0.162 -0.3163  0.8178  3.0251
 6695SOL    HW231719   2.115   1.178   0.048  1.3903 -0.4174  0.2858
 6696SOL     OW31720   3.883   0.583   3.750 -0.0788  0.2625 -0.3506
 6696SOL    HW131721   3.836   0.563   3.831  2.4865 -1.0745  0.8090
 6696SOL    HW231722   3.861   0.676   3.757  0.2973  0.2550  0.9058
 6697SOL     OW31723   2.067   3.692   2.974 -0.4787 -0.0526 -0.5158
 6697SOL    HW131724   2.025   3.756   2.917 -1.5542 -0.9313 -0.7090
 6697SOL    HW231725   2.003   3.621   2.963  0.0178 -0.7126  0.8839
 6698SOL     OW31726   2.092   3.024   6.087 -0.1263 -0.0088  0.0539
 6698SOL    HW131727   2.131   3.040   6.172  0.6455  0.4362 -0.3902
 6698SOL    HW231728   2.077   3.117   6.072 -0.2877  0.2544  1.8717
 6699SOL     OW31729   3.073   3.033   9.146  0.4561 -0.1929  0.3139
 6699SOL    HW131730   3.093   2.939   9.145  0.4904 -0.1830 -0.6166
 6699SOL    HW231731   2.994   3.040   9.200  0.9991  1.5408  0.8628
 6700SOL     OW31732   2.750   3.659   4.163 -0.6349 -0.2738 -0.0460
 6700SOL    HW131733   2.769   3.704   4.081 -0.8060  1.8015  1.0277
 6700SOL    HW231734   2.831   3.673   4.211 -0.5526  0.9685 -0.5365
 6701SOL     OW31735   1.711   0.488   0.764  0.0063  0.1786  0.3239
 6701SOL    HW131736   1.715   0.458   0.673 -0.0027  2.0392 -0.2979
 6701SOL    HW231737   1.703   0.583   0.756  2.6476  0.4110  0.3083
 6702SOL     OW31738   0.034   1.006   4.721  0.4082  0.1277 -0.2314
 6702SOL    HW131739   0.045   1.013   4.816  1.3913 -0.8477 -0.2876
 6702SOL    HW231740   4.672   1.021   4.723 -0.0750 -3.1320 -0.0454
 6703SOL     OW31741   2.510   2.874   6.466  0.2774 -0.1613  0.1213
 6703SOL    HW131742   2.565   2.883   6.543  0.5188 -2.3009  0.2196
 6703SOL    HW231743   2.505   2.778   6.461 -2.2458 -0.1362  2.1604
 6704SOL     OW31744   2.069   2.153   9.482 -0.1168  0.3027 -0.0987
 6704SOL    HW131745   2.083   2.103   9.402 -0.7130 -1.2231  0.7303
 6704SOL    HW231746   1.992   2.204   9.456  0.1050  0.4087 -0.5395
 6705SOL     OW31747   3.386   4.230   1.549  0.0229  0.5860  0.2517
 6705SOL    HW131748   3.359   4.138   1.542  0.0414  0.5844  0.2037
 6705SOL    HW231749   3.413   4.230   1.641 -3.3048 -2.3042  1.2268
 6706SOL     OW31750   4.017   2.140   7.390 -1.0186 -0.1833 -0.2526
 6706SOL    HW131751   4.017   2.199   7.314 -0.6294  0.6879  0.4217
 6706SOL    HW231752   4.103   2.098   7.381 -0.5639  0.3240  1.6974
 6707SOL     OW31753   0.659   2.014   6.299  0.2124 -0.2491 -0.0513
 6707SOL    HW131754   0.610   1.933   6.282 -0.6851  0.6356 -1.6649
 6707SOL    HW231755   0.742   1.972   6.320  0.2044  0.1399  0.7398
 6708SOL     OW31756   3.668   0.701   5.388 -0.3564 -0.2329 -0.1824
 6708SOL    HW131757   3.633   0.717   5.476  0.1280  2.4106 -0.4578
 6708SOL    HW231758   3.689   0.789   5.356 -0.4159  0.9354  2.9169
 6709SOL     OW31759   0.701   1.760   4.614  0.4532  1.0555  0.0597
 6709SOL    HW131760   0.723   1.678   4.660  1.4070  1.7518  0.8624
 6709SOL    HW231761   0.611   1.739   4.590  0.8538  0.2296 -0.7341
 6710SOL     OW31762   3.112   2.842   8.854  0.2273 -0.8678  0.4187
 6710SOL    HW131763   3.147   2.866   8.768 -1.6480  1.1705  0.2440
 6710SOL    HW231764   3.168   2.903   8.901  1.7087 -1.0367 -1.0984
 6711SOL     OW31765   0.003   4.571   3.189 -0.0476  0.2980 -0.3173
 6711SOL    HW131766   4.721   4.526   3.273  0.5913  2.9522  1.1972
 6711SOL    HW231767   4.701   4.657   3.214 -2.6507 -0.5008 -1.1663
 6712SOL     OW31768   3.026   4.497  17.380  0.3364 -0.1754 -0.0557
 6712SOL    HW131769   3.078   4.574  17.404 -0.7092  0.6360 -0.3958
 6712SOL    HW231770   3.079   4.424  17.412 -1.4991 -0.8044  1.5560
 6713SOL     OW31771   1.586   0.720   4.784  0.0622 -0.5455 -0.2041
 6713SOL    HW131772   1.545   0.805   4.773 -2.2208 -1.9737 -2.6746
 6713SOL    HW231773   1.644   0.740   4.711 -1.6673 -2.3715 -2.0841
 6714SOL     OW31774   1.003   3.639   6.507 -0.2675  0.2351  0.5391
 6714SOL    HW131775   1.040   3.687   6.433 -1.3710 -0.7974 -0.6820
 6714SOL    HW231776   0.947   3.578   6.459 -1.2561  1.7023 -0.1421
 6715SOL     OW31777   4.570   0.392  13.696  0.5493 -0.3679  0.5276
 6715SOL    HW131778   4.515   0.459  13.653  1.1121 -0.3470 -0.1576
 6715SOL    HW231779   4.589   0.426  13.783  3.4687  0.8260 -0.5925
 6716SOL     OW31780   1.990   1.144   6.901 -0.1862 -0.2063  0.2410
 6716SOL    HW131781   2.030   1.162   6.986 -2.7800  1.2753  1.1712
 6716SOL    HW231782   1.965   1.236   6.888  0.6192 -0.2101 -1.3314
 6717SOL     OW31783   3.988   3.786   8.049  0.0395  0.9619  0.3614
 6717SOL    HW131784   4.032   3.707   8.078 -0.1626  0.0711 -1.8292
 6717SOL    HW231785   4.040   3.828   7.981  2.1311  0.0307  1.3700
 6718SOL     OW31786   1.220   4.015   6.076  0.4809  0.0425 -0.8282
 6718SOL    HW131787   1.135   4.051   6.100  1.2152  0.1835  1.4815
 6718SOL    HW231788   1.255   4.082   6.016 -2.0139  1.8748 -0.2209
 6719SOL     OW31789   0.231   3.651   1.672  0.8413  0.3149 -0.1596
 6719SOL    HW131790   0.197   3.670   1.585 -2.3808 -0.1409  1.0143
 6719SOL    HW231791   0.281   3.730   1.695  3.7840 -2.0018  1.4524
 6720SOL     OW31792   2.774   1.959   3.709 -0.0683  1.2089 -0.0269
 6720SOL    HW131793   2.766   1.892   3.777  2.0875 -0.2225 -1.2087
 6720SOL    HW231794   2.863   1.985   3.734  0.4740 -1.4089  0.7463
 6721SOL     OW31795   3.294   0.289   8.706 -0.3708 -0.4937 -0.3965
 6721SOL    HW131796   3.385   0.289   8.737 -0.4249 -0.6479 -0.2355
 6721SOL    HW231797   3.289   0.332   8.620 -1.8807  0.9038  0.3911
 6722SOL     OW31798   0.332   0.661   9.247 -0.2562  0.2649 -0.9437
 6722SOL    HW131799   0.350   0.576   9.207  1.4633  0.2929 -0.2161
 6722SOL    HW231800   0.245   0.675   9.210 -1.6245  0.0530  2.1829
 6723SOL     OW31801   0.227   2.223   8.739  0.3842  0.5536  0.1794
 6723SOL    HW131802   0.218   2.313   8.772 -1.2189  0.2037  0.6829
 6723SOL    HW231803   0.133   2.212   8.729  0.6485  0.5476 -2.2205
 6724SOL     OW31804   1.313   4.096  16.410 -0.8356 -0.3455  0.3298
 6724SOL    HW131805   1.387   4.047  16.374 -3.2972 -0.3681 -4.7397
 6724SOL    HW231806   1.255   4.031  16.447 -0.2698  0.6748  2.9888
 6725SOL     OW31807   3.088   4.382  10.705 -0.3410 -0.3484  0.0664
 6725SOL    HW131808   3.165   4.395  10.650 -0.4254 -2.6542 -0.5850
 6725SOL    HW231809   3.082   4.466  10.751 -0.4569 -1.0840  1.3873
 6726SOL     OW31810   1.759   0.584   3.786  0.6886 -0.4642  0.6097
 6726SOL    HW131811   1.748   0.493   3.814  0.4611 -0.5843  0.1352
 6726SOL    HW231812   1.824   0.567   3.718 -1.2841 -2.3220 -0.8391
 6727SOL     OW31813   4.645   3.708   5.902 -0.3885 -0.4091  0.2980
 6727SOL    HW131814   4.723   3.658   5.876 -0.1370 -0.0135  0.2962
 6727SOL    HW231815   4.667   3.753   5.983  0.1927 -0.9820  0.4576
 6728SOL     OW31816   0.066   4.629  13.228  0.3186  0.0376  0.1862
 6728SOL    HW131817   0.110   4.670  13.154  0.6263  1.5005  1.1868
 6728SOL    HW231818   0.076   4.535  13.211  0.7174  0.4071 -1.6552
 6729SOL     OW31819   3.679   3.215   5.576  0.4808 -0.1696  0.7548
 6729SOL    HW131820   3.590   3.252   5.577 -0.0223 -1.2207 -4.1413
 6729SOL    HW231821   3.729   3.275   5.632 -2.9721 -0.2935  3.9792
 6730SOL     OW31822   3.994   0.642   7.802  0.2511 -0.1424 -0.1239
 6730SOL    HW131823   4.065   0.582   7.825 -0.4425  0.0015  2.4724
 6730SOL    HW231824   3.964   0.669   7.889  0.3560 -0.1267 -0.0934
 6731SOL     OW31825   4.338   0.589  10.609 -0.6524 -0.9343 -0.0559
 6731SOL    HW131826   4.408   0.534  10.645  0.1888 -0.2718 -0.6660
 6731SOL    HW231827   4.259   0.538  10.628 -2.0612  1.4798  0.5939
 6732SOL     OW31828   1.101   1.088   0.467  0.2415  0.1611  0.2962
 6732SOL    HW131829   1.019   1.118   0.507 -0.0059 -1.7947  1.2431
 6732SOL    HW231830   1.064   1.077   0.379 -0.6772 -2.6359  1.0207
 6733SOL     OW31831   4.485   3.457   3.871 -0.2851  0.5137 -0.9411
 6733SOL    HW131832   4.562   3.514   3.872  0.5829 -0.6585 -0.6056
 6733SOL    HW231833   4.481   3.419   3.959  0.9418 -3.9101 -2.8124
 6734SOL     OW31834   3.388   0.222   9.036 -0.7623 -0.2747  0.3586
 6734SOL    HW131835   3.295   0.239   9.020 -0.8895  1.7210  3.0574
 6734SOL    HW231836   3.394   0.127   9.028 -3.2445 -0.3495 -0.5431
 6735SOL     OW31837   4.353   3.642   8.923  0.1717  0.2522  0.3976
 6735SOL    HW131838   4.298   3.574   8.962  2.6854 -1.4549  0.9270
 6735SOL    HW231839   4.419   3.589   8.878  0.2565 -0.3505  1.2286
 6736SOL     OW31840   4.638   3.120   0.090  0.7399 -0.6371  0.3968
 6736SOL    HW131841   4.723   3.158   0.067 -0.2930  1.6784  0.3914
 6736SOL    HW231842   4.615   3.080   0.005  2.4838 -1.3350  0.2500
 6737SOL     OW31843   2.034   1.663   7.207 -0.2387 -0.0770 -0.2245
 6737SOL    HW131844   2.046   1.651   7.302 -2.1561  0.5638  0.1046
 6737SOL    HW231845   2.118   1.702   7.185  0.9390 -1.8763  1.0803
 6738SOL     OW31846   0.300   1.993   7.986 -0.6062 -0.5315 -0.5785
 6738SOL    HW131847   0.265   2.078   7.960  0.6860 -0.4966 -2.2518
 6738SOL    HW231848   0.367   1.989   7.917  2.3518  1.2871  2.1906
 6739SOL     OW31849   1.400   2.907   4.992 -0.0598  0.4781  0.2267
 6739SOL    HW131850   1.338   2.836   5.002 -3.2536  3.3645  0.8060
 6739SOL    HW231851   1.484   2.873   4.961  0.8074  1.4183  1.5390
 6740SOL     OW31852   1.374   1.949   4.779  0.2032  0.0044  0.2234
 6740SOL    HW131853   1.354   1.876   4.838  0.5801 -0.7200 -0.5460
 6740SOL    HW231854   1.300   1.925   4.723 -0.0649  0.3757  0.4159
 6741SOL     OW31855   4.292   1.644   7.765  0.8041  0.1144 -0.2495
 6741SOL    HW131856   4.301   1.584   7.691 -1.3921  1.2230 -1.4113
 6741SOL    HW231857   4.212   1.611   7.806  0.0362  0.7911 -1.2139
 6742SOL     OW31858   2.714   2.284   2.009 -0.1224 -0.8056  0.1679
 6742SOL    HW131859   2.644   2.288   2.075 -0.5916 -2.0014 -0.2566
 6742SOL    HW231860   2.704   2.195   1.975  2.3802  0.2822 -3.4464
 6743SOL     OW31861   1.063   0.983   9.165 -0.3848  0.1285  0.2033
 6743SOL    HW131862   1.024   1.002   9.250 -0.2491  0.6106  0.1534
 6743SOL    HW231863   1.010   0.906   9.141 -1.8959  2.2089 -3.1444
 6744SOL     OW31864   3.686   4.515   8.697  0.4308  0.2159  0.0833
 6744SOL    HW131865   3.768   4.469   8.676  0.3587 -0.3156  0.9736
 6744SOL    HW231866   3.678   4.570   8.619 -0.1820 -0.8314 -0.6060
 6745SOL     OW31867   3.854   3.630   8.855  0.4394  0.1716  0.8517
 6745SOL    HW131868   3.940   3.588   8.864 -0.0174 -1.1190 -0.8004
 6745SOL    HW231869   3.812   3.593   8.932 -0.9555 -1.6172 -0.7631
 6746SOL     OW31870   0.892   1.756   6.781 -0.0463 -0.2662  0.5471
 6746SOL    HW131871   0.894   1.790   6.871 -1.2369  0.4965  0.2909
 6746SOL    HW231872   0.830   1.818   6.741 -0.1891  0.1469  1.4027
 6747SOL     OW31873   4.064   3.942  15.251 -0.2227  0.2304  0.2316
 6747SOL    HW131874   4.121   3.874  15.286 -0.8799  0.6710  2.1650
 6747SOL    HW231875   3.981   3.900  15.228  0.3800 -0.0679 -1.4329
 6748SOL     OW31876   2.742   0.249   2.620  0.0319 -0.1927  0.2049
 6748SOL    HW131877   2.741   0.237   2.525 -0.0212 -0.1118  0.1947
 6748SOL    HW231878   2.680   0.189   2.660 -0.5052 -0.1251 -0.5225
 6749SOL     OW31879   0.820   0.473  12.499  0.0878  0.4490  0.3682
 6749SOL    HW131880   0.815   0.386  12.458 -2.7452 -0.0151  1.6770
 6749SOL    HW231881   0.912   0.475  12.524  0.0696  2.9993  0.2325
 6750SOL     OW31882   4.215   4.453   3.241  0.3171  0.1353  0.0806
 6750SOL    HW131883   4.137   4.426   3.289 -0.6154  0.0628 -1.4811
 6750SOL    HW231884   4.179   4.451   3.152 -2.7654  0.0101  1.3608
 6751SOL     OW31885   4.178   2.223   2.207  0.2951  0.5949  0.7530
 6751SOL    HW131886   4.222   2.299   2.246 -0.4998  0.0406  2.7026
 6751SOL    HW231887   4.256   2.181   2.171 -1.2421  0.0143 -1.9143
 6752SOL     OW31888   2.991   3.201   3.695  0.3614  0.3592  0.6812
 6752SOL    HW131889   3.007   3.157   3.778 -0.1553 -2.8775 -0.9649
 6752SOL    HW231890   3.058   3.150   3.649 -2.0753 -1.9014 -0.3445
 6753SOL     OW31891   2.247   2.337   6.021  0.0188 -0.2704  0.9358
 6753SOL    HW131892   2.159   2.356   5.987  1.4268  1.9599 -1.4469
 6753SOL    HW231893   2.266   2.264   5.962  0.2677 -0.0305  0.7199
 6754SOL     OW31894   2.463   0.599   2.904  0.6019  0.1186 -0.2344
 6754SOL    HW131895   2.404   0.603   2.979  0.3646 -1.4143 -0.3389
 6754SOL    HW231896   2.545   0.588   2.951 -0.5551 -1.8085  1.3432
 6755SOL     OW31897   0.226   0.936  11.698  0.3149 -0.3230 -0.0788
 6755SOL    HW131898   0.176   0.942  11.779 -1.1159 -0.0601 -0.9835
 6755SOL    HW231899   0.297   0.999  11.709  0.0565 -0.3018  1.4347
 6756SOL     OW31900   0.835   1.029   4.512  0.1317 -0.4893  0.9732
 6756SOL    HW131901   0.750   1.008   4.551 -0.7133  0.5505 -0.2599
 6756SOL    HW231902   0.895   1.043   4.585  0.8498 -2.0811  0.6833
 6757SOL     OW31903   1.460   4.113   3.299  0.2920 -0.1449  0.2334
 6757SOL    HW131904   1.494   4.200   3.275 -0.5920 -0.2576 -1.3823
 6757SOL    HW231905   1.533   4.085   3.355  1.1339 -0.7717 -1.1783
 6758SOL     OW31906   4.041   2.393  10.138  0.5519  0.3437  0.2587
 6758SOL    HW131907   4.101   2.351  10.200  0.4784 -0.5977 -0.3042
 6758SOL    HW231908   3.998   2.316  10.100 -0.1331  0.6347  0.4554
 6759SOL     OW31909   2.984   2.957  13.098  0.3470 -0.2335 -0.7156
 6759SOL    HW131910   2.994   2.882  13.039 -0.4606 -1.4913  0.7380
 6759SOL    HW231911   2.970   3.026  13.033 -0.0689 -2.0318 -2.5491
 6760SOL     OW31912   1.805   3.383   3.093  0.0776 -0.2414 -0.1903
 6760SOL    HW131913   1.780   3.331   3.169 -0.1222  0.6254  0.3445
 6760SOL    HW231914   1.714   3.410   3.075 -0.2512 -1.7091 -0.6896
 6761SOL     OW31915   3.236   1.029   8.901  0.0272  0.1950 -0.3932
 6761SOL    HW131916   3.213   0.978   8.979 -1.2754 -1.3015 -1.7376
 6761SOL    HW231917   3.181   1.000   8.827 -1.3416  0.1056  0.6543
 6762SOL     OW31918   1.598   0.435   9.131  0.9473 -0.3334  0.3286
 6762SOL    HW131919   1.592   0.490   9.053 -0.5938  0.0554  0.7294
 6762SOL    HW231920   1.535   0.475   9.191  0.6409  0.1591 -0.3274
 6763SOL     OW31921   3.252   3.940   8.153  0.3052 -0.0144 -0.4891
 6763SOL    HW131922   3.202   3.878   8.207  1.4778 -1.2725 -0.8370
 6763SOL    HW231923   3.260   3.887   8.074 -0.2437 -0.1233 -0.4728
 6764SOL     OW31924   1.997   3.473   5.926 -0.1691  0.6259  0.6413
 6764SOL    HW131925   2.004   3.545   5.988  0.9023  0.9697  0.1173
 6764SOL    HW231926   1.960   3.402   5.979  1.6762  0.6638  1.9883
 6765SOL     OW31927   1.495   0.057  11.331 -0.1117 -0.3785  0.4471
 6765SOL    HW131928   1.413   0.019  11.299  0.0875 -0.2185 -0.2404
 6765SOL    HW231929   1.539   0.073  11.248  1.0276 -2.5858  0.6206
 6766SOL     OW31930   1.246   2.730  13.119  0.2163  0.2118  0.1225
 6766SOL    HW131931   1.174   2.735  13.056  1.4589 -1.1660 -1.4137
 6766SOL    HW231932   1.209   2.753  13.204  1.1532  0.4112  0.4759
 6767SOL     OW31933   1.624   0.617   7.856 -0.0483  0.0955  0.4675
 6767SOL    HW131934   1.585   0.662   7.782  0.6273  1.3499  0.8809
 6767SOL    HW231935   1.552   0.605   7.919  0.7680 -0.9468  1.2167
 6768SOL     OW31936   1.992   0.042   7.318  0.2421  0.1187  0.1938
 6768SOL    HW131937   1.951   0.031   7.232 -0.9046 -0.4543  0.8210
 6768SOL    HW231938   2.079   0.002   7.306  1.2191  2.3094  0.0074
 6769SOL     OW31939   3.615   0.129   2.534 -0.0642 -0.5214  0.1566
 6769SOL    HW131940   3.547   0.140   2.600 -1.8126 -2.9724 -1.2136
 6769SOL    HW231941   3.559   0.075   2.478 -2.3030  1.4198  0.5057
 6770SOL     OW31942   0.996   0.186  11.143 -0.2234  0.6674  0.1574
 6770SOL    HW131943   0.915   0.147  11.175 -0.0934  0.0930 -0.2193
 6770SOL    HW231944   1.029   0.222  11.225 -0.4254  0.6371  0.2519
 6771SOL     OW31945   2.523   3.700   3.265 -0.1499  0.2498 -0.5710
 6771SOL    HW131946   2.453   3.706   3.200 -1.0511  0.4076  0.4284
 6771SOL    HW231947   2.469   3.653   3.329  2.1399 -0.6149  0.7399
 6772SOL     OW31948   1.528   2.513   0.670  0.4899  0.1801  0.0354
 6772SOL    HW131949   1.604   2.475   0.626  0.8242 -0.2759  1.0164
 6772SOL    HW231950   1.547   2.500   0.763  0.7881 -1.0751 -0.2034
 6773SOL     OW31951   3.203   4.107  14.473  0.1885  0.9150  0.1292
 6773SOL    HW131952   3.282   4.153  14.445  0.6735 -0.2500 -0.4210
 6773SOL    HW231953   3.134   4.157  14.430  0.8610  1.3002 -0.4916
 6774SOL     OW31954   4.238   4.726   7.276  0.7513 -0.0603  0.2153
 6774SOL    HW131955   4.267   0.085   7.278 -3.5148  1.3436 -0.2777
 6774SOL    HW231956   4.181   4.732   7.352 -1.3424  0.1952 -1.3606
 6775SOL     OW31957   1.506   3.811   2.707  0.0720  0.6558 -0.1382
 6775SOL    HW131958   1.582   3.770   2.747 -0.9994 -0.3783  0.8441
 6775SOL    HW231959   1.546   3.883   2.658  1.4892  0.6701  1.0446
 6776SOL     OW31960   1.928   3.525   2.791 -0.6498 -0.1220  0.0278
 6776SOL    HW131961   2.014   3.491   2.816 -0.0784  0.6176 -0.9211
 6776SOL    HW231962   1.918   3.469   2.714  0.8654 -0.0372 -0.2334
 6777SOL     OW31963   0.881   3.467   1.441 -0.1949  0.4751  0.2271
 6777SOL    HW131964   0.822   3.479   1.515 -0.8081 -0.6001 -0.0993
 6777SOL    HW231965   0.962   3.434   1.479  0.6285  0.0403 -1.8963
 6778SOL     OW31966   3.712   0.758  10.284 -0.0367  0.3495 -0.5470
 6778SOL    HW131967   3.734   0.665  10.288 -0.3692  0.2338 -1.4435
 6778SOL    HW231968   3.793   0.807  10.301  1.2215 -1.9445 -0.0133
 6779SOL     OW31969   1.328   0.226   2.391  0.1164  0.0039  0.4909
 6779SOL    HW131970   1.306   0.247   2.300  0.5475 -0.0323  0.3775
 6779SOL    HW231971   1.237   0.208   2.414 -0.7415  2.5604 -0.7635
 6780SOL     OW31972   0.072   4.379   6.285  0.6097  0.2621 -0.2466
 6780SOL    HW131973   0.018   4.315   6.238 -0.4423  1.2558 -0.3866
 6780SOL    HW231974   0.019   4.402   6.362 -0.5277 -0.0061 -0.9556
 6781SOL     OW31975   2.101   4.024   8.716  0.1204  0.2132  0.1909
 6781SOL    HW131976   2.132   4.026   8.806  1.0619 -2.8444 -0.0458
 6781SOL    HW231977   2.152   3.949   8.684 -1.1102 -0.5859  0.1028
 6782SOL     OW31978   4.350   0.449   2.680 -0.3370  0.3805 -0.7486
 6782SOL    HW131979   4.369   0.528   2.629 -0.9950  1.0718  0.0806
 6782SOL    HW231980   4.272   0.422   2.631  1.7742 -3.8167 -1.7711
 6783SOL     OW31981   4.300   0.212   3.160 -0.7018  0.1489  0.6240
 6783SOL    HW131982   4.290   0.240   3.069  1.7099  0.6544  0.5346
 6783SOL    HW231983   4.328   0.122   3.143  1.5977  0.8034  0.9056
 6784SOL     OW31984   2.629   3.835   2.999  0.3463  0.4939  0.1889
 6784SOL    HW131985   2.562   3.831   2.931  0.9753  0.7476 -0.4441
 6784SOL    HW231986   2.582   3.784   3.065  0.0611  0.0217 -0.3757
 6785SOL     OW31987   0.026   4.116   1.362 -0.7289  0.0845  0.0131
 6785SOL    HW131988   0.083   4.146   1.291  1.6233 -0.8840  1.4943
 6785SOL    HW231989   4.705   4.195   1.366  1.7819  1.7808  0.4221
 6786SOL     OW31990   4.553   4.242   2.388  0.1685  0.1736  0.1748
 6786SOL    HW131991   4.601   4.220   2.468 -0.5695  1.3040  0.9428
 6786SOL    HW231992   4.507   4.325   2.405  1.2150  0.4973  1.4471
 6787SOL     OW31993   4.651   3.958   1.829  0.3254  0.6075  0.0730
 6787SOL    HW131994   4.727   3.955   1.888 -0.3439 -1.0774  0.8496
 6787SOL    HW231995   4.666   4.044   1.790 -1.7065  0.6058 -0.6966
 6788SOL     OW31996   2.776   0.218   3.413 -0.4342  0.0233  0.1304
 6788SOL    HW131997   2.835   0.207   3.338  2.0853 -0.4419  2.1796
 6788SOL    HW231998   2.758   0.311   3.428 -0.9668  0.0584 -0.7233
 6789SOL     OW31999   0.635   0.816   9.559 -0.3663  0.1089 -0.3847
 6789SOL    HW132000   0.604   0.904   9.579 -3.9605 -0.8107 -1.9657
 6789SOL    HW232001   0.588   0.769   9.627 -0.8828 -2.1106 -2.2930
 6790SOL     OW32002   3.209   4.711  17.448  0.1658  0.1274  0.1201
 6790SOL    HW132003   3.258   4.691  17.528 -0.2263 -0.0105  0.3273
 6790SOL    HW232004   3.273   4.683  17.383  0.0340  1.0956 -0.4270
 6791SOL     OW32005   1.274   0.121  15.311 -0.5267 -0.4084 -0.5487
 6791SOL    HW132006   1.226   0.193  15.352 -1.7061 -2.2441  1.2907
 6791SOL    HW232007   1.354   0.137  15.360 -1.7202  0.6621  1.0693
 6792SOL     OW32008   2.597   1.592   7.839 -0.4633 -0.2499  0.6301
 6792SOL    HW132009   2.634   1.644   7.911 -2.0205  1.9073 -0.1425
 6792SOL    HW232010   2.538   1.534   7.887 -1.3716 -0.3340 -0.6088
 6793SOL     OW32011   2.307   2.382   0.049  0.0557 -0.3636  0.7527
 6793SOL    HW132012   2.228   2.413   0.005  0.9504  0.2024 -0.4427
 6793SOL    HW232013   2.296   2.396   0.143 -1.0689  1.5100  0.3390
 6794SOL     OW32014   2.227   0.611   9.548  0.0143  0.3677  0.8631
 6794SOL    HW132015   2.232   0.647   9.636  1.9921 -1.6343  1.5824
 6794SOL    HW232016   2.293   0.541   9.543  0.7833  1.2114 -0.8064
 6795SOL     OW32017   0.035   4.506   4.297  0.3772  0.1394  0.2665
 6795SOL    HW132018   4.705   4.484   4.228  1.0086 -0.2370 -0.1861
 6795SOL    HW232019   0.064   4.420   4.327  0.1823  0.1517  0.4815
 6796SOL     OW32020   2.602   4.410  12.128  0.1089 -0.4806  0.2484
 6796SOL    HW132021   2.537   4.347  12.159  0.4178 -1.7911 -1.7745
 6796SOL    HW232022   2.561   4.438  12.046  1.6660 -3.1608 -1.4254
 6797SOL     OW32023   0.220   1.027  12.443 -0.1208  0.0594  0.7764
 6797SOL    HW132024   0.293   1.010  12.503  1.0138 -0.9319 -0.8777
 6797SOL    HW232025   0.265   1.082  12.379  0.6584  1.8117  2.7857
 6798SOL     OW32026   3.370   3.152   9.957 -0.7341 -0.1791  0.2361
 6798SOL    HW132027   3.325   3.069   9.945  0.5772 -0.9683  0.7928
 6798SOL    HW232028   3.352   3.195   9.873 -1.3884 -0.3601  0.2814
 6799SOL     OW32029   3.071   0.484   4.401  0.4351  0.0029 -0.2177
 6799SOL    HW132030   3.100   0.503   4.312 -1.8135  2.4680 -0.4293
 6799SOL    HW232031   3.104   0.559   4.450 -0.4747 -0.0807  0.5337
 6800SOL     OW32032   1.394   4.565   4.494  0.0427  0.5070  0.1702
 6800SOL    HW132033   1.344   4.617   4.557 -0.7539 -1.0265  0.7964
 6800SOL    HW232034   1.359   4.476   4.501  0.0258  0.4822 -0.2145
 6801SOL     OW32035   3.381   2.081   8.341  0.6096  0.0870  0.4441
 6801SOL    HW132036   3.354   2.168   8.312  0.5124 -0.3040 -0.6455
 6801SOL    HW232037   3.385   2.026   8.263  3.1100 -0.6948  1.1269
 6802SOL     OW32038   2.060   3.773   2.238 -0.6996 -0.1339 -0.2864
 6802SOL    HW132039   2.114   3.761   2.159  0.1203  0.7452  0.1428
 6802SOL    HW232040   2.051   3.868   2.245 -2.2523 -0.5184  2.7478
 6803SOL     OW32041   2.652   3.832   8.590  0.2461 -0.6062  0.1564
 6803SOL    HW132042   2.620   3.800   8.674 -0.4428  0.2041  0.1991
 6803SOL    HW232043   2.669   3.924   8.611  3.4243 -1.0805 -0.2600
 6804SOL     OW32044   4.445   0.793   3.411 -0.0195 -0.2694  0.6197
 6804SOL    HW132045   4.479   0.705   3.393  1.2027  0.4252 -0.4701
 6804SOL    HW232046   4.530   0.832   3.433  0.2649 -0.3755 -0.2857
 6805SOL     OW32047   2.463   1.904   0.829  0.6253  0.1196  0.1174
 6805SOL    HW132048   2.516   1.920   0.750 -1.0919 -0.1386 -1.0875
 6805SOL    HW232049   2.459   1.994   0.863  0.0944  0.3173 -0.4609
 6806SOL     OW32050   2.498   4.171   4.143  0.2060 -0.0933  0.1763
 6806SOL    HW132051   2.582   4.199   4.179 -0.2988  2.4964 -0.6214
 6806SOL    HW232052   2.457   4.152   4.227 -1.6937  2.3158 -0.1866
 6807SOL     OW32053   3.409   4.115   3.868  0.0961 -0.0041  0.3176
 6807SOL    HW132054   3.349   4.151   3.803  0.0603 -1.3281 -0.3786
 6807SOL    HW232055   3.406   4.187   3.931  0.9678  0.7522 -0.5034
 6808SOL     OW32056   0.754   3.020  17.116  0.7568  0.1912 -0.2568
 6808SOL    HW132057   0.811   3.096  17.127  2.3930 -1.1198  0.2171
 6808SOL    HW232058   0.820   2.961  17.078  2.3608  1.5331  0.4613
 6809SOL     OW32059   4.132   0.810   5.344 -0.0500  0.6207 -0.5016
 6809SOL    HW132060   4.131   0.902   5.318  2.0487  0.6254 -0.4926
 6809SOL    HW232061   4.081   0.805   5.425  1.1206  0.4569  0.2083
 6810SOL     OW32062   4.010   3.769  16.511 -0.3273 -0.6376 -0.2537
 6810SOL    HW132063   3.978   3.724  16.433 -0.2127  1.6038 -1.6217
 6810SOL    HW232064   4.052   3.694  16.551 -1.5424 -1.0344  0.2857
 6811SOL     OW32065   2.815   1.684  10.921  0.4184 -0.5873  0.1913
 6811SOL    HW132066   2.724   1.688  10.951  0.0203 -1.9947 -0.8407
 6811SOL    HW232067   2.851   1.646  11.002  0.5507 -1.3810 -0.2390
 6812SOL     OW32068   1.137   1.517   1.894 -0.4114  0.2697 -0.2771
 6812SOL    HW132069   1.187   1.466   1.957 -0.0811 -2.2756 -2.5604
 6812SOL    HW232070   1.178   1.489   1.812  0.1185 -0.8798  0.3872
 6813SOL     OW32071   2.083   1.609   2.606 -0.1540  0.1680 -0.2043
 6813SOL    HW132072   2.163   1.583   2.653  1.9277  1.1585 -3.1824
 6813SOL    HW232073   2.099   1.698   2.575 -0.2947  0.8424  1.6597
 6814SOL     OW32074   4.058   3.748   0.838 -0.2203 -0.0668  0.0055
 6814SOL    HW132075   4.126   3.756   0.772 -0.4681  0.3738 -0.1960
 6814SOL    HW232076   4.093   3.805   0.907 -0.9229  0.7609 -0.3289
 6815SOL     OW32077   3.512   3.887   4.548 -0.4487  0.0893  0.3134
 6815SOL    HW132078   3.476   3.844   4.625 -2.9016  2.2431  0.3836
 6815SOL    HW232079   3.445   3.955   4.533  0.6279  1.1077  0.0929
 6816SOL     OW32080   1.861   3.725   3.963  0.9187  0.2097  0.0637
 6816SOL    HW132081   1.849   3.785   3.889 -1.7030 -0.9871 -0.5071
 6816SOL    HW232082   1.956   3.735   3.971  0.8257 -0.9776  2.5331
 6817SOL     OW32083   2.404   0.030  11.793 -0.0371 -0.9555 -0.0623
 6817SOL    HW132084   2.496   0.029  11.817 -1.1361 -0.9947  4.0862
 6817SOL    HW232085   2.413   0.077  11.710  0.1891 -0.1289  0.4361
 6818SOL     OW32086   1.122   3.561  16.949  0.6270  0.0320 -0.2500
 6818SOL    HW132087   1.039   3.514  16.962  1.9529 -1.6172  2.3295
 6818SOL    HW232088   1.104   3.647  16.986 -1.4478 -0.5423  0.0951
 6819SOL     OW32089   2.921   4.602   7.557 -0.1012  0.0185 -0.0766
 6819SOL    HW132090   2.868   4.521   7.559  1.5725 -1.0635  0.1645
 6819SOL    HW232091   2.849   4.660   7.582 -0.1432  0.1743 -0.5671
 6820SOL     OW32092   4.283   2.463   0.383 -0.8738 -0.2687  0.0314
 6820SOL    HW132093   4.242   2.526   0.442 -2.2805  0.0111 -1.2160
 6820SOL    HW232094   4.341   2.425   0.448 -2.2073 -1.9128  0.2835
 6821SOL     OW32095   3.229   0.515   1.201  0.5517  0.5781 -0.7826
 6821SOL    HW132096   3.176   0.555   1.132 -1.3242  1.5701  1.2094
 6821SOL    HW232097   3.300   0.483   1.146  0.7704  2.2311 -1.4699
 6822SOL     OW32098   4.024   2.492   1.757  0.7437 -0.1262 -0.4830
 6822SOL    HW132099   4.025   2.475   1.852  0.0697  2.3341 -0.0283
 6822SOL    HW232100   3.940   2.457   1.727 -1.3772  2.1598  2.6851
 6823SOL     OW32101   0.116   4.586  16.719  0.2191 -0.1539  0.3492
 6823SOL    HW132102   0.207   4.568  16.699  0.2540 -1.6548  1.8529
 6823SOL    HW232103   0.117   4.533  16.799  3.4547  1.4164  1.3126
 6824SOL     OW32104   4.039   2.199   8.951  0.2627  0.2822  0.4165
 6824SOL    HW132105   4.015   2.122   8.900  2.7607 -0.5487  0.5040
 6824SOL    HW232106   3.969   2.199   9.017  1.7684 -0.9986  1.9873
 6825SOL     OW32107   4.028   0.496   9.616  0.4688 -0.3859 -0.1226
 6825SOL    HW132108   4.114   0.488   9.657  0.0695  2.0405  1.1715
 6825SOL    HW232109   4.037   0.427   9.549  0.4177 -0.9970  0.4956
 6826SOL     OW32110   0.359   0.543   4.012 -0.4223 -0.2671  0.3332
 6826SOL    HW132111   0.289   0.525   3.949  0.8501 -0.2621 -1.0915
 6826SOL    HW232112   0.328   0.491   4.086 -0.0751 -0.6666  0.1951
 6827SOL     OW32113   0.798   1.242   9.452  0.5532  0.2299 -0.1017
 6827SOL    HW132114   0.880   1.227   9.405 -0.1369  2.1697 -1.9299
 6827SOL    HW232115   0.808   1.217   9.544  4.1352 -1.1249 -0.8789
 6828SOL     OW32116   3.180   0.806  10.914 -0.0097 -0.1360 -0.0638
 6828SOL    HW132117   3.140   0.871  10.857 -1.0278  0.6407  1.5294
 6828SOL    HW232118   3.126   0.808  10.993  0.0559 -0.3312 -0.0138
 6829SOL     OW32119   3.907   2.139   1.917  0.2855  0.0817 -0.1381
 6829SOL    HW132120   3.942   2.227   1.929 -0.8907  0.7396 -1.5318
 6829SOL    HW232121   3.890   2.116   2.008 -1.3733  0.8891 -0.2433
 6830SOL     OW32122   2.269   3.007   7.054 -0.2176 -0.1317  0.3149
 6830SOL    HW132123   2.256   3.049   6.969  0.5954  2.6870  1.5877
 6830SOL    HW232124   2.362   3.028   7.063 -0.0325 -0.8776  0.1289
 6831SOL     OW32125   3.920   3.202   4.992  0.6469  0.2108 -0.4121
 6831SOL    HW132126   3.941   3.287   5.031 -1.3185  0.9824 -1.0388
 6831SOL    HW232127   4.007   3.175   4.962  1.8248  1.5451  1.8371
 6832SOL     OW32128   3.864   3.507  12.166  0.0102 -0.1428  0.5509
 6832SOL    HW132129   3.797   3.455  12.122  0.1257  0.1684  0.0123
 6832SOL    HW232130   3.890   3.563  12.093 -1.1117  1.5156  1.4176
 6833SOL     OW32131   4.246   2.731  14.676  0.2740  0.1537  1.1724
 6833SOL    HW132132   4.234   2.797  14.607  2.6593 -0.0500  0.5745
 6833SOL    HW232133   4.164   2.734  14.725  2.1323 -0.7519  4.3568
 6834SOL     OW32134   3.952   2.072   2.662 -0.5322  0.6538 -0.4111
 6834SOL    HW132135   4.015   2.003   2.679 -1.3385  0.7506  3.0682
 6834SOL    HW232136   4.010   2.148   2.672 -0.5584  0.6515 -0.2298
 6835SOL     OW32137   2.624   1.415  15.308 -0.5128 -0.6627  0.1522
 6835SOL    HW132138   2.579   1.331  15.313  0.6272 -1.2820  0.0794
 6835SOL    HW232139   2.546   1.470  15.306 -2.0692 -2.8869 -1.3944
 6836SOL     OW32140   4.277   3.112   3.948  0.1781  0.1351 -0.1627
 6836SOL    HW132141   4.291   3.075   3.861 -1.4720  1.8800 -1.1840
 6836SOL    HW232142   4.276   3.036   4.007 -2.5381  0.6073  0.3924
 6837SOL     OW32143   1.348   3.919   3.170 -0.4093  0.6391  0.4413
 6837SOL    HW132144   1.397   3.934   3.090 -2.1568  0.7057 -0.6222
 6837SOL    HW232145   1.387   3.990   3.222 -0.8257  1.3345 -0.1952
 6838SOL     OW32146   4.518   1.894  12.020 -0.7486  0.0872 -0.1249
 6838SOL    HW132147   4.522   1.952  12.097 -0.7997  2.7075 -2.0891
 6838SOL    HW232148   4.538   1.964  11.958  2.6753  0.4261  1.3491
 6839SOL     OW32149   4.590   3.415   5.897 -0.1444  0.3846  0.0935
 6839SOL    HW132150   4.579   3.402   5.803 -0.9463 -0.0973  0.2480
 6839SOL    HW232151   4.591   3.510   5.893  0.2514  0.4851  2.2518
 6840SOL     OW32152   2.255   0.401  12.580  0.2697  0.3324  0.1672
 6840SOL    HW132153   2.181   0.407  12.520  0.8274  0.8846 -0.4585
 6840SOL    HW232154   2.292   0.319  12.546  0.7759 -0.4215  2.5679
 6841SOL     OW32155   1.359   3.407   8.245 -0.2362  0.0267 -0.1677
 6841SOL    HW132156   1.275   3.421   8.288 -0.2265 -0.6077  0.0658
 6841SOL    HW232157   1.391   3.497   8.248  0.8361 -0.3452 -0.2343
 6842SOL     OW32158   3.247   1.719   2.684  0.8463 -0.1164 -0.1774
 6842SOL    HW132159   3.174   1.660   2.703  0.4645  0.4272  0.0220
 6842SOL    HW232160   3.205   1.803   2.670 -0.0265 -0.2514  1.7314
 6843SOL     OW32161   1.703   4.423   4.179 -0.2723 -0.2323 -0.0840
 6843SOL    HW132162   1.642   4.493   4.201 -0.9963 -0.8880 -0.0141
 6843SOL    HW232163   1.637   4.355   4.176  1.3612 -1.8589  0.7619
 6844SOL     OW32164   2.858   1.656   5.413  0.3705  0.1105  0.3395
 6844SOL    HW132165   2.933   1.625   5.363 -0.9980  0.0008 -1.6505
 6844SOL    HW232166   2.887   1.619   5.496 -0.0132  0.9586  0.8488
 6845SOL     OW32167   3.456   3.193   8.761  0.7199  0.7613  0.0643
 6845SOL    HW132168   3.453   3.204   8.856  0.9731 -0.4524  0.2210
 6845SOL    HW232169   3.543   3.157   8.742 -0.1896 -1.2685 -0.2901
 6846SOL     OW32170   3.654   3.082   2.274 -0.4467 -0.4816  0.0763
 6846SOL    HW132171   3.665   3.177   2.284  1.0269 -0.6680  0.1919
 6846SOL    HW232172   3.698   3.057   2.192 -1.5225  0.4086 -0.7801
 6847SOL     OW32173   1.814   1.180   7.298  0.3428 -0.1187  0.0376
 6847SOL    HW132174   1.724   1.191   7.329  0.1873  1.8609 -1.1458
 6847SOL    HW232175   1.843   1.112   7.359 -1.2225 -2.0540 -1.3777
 6848SOL     OW32176   0.929   0.790   0.227  0.6569  0.4263 -0.6486
 6848SOL    HW132177   0.916   0.699   0.255  0.5973  0.4153 -0.7117
 6848SOL    HW232178   1.009   0.808   0.276 -0.5506  2.6063  0.4783
 6849SOL     OW32179   4.444   2.303   7.000 -0.1177  0.2061 -0.3902
 6849SOL    HW132180   4.450   2.293   7.095  0.0885 -0.7039 -0.4984
 6849SOL    HW232181   4.524   2.352   6.981  1.8143 -2.3949  1.0897
 6850SOL     OW32182   0.719   0.602   8.017 -0.6976  0.6420  0.7944
 6850SOL    HW132183   0.739   0.567   8.104  0.0103  2.3270  1.3043
 6850SOL    HW232184   0.661   0.673   8.045 -1.1820 -0.3071  2.1717
 6851SOL     OW32185   4.120   0.093   3.352 -0.1911 -0.0468 -0.0515
 6851SOL    HW132186   4.080   0.015   3.315  1.9259 -1.5793  0.9013
 6851SOL    HW232187   4.207   0.087   3.312  0.6628  0.6960  1.6976
 6852SOL     OW32188   0.208   1.570  12.813  0.7102 -0.4427  0.4737
 6852SOL    HW132189   0.201   1.664  12.794 -1.3354 -0.0832  3.0892
 6852SOL    HW232190   0.210   1.562  12.908 -1.1087 -2.0682  0.3760
 6853SOL     OW32191   3.707   0.114   8.902  0.7805  0.0426  0.0968
 6853SOL    HW132192   3.692   0.023   8.929  1.3633  0.0092  0.3083
 6853SOL    HW232193   3.795   0.104   8.867  0.1644 -2.7703 -0.6574
 6854SOL     OW32194   4.721   0.715  15.150 -1.0184  0.1399  0.1936
 6854SOL    HW132195   0.014   0.625  15.171  0.0695  0.5567  0.6362
 6854SOL    HW232196   0.007   0.709  15.056 -0.5118  1.3931  0.2226
 6855SOL     OW32197   0.926   1.327   6.109  0.1505 -0.3061  0.2524
 6855SOL    HW132198   0.988   1.400   6.100 -1.8704  1.3967  0.2377
 6855SOL    HW232199   0.908   1.305   6.018 -0.4789 -1.7460  0.7305
 6856SOL     OW32200   0.226   1.152   1.437  0.5644  0.2591  0.0194
 6856SOL    HW132201   0.270   1.133   1.520  2.4903  2.7543 -0.4328
 6856SOL    HW232202   0.180   1.069   1.423 -1.4534  1.4628 -0.4521
 6857SOL     OW32203   4.552   3.226  12.128  0.0835 -0.1017 -0.1814
 6857SOL    HW132204   4.519   3.182  12.206  0.2875  0.2617  0.1111
 6857SOL    HW232205   4.520   3.176  12.054  2.4381 -1.8091 -0.0265
 6858SOL     OW32206   0.272   3.032  14.730 -0.0250  0.0989  0.3968
 6858SOL    HW132207   0.306   3.118  14.753 -0.7812  0.0364  1.7255
 6858SOL    HW232208   0.225   3.004  14.809 -1.1611 -2.6025 -1.2200
 6859SOL     OW32209   4.020   3.830   2.177 -0.5225  0.0058  0.1310
 6859SOL    HW132210   3.998   3.774   2.103  1.1565 -0.6763  0.1460
 6859SOL    HW232211   4.018   3.914   2.131 -1.8321 -0.2994 -0.3754
 6860SOL     OW32212   2.622   4.072   2.084  0.0968 -0.0859 -0.2679
 6860SOL    HW132213   2.688   4.003   2.090 -0.9595 -0.9409  1.3924
 6860SOL    HW232214   2.553   4.023   2.129  1.1723 -0.5549  0.8449
 6861SOL     OW32215   2.764   4.334   6.155 -0.4023  0.2986  0.0818
 6861SOL    HW132216   2.697   4.293   6.101  0.1166 -0.4678  0.0124
 6861SOL    HW232217   2.835   4.355   6.095 -0.7537 -0.8306 -0.7304
 6862SOL     OW32218   4.370   1.666   3.517 -0.1176  0.3063  0.5133
 6862SOL    HW132219   4.407   1.753   3.527  1.1584 -0.4924  2.7642
 6862SOL    HW232220   4.446   1.607   3.510  1.1215  1.7975  1.2392
 6863SOL     OW32221   0.723   3.752   5.021  0.1335  0.0828  0.3769
 6863SOL    HW132222   0.794   3.696   5.052 -2.5386 -2.3063  2.1414
 6863SOL    HW232223   0.743   3.834   5.068 -2.6731  0.4975  0.8465
 6864SOL     OW32224   2.675   2.002   1.826 -0.1601 -0.1928 -0.2339
 6864SOL    HW132225   2.677   1.906   1.829 -0.0756 -0.2255 -1.4257
 6864SOL    HW232226   2.651   2.009   1.734 -1.8370  1.3334  0.3226
 6865SOL     OW32227   0.899   0.578   1.062  0.2427  0.3494 -0.2939
 6865SOL    HW132228   0.827   0.596   1.122  0.6739 -0.3537  0.4252
 6865SOL    HW232229   0.876   0.492   1.026  0.7525 -0.3946  1.1664
 6866SOL     OW32230   1.330   2.786   6.615  0.6333  0.3174 -0.4152
 6866SOL    HW132231   1.286   2.784   6.530 -0.4998  0.6032  0.1647
 6866SOL    HW232232   1.384   2.865   6.612  0.8817  0.1273 -0.9436
 6867SOL     OW32233   2.243   1.591   4.163 -0.5220 -0.0431  0.3708
 6867SOL    HW132234   2.173   1.600   4.228 -0.4252 -1.1347  0.6269
 6867SOL    HW232235   2.237   1.676   4.120 -0.1319 -0.1455  0.1135
 6868SOL     OW32236   0.420   0.331   7.541 -0.4181  0.1861 -0.3393
 6868SOL    HW132237   0.369   0.408   7.565 -0.0471  0.1070  0.7029
 6868SOL    HW232238   0.458   0.285   7.616  0.7360  2.1517  0.2700
 6869SOL     OW32239   4.365   2.779   8.306 -0.0494 -0.6531  0.3135
 6869SOL    HW132240   4.320   2.812   8.383 -0.7077 -2.0009  0.5167
 6869SOL    HW232241   4.309   2.704   8.283 -2.1147  0.7667  0.7068
 6870SOL     OW32242   2.174   3.592   5.379 -0.1581 -0.4843  0.1190
 6870SOL    HW132243   2.187   3.508   5.425 -1.3145  0.5374  2.3320
 6870SOL    HW232244   2.220   3.651   5.440 -2.5641  0.1129  1.3618
 6871SOL     OW32245   3.934   1.138   5.097 -1.1927 -0.3074 -0.0999
 6871SOL    HW132246   4.007   1.094   5.054 -0.7046 -0.1697  0.5856
 6871SOL    HW232247   3.860   1.082   5.073 -1.5791  0.1937 -0.0841
 6872SOL     OW32248   4.175   0.118  13.606 -0.0650 -0.5182 -0.2674
 6872SOL    HW132249   4.145   0.173  13.533 -0.8459 -1.1927 -0.4526
 6872SOL    HW232250   4.242   0.063  13.567  1.0363  0.3133  0.4539
 6873SOL     OW32251   1.473   2.935   5.403  0.0097 -0.5307 -0.3948
 6873SOL    HW132252   1.472   2.840   5.394  0.4900 -0.4980 -0.7703
 6873SOL    HW232253   1.437   2.950   5.491 -0.6731 -1.3823 -0.5245
 6874SOL     OW32254   4.005   1.442  10.488 -0.5591 -0.1707  0.2237
 6874SOL    HW132255   4.023   1.348  10.481 -0.7244 -0.1967  0.1496
 6874SOL    HW232256   3.916   1.429  10.458 -0.5871 -1.6274  0.9403
 6875SOL     OW32257   2.699   1.923  12.276 -0.1717  0.2534 -0.4024
 6875SOL    HW132258   2.614   1.884  12.257 -0.0194 -0.0530 -0.4591
 6875SOL    HW232259   2.706   1.970  12.192  0.6983 -1.1240 -1.1044
 6876SOL     OW32260   2.109   2.303   4.117 -0.3188  0.0063  0.1612
 6876SOL    HW132261   2.142   2.285   4.029  0.8061 -0.7043  0.7346
 6876SOL    HW232262   2.067   2.221   4.140  0.2109 -0.7616 -1.6210
 6877SOL     OW32263   1.607   2.573   7.514 -0.2396  0.2670 -0.2593
 6877SOL    HW132264   1.519   2.546   7.541 -0.1981  0.9209  0.5213
 6877SOL    HW232265   1.623   2.507   7.447  2.0328  1.5598 -0.9899
 6878SOL     OW32266   0.357   2.988  14.335  0.1481  0.0565  0.0031
 6878SOL    HW132267   0.340   2.894  14.333  1.2051 -0.0897 -2.5473
 6878SOL    HW232268   0.330   2.998  14.244 -1.9242  0.1673  0.6375
 6879SOL     OW32269   2.136   1.631   5.999 -0.1116  0.4369 -0.1474
 6879SOL    HW132270   2.221   1.633   6.043 -0.8259  0.4609  1.2253
 6879SOL    HW232271   2.146   1.696   5.929 -1.1131 -0.7688 -1.4373
 6880SOL     OW32272   0.112   0.705   8.035  0.1944 -0.2314 -0.2879
 6880SOL    HW132273   0.122   0.705   8.130  0.5576 -0.0778 -0.3258
 6880SOL    HW232274   0.197   0.670   8.009  0.2219  1.7208 -2.9039
 6881SOL     OW32275   2.497   0.298   2.878  0.3303 -0.3396  0.0573
 6881SOL    HW132276   2.521   0.386   2.850 -0.3953 -0.2476 -0.2789
 6881SOL    HW232277   2.471   0.254   2.797  1.3411 -1.2262  0.1992
 6882SOL     OW32278   2.749   4.260   4.242  0.2273 -0.0933  0.0640
 6882SOL    HW132279   2.821   4.295   4.295  1.7823 -2.0101 -0.8060
 6882SOL    HW232280   2.698   4.341   4.232 -2.6038 -2.2992 -3.1863
 6883SOL     OW32281   3.558   0.370   1.797 -0.4603 -0.1452 -0.1283
 6883SOL    HW132282   3.479   0.330   1.760 -1.7686  1.6997  0.6711
 6883SOL    HW232283   3.534   0.458   1.826 -1.0925 -0.1167 -0.7462
 6884SOL     OW32284   3.527   1.730   2.701  0.0127  0.0174  0.1252
 6884SOL    HW132285   3.433   1.729   2.683  0.0544  1.0261 -0.1488
 6884SOL    HW232286   3.540   1.639   2.726 -0.6558 -0.3200 -0.7577
 6885SOL     OW32287   3.953   0.862  10.326 -0.4974 -0.3308  0.0353
 6885SOL    HW132288   3.969   0.777  10.367 -1.1695 -1.7863 -2.7443
 6885SOL    HW232289   3.994   0.927  10.384  1.3053  1.4612 -3.2571
 6886SOL     OW32290   1.224   3.746  10.963 -0.1558 -0.0874  0.2135
 6886SOL    HW132291   1.275   3.801  11.023 -0.5157  1.3007 -0.7669
 6886SOL    HW232292   1.283   3.670  10.962 -0.2199 -0.1567  2.2564
 6887SOL     OW32293   2.847   3.612   6.855 -0.2843  0.3412  0.6311
 6887SOL    HW132294   2.807   3.631   6.771  3.4516  1.0697 -0.9784
 6887SOL    HW232295   2.926   3.560   6.841  1.1966  3.1518 -1.3820
 6888SOL     OW32296   3.243   3.283   0.671  0.6849 -0.2375  0.0583
 6888SOL    HW132297   3.148   3.271   0.674  0.2873  3.0907  0.9872
 6888SOL    HW232298   3.272   3.216   0.733  0.4146 -1.6163 -1.3093
 6889SOL     OW32299   2.294   2.071   2.064 -0.4548  0.0783  0.4234
 6889SOL    HW132300   2.264   2.051   1.975 -0.1733 -0.0620  0.3614
 6889SOL    HW232301   2.292   1.982   2.098 -2.7643 -0.8173 -2.0569
 6890SOL     OW32302   1.941   2.401   5.555 -0.1822 -0.2250  0.0173
 6890SOL    HW132303   1.878   2.364   5.493 -0.9579  0.1125  0.6021
 6890SOL    HW232304   1.890   2.467   5.602  0.1728 -0.1785  0.3320
 6891SOL     OW32305   0.944   0.675   2.884 -0.2415  0.3861 -0.8551
 6891SOL    HW132306   0.910   0.733   2.952  0.5379  0.3505 -0.4363
 6891SOL    HW232307   1.012   0.727   2.842  0.5450 -0.7559 -0.9887
 6892SOL     OW32308   3.223   2.211   2.659  0.4181 -0.0378 -0.9498
 6892SOL    HW132309   3.141   2.235   2.617 -0.3989  0.9890  1.2568
 6892SOL    HW232310   3.231   2.118   2.637  0.0938 -0.1969 -0.3901
 6893SOL     OW32311   1.364   1.651  11.499 -0.3673  0.3248  0.5444
 6893SOL    HW132312   1.449   1.673  11.538 -0.3504  1.0210  0.1069
 6893SOL    HW232313   1.320   1.627  11.581 -0.0184  0.5673  0.8023
 6894SOL     OW32314   4.419   3.033   3.418 -0.0615 -0.2806  0.7863
 6894SOL    HW132315   4.422   3.103   3.352  1.4238 -0.9445  0.1560
 6894SOL    HW232316   4.496   3.052   3.471  0.4999 -2.6491  0.8047
 6895SOL     OW32317   4.421   1.824  16.328  0.5823 -0.3033 -0.7168
 6895SOL    HW132318   4.345   1.859  16.376  1.9392  1.5806  0.0745
 6895SOL    HW232319   4.382   1.822  16.241 -1.3058  2.6705  0.0464
 6896SOL     OW32320   3.795   2.420   4.407 -0.2332  0.0039  0.9565
 6896SOL    HW132321   3.849   2.347   4.377 -1.3600  0.3364 -1.9426
 6896SOL    HW232322   3.716   2.368   4.424  1.0457 -2.1597  0.3272
 6897SOL     OW32323   3.273   2.983   2.949  0.1496 -0.5950 -0.0836
 6897SOL    HW132324   3.251   3.053   3.010  0.7687 -0.5903  0.1306
 6897SOL    HW232325   3.328   2.924   3.002 -0.8412 -0.9525  0.5545
 6898SOL     OW32326   2.846   3.754   3.918 -1.0726 -0.6876  0.3120
 6898SOL    HW132327   2.861   3.782   3.828 -1.4846 -0.2316  0.3878
 6898SOL    HW232328   2.921   3.795   3.960 -0.6571 -0.0501 -1.0813
 6899SOL     OW32329   4.254   2.124  12.297  0.1107 -0.1118  0.2959
 6899SOL    HW132330   4.190   2.174  12.246  1.7380 -0.4961 -2.1658
 6899SOL    HW232331   4.325   2.185  12.274 -3.1160  4.0367  1.2696
 6900SOL     OW32332   0.253   2.795   7.156  0.3618 -0.2441 -0.5600
 6900SOL    HW132333   0.188   2.819   7.222 -0.1232 -0.2630 -1.0303
 6900SOL    HW232334   0.299   2.729   7.209 -0.5960 -2.5711 -2.6743
 6901SOL     OW32335   0.276   2.716  15.744  0.3182  0.2922 -0.0821
 6901SOL    HW132336   0.190   2.686  15.773 -0.3731 -0.3428 -2.8157
 6901SOL    HW232337   0.336   2.682  15.811 -2.6166  0.5670  2.6510
 6902SOL     OW32338   4.217   3.432   9.221 -0.0258 -0.2313  0.5297
 6902SOL    HW132339   4.226   3.339   9.244  0.5736 -0.7802 -1.9565
 6902SOL    HW232340   4.146   3.453   9.281 -0.1213 -2.0391  1.0707
 6903SOL     OW32341   0.839   3.333   4.718 -0.1282 -0.0870 -0.4824
 6903SOL    HW132342   0.879   3.350   4.803  0.8459 -0.0902 -0.9382
 6903SOL    HW232343   0.902   3.360   4.651  0.8674 -3.8637 -1.0855
 6904SOL     OW32344   2.240   0.580  11.117  0.0632 -0.3137  0.3991
 6904SOL    HW132345   2.194   0.564  11.034 -0.2062  1.4031  0.2249
 6904SOL    HW232346   2.181   0.642  11.159  2.0999  1.1872  1.0499
 6905SOL     OW32347   1.733   4.138   7.315  0.3655 -0.0888 -0.3440
 6905SOL    HW132348   1.669   4.136   7.243  0.7104 -0.4281 -0.6446
 6905SOL    HW232349   1.712   4.222   7.354 -2.2217 -0.2374 -1.4094
 6906SOL     OW32350   1.500   0.103   1.011  0.7017 -0.5152 -0.1647
 6906SOL    HW132351   1.569   0.141   0.957 -0.0168 -0.8522 -1.3324
 6906SOL    HW232352   1.448   0.056   0.945  0.9197 -0.2313 -0.5373
 6907SOL     OW32353   1.406   2.259  17.138  0.8169 -0.1525  0.6165
 6907SOL    HW132354   1.325   2.295  17.100  0.6149  1.6307  2.7186
 6907SOL    HW232355   1.402   2.306  17.222  0.1519 -0.1075  0.5639
 6908SOL     OW32356   1.653   4.617   9.276 -0.4776  0.0599 -0.2117
 6908SOL    HW132357   1.640   4.706   9.308  0.9070  0.2744 -0.2670
 6908SOL    HW232358   1.673   4.579   9.361 -0.5484 -1.5064 -0.8894
 6909SOL     OW32359   3.372   1.407   6.263  0.1777  0.4346  0.9045
 6909SOL    HW132360   3.454   1.411   6.312  1.6184  3.2798 -1.7320
 6909SOL    HW232361   3.300   1.397   6.324 -1.5371 -2.4344 -1.5823
 6910SOL     OW32362   0.607   1.421  13.336  1.0604  0.2200 -0.5797
 6910SOL    HW132363   0.618   1.411  13.242 -1.7787 -1.0094 -0.8017
 6910SOL    HW232364   0.561   1.505  13.340  0.3003 -0.1844 -0.8499
 6911SOL     OW32365   1.888   2.438   9.754  0.1882 -0.1635  0.2810
 6911SOL    HW132366   1.952   2.367   9.762  1.1901  0.6740 -0.1172
 6911SOL    HW232367   1.952   2.509   9.743 -0.3936  0.2242 -0.5570
 6912SOL     OW32368   1.477   0.929   2.605  0.5211 -0.2215 -0.3057
 6912SOL    HW132369   1.515   1.004   2.560 -0.6034  0.3835 -0.2446
 6912SOL    HW232370   1.392   0.910   2.564  0.5146 -0.7965 -0.0303
 6913SOL     OW32371   3.162   4.270   5.444  0.5215 -0.7068 -0.6486
 6913SOL    HW132372   3.098   4.199   5.439 -1.5061  1.0809 -0.0971
 6913SOL    HW232373   3.231   4.239   5.384  1.8820  1.4989 -0.2132
 6914SOL     OW32374   0.050   0.273   3.604 -0.3648  0.5720 -0.2345
 6914SOL    HW132375   0.124   0.213   3.602 -1.4543 -0.8659  1.6022
 6914SOL    HW232376   0.021   0.266   3.696 -1.6784  0.4727 -0.6553
 6915SOL     OW32377   3.408   3.448  11.208  0.4918 -0.6673  0.2088
 6915SOL    HW132378   3.386   3.513  11.275  2.6820 -0.9501  1.2369
 6915SOL    HW232379   3.357   3.480  11.134  0.2745 -0.0746  0.6195
 6916SOL     OW32380   0.770   0.589  11.773 -0.1538  0.5231 -0.0131
 6916SOL    HW132381   0.784   0.570  11.866 -1.5758 -0.4810 -0.0014
 6916SOL    HW232382   0.847   0.644  11.756  0.9208  0.0859  3.3246
 6917SOL     OW32383   1.595   1.023   9.320 -0.1082  0.2500 -0.1388
 6917SOL    HW132384   1.675   1.077   9.322  1.1545 -1.6313  0.2784
 6917SOL    HW232385   1.531   1.084   9.284 -1.9950 -2.7171 -1.8185
 6918SOL     OW32386   3.712   1.459   4.509 -0.1365  0.3679  0.2238
 6918SOL    HW132387   3.792   1.503   4.481 -0.1729  1.0231  1.1664
 6918SOL    HW232388   3.731   1.388   4.570 -1.8954 -1.0332 -0.8624
 6919SOL     OW32389   0.490   0.805   3.550 -0.0908 -0.1550  0.0888
 6919SOL    HW132390   0.475   0.736   3.615 -2.5503  1.6772  1.4490
 6919SOL    HW232391   0.453   0.766   3.471  1.0496 -2.2503  0.5909
 6920SOL     OW32392   0.242   3.980   8.568 -0.4055  0.0313  0.0086
 6920SOL    HW132393   0.202   4.034   8.500 -1.6765 -0.5616  0.2849
 6920SOL    HW232394   0.180   3.908   8.574  0.4201 -0.8380 -1.9100
 6921SOL     OW32395   3.646   2.875   5.888  0.1037  0.8617 -0.2224
 6921SOL    HW132396   3.625   2.963   5.855  0.0012  1.1581  0.6423
 6921SOL    HW232397   3.707   2.843   5.822 -1.8603 -1.0900 -1.1233
 6922SOL     OW32398   1.651   3.766  17.203 -0.2388 -0.5396  0.2391
 6922SOL    HW132399   1.641   3.823  17.127  0.7333 -2.0189 -1.0017
 6922SOL    HW232400   1.624   3.681  17.167 -2.3465 -0.9893  2.8849
 6923SOL     OW32401   1.294   2.661  15.078 -0.3610 -0.5253 -0.1097
 6923SOL    HW132402   1.350   2.712  15.137 -0.9922 -1.2784  1.1355
 6923SOL    HW232403   1.209   2.702  15.096 -0.3694  0.3464 -2.0905
 6924SOL     OW32404   0.460   4.170  15.163 -0.2482  0.0490 -0.0510
 6924SOL    HW132405   0.429   4.114  15.092  1.3851 -1.8772  0.7355
 6924SOL    HW232406   0.462   4.116  15.242  0.5797 -3.0175 -2.1393
 6925SOL     OW32407   2.984   3.950   1.876  0.1223 -0.1630 -0.1692
 6925SOL    HW132408   3.062   3.987   1.917  1.1579 -2.8630  0.3537
 6925SOL    HW232409   2.994   3.860   1.907  0.6574 -0.4322 -1.1320
 6926SOL     OW32410   3.310   0.878   2.386 -0.5180 -0.2430 -0.0775
 6926SOL    HW132411   3.329   0.962   2.428  0.3807 -0.6200  0.2583
 6926SOL    HW232412   3.370   0.824   2.437  1.6386  0.2638 -2.0428
 6927SOL     OW32413   2.458   3.686   1.408 -1.2429 -0.4094  0.3082
 6927SOL    HW132414   2.503   3.767   1.381 -0.1095 -0.7905  1.0435
 6927SOL    HW232415   2.504   3.657   1.487  0.2562  0.0846 -0.3626
 6928SOL     OW32416   3.608   2.944   4.129  0.3105  0.2699 -0.5987
 6928SOL    HW132417   3.618   3.038   4.141 -4.0266  0.9362 -2.3893
 6928SOL    HW232418   3.589   2.899   4.212 -3.3243  1.8054 -0.6102
 6929SOL     OW32419   2.640   2.040   8.283  0.0883 -0.5068 -0.1750
 6929SOL    HW132420   2.573   2.095   8.323  0.8597 -0.6532  1.3199
 6929SOL    HW232421   2.637   1.971   8.349  4.5932  1.4653  2.0573
 6930SOL     OW32422   1.649   0.308   5.895 -0.0279 -0.1103 -0.3077
 6930SOL    HW132423   1.578   0.291   5.957  0.9520 -0.4935  0.7277
 6930SOL    HW232424   1.677   0.220   5.870 -3.3503 -1.2211 -0.0437
 6931SOL     OW32425   1.642   4.184   6.022  0.0288 -0.4154 -0.3997
 6931SOL    HW132426   1.602   4.103   5.990  0.9520 -0.7370 -0.7322
 6931SOL    HW232427   1.578   4.251   5.997  1.5711  1.4196  0.5580
 6932SOL     OW32428   3.765   2.843   6.657 -0.0491 -0.8919 -0.7837
 6932SOL    HW132429   3.749   2.917   6.598  0.6855 -0.2585 -0.1946
 6932SOL    HW232430   3.847   2.860   6.704 -1.9527  1.4286  1.7786
 6933SOL     OW32431   2.210   0.975   7.486 -0.3680 -0.4541 -0.0146
 6933SOL    HW132432   2.172   1.038   7.547  1.4339  0.5810  0.0236
 6933SOL    HW232433   2.133   0.919   7.475 -0.0916 -0.2998 -2.7320
 6934SOL     OW32434   1.706   3.687   2.865 -0.0225 -0.1876 -0.9196
 6934SOL    HW132435   1.661   3.608   2.897 -1.5127  0.8903 -0.3727
 6934SOL    HW232436   1.794   3.657   2.842  0.9522  1.0063  1.3203
 6935SOL     OW32437   3.320   4.436   3.324  0.5481 -0.8807  0.1028
 6935SOL    HW132438   3.332   4.359   3.381 -1.0337 -1.4859 -0.3606
 6935SOL    HW232439   3.235   4.419   3.283  0.0551  1.7849  0.0699
 6936SOL     OW32440   0.257   3.145   7.300  0.2621 -0.4331  0.0681
 6936SOL    HW132441   0.200   3.123   7.374  0.2060 -0.2927  0.0669
 6936SOL    HW232442   0.281   3.231   7.335  2.0701 -1.0893  0.4244
 6937SOL     OW32443   2.092   3.868   5.957  0.1099  0.6638  0.1117
 6937SOL    HW132444   2.067   3.783   5.994  2.1129  0.5443  1.1921
 6937SOL    HW232445   2.098   3.923   6.035 -1.8141 -0.1075  0.7932
 6938SOL     OW32446   2.066   3.396   2.337 -0.2225 -0.3649 -0.5919
 6938SOL    HW132447   2.132   3.330   2.358  0.3756  0.1278 -0.9475
 6938SOL    HW232448   2.021   3.361   2.260 -0.8254 -0.7707 -0.0572
 6939SOL     OW32449   3.894   3.349   2.406 -0.3505 -0.6958 -0.5737
 6939SOL    HW132450   3.816   3.378   2.359 -0.9974  0.2570  1.0627
 6939SOL    HW232451   3.934   3.295   2.338  1.0449  0.3146 -0.5586
 6940SOL     OW32452   1.465   1.756   1.712 -0.2526  0.3621 -0.2976
 6940SOL    HW132453   1.407   1.681   1.695  0.5285 -0.3840  0.2892
 6940SOL    HW232454   1.539   1.703   1.743 -0.3069  0.2147 -0.4195
 6941SOL     OW32455   1.508   3.594   3.244  0.2488 -0.0126 -0.3996
 6941SOL    HW132456   1.527   3.531   3.314  0.5144  1.1041  0.5351
 6941SOL    HW232457   1.449   3.653   3.291  1.4676 -0.0291  1.1546
 6942SOL     OW32458   2.533   1.326   1.402 -0.8758  0.0426 -0.7394
 6942SOL    HW132459   2.472   1.254   1.421  0.0333 -0.3118  0.9326
 6942SOL    HW232460   2.581   1.340   1.484 -2.5192  0.4664  0.1457
 6943SOL     OW32461   0.856   1.737  14.287  0.1360  0.2790 -0.0045
 6943SOL    HW132462   0.915   1.673  14.326  0.6016  0.1088 -0.9905
 6943SOL    HW232463   0.872   1.723  14.194  0.2672  0.3298  0.0105
 6944SOL     OW32464   0.678   0.684   1.241 -0.0904  0.0756  0.7501
 6944SOL    HW132465   0.650   0.770   1.272  0.7367  1.3885 -2.0886
 6944SOL    HW232466   0.733   0.668   1.317 -1.6175 -0.2291  1.7913
 6945SOL     OW32467   2.296   1.766  15.660  0.2864 -0.0300 -0.1118
 6945SOL    HW132468   2.360   1.710  15.704  0.9460 -0.6027 -1.7799
 6945SOL    HW232469   2.243   1.697  15.620  0.0315 -0.4081  0.8886
 6946SOL     OW32470   3.494   1.271   0.158 -0.2082 -0.5973 -0.4340
 6946SOL    HW132471   3.433   1.199   0.141 -0.9849  0.3464 -1.7578
 6946SOL    HW232472   3.491   1.276   0.253  0.1851  1.0592 -0.5096
 6947SOL     OW32473   2.371   1.478  15.541  0.0498  0.4624 -0.0401
 6947SOL    HW132474   2.406   1.529  15.614  0.6603 -0.2210  0.1528
 6947SOL    HW232475   2.419   1.396  15.555 -0.2365  0.4529  0.8887
 6948SOL     OW32476   3.926   1.223   8.211 -0.2337  0.0094 -0.4614
 6948SOL    HW132477   4.005   1.209   8.159 -0.4124 -2.9370  0.0239
 6948SOL    HW232478   3.858   1.169   8.170 -1.2497  0.3395  0.7871
 6949SOL     OW32479   3.414   2.128   4.946 -0.0198  0.3441 -0.3216
 6949SOL    HW132480   3.438   2.171   5.028  2.1844 -3.2101  0.9071
 6949SOL    HW232481   3.487   2.159   4.891  0.6174  0.1730  0.4382
 6950SOL     OW32482   1.087   3.628   3.057 -0.3514 -0.2740  0.0040
 6950SOL    HW132483   1.069   3.597   3.145  1.4591 -1.0765  0.0944
 6950SOL    HW232484   1.106   3.720   3.075  0.0606 -0.5975  1.2052
 6951SOL     OW32485   2.876   2.827   7.272  0.2246  0.0371  0.2321
 6951SOL    HW132486   2.851   2.859   7.359 -4.4767  0.3014 -1.2047
 6951SOL    HW232487   2.970   2.838   7.284  0.0776  0.3583  1.0747
 6952SOL     OW32488   2.443   3.571  10.377  0.1485 -0.1609  0.2063
 6952SOL    HW132489   2.358   3.534  10.400 -0.0827  0.3399  0.1416
 6952SOL    HW232490   2.494   3.566  10.458  0.0261  1.0023  0.3471
 6953SOL     OW32491   1.820   2.157   7.361 -0.4518 -0.4113  0.1844
 6953SOL    HW132492   1.846   2.205   7.440 -2.5531  1.2298 -0.1297
 6953SOL    HW232493   1.834   2.065   7.384  1.4138 -0.8802 -2.7707
 6954SOL     OW32494   1.804   4.078   3.234 -0.4167  0.1602  0.8725
 6954SOL    HW132495   1.781   3.989   3.208 -0.5749  1.0358 -1.9950
 6954SOL    HW232496   1.786   4.075   3.328  1.2619 -0.7559  1.1538
 6955SOL     OW32497   3.552   2.721   9.122 -0.0697  0.0455  0.1210
 6955SOL    HW132498   3.542   2.768   9.039  2.6531  0.8515  0.2513
 6955SOL    HW232499   3.493   2.646   9.107  0.0713  0.2298 -1.4164
 6956SOL     OW32500   1.499   2.357   6.853 -0.1038  0.2186 -0.2430
 6956SOL    HW132501   1.493   2.452   6.841  0.3711  0.3530  0.5412
 6956SOL    HW232502   1.556   2.348   6.776 -0.2210 -1.1704 -0.1618
 6957SOL     OW32503   3.636   1.365   6.341  0.0917  0.0840 -0.0903
 6957SOL    HW132504   3.710   1.408   6.383 -0.5451 -0.6168  1.7521
 6957SOL    HW232505   3.642   1.272   6.361 -1.0216  0.2402  1.0072
 6958SOL     OW32506   0.737   2.282   6.371  0.0425  0.2184  0.0125
 6958SOL    HW132507   0.700   2.206   6.326 -0.6836  0.3716  0.3651
 6958SOL    HW232508   0.671   2.352   6.368 -1.3168 -0.9801  2.1108
 6959SOL     OW32509   2.743   3.753   2.548 -0.3092  0.1908  0.2432
 6959SOL    HW132510   2.827   3.709   2.562  0.0560  0.3922 -1.3710
 6959SOL    HW232511   2.777   3.836   2.516 -0.1739 -0.2225 -0.7045
 6960SOL     OW32512   0.654   2.257   9.424  0.0454  0.0742 -0.0902
 6960SOL    HW132513   0.678   2.300   9.506 -1.8738 -0.8033  0.9166
 6960SOL    HW232514   0.573   2.215   9.452  0.2489 -0.2262  0.0519
 6961SOL     OW32515   3.601   4.691  10.594 -0.0513 -0.1269 -0.6102
 6961SOL    HW132516   3.663   4.727  10.658 -0.6448 -0.3276  0.0719
 6961SOL    HW232517   3.607   4.596  10.601 -1.0092 -0.0730  0.8966
 6962SOL     OW32518   2.140   0.616  13.018  0.4132  0.4732 -0.5949
 6962SOL    HW132519   2.045   0.603  13.016  0.3923  0.3407  1.6008
 6962SOL    HW232520   2.143   0.710  13.035  0.9729  0.1098  1.3620
 6963SOL     OW32521   3.069   0.163   7.000 -0.7862 -0.0382 -0.4885
 6963SOL    HW132522   2.985   0.203   6.980 -0.5055  0.7513 -0.1096
 6963SOL    HW232523   3.114   0.224   7.059 -1.4774  0.4776 -0.4902
 6964SOL     OW32524   3.517   1.264   3.647  0.0979  0.4454  0.4123
 6964SOL    HW132525   3.580   1.237   3.581  0.0921 -2.1598  1.4444
 6964SOL    HW232526   3.521   1.359   3.644  1.6615  0.2735 -2.2973
 6965SOL     OW32527   0.785   0.564   9.688  0.7922  0.9187 -0.4136
 6965SOL    HW132528   0.691   0.577   9.674  0.4755 -0.6615  0.2046
 6965SOL    HW232529   0.798   0.596   9.777  0.4426 -0.4039  0.1234
 6966SOL     OW32530   3.327   1.299  13.643 -0.1338 -0.4586 -0.2562
 6966SOL    HW132531   3.293   1.318  13.555 -1.3414  0.2299  0.3612
 6966SOL    HW232532   3.413   1.341  13.636  0.6674 -2.2203 -0.9248
 6967SOL     OW32533   1.332   1.109   2.338 -0.0020 -0.0290  0.3765
 6967SOL    HW132534   1.288   1.163   2.404 -0.6440 -1.4637  1.1559
 6967SOL    HW232535   1.423   1.128   2.360 -0.2724  2.8953 -1.0393
 6968SOL     OW32536   3.372   4.488   0.562  0.1621  0.0125 -0.4951
 6968SOL    HW132537   3.420   4.571   0.555  0.8605 -0.1624  2.3360
 6968SOL    HW232538   3.295   4.502   0.507 -0.7903  3.9474  1.8737
 6969SOL     OW32539   2.683   0.398  10.357 -0.1864 -0.0720  0.0888
 6969SOL    HW132540   2.606   0.408  10.301  0.6719  2.0519 -0.7004
 6969SOL    HW232541   2.685   0.303  10.352  2.4346 -0.0436  0.8134
 6970SOL     OW32542   4.474   4.116  11.192 -0.3786 -0.0580  0.0175
 6970SOL    HW132543   4.561   4.077  11.185 -0.1913  0.6410 -1.6864
 6970SOL    HW232544   4.490   4.180  11.262 -0.7352  0.2774 -0.2062
 6971SOL     OW32545   0.982   3.308  15.931 -0.6796 -0.1666  0.1046
 6971SOL    HW132546   1.028   3.322  15.849 -2.2918 -0.6203 -0.8655
 6971SOL    HW232547   0.906   3.365  15.915 -0.6853 -0.2667 -0.2187
 6972SOL     OW32548   4.507   3.320  13.929 -0.0234  0.1606 -0.2776
 6972SOL    HW132549   4.479   3.273  13.850 -3.3660 -0.1375  1.0931
 6972SOL    HW232550   4.476   3.249  13.985  0.4261 -0.0337 -0.2738
 6973SOL     OW32551   2.196   2.230  11.473  0.3529  0.3960  0.0552
 6973SOL    HW132552   2.121   2.232  11.533 -0.4138  1.6824 -0.9495
 6973SOL    HW232553   2.265   2.277  11.519  0.8850 -0.7077  0.3876
 6974SOL     OW32554   3.002   3.258   6.616 -0.1730 -0.1084  0.2245
 6974SOL    HW132555   3.062   3.239   6.543 -1.3340  2.4740 -1.4101
 6974SOL    HW232556   3.028   3.195   6.683 -3.0020  0.4324  1.8376
 6975SOL     OW32557   1.035   3.277   3.362  0.2688 -0.0020  0.0452
 6975SOL    HW132558   1.096   3.352   3.362 -1.1592  1.1716 -1.5434
 6975SOL    HW232559   0.958   3.310   3.315 -0.0245 -1.9949 -0.8489
 6976SOL     OW32560   1.474   2.630  15.990 -0.2993 -0.1822 -0.6018
 6976SOL    HW132561   1.522   2.664  15.914  0.6485  2.2511  1.0869
 6976SOL    HW232562   1.393   2.606  15.945 -1.5916  1.3400  0.9225
 6977SOL     OW32563   0.106   4.007   2.403 -0.1263 -0.7672  0.5634
 6977SOL    HW132564   0.183   3.971   2.447 -0.2953  0.9064  2.2226
 6977SOL    HW232565   0.034   3.945   2.415 -1.5959  1.0717  1.2555
 6978SOL     OW32566   1.062   3.878   6.652  0.4879 -0.0164 -0.2951
 6978SOL    HW132567   1.020   3.804   6.607 -0.9598  0.9362 -0.4917
 6978SOL    HW232568   1.103   3.827   6.723 -0.4130  0.0185  0.2506
 6979SOL     OW32569   0.400   0.214  16.568  0.1427  0.0575 -0.1773
 6979SOL    HW132570   0.353   0.293  16.540  0.5752  0.4424  0.1844
 6979SOL    HW232571   0.380   0.150  16.500 -0.2549 -1.5082  1.4021
 6980SOL     OW32572   1.260   4.137  15.593  0.5546 -0.2560  0.7510
 6980SOL    HW132573   1.292   4.059  15.636 -0.8024 -0.5009  1.3023
 6980SOL    HW232574   1.186   4.099  15.545  0.7724 -0.7609  0.8173
 6981SOL     OW32575   0.437   2.077   5.702  1.1402 -0.1327  0.3953
 6981SOL    HW132576   0.408   2.046   5.616 -2.6036 -1.2877  2.0627
 6981SOL    HW232577   0.405   2.004   5.755  1.2911 -0.0388  0.6153
 6982SOL     OW32578   0.932   4.447   8.180 -0.0847  0.0528  0.2991
 6982SOL    HW132579   0.984   4.413   8.253 -0.9137 -2.2182 -0.1388
 6982SOL    HW232580   0.992   4.514   8.147  1.4797 -1.3942  0.1657
 6983SOL     OW32581   2.398   0.669  11.332 -0.1977  0.1842  0.2387
 6983SOL    HW132582   2.455   0.601  11.368 -1.3909 -0.9961 -0.0873
 6983SOL    HW232583   2.377   0.641  11.243  3.5990  1.4709 -1.0637
 6984SOL     OW32584   2.207   2.669   5.758  0.1990 -0.1918  0.5992
 6984SOL    HW132585   2.126   2.668   5.808 -1.0940 -1.0918 -1.4925
 6984SOL    HW232586   2.220   2.764   5.750 -1.1045 -0.0092  0.6510
 6985SOL     OW32587   2.570   2.271  17.114  0.0814  0.5529 -0.0364
 6985SOL    HW132588   2.543   2.363  17.117 -0.6330  0.3262  0.4530
 6985SOL    HW232589   2.512   2.250  17.041 -1.0236  2.9547  0.1336
 6986SOL     OW32590   0.001   2.271   4.363 -0.3100 -0.0193 -0.1040
 6986SOL    HW132591   0.083   2.303   4.402 -0.8986  0.1713  0.9669
 6986SOL    HW232592   4.689   2.353   4.340  1.0049  0.7449  0.0838
 6987SOL     OW32593   2.723   4.521   4.827 -0.1774 -0.1726  0.4703
 6987SOL    HW132594   2.797   4.478   4.869  0.5942  0.7785  0.0785
 6987SOL    HW232595   2.681   4.445   4.787 -2.3302  1.6406 -0.7683
 6988SOL     OW32596   3.707   4.205   1.397 -0.3944 -0.2508  0.9547
 6988SOL    HW132597   3.743   4.245   1.476 -2.1225  0.9780  1.1142
 6988SOL    HW232598   3.697   4.113   1.421  0.0373  0.3985  3.6812
 6989SOL     OW32599   1.202   2.927  14.844 -0.4613  0.1882  0.6359
 6989SOL    HW132600   1.153   2.847  14.825 -0.4484  0.3415 -0.0344
 6989SOL    HW232601   1.129   2.990  14.841 -0.7421 -0.1300  0.7573
 6990SOL     OW32602   2.111   2.075   8.926  0.2006 -0.3317  0.3378
 6990SOL    HW132603   2.135   2.026   9.005  1.1138  1.3358  1.0943
 6990SOL    HW232604   2.058   2.011   8.878 -2.5871  0.8290  1.9033
 6991SOL     OW32605   0.375   0.807   7.784 -0.4550 -0.0697 -0.4626
 6991SOL    HW132606   0.374   0.831   7.692 -1.0674 -0.8960 -0.6722
 6991SOL    HW232607   0.407   0.717   7.781 -0.0257  0.0828 -0.3943
 6992SOL     OW32608   0.714   3.830   8.184  0.3195 -0.4674 -0.7584
 6992SOL    HW132609   0.710   3.926   8.181 -1.9277 -0.5734 -1.2472
 6992SOL    HW232610   0.771   3.823   8.107  0.4221 -2.6688 -0.4677
 6993SOL     OW32611   1.470   1.328   5.181 -0.5091 -0.2146  0.0105
 6993SOL    HW132612   1.405   1.396   5.198 -0.2922  0.0316 -0.1496
 6993SOL    HW232613   1.548   1.367   5.141 -1.5173 -0.0968 -1.8521
 6994SOL     OW32614   1.096   2.589   5.428  0.1411  0.2564 -0.0167
 6994SOL    HW132615   1.075   2.549   5.344 -2.1994 -0.8168  1.0525
 6994SOL    HW232616   1.041   2.667   5.421 -1.1043 -0.7715 -1.9652
 6995SOL     OW32617   2.000   2.447   6.014 -0.4549 -0.1200  0.1463
 6995SOL    HW132618   2.004   2.457   6.109 -1.4205 -0.8539  0.2583
 6995SOL    HW232619   1.972   2.534   5.986  0.2181 -0.3043 -1.0918
 6996SOL     OW32620   2.692   0.095   6.181 -0.2309  0.0176 -0.0416
 6996SOL    HW132621   2.788   0.095   6.190 -0.2876 -1.1222  0.4768
 6996SOL    HW232622   2.688   0.081   6.086  0.4924  0.5651 -0.1541
 6997SOL     OW32623   3.547   0.650   1.734  0.1522 -0.3728 -0.3197
 6997SOL    HW132624   3.599   0.640   1.654  0.5957 -2.2917  0.2088
 6997SOL    HW232625   3.455   0.642   1.709 -0.1668  1.5872  0.2505
 6998SOL     OW32626   3.826   2.402   8.350  0.0299 -0.1385  0.8447
 6998SOL    HW132627   3.749   2.353   8.378 -0.2991 -1.2483 -1.9905
 6998SOL    HW232628   3.845   2.373   8.261  0.0062 -1.0432  1.1326
 6999SOL     OW32629   2.202   0.126   8.087  0.5093  0.3982 -0.0879
 6999SOL    HW132630   2.261   0.051   8.076  2.7282  2.0502  0.4272
 6999SOL    HW232631   2.140   0.120   8.015 -1.2908 -0.7579  1.5566
 7000SOL     OW32632   0.994   0.786   6.047 -0.1279  0.3559  0.2355
 7000SOL    HW132633   0.903   0.804   6.024 -0.2974 -0.9288 -0.1164
 7000SOL    HW232634   0.976   0.732   6.125 -2.5214  2.6869  1.2785
 7001SOL     OW32635   3.483   2.084   7.265 -0.3909 -0.1813  0.4000
 7001SOL    HW132636   3.469   2.018   7.334  0.9342 -1.3041 -0.3931
 7001SOL    HW232637   3.449   2.164   7.304  1.3400  0.2465  1.0298
 7002SOL     OW32638   1.102   2.942   3.960  0.6441  0.6496 -0.7337
 7002SOL    HW132639   1.062   3.019   4.001  2.1030  0.3074  1.3378
 7002SOL    HW232640   1.054   2.930   3.878 -2.0383  1.4856  0.7280
 7003SOL     OW32641   3.255   1.641   7.788 -0.5983  0.3249 -0.6034
 7003SOL    HW132642   3.266   1.548   7.805 -2.4085 -0.0515 -1.4493
 7003SOL    HW232643   3.298   1.645   7.702 -1.4897  0.5231 -1.0484
 7004SOL     OW32644   4.002   3.697   4.279  0.6304  0.2795  0.0821
 7004SOL    HW132645   3.919   3.742   4.296 -0.5275 -0.8121 -2.6797
 7004SOL    HW232646   4.033   3.685   4.368 -0.1245 -0.1010  0.2904
 7005SOL     OW32647   3.104   3.263   4.771  0.4772 -0.0585 -0.3494
 7005SOL    HW132648   3.176   3.322   4.748  3.0438 -1.5819  3.8061
 7005SOL    HW232649   3.141   3.178   4.748  0.5664 -0.3077  0.7388
 7006SOL     OW32650   2.773   0.543   5.229  0.4586 -0.4356  0.2676
 7006SOL    HW132651   2.795   0.593   5.151 -2.5259  0.7091  0.1859
 7006SOL    HW232652   2.705   0.482   5.202 -0.4537  1.1166 -0.9432
 7007SOL     OW32653   1.153   1.634   2.637  0.4098 -0.4308 -0.0321
 7007SOL    HW132654   1.099   1.627   2.558 -1.7359  3.2553  1.1221
 7007SOL    HW232655   1.090   1.587   2.692 -0.7291 -0.3531 -1.2581
 7008SOL     OW32656   2.072   1.361   8.987 -0.1001  0.1100  0.7603
 7008SOL    HW132657   2.003   1.295   8.983  0.2424 -0.2059  0.1021
 7008SOL    HW232658   2.125   1.333   8.912 -1.6595  2.0979 -1.1188
 7009SOL     OW32659   3.661   3.514   5.640  0.0951 -0.2676  0.5495
 7009SOL    HW132660   3.596   3.559   5.695 -0.6619 -1.8638  0.9492
 7009SOL    HW232661   3.596   3.476   5.581  0.0102 -1.4451  1.3969
 7010SOL     OW32662   2.558   1.407  17.180  0.0551  0.4015  0.2090
 7010SOL    HW132663   2.511   1.329  17.151 -0.9625  1.2290 -0.3626
 7010SOL    HW232664   2.636   1.368  17.222  0.4929 -0.5399 -1.4706
 7011SOL     OW32665   4.711   4.651   4.740  0.2436  0.3495 -0.9405
 7011SOL    HW132666   4.725   4.728   4.796 -0.4664 -1.3807  1.6260
 7011SOL    HW232667   4.714   4.693   4.654  4.4469 -0.7624 -1.3261
 7012SOL     OW32668   3.644   2.574   7.163 -0.2097  0.0505  0.0571
 7012SOL    HW132669   3.720   2.631   7.173  0.8735 -1.3791 -0.1003
 7012SOL    HW232670   3.571   2.630   7.137 -0.0677  0.2338  0.0604
 7013SOL     OW32671   2.900   1.809  15.871 -0.6526 -0.3337 -0.3885
 7013SOL    HW132672   2.905   1.867  15.947 -1.8241  2.3717 -2.3950
 7013SOL    HW232673   2.991   1.807  15.840 -0.6051 -1.0495 -0.2204
 7014SOL     OW32674   4.268   0.848  15.556  0.0005 -0.2378  0.4690
 7014SOL    HW132675   4.177   0.818  15.565  1.0097 -3.8247 -1.2996
 7014SOL    HW232676   4.261   0.943  15.564  1.9832 -0.3160  3.0792
 7015SOL     OW32677   4.150   2.157   8.554 -0.1214  0.4945 -0.4022
 7015SOL    HW132678   4.072   2.169   8.499 -0.4021 -2.3308 -0.6225
 7015SOL    HW232679   4.109   2.140   8.639 -1.2499  0.9523 -0.8574
 7016SOL     OW32680   2.318   2.949   2.436 -0.0912 -0.4220  0.0424
 7016SOL    HW132681   2.390   2.927   2.494  1.2413 -0.5299 -1.6650
 7016SOL    HW232682   2.289   2.860   2.418 -0.2134 -0.0966 -1.4115
 7017SOL     OW32683   2.033   0.073   3.699 -0.5539 -0.0562  0.3482
 7017SOL    HW132684   2.058   0.098   3.610 -1.3812 -1.3966 -0.2687
 7017SOL    HW232685   2.089   4.731   3.721  0.0403 -0.2247 -1.7558
 7018SOL     OW32686   3.885   3.839  14.504  0.5085 -0.1652 -0.4206
 7018SOL    HW132687   3.976   3.846  14.476  1.5959 -2.1085  2.7387
 7018SOL    HW232688   3.864   3.746  14.497 -0.8656  0.0681  0.8073
 7019SOL     OW32689   2.228   0.286   1.989 -0.2358 -0.1078  0.1291
 7019SOL    HW132690   2.165   0.358   1.978  0.0432  0.1482  0.1916
 7019SOL    HW232691   2.304   0.339   2.012 -0.1605  0.3026 -1.0498
 7020SOL     OW32692   0.733   3.919   3.828  0.0480  0.1447  0.1939
 7020SOL    HW132693   0.665   3.860   3.794  0.9039 -1.9011  2.0141
 7020SOL    HW232694   0.672   3.989   3.851 -1.1252 -0.7696 -0.1158
 7021SOL     OW32695   4.645   3.061   1.671  0.5309  0.0108  0.7118
 7021SOL    HW132696   0.003   3.059   1.699  0.1571 -2.0773  1.8456
 7021SOL    HW232697   4.617   3.147   1.700  1.9200  1.0984 -1.1529
 7022SOL     OW32698   4.640   0.562  11.406 -0.4908 -0.1363  0.0204
 7022SOL    HW132699   4.698   0.503  11.454 -2.3590 -1.3035  0.8452
 7022SOL    HW232700   4.684   0.645  11.427  0.9278 -0.5463 -1.3349
 7023SOL     OW32701   0.035   3.280   2.650 -0.3730  0.6097  0.0504
 7023SOL    HW132702   0.121   3.320   2.661 -0.8614  1.8729 -0.6849
 7023SOL    HW232703   4.700   3.338   2.685  1.2091  2.5984 -0.1977
 7024SOL     OW32704   2.643   3.775   8.873  0.0702  0.0535  0.0549
 7024SOL    HW132705   2.730   3.745   8.898  0.1187  0.0328 -0.1396
 7024SOL    HW232706   2.583   3.738   8.938  1.7744 -2.0604  0.4292
 7025SOL     OW32707   1.611   4.514   8.564  0.0302  0.5439  0.0386
 7025SOL    HW132708   1.578   4.480   8.647  0.3517  0.0307 -0.0468
 7025SOL    HW232709   1.681   4.452   8.550  0.6806  1.1976  0.3987
 7026SOL     OW32710   0.018   2.615  12.237  0.4444 -0.3472 -0.7626
 7026SOL    HW132711   4.729   2.555  12.308  0.1168 -1.0694 -1.4726
 7026SOL    HW232712   4.726   2.698  12.277  0.5963 -0.9285  0.5205
 7027SOL     OW32713   0.791   1.215  14.204 -0.3037  0.8114  0.2815
 7027SOL    HW132714   0.737   1.251  14.133 -1.5017  2.4388  2.0269
 7027SOL    HW232715   0.796   1.294  14.258 -0.0359  2.1535 -1.6840
 7028SOL     OW32716   0.410   0.004  11.704  0.0990  0.0501  0.7546
 7028SOL    HW132717   0.487   0.060  11.710  1.5621 -1.9816  1.0452
 7028SOL    HW232718   0.436   4.644  11.697  0.2478  0.1529 -0.0060
 7029SOL     OW32719   4.667   1.715   5.256 -0.0617  0.2948 -0.3869
 7029SOL    HW132720   4.732   1.727   5.325 -1.9511  1.3093  1.2255
 7029SOL    HW232721   4.602   1.660   5.301  1.9200 -1.9524 -0.2735
 7030SOL     OW32722   3.948   3.614   3.482  0.4879  0.3557 -0.5961
 7030SOL    HW132723   3.885   3.568   3.538  0.7093  2.2709  1.1996
 7030SOL    HW232724   3.998   3.538   3.453 -0.1600 -0.3899  0.2288
 7031SOL     OW32725   3.242   1.710  11.112 -0.2684 -0.0523  0.3466
 7031SOL    HW132726   3.185   1.787  11.118 -0.3040 -0.0875  0.4645
 7031SOL    HW232727   3.317   1.744  11.160  0.1943 -1.0658  0.3386
 7032SOL     OW32728   0.225   2.825   3.069 -0.1544  0.1673 -0.2912
 7032SOL    HW132729   0.273   2.819   2.986  0.2614  1.0987 -0.1179
 7032SOL    HW232730   0.155   2.763   3.048  0.6813 -0.6642 -0.6176
 7033SOL     OW32731   1.145   2.027   3.963  0.2402 -0.0871 -0.5173
 7033SOL    HW132732   1.222   1.970   3.955  1.9862  2.2065  0.0830
 7033SOL    HW232733   1.089   1.988   3.895 -1.1831  3.1522 -1.1969
 7034SOL     OW32734   3.305   2.012   4.583  0.7741 -0.2594  0.0959
 7034SOL    HW132735   3.310   1.916   4.581 -0.0446 -0.2998 -0.0740
 7034SOL    HW232736   3.366   2.037   4.515  0.4794  2.5713  0.8916
 7035SOL     OW32737   3.729   0.019   2.011 -0.8351 -0.0842 -0.1659
 7035SOL    HW132738   3.677   4.704   1.947  1.3704  1.2209 -2.9033
 7035SOL    HW232739   3.669   0.014   2.086  0.2951 -0.5803  0.7200
 7036SOL     OW32740   2.590   0.636   5.858  0.3204  0.0507 -0.0515
 7036SOL    HW132741   2.628   0.550   5.873  2.3629  0.9480 -0.1088
 7036SOL    HW232742   2.611   0.678   5.941 -0.1444  0.8750 -0.3486
 7037SOL     OW32743   0.078   1.543   4.329  0.0089 -0.2882 -0.2385
 7037SOL    HW132744   0.128   1.481   4.382  3.3000  1.0368 -1.8528
 7037SOL    HW232745   0.103   1.626   4.369  1.5254 -0.7699 -0.2162
 7038SOL     OW32746   4.135   0.429   7.773 -0.4778 -0.1570  0.0242
 7038SOL    HW132747   4.091   0.366   7.830 -1.5857  1.5842  1.0769
 7038SOL    HW232748   4.215   0.379   7.783  1.0969  2.6683  1.5173
 7039SOL     OW32749   0.536   3.101   0.248 -0.0080  0.1501 -0.5545
 7039SOL    HW132750   0.548   3.073   0.339  2.6665  2.1017 -0.3124
 7039SOL    HW232751   0.454   3.149   0.236 -0.4967 -0.8883 -1.3563
 7040SOL     OW32752   2.358   3.497   4.874  0.4828  0.4933 -0.2475
 7040SOL    HW132753   2.320   3.584   4.879  0.0823  0.2634  0.7661
 7040SOL    HW232754   2.338   3.478   4.782 -1.2820 -0.3775  0.3002
 7041SOL     OW32755   2.836   2.901   7.530 -0.2240 -0.5099 -0.1474
 7041SOL    HW132756   2.828   2.950   7.612 -0.3564 -1.6983  0.5351
 7041SOL    HW232757   2.854   2.819   7.575 -0.7987 -1.6710 -2.0617
 7042SOL     OW32758   1.149   3.243   1.124 -0.1027 -0.4834  0.4367
 7042SOL    HW132759   1.096   3.269   1.048 -0.2318  1.6546  1.2678
 7042SOL    HW232760   1.217   3.309   1.111 -0.9509  0.1542 -0.8433
 7043SOL     OW32761   0.521   3.561   4.676 -0.0849  0.0336 -0.2052
 7043SOL    HW132762   0.446   3.618   4.660 -0.6662 -0.8551 -0.6639
 7043SOL    HW232763   0.484   3.477   4.651 -0.1209  0.0163 -0.0940
 7044SOL     OW32764   2.583   3.915   8.288  0.3462 -0.1312 -0.1714
 7044SOL    HW132765   2.640   3.938   8.215 -0.9108  0.4675 -0.9793
 7044SOL    HW232766   2.643   3.904   8.361 -0.5349 -0.5506  0.4806
 7045SOL     OW32767   3.664   0.092   6.235  0.3952  0.2510  0.4401
 7045SOL    HW132768   3.583   0.143   6.226  0.8874  1.4791  2.8239
 7045SOL    HW232769   3.665   0.061   6.326 -0.4078 -3.3490 -0.7721
 7046SOL     OW32770   0.069   2.736   3.929  0.2027 -0.2137 -0.2204
 7046SOL    HW132771   0.129   2.766   3.860 -2.1878  2.6545 -1.0399
 7046SOL    HW232772   0.134   2.696   3.987 -0.9038  0.1070  1.2266
 7047SOL     OW32773   0.607   1.617  14.136  0.1293 -0.1358 -0.7001
 7047SOL    HW132774   0.642   1.617  14.225  0.9107 -0.9606 -1.0043
 7047SOL    HW232775   0.684   1.635  14.082 -0.0710 -1.2225 -1.3485
 7048SOL     OW32776   0.309   3.102  15.169 -0.0518 -0.4115 -0.1735
 7048SOL    HW132777   0.384   3.068  15.119  0.5826  1.9301 -0.8139
 7048SOL    HW232778   0.307   3.195  15.144 -1.8068 -1.1816 -2.9275
 7049SOL     OW32779   4.010   1.293   8.465  0.3164  0.0153 -0.3004
 7049SOL    HW132780   3.973   1.230   8.404  0.7301  2.0753 -2.6757
 7049SOL    HW232781   3.934   1.315   8.518 -1.0195  0.8753 -2.6018
 7050SOL     OW32782   4.196   1.624   9.666  0.0286  0.3071  0.7089
 7050SOL    HW132783   4.259   1.680   9.622  2.4130 -3.5265 -0.6526
 7050SOL    HW232784   4.145   1.595   9.591  0.8670  0.9866 -0.1246
 7051SOL     OW32785   2.452   2.219   8.394  0.5979  0.1580  0.2370
 7051SOL    HW132786   2.460   2.281   8.467  0.8970 -0.2852  0.5779
 7051SOL    HW232787   2.381   2.160   8.421  0.2891  0.2856 -0.2934
 7052SOL     OW32788   4.478   1.053  10.800  0.4923  0.3101  0.0335
 7052SOL    HW132789   4.448   0.965  10.775  0.6791  0.4859 -0.7870
 7052SOL    HW232790   4.419   1.068  10.874  0.3096  1.2180 -0.3095
 7053SOL     OW32791   2.041   0.491   1.983  0.0096  0.2336  0.8678
 7053SOL    HW132792   2.083   0.540   1.913 -2.1041  1.1737  0.2637
 7053SOL    HW232793   1.978   0.558   2.010  2.0946  2.5453  0.0599
 7054SOL     OW32794   2.799   2.483  10.271 -0.2269 -0.2605  0.1613
 7054SOL    HW132795   2.808   2.574  10.243 -2.2076 -0.1969 -0.2021
 7054SOL    HW232796   2.848   2.437  10.203  0.1120 -0.1058  0.2989
 7055SOL     OW32797   2.992   0.803   5.148 -0.2101 -0.1506 -0.0902
 7055SOL    HW132798   2.945   0.883   5.171  0.1771  0.6773 -2.1525
 7055SOL    HW232799   3.046   0.793   5.226 -0.4888 -0.7567  0.0244
 7056SOL     OW32800   0.213   0.672   6.770 -0.2182  0.0600 -0.2542
 7056SOL    HW132801   0.300   0.711   6.775  0.2017 -0.8188 -0.7285
 7056SOL    HW232802   0.176   0.687   6.857  1.4150  2.9576 -0.0715
 7057SOL     OW32803   0.848   2.077   5.997  0.5370 -0.0905  0.1801
 7057SOL    HW132804   0.912   2.138   5.959 -0.0303  0.7061  0.4953
 7057SOL    HW232805   0.912   2.029   6.049  1.1703  0.8477  0.2896
 7058SOL     OW32806   4.560   4.568   3.496 -0.6040  0.3773  0.5691
 7058SOL    HW132807   4.465   4.580   3.490 -0.3952  0.5581 -2.2115
 7058SOL    HW232808   4.585   4.660   3.495 -0.8898  0.4671  1.5623
 7059SOL     OW32809   3.183   2.818  10.254 -0.2407 -0.3166 -0.1918
 7059SOL    HW132810   3.111   2.798  10.313  1.7389 -0.2265  2.2749
 7059SOL    HW232811   3.200   2.908  10.284 -2.2852  0.6305 -1.8989
 7060SOL     OW32812   1.435   1.023   6.599 -0.2334  0.1860 -0.5749
 7060SOL    HW132813   1.421   1.062   6.513 -0.4751  0.8154 -0.2517
 7060SOL    HW232814   1.474   0.938   6.578  1.0746  0.5310  0.4295
 7061SOL     OW32815   3.746   2.916   1.541 -0.4300  0.4462  0.1013
 7061SOL    HW132816   3.706   2.933   1.456 -0.8940  0.0598  0.2465
 7061SOL    HW232817   3.837   2.936   1.518 -0.0981 -0.6228  0.4728
 7062SOL     OW32818   4.657   0.126  16.509  0.1789 -0.4024 -0.5308
 7062SOL    HW132819   4.647   0.132  16.414 -2.0051 -0.2181 -0.2833
 7062SOL    HW232820   4.637   0.218  16.529 -0.7259 -0.7572  0.1958
 7063SOL     OW32821   4.410   4.575  14.287 -0.0149  0.2098 -0.9879
 7063SOL    HW132822   4.315   4.571  14.282 -0.0769 -1.3281  1.3773
 7063SOL    HW232823   4.423   4.635  14.360 -2.0774 -2.7579  1.8283
 7064SOL     OW32824   1.726   2.283   4.525 -0.1135 -0.2570 -0.0277
 7064SOL    HW132825   1.709   2.311   4.615  2.1904  0.7754  0.0929
 7064SOL    HW232826   1.716   2.371   4.487 -1.6480 -0.1815  0.5333
 7065SOL     OW32827   2.518   3.171  11.881 -0.1540 -0.9512 -0.2289
 7065SOL    HW132828   2.448   3.232  11.856  0.8390  0.4157  0.3182
 7065SOL    HW232829   2.488   3.091  11.838 -2.2228 -0.9953  1.2718
 7066SOL     OW32830   4.513   3.095  12.363  0.0037  0.2515 -0.2726
 7066SOL    HW132831   4.506   3.175  12.416 -0.8823  0.1425 -0.2258
 7066SOL    HW232832   4.446   3.042  12.404 -1.1119  1.4615 -0.5273
 7067SOL     OW32833   3.939   3.893   2.978 -0.1919 -0.0006  0.2044
 7067SOL    HW132834   4.033   3.900   2.995 -0.3801 -2.3057  2.2753
 7067SOL    HW232835   3.896   3.942   3.048  2.6492  2.3563  0.2855
 7068SOL     OW32836   2.432   3.201   8.311  0.0339  0.7058  0.0230
 7068SOL    HW132837   2.436   3.236   8.222 -1.2175  1.3509  0.2126
 7068SOL    HW232838   2.358   3.255   8.339 -1.1971 -0.8162 -0.2430
 7069SOL     OW32839   2.023   2.411  10.070  0.1707  0.4698  0.6192
 7069SOL    HW132840   1.936   2.387  10.103 -0.6863  1.3198 -1.0371
 7069SOL    HW232841   2.072   2.424  10.151 -0.2513  1.2808  0.7465
 7070SOL     OW32842   1.106   3.804   6.241  0.6383  0.4257 -0.4020
 7070SOL    HW132843   1.022   3.850   6.239 -1.0773 -2.6189  0.3064
 7070SOL    HW232844   1.151   3.875   6.196 -0.5893  2.6464  1.9269
 7071SOL     OW32845   3.409   4.198   5.112  0.1790 -0.3160  0.4205
 7071SOL    HW132846   3.351   4.158   5.177 -0.0581 -0.9378 -0.1754
 7071SOL    HW232847   3.368   4.275   5.073  0.7783 -1.4873 -2.4998
 7072SOL     OW32848   1.710   1.247   4.451 -0.0880  0.0963  0.0267
 7072SOL    HW132849   1.679   1.157   4.452  0.0569  0.0427 -0.5925
 7072SOL    HW232850   1.803   1.231   4.440  0.0770  0.6083  0.7144
 7073SOL     OW32851   1.761   2.467   3.326 -0.1620  0.6040 -0.5125
 7073SOL    HW132852   1.722   2.395   3.376  1.8929 -0.8346 -0.9846
 7073SOL    HW232853   1.730   2.454   3.237  2.0527 -0.2267 -1.1647
 7074SOL     OW32854   1.605   0.430   8.124  0.2467  0.1911  0.5124
 7074SOL    HW132855   1.556   0.511   8.111 -1.1906 -0.7793 -0.0073
 7074SOL    HW232856   1.699   0.449   8.114 -0.4540  2.5868 -1.4723
 7075SOL     OW32857   1.696   2.414  15.621 -0.2791  0.0114 -0.3541
 7075SOL    HW132858   1.647   2.492  15.596  0.3532  0.7855  0.7871
 7075SOL    HW232859   1.743   2.394  15.540  1.7944 -1.8409  1.2837
 7076SOL     OW32860   2.327   4.223   4.387  0.0632  0.4556 -0.0966
 7076SOL    HW132861   2.300   4.314   4.380 -1.0816 -0.0871 -2.8723
 7076SOL    HW232862   2.249   4.183   4.349 -1.7284  0.6959  3.3113
 7077SOL     OW32863   2.332   2.642  14.565 -0.2105 -0.2465 -0.0814
 7077SOL    HW132864   2.312   2.727  14.525  2.1464  0.8043  0.9558
 7077SOL    HW232865   2.240   2.616  14.559 -0.5254  1.1856 -1.7311
 7078SOL     OW32866   0.493   0.036  10.351 -0.0942 -0.2789  0.3954
 7078SOL    HW132867   0.587   0.037  10.370 -0.1652 -0.4578  0.7455
 7078SOL    HW232868   0.449   0.075  10.426  0.1333 -0.0944  0.4345
 7079SOL     OW32869   4.273   3.264   6.363  0.2110  0.1899 -0.8257
 7079SOL    HW132870   4.236   3.345   6.328  0.9099  1.0390  0.3932
 7079SOL    HW232871   4.319   3.302   6.438  0.6472 -2.2408  0.1597
 7080SOL     OW32872   2.496   2.028   6.107  0.0602  0.5031 -0.1748
 7080SOL    HW132873   2.440   2.100   6.076 -1.5731  0.8346  3.4441
 7080SOL    HW232874   2.475   2.047   6.199  6.5604  1.7435  1.0122
 7081SOL     OW32875   0.418   4.383   8.137  0.0229 -0.7492 -0.3793
 7081SOL    HW132876   0.351   4.417   8.077 -3.3383 -0.3629  3.5796
 7081SOL    HW232877   0.494   4.431   8.106  0.9326 -2.1366 -0.3006
 7082SOL     OW32878   1.773   2.778   3.094  0.4059 -0.2669  0.4183
 7082SOL    HW132879   1.682   2.802   3.112 -0.0277 -3.3614  2.4469
 7082SOL    HW232880   1.792   2.850   3.034  0.3771  1.0275  1.9596
 7083SOL     OW32881   1.239   2.547  15.894  0.3114 -0.0562  0.4517
 7083SOL    HW132882   1.199   2.632  15.877 -2.9558 -1.6959  0.0257
 7083SOL    HW232883   1.222   2.513  15.806 -1.2342 -1.1063  1.1511
 7084SOL     OW32884   1.192   4.007   1.730 -0.3989  0.6926  0.1919
 7084SOL    HW132885   1.209   3.938   1.666  1.9664 -0.6518  2.2732
 7084SOL    HW232886   1.243   3.973   1.803  3.6517  4.1988 -1.0210
 7085SOL     OW32887   2.921   2.275   2.628 -0.9247  0.6561  0.7823
 7085SOL    HW132888   2.902   2.259   2.721 -3.2188 -0.9672  0.0296
 7085SOL    HW232889   2.873   2.355   2.610 -1.0483  0.1792 -1.0240
 7086SOL     OW32890   0.826   2.520   9.208 -0.7427 -0.6133  0.0298
 7086SOL    HW132891   0.835   2.558   9.295 -0.8629 -0.5812  0.0278
 7086SOL    HW232892   0.844   2.426   9.213 -0.3470 -0.4742  1.1720
 7087SOL     OW32893   3.089   4.660   4.627  0.1009 -0.6719  0.2757
 7087SOL    HW132894   2.995   4.665   4.610  0.4752 -0.9572 -1.9168
 7087SOL    HW232895   3.133   4.722   4.569  1.9744  0.2516  2.7087
 7088SOL     OW32896   0.145   4.699  12.217 -0.4815  0.3693  0.1084
 7088SOL    HW132897   0.117   4.616  12.179  0.4450 -0.1107  0.4781
 7088SOL    HW232898   0.126   0.029  12.147 -1.2632  2.9991  2.6821
 7089SOL     OW32899   2.256   0.922   4.675 -0.2846  0.5484 -0.2200
 7089SOL    HW132900   2.249   0.941   4.768  1.2440  1.2961 -0.2550
 7089SOL    HW232901   2.348   0.907   4.654  0.3726  3.8928  0.2628
 7090SOL     OW32902   4.366   1.906   0.624 -0.2387 -0.0253  0.6756
 7090SOL    HW132903   4.384   1.952   0.542 -0.8494  1.4508  1.3776
 7090SOL    HW232904   4.396   1.818   0.601 -1.2790  0.3708 -2.1151
 7091SOL     OW32905   2.736   0.031   7.217  0.2227 -0.7558 -0.1364
 7091SOL    HW132906   2.812   0.059   7.267 -1.4834 -2.3918  3.3900
 7091SOL    HW232907   2.763   4.678   7.185 -2.0999 -2.1011  1.4883
 7092SOL     OW32908   0.938   0.574   6.574 -0.1562 -0.4045 -0.4885
 7092SOL    HW132909   0.927   0.509   6.643  0.0002  0.4930  0.3861
 7092SOL    HW232910   1.023   0.548   6.538  1.4325  0.6196  2.5036
 7093SOL     OW32911   2.466   4.604  15.595  0.4837  0.1224  0.5411
 7093SOL    HW132912   2.390   4.621  15.650  0.7342  5.5645 -0.8234
 7093SOL    HW232913   2.456   4.510  15.579 -0.2989  0.3856 -0.5033
 7094SOL     OW32914   1.957   1.280  14.718 -0.0044  0.2497 -0.2286
 7094SOL    HW132915   1.974   1.371  14.693 -1.3988  0.8014  0.7989
 7094SOL    HW232916   2.004   1.231  14.651  0.8418  1.9518 -0.8840
 7095SOL     OW32917   1.235   1.346  11.696  0.2641  0.7244  0.6070
 7095SOL    HW132918   1.215   1.424  11.749 -0.4547  2.3135 -2.0057
 7095SOL    HW232919   1.313   1.321  11.745  0.0625 -1.8079 -0.3692
 7096SOL     OW32920   0.934   3.219   2.184  0.2752 -0.2386  0.3248
 7096SOL    HW132921   0.922   3.290   2.247  0.6150  0.8621 -0.8429
 7096SOL    HW232922   1.015   3.180   2.215  0.4378  0.0752  0.2989
 7097SOL     OW32923   2.961   0.031   0.830 -0.3831 -0.2188 -0.1861
 7097SOL    HW132924   2.914   0.115   0.829 -1.1602 -0.6420  1.1750
 7097SOL    HW232925   2.917   0.001   0.909 -1.0821  1.7182  0.1734
 7098SOL     OW32926   3.884   3.822   3.748 -0.1122 -0.4960 -0.1516
 7098SOL    HW132927   3.832   3.758   3.795 -2.2822  1.2674 -0.1805
 7098SOL    HW232928   3.843   3.906   3.772  0.2723 -1.0061  2.2874
 7099SOL     OW32929   2.276   0.135   6.299  0.0615  0.0892 -0.1680
 7099SOL    HW132930   2.322   0.052   6.286  1.7598  0.7772  1.3405
 7099SOL    HW232931   2.328   0.195   6.246 -0.1739  1.2842  0.9430
 7100SOL     OW32932   1.951   3.171   9.345  0.1835 -0.1127 -0.1023
 7100SOL    HW132933   1.908   3.214   9.271 -0.5579  1.2438  1.1223
 7100SOL    HW232934   1.980   3.088   9.306  3.0224  2.2583 -2.9781
 7101SOL     OW32935   3.533   0.314   7.996 -0.3573  0.4014 -0.1114
 7101SOL    HW132936   3.601   0.263   7.951  0.6460  3.7715 -2.4163
 7101SOL    HW232937   3.457   0.268   7.960 -0.0791 -0.1123 -0.0449
 7102SOL     OW32938   2.853   1.522   1.699  0.8956  0.5497 -0.1669
 7102SOL    HW132939   2.946   1.499   1.697  1.3381  2.1228  2.1233
 7102SOL    HW232940   2.852   1.566   1.614 -2.7313  2.2096  0.7531
 7103SOL     OW32941   2.767   0.790  12.000 -0.7223  0.3770 -0.3198
 7103SOL    HW132942   2.844   0.770  11.947 -1.0724 -0.1172 -0.6496
 7103SOL    HW232943   2.760   0.885  12.001 -0.2831  0.3938  0.5005
 7104SOL     OW32944   3.648   0.056   1.213  0.2134 -0.1969  0.7928
 7104SOL    HW132945   3.572   0.010   1.249 -0.9001 -1.5984 -3.4279
 7104SOL    HW232946   3.707   4.718   1.185 -1.1329 -1.0053  0.0175
 7105SOL     OW32947   2.385   0.482   7.767  0.1419 -0.2824  0.0706
 7105SOL    HW132948   2.400   0.540   7.841 -1.1859 -0.1118  0.2004
 7105SOL    HW232949   2.451   0.414   7.783  1.8590  0.9780 -1.6967
 7106SOL     OW32950   1.417   0.891   3.976 -0.1270 -0.3534 -0.6543
 7106SOL    HW132951   1.326   0.920   3.975 -0.2660 -0.7573  0.8293
 7106SOL    HW232952   1.436   0.935   4.059  1.6940  0.8850 -1.7074
 7107SOL     OW32953   0.827   0.264  10.689 -0.6303 -0.2701  0.4220
 7107SOL    HW132954   0.910   0.242  10.731  0.5331 -2.8092 -3.2622
 7107SOL    HW232955   0.785   0.310  10.763 -0.6988 -0.3662  0.4428
 7108SOL     OW32956   1.253   4.286   9.950 -0.3524  0.3257 -0.0003
 7108SOL    HW132957   1.226   4.327   9.868  1.0820 -0.3281 -0.8107
 7108SOL    HW232958   1.286   4.363   9.995 -2.5209  1.6135 -0.6092
 7109SOL     OW32959   1.516   1.651   4.041 -0.0495  0.1914 -0.8396
 7109SOL    HW132960   1.572   1.714   4.085 -0.5928 -0.0277  0.1994
 7109SOL    HW232961   1.576   1.597   3.990 -0.7481 -0.7757 -0.6597
 7110SOL     OW32962   2.148   3.373   1.749  0.3323  0.3431 -0.7179
 7110SOL    HW132963   2.090   3.411   1.814 -0.6901 -1.5868 -0.5338
 7110SOL    HW232964   2.176   3.292   1.791 -2.3886 -0.8931 -1.3132
 7111SOL     OW32965   1.874   1.050   2.517  0.3641  0.5098 -0.1895
 7111SOL    HW132966   1.874   1.072   2.424 -1.0114 -0.8779 -0.5187
 7111SOL    HW232967   1.798   1.099   2.546 -1.9330 -1.8146 -2.2891
 7112SOL     OW32968   1.731   3.092  11.588 -0.4362 -0.4916 -0.3432
 7112SOL    HW132969   1.691   3.061  11.506 -0.5310 -1.4553  0.0692
 7112SOL    HW232970   1.690   3.178  11.596  0.9744  0.4029 -2.5494
 7113SOL     OW32971   2.768   1.828   4.637 -0.1338 -0.5041  0.0597
 7113SOL    HW132972   2.746   1.763   4.704 -0.2043 -0.2696  0.2679
 7113SOL    HW232973   2.810   1.897   4.690 -0.0549  0.0753 -0.7598
 7114SOL     OW32974   2.240   1.506   9.731 -0.5222  0.3525  0.4571
 7114SOL    HW132975   2.209   1.445   9.665  0.0424  1.6683 -1.0177
 7114SOL    HW232976   2.298   1.443   9.776 -2.1654 -0.9868  0.6904
 7115SOL     OW32977   2.118   0.474   8.121  0.4748  0.3132  0.1788
 7115SOL    HW132978   2.213   0.482   8.129  0.5715  0.5032 -1.1479
 7115SOL    HW232979   2.102   0.431   8.037 -0.0315 -0.5965  0.7441
 7116SOL     OW32980   0.060   1.573   7.976  0.1875  0.0468  0.2170
 7116SOL    HW132981   4.726   1.542   8.037  0.2756 -1.0191 -0.2166
 7116SOL    HW232982   0.012   1.650   7.945 -0.1414  0.3070  1.3779
 7117SOL     OW32983   3.461   4.061   4.804  0.2537 -0.2059  0.4266
 7117SOL    HW132984   3.423   4.146   4.825 -1.8095 -1.4071  1.5299
 7117SOL    HW232985   3.550   4.087   4.781 -0.3027  1.7991  0.5511
 7118SOL     OW32986   1.364   1.714   3.140 -0.0224  0.3750  0.3778
 7118SOL    HW132987   1.414   1.639   3.171 -1.1887 -0.4090  0.3492
 7118SOL    HW232988   1.315   1.731   3.221 -2.1875 -2.6517 -0.2876
 7119SOL     OW32989   2.559   0.241   3.691  0.0947  0.1151  0.1814
 7119SOL    HW132990   2.619   0.169   3.672 -0.6978 -0.8145  1.1590
 7119SOL    HW232991   2.479   0.195   3.716  1.1203 -2.0238 -0.5068
 7120SOL     OW32992   3.840   1.031   5.433 -0.5061 -0.4182 -0.4054
 7120SOL    HW132993   3.764   0.999   5.481 -1.0154  1.2462 -0.1226
 7120SOL    HW232994   3.894   0.954   5.451  2.0140  1.4266 -0.0116
 7121SOL     OW32995   1.294   0.054  16.828 -0.0793  0.5902 -0.2890
 7121SOL    HW132996   1.347   0.133  16.828  0.8062 -0.0075 -0.3282
 7121SOL    HW232997   1.240   0.089  16.899  1.9612  0.2138  1.4201
 7122SOL     OW32998   2.513   3.319   6.167 -0.3453  0.5279  0.1846
 7122SOL    HW132999   2.545   3.256   6.232  2.1125  1.7594  0.1416
 7122SOL    HW233000   2.449   3.267   6.118 -1.0091  1.2588  0.2835
 7123SOL     OW33001   2.567   4.067   5.825  0.5597 -0.0099 -0.1318
 7123SOL    HW133002   2.617   4.138   5.785 -0.3988  0.5659 -0.3085
 7123SOL    HW233003   2.591   3.983   5.785  0.8876  1.1330 -2.3232
 7124SOL     OW33004   1.136   0.136  14.150 -0.1045  0.1109 -0.4877
 7124SOL    HW133005   1.182   0.200  14.204 -1.4968  2.1371 -1.7240
 7124SOL    HW233006   1.218   0.092  14.130  0.3101 -0.1138  1.6335
 7125SOL     OW33007   3.780   2.532  10.088 -0.0372 -0.3283  0.4775
 7125SOL    HW133008   3.689   2.545  10.112 -0.1786 -1.1038  0.3467
 7125SOL    HW233009   3.811   2.472  10.156  0.5132  1.8340  2.1564
 7126SOL     OW33010   0.991   2.265   6.267  0.5397  0.2546  0.0129
 7126SOL    HW133011   0.911   2.311   6.293  0.6397 -0.8967  2.4235
 7126SOL    HW233012   0.965   2.176   6.292  0.4305  0.7103  1.5371
 7127SOL     OW33013   1.420   1.842  11.998 -0.4305  0.1907 -0.0702
 7127SOL    HW133014   1.436   1.932  12.026  0.2451  0.4912 -1.3744
 7127SOL    HW233015   1.358   1.803  12.058 -0.9085  0.2071 -0.5490
 7128SOL     OW33016   4.668   0.833  13.953  0.1840 -0.1758  0.4760
 7128SOL    HW133017   0.010   0.876  13.911 -0.5432  0.9833  0.3638
 7128SOL    HW233018   4.707   0.750  13.980  0.1058 -0.3302  0.1248
 7129SOL     OW33019   3.260   1.136   8.465  0.1191  0.3230 -0.7451
 7129SOL    HW133020   3.283   1.221   8.429  2.9702  1.8036  4.5745
 7129SOL    HW233021   3.171   1.151   8.497 -0.6501  1.2408 -3.2746
 7130SOL     OW33022   0.581   2.352   3.085 -0.2732  0.4040 -0.4918
 7130SOL    HW133023   0.519   2.317   3.021 -2.0946  1.7543  0.5150
 7130SOL    HW233024   0.534   2.430   3.117 -0.9726 -0.0929 -0.3162
 7131SOL     OW33025   3.888   1.096   3.316  0.1584  0.1577  0.1618
 7131SOL    HW133026   3.909   1.006   3.342 -0.2353  0.1159  0.3350
 7131SOL    HW233027   3.979   1.120   3.331  0.1780  0.6461 -0.7745
 7132SOL     OW33028   4.697   2.242  13.346  0.1687 -0.4653  0.0715
 7132SOL    HW133029   4.639   2.207  13.278  0.3979  0.7237 -0.7200
 7132SOL    HW233030   0.041   2.186  13.333  0.6241  0.7417 -2.3425
 7133SOL     OW33031   3.536   2.026   7.004 -0.2853 -0.0264  0.4179
 7133SOL    HW133032   3.518   2.040   7.097 -0.5269 -0.0258  0.3707
 7133SOL    HW233033   3.445   2.007   6.984 -0.0149  0.4304 -1.2454
 7134SOL     OW33034   3.562   0.943  10.150  0.5010 -0.1885  0.4524
 7134SOL    HW133035   3.627   0.886  10.191 -0.9543 -0.5194  2.3138
 7134SOL    HW233036   3.492   0.878  10.141  0.3377  0.3291 -1.9638
 7135SOL     OW33037   0.780   2.768   9.726  0.6934 -0.5937  0.0306
 7135SOL    HW133038   0.807   2.860   9.718 -4.1027  0.6868 -1.5731
 7135SOL    HW233039   0.779   2.757   9.821 -0.5820 -0.7171  0.0085
 7136SOL     OW33040   2.906   1.009  15.431 -0.1498 -0.5672 -0.5080
 7136SOL    HW133041   2.961   1.086  15.443 -0.9985 -0.3187  1.7760
 7136SOL    HW233042   2.948   0.947  15.491  1.9313  0.1247 -1.2448
 7137SOL     OW33043   2.135   0.331   0.377  0.8767  0.4422 -0.1999
 7137SOL    HW133044   2.167   0.288   0.456  0.0227 -0.0714 -0.1353
 7137SOL    HW233045   2.068   0.390   0.411  1.9930  0.4014  2.0598
 7138SOL     OW33046   2.698   0.547   8.366  0.0393 -0.8906 -0.2157
 7138SOL    HW133047   2.704   0.456   8.396  0.5027 -0.9472 -0.4840
 7138SOL    HW233048   2.624   0.589   8.411  0.5160  2.4613 -2.5940
 7139SOL     OW33049   3.222   1.367   6.011  0.0647  0.2126 -0.0444
 7139SOL    HW133050   3.286   1.395   6.078  0.6723  0.8498 -0.8922
 7139SOL    HW233051   3.152   1.324   6.060 -1.0201  1.5117 -0.4628
 7140SOL     OW33052   1.643   1.612  11.562 -0.2104 -0.1296  0.7142
 7140SOL    HW133053   1.676   1.674  11.626 -0.4228 -0.0117  0.7100
 7140SOL    HW233054   1.721   1.578  11.518  0.8692  4.2166 -0.7519
 7141SOL     OW33055   1.172   0.276   8.349  0.1584 -0.3260 -0.1406
 7141SOL    HW133056   1.210   0.354   8.389 -0.5737  0.3869 -0.8516
 7141SOL    HW233057   1.087   0.310   8.324  0.3370  0.7154  0.6893
 7142SOL     OW33058   2.950   0.444  10.284 -0.3443 -0.1856 -0.6449
 7142SOL    HW133059   2.983   0.367  10.330  0.2381  0.2981 -0.2739
 7142SOL    HW233060   2.857   0.422  10.289 -0.5715  0.3836 -2.3004
 7143SOL     OW33061   1.877   2.069  11.034  0.6174 -0.2729 -0.4093
 7143SOL    HW133062   1.860   2.023  11.116 -0.7205 -1.0320 -1.1154
 7143SOL    HW233063   1.875   2.156  11.074 -0.8557 -0.6607  0.3336
 7144SOL     OW33064   4.259   4.370   3.689 -0.2445  0.0209  0.9361
 7144SOL    HW133065   4.235   4.435   3.624 -0.7804  0.5662  1.6722
 7144SOL    HW233066   4.216   4.406   3.766 -0.9259  1.1265  0.0302
 7145SOL     OW33067   0.842   0.022   2.286 -0.3923  0.2467 -0.2178
 7145SOL    HW133068   0.888   0.070   2.216  1.5231  0.6479  1.3124
 7145SOL    HW233069   0.804   4.689   2.228  0.3210  0.7911 -1.3071
 7146SOL     OW33070   1.074   2.765   9.802 -0.2332  0.6434  0.7814
 7146SOL    HW133071   1.031   2.849   9.814 -0.2688  0.8728 -0.9675
 7146SOL    HW233072   1.065   2.753   9.707  0.7879 -0.2595  0.7960
 7147SOL     OW33073   3.878   0.249   3.615  0.0915  0.7382  0.2394
 7147SOL    HW133074   3.931   0.329   3.607  0.2688  0.7445  1.4999
 7147SOL    HW233075   3.790   0.282   3.636  0.9701  2.7745  0.7402
 7148SOL     OW33076   1.083   1.281   9.437  0.0087 -0.2232 -0.4647
 7148SOL    HW133077   1.166   1.278   9.485 -0.6546 -0.9150  0.6373
 7148SOL    HW233078   1.066   1.186   9.437 -0.0524 -0.2119  1.2177
 7149SOL     OW33079   2.412   0.371   4.403 -0.7007  0.0163 -0.2256
 7149SOL    HW133080   2.367   0.393   4.322 -1.9242 -3.0151 -0.3542
 7149SOL    HW233081   2.413   0.453   4.452  1.1169 -0.8806  1.2312
 7150SOL     OW33082   4.388   1.292   2.498 -0.4406 -0.2872 -0.6758
 7150SOL    HW133083   4.356   1.224   2.439  0.2134 -0.5450 -0.7382
 7150SOL    HW233084   4.360   1.367   2.447 -2.1346 -1.0477 -0.8822
 7151SOL     OW33085   1.210   0.991   5.532 -0.0980 -0.2376  0.5840
 7151SOL    HW133086   1.288   0.949   5.567  1.3573  1.7906 -0.2420
 7151SOL    HW233087   1.216   0.975   5.438 -0.6748 -0.8026  0.6423
 7152SOL     OW33088   0.257   1.888   6.413  0.6715 -0.3058  0.3486
 7152SOL    HW133089   0.213   1.840   6.483  0.3909 -0.9484 -0.2669
 7152SOL    HW233090   0.311   1.943   6.469 -0.1478 -0.6681  1.4880
 7153SOL     OW33091   0.920   0.216   4.892 -0.0773 -0.1524 -0.2454
 7153SOL    HW133092   0.953   0.283   4.832 -0.2783  0.6258  0.5169
 7153SOL    HW233093   0.978   0.236   4.966  0.8338 -0.6039 -0.8256
 7154SOL     OW33094   4.512   2.019   6.478  0.2739  0.3855  0.3626
 7154SOL    HW133095   4.531   1.946   6.538  1.0577  0.2705 -0.0191
 7154SOL    HW233096   4.591   2.031   6.426 -1.8385 -0.0787 -2.9225
 7155SOL     OW33097   4.308   4.090   6.445  0.3256  0.2825 -0.2943
 7155SOL    HW133098   4.338   4.180   6.460  0.7140  0.1306 -0.1764
 7155SOL    HW233099   4.376   4.044   6.494  0.4601  0.0173 -0.7356
 7156SOL     OW33100   3.091   2.804   6.186 -0.0284 -0.7125  0.6676
 7156SOL    HW133101   3.050   2.801   6.272  2.4034 -1.0776  1.8248
 7156SOL    HW233102   3.100   2.898   6.169 -1.0907 -0.5282  1.1272
 7157SOL     OW33103   3.035   3.728   8.178  0.2026 -0.1952  0.1659
 7157SOL    HW133104   3.099   3.693   8.239 -1.2408 -1.4032  0.9931
 7157SOL    HW233105   3.000   3.653   8.129  3.2859 -1.2379 -0.4070
 7158SOL     OW33106   2.297   3.325   4.379  0.0462  0.9573 -0.0691
 7158SOL    HW133107   2.380   3.281   4.398  1.3621  2.2735 -2.7921
 7158SOL    HW233108   2.292   3.327   4.284 -0.1926  1.1859 -0.0536
 7159SOL     OW33109   0.610   2.530   7.525 -0.0155 -0.3650 -0.1829
 7159SOL    HW133110   0.703   2.533   7.502  0.3941 -0.7892  1.4160
 7159SOL    HW233111   0.595   2.612   7.572 -2.3345 -1.6765  1.4246
 7160SOL     OW33112   2.835   3.409   8.402 -0.2638 -0.6238  0.1812
 7160SOL    HW133113   2.880   3.415   8.487 -0.6820  0.1654  0.3529
 7160SOL    HW233114   2.818   3.503   8.389 -1.3716 -0.7173  0.9548
 7161SOL     OW33115   2.180   0.176   5.616 -0.2041 -0.1186  0.3169
 7161SOL    HW133116   2.097   0.140   5.584 -1.4258  1.1103  2.0902
 7161SOL    HW233117   2.197   0.246   5.553  0.0168 -0.9230 -0.5175
 7162SOL     OW33118   2.113   1.813   5.803 -0.1515  0.1423 -0.2861
 7162SOL    HW133119   2.021   1.822   5.778 -0.1522 -0.6657 -0.5731
 7162SOL    HW233120   2.159   1.825   5.719  1.5151 -1.4941  0.4040
 7163SOL     OW33121   4.545   2.305   0.563 -0.0001  0.5494  0.0755
 7163SOL    HW133122   4.639   2.290   0.570 -0.1877 -0.9372 -0.5706
 7163SOL    HW233123   4.518   2.217   0.536 -0.6159  0.4739  0.9297
 7164SOL     OW33124   1.617   3.967   2.039 -0.6902 -0.1372 -0.2070
 7164SOL    HW133125   1.706   3.992   2.065 -0.9332  0.3940  0.1167
 7164SOL    HW233126   1.589   4.024   1.968  0.4755  1.6038  0.7223
 7165SOL     OW33127   2.800   0.584   4.167 -0.3493 -0.8405  0.1116
 7165SOL    HW133128   2.844   0.519   4.111  0.4688  0.1854 -0.4255
 7165SOL    HW233129   2.784   0.528   4.243  2.3221 -0.0812  1.2369
 7166SOL     OW33130   0.264   2.988  17.514 -0.2180 -0.6552 -0.0152
 7166SOL    HW133131   0.235   2.927  17.582 -2.5204  0.2348 -0.2227
 7166SOL    HW233132   0.326   2.937  17.462 -0.0748  0.7636 -1.2370
 7167SOL     OW33133   2.535   2.093   6.942  0.0094 -0.3041 -0.0996
 7167SOL    HW133134   2.460   2.121   6.889 -3.2193 -1.3819  3.8469
 7167SOL    HW233135   2.490   2.072   7.024  1.0014 -0.5476  0.3786
 7168SOL     OW33136   1.676   1.866   4.149 -0.2047  0.2684  0.3466
 7168SOL    HW133137   1.729   1.801   4.194  0.2099  0.6428  0.4085
 7168SOL    HW233138   1.600   1.879   4.205 -0.8962 -2.9281  0.1134
 7169SOL     OW33139   4.296   0.041   2.937 -0.5576 -0.2081  0.5086
 7169SOL    HW133140   4.275   0.006   2.851  1.2233  2.5098 -1.0373
 7169SOL    HW233141   4.279   0.134   2.920 -1.5936 -0.0304  2.4983
 7170SOL     OW33142   1.004   3.562   9.201 -0.0316  0.2543 -0.8247
 7170SOL    HW133143   0.954   3.573   9.121 -0.9628 -1.3903 -0.4599
 7170SOL    HW233144   1.063   3.637   9.197 -1.3049  1.3860  1.2766
 7171SOL     OW33145   1.603   0.503   6.536  0.0395  0.0305 -0.0727
 7171SOL    HW133146   1.539   0.434   6.521  0.2529 -0.0069 -0.8135
 7171SOL    HW233147   1.639   0.501   6.448  2.7496 -3.1514  1.1151
 7172SOL     OW33148   3.151   4.522  16.545  0.0083 -0.3748 -0.0763
 7172SOL    HW133149   3.239   4.560  16.547  0.2050 -0.8025 -0.7726
 7172SOL    HW233150   3.105   4.603  16.564 -1.4448 -1.2796  0.2571
 7173SOL     OW33151   1.148   0.422   3.819  0.7908 -0.3674 -0.5504
 7173SOL    HW133152   1.241   0.424   3.841  0.4243  1.7292  0.7885
 7173SOL    HW233153   1.135   0.516   3.812  2.1347 -0.1541 -0.2135
 7174SOL     OW33154   3.431   2.198   5.201 -0.1457 -0.9759 -0.0659
 7174SOL    HW133155   3.353   2.250   5.219  0.3807  0.0533 -0.7459
 7174SOL    HW233156   3.487   2.225   5.274  0.7457  1.6896 -1.7580
 7175SOL     OW33157   3.691   0.343   3.333 -0.2549  0.0072 -0.3143
 7175SOL    HW133158   3.760   0.290   3.293 -0.7683 -0.1853 -0.9460
 7175SOL    HW233159   3.703   0.423   3.281  3.0421  1.3160  2.4552
 7176SOL     OW33160   2.849   2.027   2.474 -0.2758  0.0363 -0.4702
 7176SOL    HW133161   2.836   2.121   2.486  0.4451 -0.2182  2.2436
 7176SOL    HW233162   2.764   2.007   2.434 -0.6813 -1.7242  1.3119
 7177SOL     OW33163   3.317   4.390  17.646  1.0612  0.3053 -0.2201
 7177SOL    HW133164   3.387   4.379  17.582  1.1843 -0.2461  0.0150
 7177SOL    HW233165   3.257   4.321  17.618  1.6902 -0.1228 -0.4958
 7178SOL     OW33166   2.580   0.522   8.724 -0.4067  0.6799 -0.2136
 7178SOL    HW133167   2.661   0.561   8.757 -1.5231  1.5873  1.4440
 7178SOL    HW233168   2.567   0.460   8.797 -0.7771 -0.5875 -1.3622
 7179SOL     OW33169   2.536   3.556   9.604 -0.3069  0.1706 -0.0421
 7179SOL    HW133170   2.627   3.584   9.597  0.4767 -2.0232  1.4204
 7179SOL    HW233171   2.539   3.466   9.636 -0.8915  0.8557  1.9790
 7180SOL     OW33172   1.724   4.179  14.343 -0.0054  0.0692  0.5290
 7180SOL    HW133173   1.642   4.229  14.347  0.7141  1.2579  0.2740
 7180SOL    HW233174   1.795   4.242  14.352  0.7157 -0.5290 -1.1215
 7181SOL     OW33175   2.602   0.063   5.921  0.6853 -0.5395 -0.1926
 7181SOL    HW133176   2.518   0.090   5.883 -0.5045 -1.0039  2.1154
 7181SOL    HW233177   2.596   4.703   5.944  0.5292 -0.8966 -1.7138
 7182SOL     OW33178   3.297   4.656  11.431  0.4534 -0.4840 -0.5771
 7182SOL    HW133179   3.219   4.654  11.487  1.9156  1.6475  1.5341
 7182SOL    HW233180   3.280   4.589  11.364 -1.1463  0.2937 -0.9731
 7183SOL     OW33181   4.067   0.754   2.682  0.9154 -0.2776 -0.5421
 7183SOL    HW133182   4.024   0.837   2.664  0.8634  0.3419  2.3522
 7183SOL    HW233183   4.019   0.724   2.760  2.3174 -0.1499  0.3691
 7184SOL     OW33184   1.063   0.968   4.772  0.0382 -0.2258 -0.6951
 7184SOL    HW133185   1.136   0.911   4.747  0.2975 -0.9544  1.7495
 7184SOL    HW233186   1.104   1.016   4.844 -0.6846 -0.8388  0.1100
 7185SOL     OW33187   3.496   1.170   4.882  0.6553 -0.3525  0.4879
 7185SOL    HW133188   3.493   1.247   4.938 -1.1677 -1.0081  1.2574
 7185SOL    HW233189   3.407   1.136   4.890  0.7222 -0.7522 -0.3894
 7186SOL     OW33190   3.577   2.541   3.532 -0.5570 -0.1664  0.3552
 7186SOL    HW133191   3.617   2.593   3.602  0.4912 -1.8382  0.9824
 7186SOL    HW233192   3.516   2.605   3.494 -0.6841  0.5060  1.6790
 7187SOL     OW33193   3.789   1.405   8.679  0.0701  0.2184  0.4094
 7187SOL    HW133194   3.845   1.395   8.756  1.2473  0.0955 -0.4667
 7187SOL    HW233195   3.718   1.344   8.699  0.5031  0.4202  2.5714
 7188SOL     OW33196   3.425   2.050   0.957  0.0693 -0.1674 -0.1805
 7188SOL    HW133197   3.378   2.063   0.875 -0.6410  2.8320  0.6934
 7188SOL    HW233198   3.428   1.955   0.957 -0.6469 -0.1868  0.2998
 7189SOL     OW33199   2.400   3.498   7.864 -0.1878  0.4096 -0.3872
 7189SOL    HW133200   2.383   3.587   7.894 -1.0604 -0.3719  1.4664
 7189SOL    HW233201   2.495   3.501   7.851 -0.3099  2.2888 -0.7926
 7190SOL     OW33202   2.644   1.100   5.543 -0.0334  0.0870 -0.2557
 7190SOL    HW133203   2.593   1.072   5.467  0.1785  0.4538 -0.5316
 7190SOL    HW233204   2.591   1.053   5.608 -0.4554  1.5032  0.4289
 7191SOL     OW33205   3.107   1.747   5.631 -0.0186 -0.7848  0.4920
 7191SOL    HW133206   3.193   1.733   5.591 -0.1165  0.8020 -0.3093
 7191SOL    HW233207   3.107   1.684   5.702  1.4385 -1.3340  0.0001
 7192SOL     OW33208   3.879   3.056  10.762  0.3146  0.4597 -0.4639
 7192SOL    HW133209   3.816   2.994  10.799  0.7407 -0.9752 -2.1049
 7192SOL    HW233210   3.958   3.024  10.806 -0.4736 -0.0324  0.5918
 7193SOL     OW33211   1.593   3.176   5.977 -0.5085 -0.0884  0.1182
 7193SOL    HW133212   1.539   3.241   5.931 -0.3536 -1.5090 -2.0440
 7193SOL    HW233213   1.562   3.093   5.940  1.4554 -0.3484 -0.9236
 7194SOL     OW33214   0.480   2.143   7.283  0.3688 -0.1254 -0.4972
 7194SOL    HW133215   0.431   2.067   7.254  0.6508 -0.7511  0.6610
 7194SOL    HW233216   0.562   2.095   7.282  0.8026  0.6942 -2.9050
 7195SOL     OW33217   0.542   3.624   8.347 -0.7208  0.6479 -0.0719
 7195SOL    HW133218   0.573   3.534   8.362  0.4659  1.2024  0.8785
 7195SOL    HW233219   0.607   3.679   8.391  0.3416 -1.2888  0.8143
 7196SOL     OW33220   3.865   1.305   9.422  0.5522 -0.0185  0.0267
 7196SOL    HW133221   3.880   1.211   9.438  1.2233  0.2413  0.9059
 7196SOL    HW233222   3.851   1.305   9.327 -0.9123 -1.1991  0.2190
 7197SOL     OW33223   2.836   2.170   5.698  0.0493 -0.1102  0.0573
 7197SOL    HW133224   2.866   2.250   5.655  0.2196 -0.3070 -0.1902
 7197SOL    HW233225   2.910   2.110   5.692  0.8208  0.6581  1.8868
 7198SOL     OW33226   0.280   3.239   8.761  0.2482  0.2831 -0.1709
 7198SOL    HW133227   0.312   3.153   8.733 -2.1024 -1.0975  1.4219
 7198SOL    HW233228   0.351   3.303   8.761  1.2580 -0.8610  2.5813
 7199SOL     OW33229   2.998   1.584  17.258 -0.2669 -0.2539  0.4904
 7199SOL    HW133230   2.903   1.584  17.256 -0.2795 -1.1608  1.1887
 7199SOL    HW233231   3.012   1.529  17.181  0.1660 -1.2869  1.3212
 7200SOL     OW33232   1.400   2.987  17.679  0.4938  0.1472 -0.2341
 7200SOL    HW133233   1.395   3.022  17.590 -0.3305 -1.7662 -0.9286
 7200SOL    HW233234   1.473   2.927  17.663 -0.3946  0.3644 -4.8546
 7201SOL     OW33235   2.611   3.243   8.764 -0.1096  0.3155  0.1272
 7201SOL    HW133236   2.597   3.337   8.749  1.5898  0.6648  0.6818
 7201SOL    HW233237   2.633   3.208   8.678 -0.6174  2.1718 -0.7650
 7202SOL     OW33238   1.488   2.630  12.586 -0.1588  0.1119 -0.1713
 7202SOL    HW133239   1.481   2.671  12.499 -2.1479  0.7001  0.2651
 7202SOL    HW233240   1.517   2.709  12.633 -0.5592  0.0312  0.2144
 7203SOL     OW33241   3.981   4.248   7.374 -0.0779 -0.0023 -0.6222
 7203SOL    HW133242   3.919   4.240   7.302  0.8767  0.5765 -1.5179
 7203SOL    HW233243   3.981   4.161   7.412  0.5869  1.1394  2.0142
 7204SOL     OW33244   4.541   2.929   6.790 -0.5504 -0.5935 -0.4328
 7204SOL    HW133245   4.538   2.874   6.712  0.0202  0.1638 -0.9894
 7204SOL    HW233246   4.597   2.873   6.844 -1.7687 -0.0979  1.3428
 7205SOL     OW33247   0.991   3.190  11.725 -0.0583 -0.4478  0.3494
 7205SOL    HW133248   1.015   3.201  11.817  1.3092  2.4473 -0.3619
 7205SOL    HW233249   0.977   3.096  11.720 -0.1963 -0.2963 -1.9319
 7206SOL     OW33250   3.354   0.732   4.974 -0.5275  0.4661  0.1008
 7206SOL    HW133251   3.409   0.752   5.050 -1.5530 -4.0826  2.0944
 7206SOL    HW233252   3.406   0.769   4.903  0.3946  0.8040  0.9563
 7207SOL     OW33253   2.735   1.304  14.984  0.3768 -0.4497 -0.3430
 7207SOL    HW133254   2.642   1.327  14.973 -0.0582 -1.1907  1.8692
 7207SOL    HW233255   2.771   1.390  14.962 -0.1325 -0.4776 -1.3321
 7208SOL     OW33256   1.718   2.307   3.112 -0.1770 -0.0581  0.0665
 7208SOL    HW133257   1.647   2.245   3.131  0.3955 -0.1905  1.7789
 7208SOL    HW233258   1.705   2.321   3.018  0.8861 -2.4519 -0.4318
 7209SOL     OW33259   1.225   3.869  17.140  0.2353  0.2953  0.6473
 7209SOL    HW133260   1.183   3.948  17.173 -1.3478 -0.2710 -0.0127
 7209SOL    HW233261   1.153   3.806  17.131  0.7960 -0.3834  0.8568
 7210SOL     OW33262   0.586   3.480   8.819 -0.1316  0.1715 -0.2202
 7210SOL    HW133263   0.542   3.562   8.841  1.4236  0.6287  1.1608
 7210SOL    HW233264   0.657   3.485   8.882 -0.4166  0.5531  0.0736
 7211SOL     OW33265   2.542   4.247  11.493  0.3153  0.5283 -0.0726
 7211SOL    HW133266   2.626   4.245  11.537  1.1369  0.2185 -1.6529
 7211SOL    HW233267   2.565   4.205  11.410 -1.7586 -1.5734  0.4056
 7212SOL     OW33268   3.273   0.739   0.474 -0.5096  0.1428 -0.3298
 7212SOL    HW133269   3.239   0.736   0.564  1.5657 -1.1205  0.4285
 7212SOL    HW233270   3.327   0.660   0.481 -1.1733 -0.2928 -0.0644
 7213SOL     OW33271   4.714   4.331   5.922  0.0972 -0.4485  0.2531
 7213SOL    HW133272   4.673   4.284   5.994  1.6005 -1.3223  0.5258
 7213SOL    HW233273   0.041   4.394   5.962  0.1824  0.5663 -1.4416
 7214SOL     OW33274   2.746   2.519   3.090  0.0640  0.2555 -0.4240
 7214SOL    HW133275   2.830   2.477   3.111 -0.9817 -0.9560  1.4080
 7214SOL    HW233276   2.692   2.457   3.139  2.1705 -1.1107  0.1675
 7215SOL     OW33277   2.031   3.459   7.312  0.2410 -0.6241 -0.3083
 7215SOL    HW133278   2.097   3.436   7.247 -1.6707  2.8555 -3.5067
 7215SOL    HW233279   2.041   3.553   7.329  0.8734 -1.5665  4.5383
 7216SOL     OW33280   4.033   0.886   3.343  0.1840 -0.3498 -0.2789
 7216SOL    HW133281   4.126   0.907   3.339  0.0121  0.5337  0.3663
 7216SOL    HW233282   4.026   0.797   3.308  0.5257 -0.4054 -0.2103
 7217SOL     OW33283   4.495   1.696   5.914 -0.9284 -0.2397  0.6170
 7217SOL    HW133284   4.536   1.778   5.941 -1.0592  0.2464 -0.6826
 7217SOL    HW233285   4.404   1.723   5.907 -0.4705  1.6412  1.8089
 7218SOL     OW33286   3.367   1.527   8.150  0.3321  0.0508  0.1824
 7218SOL    HW133287   3.315   1.460   8.106 -0.2563 -0.4028  1.5689
 7218SOL    HW233288   3.301   1.595   8.157  2.3197  2.0952 -1.0350
 7219SOL     OW33289   1.867   2.349  15.431 -0.0217  0.6212 -0.2068
 7219SOL    HW133290   1.956   2.329  15.459 -0.1561 -0.8686 -0.8632
 7219SOL    HW233291   1.854   2.290  15.357  1.2314  2.2835 -1.7631
 7220SOL     OW33292   1.491   0.343   5.653 -0.7819 -0.3639 -0.0935
 7220SOL    HW133293   1.541   0.358   5.733 -0.6127  0.8240 -0.4304
 7220SOL    HW233294   1.477   0.430   5.615  0.3572 -0.0716  0.1612
 7221SOL     OW33295   0.862   4.338  17.465  0.1285  0.4737  0.5800
 7221SOL    HW133296   0.782   4.357  17.514  0.2415  1.9924  0.1820
 7221SOL    HW233297   0.822   4.304  17.385  1.5495 -0.2922  0.1809
 7222SOL     OW33298   3.094   1.970  11.037 -0.5961  0.7588  0.0409
 7222SOL    HW133299   3.019   2.023  11.011 -0.1613  1.0992 -0.5303
 7222SOL    HW233300   3.117   1.929  10.954 -0.7972  0.8597 -0.0632
 7223SOL     OW33301   2.661   4.511   1.591  0.3989 -0.5399 -0.3977
 7223SOL    HW133302   2.655   4.579   1.658  2.3693 -0.9640  0.2233
 7223SOL    HW233303   2.568   4.490   1.582  0.1324  0.5058 -0.0373
 7224SOL     OW33304   4.731   0.024   7.517 -0.2524 -0.5281  0.3655
 7224SOL    HW133305   4.642   0.020   7.551 -0.1320  0.3928  0.7912
 7224SOL    HW233306   0.010   0.100   7.459 -1.5028 -0.3889  0.3032
 7225SOL     OW33307   3.893   1.459   6.472  0.6454  0.0961 -0.2962
 7225SOL    HW133308   3.943   1.511   6.409  2.9142 -1.3342  0.3374
 7225SOL    HW233309   3.960   1.445   6.539  1.4734 -0.7868 -1.3094
 7226SOL     OW33310   0.991   0.742   1.674  0.0669  0.2675  0.4174
 7226SOL    HW133311   0.962   0.786   1.754 -1.1629 -0.0024  0.1155
 7226SOL    HW233312   1.085   0.754   1.684 -0.2476  1.7667  1.6863
 7227SOL     OW33313   1.728   0.284   1.728  0.2604 -0.2717 -0.3164
 7227SOL    HW133314   1.798   0.275   1.793  0.8917 -1.4020 -1.1486
 7227SOL    HW233315   1.735   0.192   1.701  0.0474 -0.8853  1.7599
 7228SOL     OW33316   1.502   4.587   4.244 -0.1657  0.5392 -0.3755
 7228SOL    HW133317   1.484   4.680   4.249 -1.4251  0.3522 -1.5156
 7228SOL    HW233318   1.490   4.557   4.335  0.2514  1.2119 -0.1057
 7229SOL     OW33319   3.608   1.229   5.363  0.1154  0.5888  0.0947
 7229SOL    HW133320   3.677   1.284   5.326  1.6979 -0.7280  1.1174
 7229SOL    HW233321   3.662   1.176   5.422  0.6866  1.0134 -0.0459
 7230SOL     OW33322   2.172   2.390  14.746 -0.3916  0.6661  0.8115
 7230SOL    HW133323   2.150   2.478  14.716  0.9694  0.6206 -0.3482
 7230SOL    HW233324   2.264   2.379  14.722 -0.7852  1.2967 -0.9947
 7231SOL     OW33325   0.276   3.538   0.961 -0.3059 -0.2919 -0.6345
 7231SOL    HW133326   0.339   3.493   1.017 -1.6444  0.9978  1.9088
 7231SOL    HW233327   0.200   3.549   1.017 -0.5046  1.7745 -1.3196
 7232SOL     OW33328   0.282   4.699  13.042  0.3000 -0.1228 -0.3859
 7232SOL    HW133329   0.355   4.721  13.098 -0.2729 -2.0522  1.1199
 7232SOL    HW233330   0.328   4.636  12.986 -0.5882  0.9428 -2.3063
 7233SOL     OW33331   3.876   2.747   3.217 -0.4315 -0.5870  0.3716
 7233SOL    HW133332   3.833   2.718   3.137  1.8334 -1.9284 -0.3614
 7233SOL    HW233333   3.963   2.772   3.184 -0.8405  0.0885 -0.1983
 7234SOL     OW33334   4.232   3.943  14.855 -0.5501 -0.6454  0.4885
 7234SOL    HW133335   4.272   3.866  14.895 -1.9909 -1.0271  1.2026
 7234SOL    HW233336   4.247   4.001  14.930  0.8527 -1.8210  1.1232
 7235SOL     OW33337   0.272   3.864   7.067 -0.1408  0.1949 -0.8652
 7235SOL    HW133338   0.295   3.941   7.118  0.6979 -0.9601  0.5080
 7235SOL    HW233339   0.327   3.877   6.989  0.6909 -0.4044 -0.3801
 7236SOL     OW33340   4.449   2.691  12.524 -0.0290  0.0544 -0.6037
 7236SOL    HW133341   4.527   2.654  12.567 -0.2333 -0.0766 -0.3467
 7236SOL    HW233342   4.403   2.731  12.598 -0.7643  0.5042 -1.3192
 7237SOL     OW33343   1.144   1.983  13.170 -0.2784  0.4891 -0.4051
 7237SOL    HW133344   1.184   2.035  13.101  0.4807  0.3480 -0.0678
 7237SOL    HW233345   1.200   1.906  13.167 -0.9391 -0.0653  1.3455
 7238SOL     OW33346   1.986   0.693   6.501 -0.3780 -0.5006  0.5196
 7238SOL    HW133347   2.005   0.603   6.475  1.1741 -0.6510  2.1912
 7238SOL    HW233348   2.067   0.710   6.547  0.3256  0.6739 -1.1636
 7239SOL     OW33349   3.148   4.450   1.360 -0.4964 -0.3313  0.4955
 7239SOL    HW133350   3.069   4.462   1.411 -0.7069  0.2739  0.0195
 7239SOL    HW233351   3.122   4.405   1.280 -0.4673 -0.0283  0.3158
 7240SOL     OW33352   2.538   0.851   4.608 -0.0571 -0.0803 -0.1286
 7240SOL    HW133353   2.591   0.821   4.534  1.9492  0.1664  1.1944
 7240SOL    HW233354   2.604   0.873   4.674 -0.6184 -2.2524  1.1694
 7241SOL     OW33355   1.367   3.058   9.578  0.2420 -0.9495 -0.3476
 7241SOL    HW133356   1.333   3.022   9.660 -0.1832 -0.7153 -0.4210
 7241SOL    HW233357   1.423   3.128   9.611  0.8839 -0.9858 -1.3554
 7242SOL     OW33358   1.041   0.005  10.042  0.6934  0.4041  0.2292
 7242SOL    HW133359   1.006   4.732  10.131 -0.4007 -0.2837 -0.2417
 7242SOL    HW233360   0.961   4.726   9.990 -0.0022  0.2262  1.3212
 7243SOL     OW33361   2.839   2.406   4.128  0.4081 -0.2300  0.4462
 7243SOL    HW133362   2.801   2.349   4.062 -1.4653  0.7246  0.6977
 7243SOL    HW233363   2.809   2.369   4.212 -2.2858 -0.8882 -0.8195
 7244SOL     OW33364   2.840   0.324   6.931  0.5325 -0.0346  0.3447
 7244SOL    HW133365   2.771   0.373   6.975  0.4673 -0.8703  1.1873
 7244SOL    HW233366   2.797   0.254   6.882 -1.8922  0.7937  1.2708
 7245SOL     OW33367   2.146   4.028  12.283  0.2499  0.1391  0.0315
 7245SOL    HW133368   2.140   4.100  12.346 -2.2993 -0.5216  0.5648
 7245SOL    HW233369   2.104   4.061  12.203 -0.6740  0.8629  0.8175
 7246SOL     OW33370   1.189   1.646   3.611  0.2249 -0.0341 -0.1943
 7246SOL    HW133371   1.221   1.565   3.650 -1.2281 -0.6930 -0.3615
 7246SOL    HW233372   1.188   1.712   3.680 -0.5872 -0.1993 -0.0477
 7247SOL     OW33373   1.443   3.752   6.789 -0.1141  0.0869  0.5768
 7247SOL    HW133374   1.505   3.735   6.860 -0.3925  2.0501  1.2976
 7247SOL    HW233375   1.365   3.766   6.842 -0.1009 -0.3908  0.7208
 7248SOL     OW33376   2.236   1.822   2.239  0.0796 -0.2230 -0.1559
 7248SOL    HW133377   2.211   1.840   2.329 -0.6715 -0.0855 -0.3822
 7248SOL    HW233378   2.322   1.783   2.245  0.5641  0.7331 -0.8580
 7249SOL     OW33379   2.156   2.515  16.254  0.5516  0.1935 -0.1459
 7249SOL    HW133380   2.124   2.538  16.167 -1.3065 -1.0912  0.1987
 7249SOL    HW233381   2.251   2.511  16.247  0.7857  4.4017  0.4499
 7250SOL     OW33382   1.797   1.470  16.771  0.0133  0.1655  0.3638
 7250SOL    HW133383   1.890   1.461  16.792 -0.2755 -0.7248  1.2520
 7250SOL    HW233384   1.775   1.378  16.785  0.8882  0.2750  2.4713
 7251SOL     OW33385   2.554   0.718   3.810 -0.0274  0.1144  0.3865
 7251SOL    HW133386   2.566   0.743   3.901 -3.4599  0.2040  0.8117
 7251SOL    HW233387   2.475   0.665   3.823  0.3158 -0.6571 -0.6652
 7252SOL     OW33388   0.230   0.094  16.365  0.6701  0.3612 -0.8150
 7252SOL    HW133389   0.144   0.111  16.325 -0.8757  0.3849  2.4725
 7252SOL    HW233390   0.200   0.033  16.432  2.7199 -1.3969 -1.5210
 7253SOL     OW33391   1.432   3.786   7.193  0.1494 -0.3541 -0.0785
 7253SOL    HW133392   1.436   3.843   7.270 -0.4727  0.8306 -0.9211
 7253SOL    HW233393   1.338   3.770   7.189  0.7828 -3.9491 -0.8601
 7254SOL     OW33394   3.868   2.619   7.973 -0.4456 -0.6599  0.3378
 7254SOL    HW133395   3.851   2.532   7.938 -0.2227 -0.8236  0.6388
 7254SOL    HW233396   3.815   2.612   8.053  1.5269  1.4201  1.8341
 7255SOL     OW33397   1.216   4.202   8.489 -0.8688  0.4760  0.3693
 7255SOL    HW133398   1.187   4.181   8.400  0.1760  2.3531 -0.4105
 7255SOL    HW233399   1.299   4.249   8.478 -0.9615  0.3145 -1.1036
 7256SOL     OW33400   1.131   3.419   5.669  0.0740 -0.4776  0.2289
 7256SOL    HW133401   1.116   3.469   5.750  1.1834 -1.8357  1.2663
 7256SOL    HW233402   1.052   3.441   5.620  0.8907  2.0446  0.0470
 7257SOL     OW33403   3.809   1.542   9.501  0.2818 -0.4529  0.0212
 7257SOL    HW133404   3.832   1.460   9.457  1.9313 -0.2669  0.5338
 7257SOL    HW233405   3.840   1.605   9.436  1.9758 -0.9616  0.3475
 7258SOL     OW33406   1.832   0.791  12.073  0.5262 -0.2976 -0.2221
 7258SOL    HW133407   1.862   0.732  12.003  1.2725 -0.2205  0.0258
 7258SOL    HW233408   1.881   0.757  12.148 -0.1136  2.4574  1.4340
 7259SOL     OW33409   2.481   1.727  16.892 -0.1631  0.4368  0.1212
 7259SOL    HW133410   2.436   1.657  16.939  1.3590 -0.2813  0.4997
 7259SOL    HW233411   2.454   1.801  16.946 -2.7273  0.5650 -1.3346
 7260SOL     OW33412   3.247   4.563   4.313 -0.3331  0.0954  0.3378
 7260SOL    HW133413   3.317   4.562   4.378  0.0847  0.0864 -0.1145
 7260SOL    HW233414   3.261   4.489   4.254  2.1703  1.4868 -0.7984
 7261SOL     OW33415   1.205   2.561   7.042 -0.3357  0.5184 -0.0516
 7261SOL    HW133416   1.191   2.626   6.974  2.7110 -0.4447 -1.6117
 7261SOL    HW233417   1.205   2.613   7.123  1.3591  0.4928 -0.0322
 7262SOL     OW33418   0.377   1.835   7.463 -0.0698  0.2143 -0.3653
 7262SOL    HW133419   0.342   1.902   7.405 -0.3678  0.8018  0.4870
 7262SOL    HW233420   0.427   1.893   7.520 -0.0551 -1.2355  1.0926
 7263SOL     OW33421   4.675   2.672   8.611  0.3386 -0.2628 -0.3843
 7263SOL    HW133422   4.649   2.697   8.523 -1.2876  2.0487  0.7693
 7263SOL    HW233423   0.005   2.603   8.588  0.6240  0.1060 -0.7201
 7264SOL     OW33424   0.995   1.035  10.499 -0.5336 -0.1362 -0.1384
 7264SOL    HW133425   0.982   0.982  10.421 -0.6261  0.3899 -0.4741
 7264SOL    HW233426   0.951   0.984  10.567  1.6269 -1.0735  0.5623
 7265SOL     OW33427   0.978   3.745  17.081 -0.3174 -0.1068  0.8064
 7265SOL    HW133428   0.927   3.687  17.138 -0.7705 -0.2244  0.2840
 7265SOL    HW233429   0.900   3.783  17.041  0.7455  2.2333  0.9638
 7266SOL     OW33430   1.045   2.723  15.193  0.6855  0.0117  0.2141
 7266SOL    HW133431   0.973   2.659  15.194  1.0483 -0.4250 -1.4691
 7266SOL    HW233432   0.995   2.784  15.139 -0.3609 -1.2816 -0.3062
 7267SOL     OW33433   2.838   0.148   7.735  0.2725  0.1178 -0.7410
 7267SOL    HW133434   2.922   0.143   7.689  0.8872  0.7786  0.3124
 7267SOL    HW233435   2.811   0.239   7.722  2.8684  0.9351 -0.4508
 7268SOL     OW33436   0.913   2.766   2.994 -1.0534  0.1587 -0.4526
 7268SOL    HW133437   0.981   2.827   2.965 -1.4323  0.8853  0.1859
 7268SOL    HW233438   0.978   2.702   3.024  0.7187  1.4233 -1.5637
 7269SOL     OW33439   2.215   4.171  16.430 -0.2211  0.0950  0.4190
 7269SOL    HW133440   2.152   4.105  16.459  1.1140 -0.5182  1.9281
 7269SOL    HW233441   2.236   4.215  16.513  0.6218  0.0009  0.2564
 7270SOL     OW33442   1.145   1.396   4.141  0.4283 -0.3626  0.2436
 7270SOL    HW133443   1.115   1.394   4.232 -2.1166  1.0481 -0.5792
 7270SOL    HW233444   1.127   1.304   4.122  0.6118 -0.1120 -1.1388
 7271SOL     OW33445   2.221   3.228   6.837  0.7822 -0.2650 -1.1143
 7271SOL    HW133446   2.132   3.206   6.865  1.1571  0.0022  0.3041
 7271SOL    HW233447   2.227   3.176   6.757 -0.8086 -0.1927 -1.2841
 7272SOL     OW33448   0.438   0.890  10.221  0.3120 -0.1747  0.0273
 7272SOL    HW133449   0.452   0.982  10.201  1.5261  0.3093  3.0731
 7272SOL    HW233450   0.347   0.880  10.194 -0.2270 -0.3466  1.9121
 7273SOL     OW33451   3.802   3.193   8.651  0.3432 -0.1272  0.2628
 7273SOL    HW133452   3.879   3.240   8.619 -0.3766 -0.7191 -2.3651
 7273SOL    HW233453   3.750   3.198   8.570 -0.2440  1.2229  0.7106
 7274SOL     OW33454   2.286   3.795   3.691 -0.2251 -0.0602  0.0518
 7274SOL    HW133455   2.361   3.853   3.677 -0.4351  0.6851  2.0260
 7274SOL    HW233456   2.218   3.854   3.658 -0.7966 -2.4790 -3.1962
 7275SOL     OW33457   2.530   3.122  10.049  0.4259  0.6529 -0.3345
 7275SOL    HW133458   2.543   3.206  10.093 -0.4426  1.2458 -1.2246
 7275SOL    HW233459   2.474   3.145   9.975  1.3361 -2.0883 -1.8776
 7276SOL     OW33460   0.195   1.414   2.691  0.3200  0.0921 -0.1879
 7276SOL    HW133461   0.126   1.425   2.625  1.0149 -1.1765 -1.0982
 7276SOL    HW233462   0.243   1.495   2.672  1.5464 -0.7591 -0.6324
 7277SOL     OW33463   4.581   1.447  10.236  0.0032 -0.6765  0.4223
 7277SOL    HW133464   4.553   1.471  10.325 -1.2853 -1.2500  0.1693
 7277SOL    HW233465   4.654   1.389  10.256  1.7782  1.5854  0.4880
 7278SOL     OW33466   1.465   4.268   6.893  0.1874  0.0279 -0.1646
 7278SOL    HW133467   1.487   4.359   6.912  1.4333 -0.2101 -0.5135
 7278SOL    HW233468   1.462   4.281   6.798 -1.9230 -1.4253 -0.2843
 7279SOL     OW33469   0.229   4.279   4.632 -0.1570  0.6115  0.4838
 7279SOL    HW133470   0.313   4.321   4.647 -0.7796  1.5762  1.2306
 7279SOL    HW233471   0.176   4.313   4.704 -2.7744 -0.7393 -0.8109
 7280SOL     OW33472   1.889   4.090  16.626  0.3419 -0.0636  0.0478
 7280SOL    HW133473   1.898   4.084  16.721  1.7343 -0.1166 -0.0908
 7280SOL    HW233474   1.797   4.116  16.619  0.9058  1.5682 -1.3176
 7281SOL     OW33475   2.323   1.565  13.084 -0.1995  0.2117  0.6931
 7281SOL    HW133476   2.328   1.610  13.168 -0.9085  2.1087 -0.2853
 7281SOL    HW233477   2.254   1.608  13.034 -0.2192  1.9176  2.1922
 7282SOL     OW33478   0.195   0.056   4.490  0.0749  0.0464 -0.3566
 7282SOL    HW133479   0.244   4.729   4.434  0.9129 -0.2502  0.6954
 7282SOL    HW233480   0.108   0.030   4.461 -0.5091  1.9621 -0.3676
 7283SOL     OW33481   3.325   2.279   3.904 -0.8756  0.4130  0.1850
 7283SOL    HW133482   3.365   2.366   3.896 -1.2465  0.3843 -1.7956
 7283SOL    HW233483   3.233   2.304   3.897 -1.0509  0.0007  0.9679
 7284SOL     OW33484   2.732   3.150   9.714  0.3372  0.2559  0.0667
 7284SOL    HW133485   2.741   3.055   9.725  0.6749  0.5347  2.1872
 7284SOL    HW233486   2.814   3.161   9.665  0.7272 -0.3667  0.5742
 7285SOL     OW33487   4.394   4.503   7.220 -0.1295  0.0649  0.1582
 7285SOL    HW133488   4.352   4.430   7.266 -0.5566  0.7439  0.8563
 7285SOL    HW233489   4.346   4.581   7.249 -0.3484  0.3737 -1.0536
 7286SOL     OW33490   0.558   4.638   8.410  0.0106 -1.1176  0.2580
 7286SOL    HW133491   0.637   4.615   8.459  1.6504  1.2564 -1.2930
 7286SOL    HW233492   0.493   4.567   8.409  0.6685 -1.7385  0.9767
 7287SOL     OW33493   2.350   4.488   2.716 -0.1062 -0.2628  0.1822
 7287SOL    HW133494   2.268   4.439   2.703 -0.9342  1.8069 -2.4200
 7287SOL    HW233495   2.411   4.416   2.698  1.0344  0.7814 -0.1087
 7288SOL     OW33496   3.164   3.548   1.042 -0.3134 -0.3249 -0.7880
 7288SOL    HW133497   3.201   3.587   0.963 -0.8324 -2.0464 -1.8796
 7288SOL    HW233498   3.242   3.525   1.091 -2.2941 -5.8028 -0.2320
 7289SOL     OW33499   0.400   1.457   3.267 -0.1856  0.2138  0.4417
 7289SOL    HW133500   0.494   1.442   3.258  0.0170  0.8025  1.4892
 7289SOL    HW233501   0.391   1.551   3.285 -0.0020  0.1667  0.7739
 7290SOL     OW33502   3.170   1.861   0.505 -0.0985 -0.2418  0.5334
 7290SOL    HW133503   3.233   1.913   0.456 -0.3120 -0.9355 -0.4837
 7290SOL    HW233504   3.088   1.881   0.459 -0.3956  0.5501  1.4061
 7291SOL     OW33505   1.913   2.158   7.638 -0.9291 -0.5516 -0.2802
 7291SOL    HW133506   1.965   2.211   7.698 -0.5946 -0.7390 -0.4047
 7291SOL    HW233507   1.926   2.071   7.674 -1.6232 -0.2235  0.7699
 7292SOL     OW33508   4.371   1.393   3.664  0.2789  0.4558 -0.2065
 7292SOL    HW133509   4.355   1.488   3.662 -0.9826  0.2565  1.0566
 7292SOL    HW233510   4.291   1.347   3.641 -0.5768  0.4226  2.7937
 7293SOL     OW33511   3.579   4.051   5.938  0.0649  0.4383 -0.1423
 7293SOL    HW133512   3.493   4.022   5.907  1.0502 -2.9789  0.3481
 7293SOL    HW233513   3.586   4.130   5.885 -0.5535  1.3057  1.0691
 7294SOL     OW33514   3.072   1.933   6.198 -0.2323  0.8456 -0.2638
 7294SOL    HW133515   3.110   1.865   6.143  1.4984  1.6969 -0.1363
 7294SOL    HW233516   3.034   1.991   6.132 -3.1039 -0.0735  0.5895
 7295SOL     OW33517   1.775   3.437   6.214  0.0876  0.4483  0.5788
 7295SOL    HW133518   1.775   3.512   6.272  1.0597  0.2793  0.8036
 7295SOL    HW233519   1.703   3.472   6.161  0.1633 -1.2006 -0.6401
 7296SOL     OW33520   4.477   1.695   5.590 -0.2195 -0.0423 -0.2594
 7296SOL    HW133521   4.507   1.647   5.513  3.4489 -0.1516  1.2016
 7296SOL    HW233522   4.481   1.784   5.554 -0.1094  0.5734  1.2303
 7297SOL     OW33523   3.670   2.538   2.551 -0.3995  0.0180 -0.4935
 7297SOL    HW133524   3.718   2.455   2.562 -1.7689 -0.5042  1.4465
 7297SOL    HW233525   3.582   2.500   2.548 -1.2938  2.1105 -0.3327
 7298SOL     OW33526   4.339   2.156   5.783  0.2098 -0.2343 -0.0196
 7298SOL    HW133527   4.332   2.188   5.873 -0.6826  0.2840 -0.2755
 7298SOL    HW233528   4.433   2.157   5.770  0.5079  2.7908  2.4715
 7299SOL     OW33529   2.209   2.387   2.745 -0.2679 -0.5148  0.4541
 7299SOL    HW133530   2.276   2.409   2.810 -0.6006 -0.0837  0.6516
 7299SOL    HW233531   2.137   2.351   2.796 -0.3682 -1.4948 -0.3636
 7300SOL     OW33532   1.996   0.525   4.577 -0.2818 -0.4252  0.6196
 7300SOL    HW133533   2.037   0.610   4.592 -3.2910  1.1407  0.0143
 7300SOL    HW233534   1.903   0.535   4.598 -0.3226 -2.6144  1.5129
 7301SOL     OW33535   3.274   4.048   4.541 -0.2979 -0.3722  0.5254
 7301SOL    HW133536   3.279   4.121   4.602  1.0854 -0.4808  0.5339
 7301SOL    HW233537   3.180   4.045   4.521 -0.4028 -0.3024  0.9986
 7302SOL     OW33538   4.688   4.205   5.441 -0.0021  0.2855  0.4400
 7302SOL    HW133539   4.679   4.118   5.401 -0.6102  0.9832 -0.9485
 7302SOL    HW233540   4.598   4.222   5.469 -0.4292  0.2671 -0.9018
 7303SOL     OW33541   1.532   1.482   3.127  0.1995 -0.8257 -0.1491
 7303SOL    HW133542   1.612   1.527   3.153 -0.4814  0.3379 -0.0700
 7303SOL    HW233543   1.549   1.388   3.133 -1.4184 -1.1450 -0.5290
 7304SOL     OW33544   2.776   0.909   9.200 -0.6175 -0.3251  0.3145
 7304SOL    HW133545   2.702   0.920   9.259 -0.7442  0.1504  0.0756
 7304SOL    HW233546   2.845   0.944   9.256 -0.1969 -1.2718  0.3813
 7305SOL     OW33547   3.242   3.886  14.867 -0.3749 -0.1969  0.0584
 7305SOL    HW133548   3.273   3.970  14.903  1.1957 -0.6174 -0.3260
 7305SOL    HW233549   3.149   3.894  14.892  0.2534  1.5645  1.8460
 7306SOL     OW33550   4.051   0.300  17.378  0.1376 -0.0225  0.3607
 7306SOL    HW133551   4.108   0.323  17.305  0.0374 -0.8781  0.0187
 7306SOL    HW233552   3.991   0.375  17.377 -0.1439 -0.2600 -0.4372
 7307SOL     OW33553   1.482   4.380   3.862  0.5593 -0.0431 -0.1623
 7307SOL    HW133554   1.520   4.465   3.883 -0.5169  0.4350 -0.1496
 7307SOL    HW233555   1.475   4.326   3.941  0.4515  1.4960  0.8795
 7308SOL     OW33556   3.787   0.750   9.227  0.3108  0.3632 -0.6995
 7308SOL    HW133557   3.756   0.664   9.256  0.4865  0.7887  0.7437
 7308SOL    HW233558   3.875   0.751   9.264  0.8700  0.4556 -2.0218
 7309SOL     OW33559   1.114   2.425  12.681 -0.7004 -0.6254  0.4818
 7309SOL    HW133560   1.094   2.455  12.593  4.7467 -1.4472 -1.0412
 7309SOL    HW233561   1.025   2.424  12.718 -0.8406 -1.3811  0.1388
 7310SOL     OW33562   4.571   2.651  17.525 -0.5243 -0.3336  0.5700
 7310SOL    HW133563   4.584   2.729  17.470  0.7093  0.2427  1.6861
 7310SOL    HW233564   4.515   2.594  17.472  1.3732 -0.5211 -1.2204
 7311SOL     OW33565   0.462   1.367   7.825  0.4741 -0.3089 -0.1263
 7311SOL    HW133566   0.509   1.311   7.763 -0.5500  0.1786 -1.3507
 7311SOL    HW233567   0.384   1.312   7.832 -0.8234  1.4884 -0.4672
 7312SOL     OW33568   0.303   1.583   8.063 -0.1437  0.3283 -0.2989
 7312SOL    HW133569   0.349   1.637   7.999 -2.9941  2.2142 -0.7625
 7312SOL    HW233570   0.218   1.577   8.018  0.8019 -0.0126 -2.0329
 7313SOL     OW33571   2.437   3.657   6.682  0.0177 -0.0897  0.3923
 7313SOL    HW133572   2.455   3.568   6.651 -1.0474 -0.7779  1.7267
 7313SOL    HW233573   2.344   3.663   6.700 -0.0153 -1.5177  0.7326
 7314SOL     OW33574   1.661   3.833  15.963  0.2483  0.1097 -0.5158
 7314SOL    HW133575   1.644   3.913  16.013 -0.4891 -0.1070 -0.4139
 7314SOL    HW233576   1.631   3.866  15.879  1.1113  0.6895 -0.5856
 7315SOL     OW33577   0.650   2.862   9.023  0.5687  0.5546 -0.2214
 7315SOL    HW133578   0.616   2.946   9.051 -0.8551 -0.0859 -0.0324
 7315SOL    HW233579   0.582   2.846   8.958 -0.2585  2.9109  0.0821
 7316SOL     OW33580   4.521   2.172   4.993  0.1398 -0.4774  0.0401
 7316SOL    HW133581   4.503   2.082   5.022  2.4930 -0.5507  1.2354
 7316SOL    HW233582   4.553   2.151   4.905 -1.5725 -0.4134 -0.6001
 7317SOL     OW33583   4.627   4.546   2.802  0.5811 -0.3306 -0.0673
 7317SOL    HW133584   4.702   4.502   2.840  0.3868  0.7095  1.5151
 7317SOL    HW233585   4.633   4.633   2.841 -1.3690  0.1197 -0.7412
 7318SOL     OW33586   3.151   0.427   1.460 -0.1822  0.1295 -0.9878
 7318SOL    HW133587   3.211   0.353   1.474  0.6655  1.0820  0.4649
 7318SOL    HW233588   3.186   0.455   1.376  0.6957  3.4234  0.4680
 7319SOL     OW33589   3.108   1.116  16.283 -0.5037  0.3483 -0.4687
 7319SOL    HW133590   3.202   1.111  16.296 -0.4612  1.3222 -0.4230
 7319SOL    HW233591   3.094   1.201  16.325 -0.2043  1.2787 -2.3029
 7320SOL     OW33592   3.348   1.244   2.757  0.2653  0.0741 -0.2017
 7320SOL    HW133593   3.405   1.265   2.832  0.2004 -0.5748  0.0226
 7320SOL    HW233594   3.261   1.237   2.795  0.8665 -0.7447  1.0264
 7321SOL     OW33595   1.758   2.978  10.616  1.1204 -0.0692  0.4261
 7321SOL    HW133596   1.710   2.903  10.652  0.2326  0.3670  0.1720
 7321SOL    HW233597   1.691   3.046  10.627  3.6057  2.2084  1.2543
 7322SOL     OW33598   3.687   4.429   7.967  0.3320 -0.1079 -0.4998
 7322SOL    HW133599   3.736   4.363   7.918 -0.1824 -0.3384 -0.7061
 7322SOL    HW233600   3.739   4.417   8.047  2.6286 -0.1577 -1.9862
 7323SOL     OW33601   1.274   4.628  13.268 -0.0054 -0.3389 -0.2026
 7323SOL    HW133602   1.190   4.641  13.225  0.4257  0.4732 -0.8011
 7323SOL    HW233603   1.319   4.583  13.196  0.5866 -2.8211  1.7325
 7324SOL     OW33604   2.434   3.827   2.129 -0.1903  0.0477 -0.0348
 7324SOL    HW133605   2.503   3.763   2.151  0.5458  1.2251  1.0509
 7324SOL    HW233606   2.400   3.839   2.217 -0.0572 -0.8009  0.1399
 7325SOL     OW33607   3.416   0.208   0.490 -0.0362 -0.3965  0.5476
 7325SOL    HW133608   3.432   0.128   0.440 -3.9033 -1.1664  0.5295
 7325SOL    HW233609   3.374   0.254   0.417  0.2961 -0.9435  0.0057
 7326SOL     OW33610   4.499   4.351  17.550 -0.5161  0.1130  0.2519
 7326SOL    HW133611   4.521   4.307  17.468 -3.0478  0.8868 -0.8566
 7326SOL    HW233612   4.505   4.283  17.617 -1.3043  0.7955  1.0220
 7327SOL     OW33613   2.094   0.735  13.487  0.5624 -0.2328  0.2979
 7327SOL    HW133614   2.113   0.761  13.577 -1.8358 -2.8372  1.5322
 7327SOL    HW233615   2.010   0.692  13.503  0.3527 -0.4863 -1.4833
 7328SOL     OW33616   0.797   1.632   3.978  0.2285  0.4113  0.0619
 7328SOL    HW133617   0.890   1.632   3.999  0.5106 -0.1553 -1.1901
 7328SOL    HW233618   0.755   1.661   4.059  1.4538  1.7575  0.2211
 7329SOL     OW33619   0.150   0.600   5.110  0.1613  0.3818  0.1863
 7329SOL    HW133620   0.080   0.551   5.067  0.2679 -0.4398  0.9504
 7329SOL    HW233621   0.219   0.535   5.123  2.1402  2.3062 -0.6955
 7330SOL     OW33622   3.667   4.460   1.294  0.1812 -0.1016 -0.3737
 7330SOL    HW133623   3.576   4.479   1.271  0.1618  0.6243  0.3252
 7330SOL    HW233624   3.657   4.369   1.323 -4.2017  0.6063  0.3746
 7331SOL     OW33625   0.777   3.941   4.433  0.2154 -0.0356  0.1211
 7331SOL    HW133626   0.753   3.881   4.503  1.3866 -2.4122 -1.5360
 7331SOL    HW233627   0.692   3.947   4.389 -0.0753  0.0205  0.6919
 7332SOL     OW33628   3.797   0.841   3.509 -0.1681 -0.3606 -0.4498
 7332SOL    HW133629   3.877   0.838   3.560 -1.9219  0.6972  2.3586
 7332SOL    HW233630   3.737   0.860   3.582  1.6671 -0.9607  1.2071
 7333SOL     OW33631   3.886   1.357  12.104  0.0115 -0.3087  0.1300
 7333SOL    HW133632   3.906   1.267  12.131 -0.6246 -0.2723  0.7250
 7333SOL    HW233633   3.796   1.368  12.136  0.5620  0.7441  1.2946
 7334SOL     OW33634   2.989   1.703   7.943 -0.2602 -0.0126  0.3699
 7334SOL    HW133635   2.926   1.631   7.955  1.3242 -1.2951  1.0336
 7334SOL    HW233636   3.042   1.674   7.868 -0.9714  2.8970 -1.2348
 7335SOL     OW33637   1.632   3.393   8.364  0.5150 -0.1458 -0.1718
 7335SOL    HW133638   1.576   3.447   8.420  2.7197  2.8146 -0.7839
 7335SOL    HW233639   1.576   3.382   8.287  0.5585 -0.3368 -0.1745
 7336SOL     OW33640   3.790   4.123   6.124 -0.0358  0.3439  0.0538
 7336SOL    HW133641   3.704   4.086   6.104  0.8720 -1.2504 -0.8441
 7336SOL    HW233642   3.819   4.158   6.040  2.0936  0.9375  1.0157
 7337SOL     OW33643   3.974   1.519   4.415 -0.7170  0.2630  0.1521
 7337SOL    HW133644   4.002   1.565   4.337 -0.7653  0.8554  0.4876
 7337SOL    HW233645   4.044   1.507   4.479 -0.2712  0.0206 -0.3804
 7338SOL     OW33646   1.967   0.134  14.126  0.4102  0.3680  0.5901
 7338SOL    HW133647   2.041   0.190  14.151 -0.5933  2.0650 -0.2876
 7338SOL    HW233648   1.896   0.197  14.138 -0.9489 -0.8307 -1.1128
 7339SOL     OW33649   2.146   4.074   9.329 -0.2806  0.2638  0.4011
 7339SOL    HW133650   2.169   4.159   9.290 -0.7158  0.3752  0.3859
 7339SOL    HW233651   2.052   4.074   9.312 -0.6804 -0.3598  2.6465
 7340SOL     OW33652   0.102   0.780   6.516 -0.1051 -0.4228 -0.5640
 7340SOL    HW133653   0.130   0.730   6.593  2.1073  1.8418  0.0822
 7340SOL    HW233654   0.158   0.857   6.511 -1.5771  0.6202 -0.9164
 7341SOL     OW33655   3.866   2.048   3.397  0.4271  0.0091 -0.2292
 7341SOL    HW133656   3.781   2.004   3.405  0.8194 -0.2597  2.5202
 7341SOL    HW233657   3.859   2.059   3.302 -0.9565 -2.9129 -0.4778
 7342SOL     OW33658   2.948   3.010   0.943 -0.3618 -0.3034 -0.2437
 7342SOL    HW133659   2.861   3.026   0.981  0.0553  1.6689 -0.1220
 7342SOL    HW233660   2.927   2.933   0.890  0.0234  0.3835 -1.3968
 7343SOL     OW33661   0.519   3.156   6.620  0.5215  0.0782  0.5609
 7343SOL    HW133662   0.503   3.234   6.673  0.1686 -0.7326  1.6560
 7343SOL    HW233663   0.433   3.116   6.635  1.2739 -1.5053  0.7415
 7344SOL     OW33664   2.728   2.395  17.399  0.2344 -0.1838 -0.3920
 7344SOL    HW133665   2.710   2.447  17.321  1.7309 -0.7426 -1.1040
 7344SOL    HW233666   2.823   2.390  17.403  0.2837 -0.9794 -2.6546
 7345SOL     OW33667   0.025   2.540  15.773  0.1982 -0.5224  0.1018
 7345SOL    HW133668   0.037   2.446  15.790 -2.5406 -0.8974 -0.0047
 7345SOL    HW233669   0.005   2.544  15.680  1.4436 -1.6914 -0.2206
 7346SOL     OW33670   1.049   3.083   6.476 -0.4841  0.4441 -0.4954
 7346SOL    HW133671   1.131   3.034   6.472  0.3221  1.7847 -0.2792
 7346SOL    HW233672   1.059   3.130   6.393  1.3306  0.3129 -0.3653
 7347SOL     OW33673   4.457   1.101   3.737 -0.3635  0.0834  0.4123
 7347SOL    HW133674   4.527   1.127   3.798  0.4081 -1.3131  0.1289
 7347SOL    HW233675   4.470   1.007   3.729 -0.1342  0.2208 -0.8340
 7348SOL     OW33676   2.067   2.216   6.943  0.4792  0.0078 -0.5407
 7348SOL    HW133677   1.998   2.217   7.010  0.7982  3.4766 -0.2812
 7348SOL    HW233678   2.101   2.127   6.948 -1.5028 -0.6131  2.3953
 7349SOL     OW33679   3.555   4.640   5.887  0.2028  0.0340 -0.2382
 7349SOL    HW133680   3.491   4.650   5.817 -0.0309  0.9557  0.1050
 7349SOL    HW233681   3.597   4.558   5.861 -2.2025 -1.8315  1.7598
 7350SOL     OW33682   1.742   2.915   2.286 -0.0652 -0.0446 -0.0823
 7350SOL    HW133683   1.696   2.893   2.367 -0.8995 -2.0088 -1.1061
 7350SOL    HW233684   1.680   2.986   2.265  0.9575  0.7879 -0.2831
 7351SOL     OW33685   1.034   0.494   3.226 -0.1738 -0.2442 -0.0424
 7351SOL    HW133686   1.118   0.459   3.255 -0.1585 -1.0544 -1.0619
 7351SOL    HW233687   1.074   0.541   3.152  0.7991  0.9804  1.2727
 7352SOL     OW33688   0.710   0.350   6.530 -0.9140  0.2076  0.0490
 7352SOL    HW133689   0.739   0.388   6.447 -2.8083 -0.0913 -0.7414
 7352SOL    HW233690   0.741   0.260   6.523  0.4584  0.6995 -0.1905
 7353SOL     OW33691   2.486   2.602   6.398 -0.9212  0.0461  0.1573
 7353SOL    HW133692   2.459   2.537   6.333  0.4355  1.5236 -1.8531
 7353SOL    HW233693   2.461   2.546   6.472  0.7924 -0.5935  0.2602
 7354SOL     OW33694   0.949   0.432   5.046 -0.0689 -0.3660  0.1903
 7354SOL    HW133695   1.005   0.495   5.093  0.8023  0.3018 -1.7610
 7354SOL    HW233696   0.923   0.489   4.974 -1.4676 -1.1069  0.1121
 7355SOL     OW33697   2.948   2.536   3.713 -0.0595 -0.0642  0.1750
 7355SOL    HW133698   2.929   2.594   3.787  1.2411 -1.0182  1.2589
 7355SOL    HW233699   2.864   2.535   3.668  1.2803  2.0111 -2.3193
 7356SOL     OW33700   2.660   4.275   8.032  0.1483  0.0646  0.2433
 7356SOL    HW133701   2.580   4.277   8.084  1.6388  1.1985  2.4889
 7356SOL    HW233702   2.633   4.312   7.948 -0.2385 -3.5275 -1.2150
 7357SOL     OW33703   4.179   1.289   3.026 -0.1593 -0.2059  0.8371
 7357SOL    HW133704   4.259   1.239   3.009  0.4545 -0.0133  3.1210
 7357SOL    HW233705   4.187   1.362   2.965  1.2988 -0.1954  1.0387
 7358SOL     OW33706   1.725   0.020   6.115 -0.0078  0.7888 -0.4685
 7358SOL    HW133707   1.817   0.042   6.134  0.7316 -1.5518 -1.3339
 7358SOL    HW233708   1.700   4.713   6.199  0.9081 -0.6666 -0.8835
 7359SOL     OW33709   1.587   0.311   0.131  0.2008 -0.0038  0.1928
 7359SOL    HW133710   1.648   0.272   0.192  1.6279 -0.9022 -1.8344
 7359SOL    HW233711   1.594   0.247   0.060 -0.5482 -0.4299  0.4964
 7360SOL     OW33712   0.738   1.700   2.523  0.0353  0.3055 -0.3087
 7360SOL    HW133713   0.688   1.672   2.599  0.5773 -1.3647 -0.5645
 7360SOL    HW233714   0.780   1.782   2.548 -2.6699  1.6157 -0.0797
 7361SOL     OW33715   2.327   0.947   9.132  0.0788  0.3130 -0.5105
 7361SOL    HW133716   2.404   0.891   9.121  0.8264  1.1970  0.2573
 7361SOL    HW233717   2.290   0.901   9.207 -0.9035  0.7954 -0.6977
 7362SOL     OW33718   3.340   1.117  17.443  0.4915 -0.1091  0.3760
 7362SOL    HW133719   3.429   1.150  17.452 -0.1313  2.0604 -1.5646
 7362SOL    HW233720   3.332   1.070  17.526 -1.0595  0.7714  0.7219
 7363SOL     OW33721   2.793   4.245   4.692 -0.5625 -0.2264  0.0655
 7363SOL    HW133722   2.753   4.308   4.632 -2.3547 -2.2211 -0.8710
 7363SOL    HW233723   2.712   4.210   4.731  0.8844 -2.1874  1.3105
 7364SOL     OW33724   2.359   1.151   4.169  0.3809 -0.7652  0.3251
 7364SOL    HW133725   2.286   1.090   4.164  1.0755 -1.4196 -1.5659
 7364SOL    HW233726   2.334   1.187   4.254  2.1309 -0.2173  0.6072
 7365SOL     OW33727   4.550   0.642   5.389 -0.6697  0.5682 -0.0372
 7365SOL    HW133728   4.530   0.555   5.356 -3.1022  0.6804  1.1353
 7365SOL    HW233729   4.547   0.693   5.308  3.1157 -2.1614 -1.8966
 7366SOL     OW33730   1.655   0.137   0.572  0.6111 -0.0441 -0.6023
 7366SOL    HW133731   1.649   0.148   0.667 -5.2172 -1.9547 -0.7442
 7366SOL    HW233732   1.690   0.224   0.551 -0.4899 -0.0063 -2.2252
 7367SOL     OW33733   0.713   0.931   3.417 -0.8663  0.0087  0.3272
 7367SOL    HW133734   0.673   0.923   3.330  1.0015  0.6719 -0.5969
 7367SOL    HW233735   0.638   0.907   3.471  0.4766 -0.0548  2.1529
 7368SOL     OW33736   1.485   3.385   7.669 -0.6650  0.1617 -0.3207
 7368SOL    HW133737   1.427   3.431   7.730  1.0446  1.6996  0.1621
 7368SOL    HW233738   1.475   3.434   7.587 -1.3847  1.3493  0.4625
 7369SOL     OW33739   1.668   1.471   3.643 -0.3889 -0.6083  0.5654
 7369SOL    HW133740   1.705   1.388   3.613 -0.3572 -1.3407  2.6434
 7369SOL    HW233741   1.750   1.510   3.672 -0.1742 -1.4499  1.0845
 7370SOL     OW33742   1.893   3.480   5.214  0.1082 -0.0830 -0.4147
 7370SOL    HW133743   1.891   3.549   5.280  0.7408 -1.0425  0.6060
 7370SOL    HW233744   1.972   3.494   5.161 -0.6437 -0.8699 -1.7302
 7371SOL     OW33745   3.964   0.884  16.572 -0.8784 -0.0942  0.1256
 7371SOL    HW133746   4.028   0.871  16.502 -1.5065 -0.8142 -0.3145
 7371SOL    HW233747   3.887   0.838  16.539 -0.2822 -1.1454  0.1902
 7372SOL     OW33748   4.647   4.238  17.042 -0.1683  0.5308 -0.0090
 7372SOL    HW133749   4.579   4.255  16.977 -0.3033 -1.2628 -0.3377
 7372SOL    HW233750   4.721   4.201  16.994 -0.3499  1.3235 -0.9059
 7373SOL     OW33751   3.089   2.070   5.374 -0.2399 -0.0533  0.1664
 7373SOL    HW133752   3.105   2.153   5.329  0.5087 -0.0055  0.5132
 7373SOL    HW233753   3.138   2.000   5.331 -1.6952 -0.9754  0.0107
 7374SOL     OW33754   2.047   3.963   4.823  0.0944  0.2424 -0.2365
 7374SOL    HW133755   2.102   4.016   4.881  0.7565 -1.1528  0.4263
 7374SOL    HW233756   2.087   3.996   4.742 -1.1256  2.2407 -0.0186
 7375SOL     OW33757   2.211   1.220   1.007  1.0531  0.0128 -0.2310
 7375SOL    HW133758   2.202   1.303   0.959 -2.5219 -0.5637 -0.5078
 7375SOL    HW233759   2.203   1.262   1.093  1.6026 -0.7990  0.2153
 7376SOL     OW33760   0.388   0.581  13.559  0.4660  0.4364 -0.1076
 7376SOL    HW133761   0.323   0.584  13.628  2.7801 -0.8499  2.1434
 7376SOL    HW233762   0.448   0.639  13.606  1.1147 -0.5679  0.3089
 7377SOL     OW33763   3.459   2.599   8.343 -0.5864  0.0500  0.1338
 7377SOL    HW133764   3.397   2.577   8.412  0.2368 -0.1431  0.8147
 7377SOL    HW233765   3.397   2.650   8.291 -0.4387  0.5836  0.4822
 7378SOL     OW33766   2.777   1.212   7.994  0.4026 -0.0100  0.3679
 7378SOL    HW133767   2.856   1.183   8.039  0.6969 -0.6656 -0.5594
 7378SOL    HW233768   2.760   1.133   7.942 -1.9443  0.8718 -0.1791
 7379SOL     OW33769   0.999   4.129   6.179  0.0603 -0.3689 -0.6614
 7379SOL    HW133770   0.915   4.087   6.195 -0.8153  1.3276 -0.8219
 7379SOL    HW233771   0.963   4.208   6.140 -0.1996 -0.4024 -0.4826
 7380SOL     OW33772   3.396   1.158   6.450  0.3389  0.1548 -0.9361
 7380SOL    HW133773   3.318   1.170   6.503  1.0296 -1.2800  0.3827
 7380SOL    HW233774   3.397   1.242   6.403 -2.3291  0.1884 -0.8815
 7381SOL     OW33775   4.463   2.859   7.689  0.7618  0.1484  0.3627
 7381SOL    HW133776   4.464   2.852   7.784 -0.9262 -1.0962  0.2928
 7381SOL    HW233777   4.394   2.924   7.676  1.5166  1.0694  0.9224
 7382SOL     OW33778   2.797   3.925   7.831 -0.2327 -0.0113  0.0347
 7382SOL    HW133779   2.821   3.970   7.750 -0.1574 -0.4160 -0.1713
 7382SOL    HW233780   2.702   3.919   7.826 -0.2526  0.3718  0.0103
 7383SOL     OW33781   0.096   1.522   8.892  0.2770 -0.4130 -0.8218
 7383SOL    HW133782   0.164   1.494   8.953  0.2916 -2.1790 -1.6280
 7383SOL    HW233783   0.137   1.604   8.865  1.7382 -0.3539  1.5532
 7384SOL     OW33784   1.014   3.605   1.260  0.1378  0.2109  0.3098
 7384SOL    HW133785   0.945   3.576   1.319  0.0144  0.6106  0.3661
 7384SOL    HW233786   1.092   3.580   1.310  1.5877 -0.8413 -2.4661
 7385SOL     OW33787   2.481   1.018   8.554  0.1260 -0.3722 -0.3209
 7385SOL    HW133788   2.433   0.973   8.624 -1.1728 -0.8722 -1.5480
 7385SOL    HW233789   2.456   1.107   8.576  1.2390 -0.3419  0.7972
 7386SOL     OW33790   4.001   4.268   9.191 -0.0280  0.3244 -0.1303
 7386SOL    HW133791   4.007   4.186   9.141 -0.6883 -1.9752  3.6020
 7386SOL    HW233792   4.096   4.280   9.197  0.0671 -1.0746  1.0131
 7387SOL     OW33793   3.205   3.748   8.673  0.0648  0.1584 -0.3890
 7387SOL    HW133794   3.134   3.783   8.618  0.7803  0.1252 -1.3381
 7387SOL    HW233795   3.284   3.797   8.650  0.3630 -0.3620 -0.4605
 7388SOL     OW33796   4.044   2.594   5.551  0.2516 -0.0333 -0.2042
 7388SOL    HW133797   4.002   2.519   5.592  0.9575 -0.1156  0.3640
 7388SOL    HW233798   3.967   2.631   5.508  0.4335  1.5658  0.8657
 7389SOL     OW33799   2.289   0.678  16.700  0.3650 -0.2061 -0.1366
 7389SOL    HW133800   2.263   0.673  16.792  1.8847  1.5409  0.3841
 7389SOL    HW233801   2.363   0.739  16.694  0.0925  0.1811  0.5224
 7390SOL     OW33802   3.455   2.085  16.791  0.1163 -0.1651  0.5966
 7390SOL    HW133803   3.524   2.022  16.772  0.4850  0.0843  1.0869
 7390SOL    HW233804   3.400   2.079  16.714  0.2742  1.3685  0.3650
 7391SOL     OW33805   3.750   4.566   6.474  0.2972 -0.2412 -0.2651
 7391SOL    HW133806   3.700   4.561   6.393  0.9712  0.5199 -0.7215
 7391SOL    HW233807   3.738   4.475   6.503  1.8885 -0.6101 -0.7647
 7392SOL     OW33808   4.573   3.938  16.429  0.2687  0.5394  0.1588
 7392SOL    HW133809   4.610   4.019  16.394 -0.8963  0.2405 -1.8083
 7392SOL    HW233810   4.537   3.971  16.511  1.2727 -1.1968  1.2998
 7393SOL     OW33811   0.236   4.687   4.186  0.2225 -0.3201 -0.2729
 7393SOL    HW133812   0.298   4.683   4.113  0.1979  0.6900 -0.3529
 7393SOL    HW233813   0.199   4.599   4.176  0.6130 -0.7568  2.0292
 7394SOL     OW33814   2.166   0.571   9.185 -0.4904 -0.2977  0.5812
 7394SOL    HW133815   2.199   0.621   9.110 -0.2336  0.2045  1.0350
 7394SOL    HW233816   2.188   0.481   9.159  1.9038  0.7658 -1.0233
 7395SOL     OW33817   1.080   2.367   4.343  0.1034 -0.1698 -0.1931
 7395SOL    HW133818   1.129   2.297   4.387  2.3587  1.5852  0.1177
 7395SOL    HW233819   1.065   2.429   4.415  2.1672 -0.0429  0.1319
 7396SOL     OW33820   3.364   0.893  12.977 -0.3363 -0.0360 -0.6997
 7396SOL    HW133821   3.452   0.918  12.948 -0.2650  0.0257 -0.4376
 7396SOL    HW233822   3.360   0.903  13.072 -0.3407  0.8028 -0.7824
 7397SOL     OW33823   2.955   0.951   1.526  0.2730  0.4399 -0.2039
 7397SOL    HW133824   3.037   0.988   1.557  0.8096 -0.4520 -0.5636
 7397SOL    HW233825   2.985   0.860   1.525  0.9882  0.6570  1.7136
 7398SOL     OW33826   3.825   3.750   2.442  0.1936  0.0501 -0.6841
 7398SOL    HW133827   3.913   3.723   2.417 -0.7437 -0.7033 -3.2347
 7398SOL    HW233828   3.845   3.802   2.519 -0.6229 -0.8746  0.1571
 7399SOL     OW33829   4.069   0.608  17.245 -0.4974  0.1134 -0.2630
 7399SOL    HW133830   4.160   0.602  17.273 -0.5956 -0.4323 -0.0575
 7399SOL    HW233831   4.072   0.674  17.176  0.5642  0.2866 -0.0430
 7400SOL     OW33832   2.021   0.141   8.440 -0.5701 -0.0861  0.0029
 7400SOL    HW133833   1.950   0.205   8.431  0.7506  1.5423  1.1096
 7400SOL    HW233834   2.081   0.186   8.499  1.3229 -0.3190 -1.7454
 7401SOL     OW33835   0.851   4.356   6.515  0.0561 -0.2731  0.1795
 7401SOL    HW133836   0.793   4.288   6.480 -1.3431 -0.9164  3.7099
 7401SOL    HW233837   0.901   4.299   6.574 -0.5710 -0.7764  0.2297
 7402SOL     OW33838   1.678   2.233   9.668 -0.0125  0.3909  0.0025
 7402SOL    HW133839   1.590   2.266   9.686 -0.5272 -2.3067  2.5298
 7402SOL    HW233840   1.731   2.293   9.720  1.0185 -0.7146  0.2489
 7403SOL     OW33841   2.289   0.902   8.117 -0.0807  0.7623 -0.1883
 7403SOL    HW133842   2.292   0.926   8.025  1.0292  0.3064 -0.2722
 7403SOL    HW233843   2.331   0.978   8.156  2.7877 -1.5877  1.3036
 7404SOL     OW33844   1.067   0.714   7.394 -0.3604  0.1371 -0.7514
 7404SOL    HW133845   1.145   0.711   7.449 -3.4094 -0.5012  3.5811
 7404SOL    HW233846   1.025   0.797   7.419  1.6589  0.0870  2.7246
 7405SOL     OW33847   2.510   2.249  17.680 -0.0995 -0.5923  0.0774
 7405SOL    HW133848   2.443   2.297  17.730  0.6536  0.8534 -0.2967
 7405SOL    HW233849   2.578   2.262   0.015  0.4833 -0.0703 -0.6276
 7406SOL     OW33850   2.276   3.198   5.048  0.0413  0.0579 -0.5003
 7406SOL    HW133851   2.282   3.248   4.967 -1.7253  2.0537  0.6214
 7406SOL    HW233852   2.186   3.168   5.035 -0.0479  0.5116 -0.9110
 7407SOL     OW33853   1.179   1.896   0.595  0.7040 -0.6209  0.0330
 7407SOL    HW133854   1.222   1.850   0.523  0.4605  0.9784 -1.1505
 7407SOL    HW233855   1.218   1.855   0.672 -0.7586 -2.2067 -0.0690
 7408SOL     OW33856   2.679   1.720   8.882 -0.1297 -0.4662  0.8829
 7408SOL    HW133857   2.769   1.751   8.893  0.5779 -2.0931 -0.2755
 7408SOL    HW233858   2.655   1.699   8.972 -3.2389 -2.2443 -0.3484
 7409SOL     OW33859   2.702   4.194  12.840 -0.4477  0.0705  0.3579
 7409SOL    HW133860   2.667   4.135  12.907  1.1083 -0.7591  0.4302
 7409SOL    HW233861   2.689   4.276  12.888  1.4131  0.9893 -0.7430
 7410SOL     OW33862   2.153   3.094   4.118 -0.0865 -0.0349 -0.4473
 7410SOL    HW133863   2.173   3.012   4.162 -0.2504 -0.7703 -1.7269
 7410SOL    HW233864   2.078   3.115   4.175  0.4096  0.8765 -0.1285
 7411SOL     OW33865   0.450   3.158  12.075  0.7334  0.0098  0.4647
 7411SOL    HW133866   0.453   3.209  12.156  5.5233  0.7989 -0.2136
 7411SOL    HW233867   0.535   3.115  12.075  0.5219 -0.4129 -1.9083
 7412SOL     OW33868   0.685   2.656   5.443  0.3397 -0.2527 -0.8422
 7412SOL    HW133869   0.647   2.583   5.491  1.4116 -0.1818  0.1187
 7412SOL    HW233870   0.609   2.690   5.396  0.8503  3.0060  0.7126
 7413SOL     OW33871   0.011   1.763   3.431  0.3466 -0.2351  0.2159
 7413SOL    HW133872   0.009   1.812   3.513 -0.8936 -0.4093  0.2990
 7413SOL    HW233873   4.714   1.677   3.463  1.0887  0.1694  1.9657
 7414SOL     OW33874   2.313   0.263   0.192  0.4098  0.7776 -0.2096
 7414SOL    HW133875   2.262   0.188   0.163  0.9233  0.3563 -0.0153
 7414SOL    HW233876   2.261   0.297   0.264 -0.8682 -0.7514 -0.4160
 7415SOL     OW33877   1.608   2.889   8.604  0.5651  0.2646  0.1160
 7415SOL    HW133878   1.544   2.912   8.536 -0.4795  0.9395  1.3315
 7415SOL    HW233879   1.672   2.958   8.585 -0.0929  0.1402 -2.5976
 7416SOL     OW33880   0.943   4.387   6.060 -0.2284  0.3254 -0.0848
 7416SOL    HW133881   0.958   4.426   6.146 -0.5419 -0.2080  0.2121
 7416SOL    HW233882   0.859   4.423   6.031 -0.0974  1.0094  0.3888
 7417SOL     OW33883   2.565   2.112   3.627 -0.0616 -0.0320  0.0484
 7417SOL    HW133884   2.492   2.068   3.671 -0.7486  1.7913  0.7609
 7417SOL    HW233885   2.639   2.059   3.654  0.9981  1.1426 -0.5392
 7418SOL     OW33886   3.301   0.045   7.627  0.1916 -0.2702 -0.3138
 7418SOL    HW133887   3.308   4.689   7.590 -2.1263 -0.4744 -0.3154
 7418SOL    HW233888   3.352   0.095   7.563  1.3787 -1.4127 -0.2672
 7419SOL     OW33889   3.059   1.397  17.044  0.1114 -0.0976 -0.8098
 7419SOL    HW133890   3.045   1.422  16.953  2.0149  2.8041 -0.2856
 7419SOL    HW233891   3.121   1.328  17.021  0.1374  0.4840 -2.4579
 7420SOL     OW33892   2.544   0.235   7.545 -0.5922 -0.0064 -0.2232
 7420SOL    HW133893   2.576   0.255   7.633 -2.3990 -0.6299  0.5527
 7420SOL    HW233894   2.557   0.319   7.499  0.3909  0.0879  0.2063
 7421SOL     OW33895   2.562   0.111   0.817  0.0319 -0.1540  0.1756
 7421SOL    HW133896   2.512   0.059   0.880 -1.2843  0.6536 -0.1834
 7421SOL    HW233897   2.558   0.051   0.743  2.6138  2.4731 -2.0927
 7422SOL     OW33898   3.688   2.789  14.536 -0.1444  0.3976  0.0398
 7422SOL    HW133899   3.745   2.740  14.477 -1.7225  0.8840 -1.8952
 7422SOL    HW233900   3.695   2.732  14.613 -1.5556 -0.8479 -0.7357
 7423SOL     OW33901   1.796   3.633  10.324 -0.1719  0.4237  0.1764
 7423SOL    HW133902   1.728   3.692  10.356  0.3396  0.4032  1.2748
 7423SOL    HW233903   1.863   3.644  10.391 -0.4042 -0.4915  0.5565
 7424SOL     OW33904   4.694   1.364   1.594 -0.3734  0.4056  0.4072
 7424SOL    HW133905   4.615   1.354   1.541  1.1496  0.5077 -1.9106
 7424SOL    HW233906   4.663   1.443   1.638 -0.0957 -0.3076  1.8857
 7425SOL     OW33907   4.182   2.238   2.528  0.5427  0.1861  0.3489
 7425SOL    HW133908   4.256   2.272   2.579  2.0048 -3.0017  0.3697
 7425SOL    HW233909   4.210   2.147   2.523  1.9235  0.6589 -0.5158
 7426SOL     OW33910   1.792   2.035   2.890 -0.2054  0.0163 -0.1541
 7426SOL    HW133911   1.790   1.958   2.834 -3.1665  0.3273 -0.4845
 7426SOL    HW233912   1.794   1.993   2.976  0.5038 -1.0951 -0.7123
 7427SOL     OW33913   2.940   1.610   2.056  0.0408  0.0486  0.5431
 7427SOL    HW133914   2.972   1.628   2.144 -2.6169  1.7674  1.1520
 7427SOL    HW233915   3.025   1.588   2.017  0.5916  1.2370  1.0798
 7428SOL     OW33916   1.577   2.710   1.210  0.3603 -0.9274  0.0739
 7428SOL    HW133917   1.534   2.633   1.174 -0.0932 -0.5559 -0.1762
 7428SOL    HW233918   1.636   2.674   1.277  0.9181 -0.6819 -0.2885
 7429SOL     OW33919   3.979   2.568   6.831  0.7637 -0.5805  0.2352
 7429SOL    HW133920   3.995   2.573   6.925  1.2783 -1.2088  0.1744
 7429SOL    HW233921   3.953   2.658   6.811  0.4431 -0.5884  0.6198
 7430SOL     OW33922   1.968   0.052   7.928  0.7241 -0.0741  0.1857
 7430SOL    HW133923   1.889   0.079   7.882  0.7078 -0.4166  0.0133
 7430SOL    HW233924   1.943   4.696   7.954  1.7189 -0.5949 -0.6458
 7431SOL     OW33925   4.184   2.231  14.921  0.0475  0.2774  0.5382
 7431SOL    HW133926   4.101   2.276  14.906 -0.7105 -0.0668  3.7868
 7431SOL    HW233927   4.240   2.276  14.857 -0.4569  0.9733  0.5861
 7432SOL     OW33928   1.644   2.711  15.753  0.0232 -0.5768  0.5949
 7432SOL    HW133929   1.636   2.707  15.658  2.7744 -0.7230  0.3781
 7432SOL    HW233930   1.674   2.801  15.762  1.0612 -0.5849 -2.8444
 7433SOL     OW33931   0.531   0.237   3.845 -0.0837 -0.9467 -0.1818
 7433SOL    HW133932   0.566   0.307   3.901  1.0107 -1.9952  0.4255
 7433SOL    HW233933   0.599   0.229   3.779  1.1652 -0.0127  0.9865
 7434SOL     OW33934   0.279   4.066   3.021 -0.3961  0.2157 -0.4563
 7434SOL    HW133935   0.184   4.073   3.028 -0.2269  2.9055 -0.6116
 7434SOL    HW233936   0.282   4.015   3.102  2.4724  0.0697 -0.6470
 7435SOL     OW33937   2.691   2.791   9.439  0.1351 -0.3268  0.5510
 7435SOL    HW133938   2.752   2.718   9.436  1.2463  0.6353 -0.1310
 7435SOL    HW233939   2.714   2.823   9.526  1.0603  1.5067 -0.3745
 7436SOL     OW33940   2.411   0.830  13.276  0.0927 -1.0527 -1.1643
 7436SOL    HW133941   2.407   0.736  13.257  1.1000 -1.4425  0.5706
 7436SOL    HW233942   2.322   0.857  13.253 -0.0184  2.0778  2.8279
 7437SOL     OW33943   4.140   1.775   3.643 -0.1271 -0.2624 -0.0382
 7437SOL    HW133944   4.152   1.868   3.664 -2.1158 -0.3842  1.5684
 7437SOL    HW233945   4.173   1.769   3.553 -0.5976  0.1048 -0.2342
 7438SOL     OW33946   0.105   0.755   4.214  0.3743 -0.6955 -0.4946
 7438SOL    HW133947   0.066   0.672   4.187  0.7515 -1.1071  0.2280
 7438SOL    HW233948   0.109   0.738   4.309 -2.0973 -2.5304 -0.7099
 7439SOL     OW33949   2.873   1.374  15.234  0.0090 -0.4258 -0.1746
 7439SOL    HW133950   2.786   1.402  15.262 -0.0712  1.1462 -2.0282
 7439SOL    HW233951   2.848   1.308  15.169  0.0924  0.5552 -1.1930
 7440SOL     OW33952   4.096   1.458  10.991  0.0184 -0.3436 -0.2527
 7440SOL    HW133953   4.120   1.398  10.920 -0.5136  0.1892 -0.8860
 7440SOL    HW233954   4.028   1.408  11.036 -0.1106  0.2731  0.2445
 7441SOL     OW33955   3.601   1.278  16.341  0.0924 -0.4272 -0.1039
 7441SOL    HW133956   3.568   1.363  16.372  1.2416 -0.3328  0.8760
 7441SOL    HW233957   3.676   1.250  16.394 -3.7964 -2.4133  4.3489
 7442SOL     OW33958   2.276   4.249   5.864  0.4237 -0.7862 -0.2588
 7442SOL    HW133959   2.321   4.298   5.796  1.0803  0.2401  0.9057
 7442SOL    HW233960   2.218   4.193   5.813 -1.7913 -0.0104  1.3943
 7443SOL     OW33961   1.563   4.063   8.615  0.0680  0.3033  1.2311
 7443SOL    HW133962   1.485   4.104   8.651 -1.1056 -2.2420  1.6066
 7443SOL    HW233963   1.635   4.108   8.659 -0.7189  3.1495 -0.4297
 7444SOL     OW33964   0.846   4.599   4.309 -0.2257  0.0896  0.0247
 7444SOL    HW133965   0.769   4.656   4.312 -0.6116 -0.5416  2.6114
 7444SOL    HW233966   0.806   4.514   4.289 -1.9565  1.2192 -1.3111
 7445SOL     OW33967   1.832   3.716  14.325  0.1483 -0.2534 -0.4368
 7445SOL    HW133968   1.789   3.662  14.259  1.0062 -1.6706  0.1598
 7445SOL    HW233969   1.911   3.663  14.343  1.2873  0.5178 -3.1452
 7446SOL     OW33970   1.652   4.727   5.857 -0.0663  0.5184 -0.2473
 7446SOL    HW133971   1.694   4.643   5.838  0.6904  1.3316 -2.1924
 7446SOL    HW233972   1.688   0.018   5.943  1.2824 -0.9751 -0.4113
 7447SOL     OW33973   0.342   0.529  10.503  0.6005 -0.4188 -0.1085
 7447SOL    HW133974   0.301   0.444  10.522 -1.2399  0.2979 -0.8358
 7447SOL    HW233975   0.373   0.505  10.416 -2.1599  0.3700 -1.3218
 7448SOL     OW33976   3.339   3.064   5.566  0.6643 -0.0674  0.3213
 7448SOL    HW133977   3.247   3.079   5.586  0.7798  0.0956  0.7133
 7448SOL    HW233978   3.351   2.969   5.574  0.9566 -0.1599 -1.2160
 7449SOL     OW33979   0.496   0.743   5.936  0.6008  0.5150  0.4455
 7449SOL    HW133980   0.442   0.715   6.010 -0.2905 -0.9959 -0.7760
 7449SOL    HW233981   0.502   0.665   5.881 -1.4410  0.6653  0.0182
 7450SOL     OW33982   3.995   4.654   9.195  0.4648  0.0682  0.0123
 7450SOL    HW133983   3.976   4.616   9.109 -1.7097  1.2486 -0.0234
 7450SOL    HW233984   4.089   4.635   9.198  0.0947 -2.3851 -3.4986
 7451SOL     OW33985   1.157   3.309   1.974 -0.0675 -0.8662  0.0740
 7451SOL    HW133986   1.143   3.372   2.045 -1.5456 -1.5618  0.3929
 7451SOL    HW233987   1.069   3.282   1.948  0.3136 -2.8280  0.8475
 7452SOL     OW33988   2.770   2.857   9.691 -0.5210  0.7872 -0.2315
 7452SOL    HW133989   2.760   2.861   9.786 -0.4666  1.4132 -0.2479
 7452SOL    HW233990   2.848   2.808   9.667 -1.0690  0.3512 -1.1108
 7453SOL     OW33991   2.905   4.150   1.596 -0.3060 -0.0893 -0.3983
 7453SOL    HW133992   2.924   4.242   1.575  1.3382  0.0518  1.6817
 7453SOL    HW233993   2.961   4.107   1.532  0.2066  1.8926 -1.2694
 7454SOL     OW33994   2.530   0.000  12.670 -0.2570  0.2109  0.1378
 7454SOL    HW133995   2.555   4.681  12.746  2.6842 -1.0267 -1.6596
 7454SOL    HW233996   2.543   4.666  12.603 -1.4088 -0.6375  0.7654
 7455SOL     OW33997   2.516   3.064   1.977  0.1732  0.1648  0.3679
 7455SOL    HW133998   2.492   2.971   1.969 -0.8869  0.4327  0.4040
 7455SOL    HW233999   2.611   3.056   1.977  0.1119 -0.5873  1.5791
 7456SOL     OW34000   1.620   2.963  10.126  0.3752 -0.1031 -0.0530
 7456SOL    HW134001   1.565   3.017  10.070 -0.2571 -0.0578  0.6176
 7456SOL    HW234002   1.562   2.894  10.158  1.4535 -0.5828  0.8696
 7457SOL     OW34003   0.015   0.310   7.492 -0.3545 -0.1283  0.3842
 7457SOL    HW134004   0.067   0.380   7.532 -2.3298 -0.5027  3.6022
 7457SOL    HW234005   4.665   0.309   7.541 -1.9980  1.6796 -2.3262
 7458SOL     OW34006   4.476   0.273   2.506  0.1797  0.0999 -0.2498
 7458SOL    HW134007   4.410   0.314   2.561  0.5220 -1.0361  1.0022
 7458SOL    HW234008   4.542   0.260   2.574  1.5648 -1.4809 -1.9090
 7459SOL     OW34009   3.997   3.222   2.168  0.2611 -0.3871 -0.8081
 7459SOL    HW134010   4.069   3.159   2.180  0.2498  0.0199  1.5150
 7459SOL    HW234011   3.935   3.166   2.122  0.3753 -0.7195 -0.5603
 7460SOL     OW34012   1.664   1.487  13.324 -0.3772  0.6244  0.2419
 7460SOL    HW134013   1.728   1.502  13.394 -1.8960 -0.1933  1.8003
 7460SOL    HW234014   1.690   1.555  13.262 -0.3751 -0.7640 -1.2650
 7461SOL     OW34015   0.088   0.915  10.021 -0.1752 -0.5507  0.2524
 7461SOL    HW134016   0.026   0.987  10.026  1.5403  0.8498  1.3037
 7461SOL    HW234017   0.161   0.960   9.979  1.2755 -0.8025  2.5440
 7462SOL     OW34018   0.043   1.958   7.339  0.0936 -0.6574  0.1484
 7462SOL    HW134019   0.032   1.957   7.434  1.5955  0.6583  0.3429
 7462SOL    HW234020   4.700   2.003   7.303 -0.1796  2.2110  4.3804
 7463SOL     OW34021   3.773   3.850   4.298  0.4410  0.2277  0.2974
 7463SOL    HW134022   3.773   3.931   4.348 -3.0456  0.0054  0.6156
 7463SOL    HW234023   3.701   3.859   4.236 -0.2405 -1.3506  0.8514
 7464SOL     OW34024   3.920   0.457   7.350 -0.1953 -0.4200  0.1296
 7464SOL    HW134025   3.966   0.407   7.418  0.8566 -0.3793 -0.5404
 7464SOL    HW234026   3.997   0.505   7.318 -0.4205 -0.6663 -0.7752
 7465SOL     OW34027   1.310   3.012   4.547 -0.1595  0.3450  0.1530
 7465SOL    HW134028   1.278   3.013   4.637  0.3768 -0.1434  0.3473
 7465SOL    HW234029   1.241   3.062   4.502  2.0700  0.3001 -3.3135
 7466SOL     OW34030   0.232   1.332   8.665 -0.1012  0.3125  0.0698
 7466SOL    HW134031   0.157   1.387   8.642  1.3480  2.6953  1.1704
 7466SOL    HW234032   0.271   1.395   8.725 -1.0425  3.8081 -2.9976
 7467SOL     OW34033   2.189   1.616   4.542 -0.3405  0.0036  0.1840
 7467SOL    HW134034   2.150   1.692   4.584 -2.2525 -0.3832 -0.9075
 7467SOL    HW234035   2.125   1.570   4.486 -0.9167  0.8835  0.1293
 7468SOL     OW34036   3.742   1.067   6.952  0.2149  0.1655  0.5257
 7468SOL    HW134037   3.724   1.159   6.975 -2.7122 -0.4313  0.6546
 7468SOL    HW234038   3.709   1.045   6.865  2.9297 -1.6040 -0.0252
 7469SOL     OW34039   0.015   1.129   9.799  0.1365  0.3966 -0.0544
 7469SOL    HW134040   4.661   1.129   9.760  0.8009  0.9035 -1.5287
 7469SOL    HW234041   4.707   1.150   9.883  2.8455  1.5052  1.0069
 7470SOL     OW34042   0.793   1.734   9.659  0.3894 -0.2057 -0.0047
 7470SOL    HW134043   0.770   1.736   9.752 -1.0558  2.0575 -0.4116
 7470SOL    HW234044   0.888   1.727   9.664  0.1143 -2.8825  1.1960
 7471SOL     OW34045   0.825   2.958   3.909 -0.2840  0.4304  0.4083
 7471SOL    HW134046   0.793   2.957   4.000 -3.1359 -3.0762 -0.6124
 7471SOL    HW234047   0.749   2.936   3.855  0.0785  0.3352 -0.0671
 7472SOL     OW34048   0.476   1.253  16.033  0.5473 -0.0809  0.1155
 7472SOL    HW134049   0.568   1.224  16.039  0.3805 -0.6879 -0.1930
 7472SOL    HW234050   0.494   1.339  15.996  0.8017 -0.1433  0.0878
 7473SOL     OW34051   3.270   0.901  13.691  0.4369  0.0909  0.3141
 7473SOL    HW134052   3.335   0.865  13.630  2.0533  1.3762  1.2634
 7473SOL    HW234053   3.198   0.924  13.631  1.4353  1.6530 -0.2929
 7474SOL     OW34054   2.822   3.179  14.181  0.5103 -0.1587  0.4140
 7474SOL    HW134055   2.911   3.144  14.168  0.6656  0.9468 -1.5178
 7474SOL    HW234056   2.825   3.183  14.277  0.1880 -1.2746  0.4659
 7475SOL     OW34057   2.019   0.705   8.462 -0.1654 -0.2648  0.5501
 7475SOL    HW134058   2.084   0.771   8.487 -0.1787  0.0885 -0.3221
 7475SOL    HW234059   1.980   0.738   8.381  1.2045 -1.7360 -0.7125
 7476SOL     OW34060   2.345   0.638  12.470  0.5943 -0.1395 -0.4075
 7476SOL    HW134061   2.297   0.577  12.526  1.6630 -1.6814 -1.1639
 7476SOL    HW234062   2.420   0.647  12.529  0.1207  0.1925  0.1466
 7477SOL     OW34063   1.173   1.289  14.956 -0.1067 -0.6591  0.4976
 7477SOL    HW134064   1.132   1.322  15.036  0.8707 -0.4720  0.9224
 7477SOL    HW234065   1.098   1.262  14.903  1.2973 -2.0068 -0.8063
 7478SOL     OW34066   1.008   4.563   4.551 -0.6820 -0.0616 -0.5596
 7478SOL    HW134067   0.963   4.555   4.467 -1.6521  1.7102 -0.2182
 7478SOL    HW234068   0.926   4.592   4.592  1.5142  0.2340  3.6054
 7479SOL     OW34069   0.918   3.699  12.702 -0.4035  0.5626 -0.0401
 7479SOL    HW134070   0.880   3.718  12.788 -0.3796  0.6883 -0.0566
 7479SOL    HW234071   0.946   3.609  12.721 -3.5168 -0.4176 -0.1994
 7480SOL     OW34072   3.834   3.639   4.666 -0.7265 -0.1972 -0.3073
 7480SOL    HW134073   3.823   3.560   4.719  0.5126  1.2809  2.1817
 7480SOL    HW234074   3.812   3.706   4.731  0.2252  0.4802 -0.6867
 7481SOL     OW34075   3.736   2.640   8.209  0.5153 -1.3471  0.1756
 7481SOL    HW134076   3.733   2.576   8.280  1.5221 -1.0306  0.5155
 7481SOL    HW234077   3.673   2.704   8.242  2.0847 -0.3496  1.2891
 7482SOL     OW34078   3.079   4.254   7.398 -0.1218  0.3740  0.3814
 7482SOL    HW134079   3.150   4.262   7.334  0.5529  1.5528  1.2905
 7482SOL    HW234080   3.108   4.171   7.438  0.3245 -0.9359 -2.6498
 7483SOL     OW34081   0.762   1.112   5.793 -0.2198  0.0787 -0.2019
 7483SOL    HW134082   0.706   1.185   5.767 -1.2709 -0.0355  1.7712
 7483SOL    HW234083   0.848   1.124   5.754 -0.8590 -0.5926 -1.8385
 7484SOL     OW34084   0.132   1.413   6.396  0.2349 -0.1043 -0.2268
 7484SOL    HW134085   0.184   1.334   6.382  0.5111  0.3660 -1.8959
 7484SOL    HW234086   0.126   1.448   6.307  0.0516 -1.0590 -0.5848
 7485SOL     OW34087   2.952   1.416   9.160 -0.0644  0.3188 -0.2066
 7485SOL    HW134088   3.032   1.461   9.131  0.2316  1.3879  2.3060
 7485SOL    HW234089   2.987   1.327   9.150 -0.6883  0.0224  0.3029
 7486SOL     OW34090   4.433   0.606   7.193  0.3762 -0.1641 -0.0919
 7486SOL    HW134091   4.490   0.531   7.173 -1.9407 -1.1889 -2.9532
 7486SOL    HW234092   4.486   0.674   7.152  2.2943 -1.5399  0.0892
 7487SOL     OW34093   1.880   0.318  17.695 -0.1698 -0.5629  0.4591
 7487SOL    HW134094   1.922   0.339  17.612 -0.8294 -2.1219 -0.2508
 7487SOL    HW234095   1.825   0.244  17.670  0.9564 -1.7625  1.5621
 7488SOL     OW34096   2.206   4.701  14.034  0.3096  0.3360 -0.4945
 7488SOL    HW134097   2.164   0.049  14.062  1.5811  1.0589 -0.6832
 7488SOL    HW234098   2.256   4.678  14.113  1.0402 -1.8698 -1.6074
 7489SOL     OW34099   3.289   1.481   7.545 -0.6652  0.5315  0.2096
 7489SOL    HW134100   3.354   1.413   7.563 -0.2412  1.0794  0.7497
 7489SOL    HW234101   3.215   1.433   7.582 -1.9457  1.6584 -0.9264
 7490SOL     OW34102   0.752   3.119   2.497  0.6154 -0.0070  0.1283
 7490SOL    HW134103   0.799   3.198   2.525 -0.1350  0.9286 -1.2878
 7490SOL    HW234104   0.823   3.061   2.472  0.4715 -0.7678  1.4953
 7491SOL     OW34105   1.482   2.764   3.180  0.0767  0.0444 -0.8880
 7491SOL    HW134106   1.453   2.770   3.089 -2.6022 -0.1639 -0.0621
 7491SOL    HW234107   1.434   2.840   3.214  0.8177 -0.3355  1.0362
 7492SOL     OW34108   3.006   3.895  16.912 -0.0666 -0.2709  0.5160
 7492SOL    HW134109   2.997   3.828  16.845 -1.0442  0.2673  0.1152
 7492SOL    HW234110   3.086   3.928  16.871  0.5617 -2.4324 -0.0176
 7493SOL     OW34111   0.128   3.027   2.655 -0.6894  0.0987  0.6094
 7493SOL    HW134112   0.217   3.054   2.681 -0.3833 -0.5067  0.1674
 7493SOL    HW234113   0.091   3.113   2.633  0.7555  0.8129  0.9097
 7494SOL     OW34114   1.262   3.348   9.556  0.2182 -0.0947 -0.0762
 7494SOL    HW134115   1.196   3.333   9.488  0.1884 -0.5009  0.0424
 7494SOL    HW234116   1.319   3.417   9.523 -1.8214  0.6551 -2.0327
 7495SOL     OW34117   2.497   0.777   7.893 -0.2930  0.1332 -0.7445
 7495SOL    HW134118   2.558   0.705   7.909 -1.4744 -0.0408  2.8468
 7495SOL    HW234119   2.415   0.747   7.932  0.1509 -0.0145  0.0778
 7496SOL     OW34120   1.984   0.021   2.101 -0.1292 -0.3513 -0.3626
 7496SOL    HW134121   1.968   0.048   2.191 -0.4546  1.8356 -1.0683
 7496SOL    HW234122   2.078   0.017   2.119 -0.3173  0.1985  0.7327
 7497SOL     OW34123   3.957   2.725   0.786 -0.1808  0.1565 -0.8118
 7497SOL    HW134124   3.962   2.814   0.821  0.4509  0.0530 -0.6231
 7497SOL    HW234125   4.046   2.694   0.768 -0.2995 -0.5806 -0.1363
 7498SOL     OW34126   0.510   1.068   6.149  0.0649 -0.1628 -0.6082
 7498SOL    HW134127   0.496   1.024   6.233 -0.5268  0.0507 -0.5977
 7498SOL    HW234128   0.604   1.053   6.141  0.4737  0.7625  2.8313
 7499SOL     OW34129   0.054   4.696   5.506 -0.2763  0.2468  0.3084
 7499SOL    HW134130   0.019   4.618   5.462 -0.4110  0.1311  0.6163
 7499SOL    HW234131   4.717   0.027   5.492 -1.0210 -0.5946  0.2094
 7500SOL     OW34132   3.532   2.983   7.815 -0.2607 -0.3522 -0.1056
 7500SOL    HW134133   3.528   3.075   7.839 -2.1581 -0.0057 -1.6875
 7500SOL    HW234134   3.598   2.953   7.878 -1.4763  1.0089  1.8209
 7501SOL     OW34135   4.218   3.831   7.512 -0.0083 -0.1981 -0.6396
 7501SOL    HW134136   4.257   3.802   7.429  0.6597 -1.1944  0.0185
 7501SOL    HW234137   4.166   3.756   7.542  0.2234 -0.3510 -0.6150
 7502SOL     OW34138   4.348   4.178  10.948 -0.2478  0.1534 -0.3084
 7502SOL    HW134139   4.383   4.150  11.032  0.5038 -2.6417 -1.5583
 7502SOL    HW234140   4.336   4.271  10.968  1.4783  0.2773  0.2065
 7503SOL     OW34141   0.309   3.705   3.110 -0.1539 -0.7104 -0.2258
 7503SOL    HW134142   0.328   3.782   3.163  0.9059 -1.3078  0.2709
 7503SOL    HW234143   0.215   3.719   3.111  0.1982  1.6090  0.3335
 7504SOL     OW34144   1.040   2.485   2.419  0.1674  0.1177  0.6229
 7504SOL    HW134145   1.111   2.426   2.445 -1.5305 -1.5221  1.5504
 7504SOL    HW234146   0.996   2.435   2.351  0.1686 -0.3493  0.9636
 7505SOL     OW34147   0.303   3.833   5.181 -0.0606  0.2052 -0.5565
 7505SOL    HW134148   0.366   3.835   5.109 -1.0297 -1.7288 -1.4676
 7505SOL    HW234149   0.229   3.779   5.152 -0.3748  0.6968 -0.6638
 7506SOL     OW34150   3.262   1.084  17.084 -0.0520 -0.2030  0.1028
 7506SOL    HW134151   3.316   1.027  17.139 -0.6831 -0.3925  0.5144
 7506SOL    HW234152   3.186   1.097  17.141  0.7495  2.5948  0.5727
 7507SOL     OW34153   3.681   4.560  14.369  0.1901  0.0474 -0.2235
 7507SOL    HW134154   3.657   4.551  14.276 -1.2555 -0.6729  0.2151
 7507SOL    HW234155   3.670   4.474  14.409 -1.5554 -0.1416 -1.0796
 7508SOL     OW34156   3.707   1.741  16.126 -0.6639 -0.0249  0.6591
 7508SOL    HW134157   3.757   1.678  16.074 -1.1148  1.9602 -2.1771
 7508SOL    HW234158   3.704   1.816  16.067 -0.3313 -0.4750  0.0714
 7509SOL     OW34159   1.214   1.241  10.359  0.2043 -0.1484 -0.2151
 7509SOL    HW134160   1.205   1.201  10.446 -0.4651  2.6788  1.0167
 7509SOL    HW234161   1.126   1.268  10.336 -0.6887 -1.0651  2.1013
 7510SOL     OW34162   3.781   0.099  10.820 -0.6762  0.3810  0.0558
 7510SOL    HW134163   3.764   0.040  10.894  2.2225  2.3952  2.3354
 7510SOL    HW234164   3.698   0.145  10.805  0.1915  1.5837 -1.0721
 7511SOL     OW34165   0.185   1.592   8.332 -0.0881 -0.4258  0.0631
 7511SOL    HW134166   0.219   1.523   8.388  2.4641  0.3631 -0.5279
 7511SOL    HW234167   0.251   1.587   8.263 -0.4079  1.0248 -0.3398
 7512SOL     OW34168   0.226   4.244   0.505 -0.0464 -0.7551  0.2867
 7512SOL    HW134169   0.260   4.264   0.592  1.6472  0.6851 -0.7150
 7512SOL    HW234170   0.139   4.284   0.509 -0.2250 -1.2333  1.0843
 7513SOL     OW34171   3.858   1.965   2.410 -0.6097 -0.3861 -0.1772
 7513SOL    HW134172   3.950   1.946   2.395 -1.4219 -4.3808 -0.0468
 7513SOL    HW234173   3.860   2.014   2.492 -1.9124 -1.0980  0.2888
 7514SOL     OW34174   0.069   1.132   9.399  0.4295  0.2699 -1.0515
 7514SOL    HW134175   0.004   1.198   9.426  0.6082 -1.0274  2.5629
 7514SOL    HW234176   0.144   1.166   9.447 -1.8167 -0.0397  2.6920
 7515SOL     OW34177   3.280   4.038   5.312  0.2100  0.0283  0.0985
 7515SOL    HW134178   3.347   4.013   5.376  0.2631  1.0743  0.4427
 7515SOL    HW234179   3.230   3.958   5.296 -1.8858  2.0164 -3.1241
 7516SOL     OW34180   3.604   3.114   4.399  0.1504  0.6146  0.5727
 7516SOL    HW134181   3.593   3.193   4.345 -0.7367 -1.2499 -2.0010
 7516SOL    HW234182   3.570   3.142   4.483 -0.4975  1.8587 -0.0992
 7517SOL     OW34183   0.127   3.978  16.693 -0.1041  0.4635  0.8959
 7517SOL    HW134184   0.106   3.932  16.612  0.8814 -0.7878  1.3635
 7517SOL    HW234185   0.076   3.923  16.752  0.3176 -0.5622  0.3098
 7518SOL     OW34186   1.640   3.822  13.727 -0.1044  0.4532  0.2864
 7518SOL    HW134187   1.670   3.848  13.813 -0.4808 -0.3375  0.6563
 7518SOL    HW234188   1.563   3.877  13.715  0.3884  1.4983  2.0153
 7519SOL     OW34189   3.331   2.068   8.623  0.0510 -0.1877  0.0875
 7519SOL    HW134190   3.420   2.090   8.649  0.2352  2.6917 -2.9381
 7519SOL    HW234191   3.351   2.054   8.530  0.2359 -1.8811  0.3784
 7520SOL     OW34192   3.895   4.406   4.580 -0.5530 -0.5035  0.2412
 7520SOL    HW134193   3.833   4.442   4.517 -0.6149  1.5108  1.4586
 7520SOL    HW234194   3.878   4.466   4.653 -1.4841 -0.7173  0.1939
 7521SOL     OW34195   0.684   3.992   0.994  0.7927 -0.3300  0.6312
 7521SOL    HW134196   0.761   3.958   1.040  0.4857  0.1745  1.5280
 7521SOL    HW234197   0.661   3.912   0.947  0.3866 -1.1711  2.2578
 7522SOL     OW34198   4.676   4.723   4.428 -0.2833  0.1089  0.0115
 7522SOL    HW134199   4.593   4.727   4.381 -0.7839 -0.6161  0.8371
 7522SOL    HW234200   4.707   4.642   4.386  1.7368  0.9707 -0.1689
 7523SOL     OW34201   2.218   3.054   2.158 -0.3657  0.2837  0.4953
 7523SOL    HW134202   2.264   3.046   2.241  0.2883 -0.2448  0.0771
 7523SOL    HW234203   2.137   3.004   2.171  0.1619 -0.4857  0.7419
 7524SOL     OW34204   0.816   1.430   8.653  0.6142  0.3991 -0.5660
 7524SOL    HW134205   0.843   1.471   8.735  0.1229  0.7085 -0.5602
 7524SOL    HW234206   0.874   1.354   8.645  0.4460  0.1231  0.9399
 7525SOL     OW34207   3.888   3.997   8.601 -0.2595  0.2577 -0.6263
 7525SOL    HW134208   3.821   4.032   8.543  0.1943  0.3733 -1.0818
 7525SOL    HW234209   3.937   3.934   8.549  2.4164  0.7067  1.2909
 7526SOL     OW34210   3.916   3.919  12.924 -0.7834 -0.7554  0.2659
 7526SOL    HW134211   3.830   3.883  12.901 -1.3477  1.3041 -0.8083
 7526SOL    HW234212   3.968   3.908  12.844  0.9448  0.2182  1.2616
 7527SOL     OW34213   1.025   4.267   2.403  0.1185 -0.3236  0.6041
 7527SOL    HW134214   1.107   4.239   2.363  1.2427  1.5855  1.6278
 7527SOL    HW234215   0.994   4.324   2.332 -0.1618  1.9062  2.5211
 7528SOL     OW34216   3.742   0.487  11.516 -0.3238  0.0370  0.4239
 7528SOL    HW134217   3.713   0.576  11.536  0.2519  0.7082 -1.7452
 7528SOL    HW234218   3.658   0.441  11.517 -1.2686  1.8487  3.7702
 7529SOL     OW34219   0.300   1.203   6.272 -0.3186 -0.0488  0.5628
 7529SOL    HW134220   0.376   1.191   6.216 -0.1434 -0.3787  0.8734
 7529SOL    HW234221   0.273   1.116   6.301 -0.0933 -0.5350 -0.7146
 7530SOL     OW34222   0.367   3.367   3.295  0.7468  0.1116 -0.0041
 7530SOL    HW134223   0.346   3.372   3.201  0.8043 -1.1100 -0.0911
 7530SOL    HW234224   0.326   3.281   3.305  3.2323 -0.9550  1.0824
 7531SOL     OW34225   4.633   0.100  17.282  0.3620  0.7240  0.1344
 7531SOL    HW134226   4.720   0.065  17.299 -0.4571 -1.2432  0.3413
 7531SOL    HW234227   4.583   0.027  17.318  2.0666 -0.2135  0.5670
 7532SOL     OW34228   1.155   0.383   2.864  0.6063  0.5130 -0.1859
 7532SOL    HW134229   1.153   0.469   2.822  2.4657  0.5793 -0.1668
 7532SOL    HW234230   1.078   0.334   2.837  0.3587  0.0837  1.3158
 7533SOL     OW34231   2.419   4.219   5.198  0.3962  0.7369  0.3502
 7533SOL    HW134232   2.466   4.148   5.242  0.4569  0.1831 -0.6025
 7533SOL    HW234233   2.361   4.244   5.270  1.8334  2.7250  0.8165
 7534SOL     OW34234   2.646   1.167   1.947 -0.7288 -0.0093  0.3745
 7534SOL    HW134235   2.659   1.081   1.987  1.2998 -0.7526 -1.8662
 7534SOL    HW234236   2.713   1.227   1.979 -0.5331 -0.9408  1.7099
 7535SOL     OW34237   3.365   4.433   6.048  0.1908 -0.1027  0.1951
 7535SOL    HW134238   3.343   4.359   5.991  0.2517 -0.2103  0.3122
 7535SOL    HW234239   3.416   4.491   5.991  2.0900 -1.0992  0.8695
 7536SOL     OW34240   2.305   3.957   4.051  0.0870 -0.9165  0.0006
 7536SOL    HW134241   2.371   4.009   4.007 -2.5711  2.3404 -0.1283
 7536SOL    HW234242   2.367   3.891   4.083 -1.6060 -1.5645  1.9918
 7537SOL     OW34243   4.363   0.058  16.813  0.1638  0.9495 -0.2285
 7537SOL    HW134244   4.295   0.041  16.748 -0.3212 -1.7578  1.0009
 7537SOL    HW234245   4.443   0.019  16.777 -1.4259 -2.0083 -0.5443
 7538SOL     OW34246   1.163   2.505   5.150 -0.0142  0.6021 -0.0234
 7538SOL    HW134247   1.181   2.468   5.064 -2.8894  2.2570 -1.3452
 7538SOL    HW234248   1.226   2.577   5.144  0.2573  0.5852  2.5024
 7539SOL     OW34249   4.606   2.664  11.869  0.1820 -0.0312 -0.4871
 7539SOL    HW134250   4.694   2.702  11.870  0.5298 -0.9664  2.6238
 7539SOL    HW234251   4.618   2.580  11.912 -0.4808 -0.6066 -1.4067
 7540SOL     OW34252   0.039   2.967   2.104 -0.1963 -0.7253 -0.5393
 7540SOL    HW134253   4.677   2.952   2.105 -0.1755 -0.8304  0.0371
 7540SOL    HW234254   0.066   2.929   2.188  0.5847  0.0117 -0.4537
 7541SOL     OW34255   4.153   0.835   7.597 -0.3759  0.0575  0.8934
 7541SOL    HW134256   4.093   0.875   7.535 -0.2812 -0.2455  0.6044
 7541SOL    HW234257   4.090   0.815   7.666 -2.2458  1.0923 -0.5283
 7542SOL     OW34258   2.804   2.566   6.898 -0.4988 -0.3963 -0.4035
 7542SOL    HW134259   2.874   2.554   6.962 -1.0941  3.3201  0.9003
 7542SOL    HW234260   2.780   2.473   6.892 -0.8121 -0.3838  0.6626
 7543SOL     OW34261   0.379   1.551  16.779  0.1831  0.1133 -0.4137
 7543SOL    HW134262   0.385   1.456  16.787 -1.1869  0.1134  0.6602
 7543SOL    HW234263   0.397   1.555  16.685  1.2069 -2.1376 -0.3133
 7544SOL     OW34264   0.800   1.331   0.399  0.3386  0.3803  0.1815
 7544SOL    HW134265   0.830   1.345   0.309  0.1167 -1.2507 -0.1376
 7544SOL    HW234266   0.837   1.243   0.408 -2.6052 -0.8086  0.7088
 7545SOL     OW34267   2.540   3.762  12.552  0.3962 -0.7894  0.2627
 7545SOL    HW134268   2.463   3.730  12.505 -1.5753  0.3888  2.7707
 7545SOL    HW234269   2.533   3.713  12.634  1.3262 -1.2668  0.0668
 7546SOL     OW34270   1.839   4.211  17.396 -0.1302  0.3085 -0.3448
 7546SOL    HW134271   1.906   4.183  17.334 -0.7369  0.0252 -0.8614
 7546SOL    HW234272   1.783   4.134  17.390 -0.1315  0.2353  0.6219
 7547SOL     OW34273   1.176   2.915   8.974 -0.0374 -0.0184  0.0107
 7547SOL    HW134274   1.208   2.868   8.897 -0.9238 -0.6395  0.0221
 7547SOL    HW234275   1.227   2.873   9.044  0.2041 -0.6480 -0.5398
 7548SOL     OW34276   0.364   2.387   6.151 -0.3533 -0.1807  0.2069
 7548SOL    HW134277   0.373   2.292   6.161  1.2799  0.0630  1.0097
 7548SOL    HW234278   0.410   2.400   6.069 -0.2519  0.3500  0.3487
 7549SOL     OW34279   0.480   1.239  13.529  0.5693 -0.3780 -0.2303
 7549SOL    HW134280   0.411   1.305  13.524  0.1240 -0.8416 -0.2244
 7549SOL    HW234281   0.559   1.283  13.497 -0.6627  0.1536 -2.5744
 7550SOL     OW34282   0.817   3.743  12.943 -0.6067 -0.0039  0.5230
 7550SOL    HW134283   0.820   3.821  12.999 -1.6343  0.3811  0.0529
 7550SOL    HW234284   0.746   3.690  12.980 -0.9383  0.1731  0.1350
 7551SOL     OW34285   3.718   2.764   2.686  0.2387  0.3228 -0.1236
 7551SOL    HW134286   3.704   2.689   2.628  1.0552 -0.1477  0.2849
 7551SOL    HW234287   3.812   2.780   2.673  0.3129  2.3338  2.9830
 7552SOL     OW34288   1.554   1.974  13.092  0.1778 -0.2977 -0.4462
 7552SOL    HW134289   1.505   2.031  13.152 -0.5134 -0.1913 -1.1067
 7552SOL    HW234290   1.559   2.034  13.017 -0.8532  0.6833  0.2551
 7553SOL     OW34291   0.200   0.999   8.399 -0.3402  0.3588  0.4614
 7553SOL    HW134292   0.124   1.035   8.444 -0.8723  0.6872 -0.6863
 7553SOL    HW234293   0.227   0.937   8.466  0.9867  0.7413  0.2937
 7554SOL     OW34294   2.205   3.532   2.760  0.1980 -0.5028 -0.3221
 7554SOL    HW134295   2.203   3.592   2.685 -0.0968 -0.4362 -0.2604
 7554SOL    HW234296   2.269   3.472   2.721 -0.7381 -1.9723  0.4314
 7555SOL     OW34297   3.845   3.866   6.233  0.6040  0.2667  0.5889
 7555SOL    HW134298   3.808   3.954   6.224 -1.3318 -0.7147 -1.2385
 7555SOL    HW234299   3.914   3.887   6.295  1.1561  1.4401 -0.4246
 7556SOL     OW34300   3.218   0.697  17.105 -0.6452 -0.3473 -0.1577
 7556SOL    HW134301   3.262   0.715  17.188 -1.1929  1.1056 -0.1724
 7556SOL    HW234302   3.135   0.662  17.139 -0.8868  0.1986 -0.1748
 7557SOL     OW34303   2.287   3.022  10.593  0.0499 -0.6448  0.5661
 7557SOL    HW134304   2.204   3.039  10.638 -0.0716 -0.3682  0.2417
 7557SOL    HW234305   2.304   3.108  10.554  1.3849 -1.0771  0.2010
 7558SOL     OW34306   2.731   3.081  10.608  0.1414  0.2020 -0.0523
 7558SOL    HW134307   2.824   3.100  10.595 -0.0519  1.9860  1.0774
 7558SOL    HW234308   2.711   3.147  10.675  0.0144  1.0312 -0.9001
 7559SOL     OW34309   2.439   3.883   9.075 -0.0973  0.4660  0.7893
 7559SOL    HW134310   2.396   3.854   8.995  0.2736  0.1613  0.6996
 7559SOL    HW234311   2.462   3.803   9.123  0.1143 -0.3931 -0.7582
 7560SOL     OW34312   0.405   0.010   5.647 -0.6123  0.2291 -0.2880
 7560SOL    HW134313   0.474   4.711   5.704 -0.9817  0.1550  0.1202
 7560SOL    HW234314   0.394   0.100   5.678 -0.3509  1.8135 -4.6713
 7561SOL     OW34315   0.522   0.914   2.503 -0.5962 -0.2843  0.1876
 7561SOL    HW134316   0.430   0.898   2.482 -0.3369  0.4130 -1.5623
 7561SOL    HW234317   0.524   0.889   2.595 -0.4832  1.3864  0.6348
 7562SOL     OW34318   4.190   2.758  16.144 -0.9535  0.1043 -0.1434
 7562SOL    HW134319   4.188   2.686  16.206  0.5308 -0.1544 -0.3994
 7562SOL    HW234320   4.117   2.746  16.083 -0.8569  2.1654 -0.6864
 7563SOL     OW34321   4.475   4.048   6.650 -0.1074  0.1933 -0.3343
 7563SOL    HW134322   4.495   4.127   6.700 -1.3979  0.4377 -0.2062
 7563SOL    HW234323   4.466   3.978   6.716 -0.7082  0.5822 -0.0019
 7564SOL     OW34324   3.199   1.493   6.911 -0.6158  0.8698 -0.2110
 7564SOL    HW134325   3.281   1.509   6.864  0.0629  2.1649  1.4119
 7564SOL    HW234326   3.234   1.474   6.998 -0.5712 -1.9602 -0.8341
 7565SOL     OW34327   0.887   3.912   9.656  0.6111  0.1993  0.2899
 7565SOL    HW134328   0.870   3.880   9.744 -3.0673  1.6432  0.0681
 7565SOL    HW234329   0.802   3.943   9.625  1.0183 -0.4590 -1.4742
 7566SOL     OW34330   3.744   0.160   5.781  0.3271  0.5183 -0.1223
 7566SOL    HW134331   3.663   0.211   5.780  0.1940  0.3440  1.4223
 7566SOL    HW234332   3.724   0.090   5.719  1.5415  0.6002 -0.6204
 7567SOL     OW34333   1.928   0.582   5.715  0.1044  0.2895 -0.0296
 7567SOL    HW134334   1.907   0.670   5.687  1.8910  0.8498  0.3453
 7567SOL    HW234335   1.878   0.566   5.795  1.5909  3.3840  1.5060
 7568SOL     OW34336   1.931   0.094   5.896 -0.0233 -0.2370  0.4286
 7568SOL    HW134337   1.919   0.188   5.908 -0.8994 -0.0863 -1.5722
 7568SOL    HW234338   1.938   0.074   5.989  2.1925 -0.2329  0.2625
 7569SOL     OW34339   0.001   4.024  11.341  0.2204  0.6805 -0.0264
 7569SOL    HW134340   0.076   4.080  11.320  0.4431 -0.7458 -3.0004
 7569SOL    HW234341   4.729   3.968  11.264 -0.7778 -0.3783  0.8044
 7570SOL     OW34342   1.476   3.968  13.055 -0.5063  0.7076  0.4554
 7570SOL    HW134343   1.540   3.971  13.127  1.0437  0.5690 -0.9357
 7570SOL    HW234344   1.530   3.955  12.978 -1.7454 -0.6554 -0.1927
 7571SOL     OW34345   3.359   4.656  17.674  0.1119 -0.0667  0.3370
 7571SOL    HW134346   3.360   4.564  17.649 -2.3731  0.4093 -1.4623
 7571SOL    HW234347   3.423   4.648   0.015 -0.4195  0.7616  0.9009
 7572SOL     OW34348   3.646   1.137   6.673  0.2956  0.7227 -0.1064
 7572SOL    HW134349   3.728   1.169   6.635 -0.5393  1.4578 -1.3164
 7572SOL    HW234350   3.606   1.083   6.605  0.3370 -1.1890  1.3938
 7573SOL     OW34351   3.576   3.247  12.545  0.5939 -1.0262  0.2639
 7573SOL    HW134352   3.608   3.336  12.534 -1.6607 -0.2172  0.2514
 7573SOL    HW234353   3.570   3.244  12.640 -1.1019 -0.9040  0.1559
 7574SOL     OW34354   3.038   4.216   7.051  0.4815 -0.2878 -0.1000
 7574SOL    HW134355   3.051   4.202   6.957 -0.0056 -0.7653 -0.0978
 7574SOL    HW234356   3.044   4.123   7.075  0.9230 -0.0820  0.5861
 7575SOL     OW34357   1.650   1.973   7.018 -0.0770  0.2742  0.0891
 7575SOL    HW134358   1.647   2.002   6.926  1.8898 -2.5044 -0.8477
 7575SOL    HW234359   1.710   1.900   7.001  1.7662  2.3784 -2.3985
 7576SOL     OW34360   1.866   4.293   7.977 -0.3765  0.0172  0.0322
 7576SOL    HW134361   1.848   4.387   7.974 -1.8120 -0.2971 -1.2668
 7576SOL    HW234362   1.902   4.287   8.066 -0.8595 -0.4208  0.2015
 7577SOL     OW34363   0.425   0.073   6.052 -0.2172  0.0551  0.0625
 7577SOL    HW134364   0.429   0.097   6.145  0.1993  2.4511 -0.5815
 7577SOL    HW234365   0.348   0.122   6.024 -1.0371  0.8645  3.6046
 7578SOL     OW34366   0.902   2.576   0.890 -0.5188  0.1926 -0.4218
 7578SOL    HW134367   0.853   2.656   0.913 -2.8947 -0.7332 -2.1815
 7578SOL    HW234368   0.825   2.520   0.882 -2.4686  2.5258  2.1067
 7579SOL     OW34369   4.452   3.189   9.643  0.4148 -0.2154  0.2826
 7579SOL    HW134370   4.493   3.151   9.566 -1.5334 -0.5616 -0.5929
 7579SOL    HW234371   4.361   3.158   9.644 -0.0435  0.9751 -1.8265
 7580SOL     OW34372   4.718   0.237   7.244 -0.4979  0.2671  0.3808
 7580SOL    HW134373   0.010   0.318   7.198 -2.1310  0.4128 -0.2727
 7580SOL    HW234374   0.008   0.255   7.335 -3.8345  1.8761  0.9197
 7581SOL     OW34375   1.702   0.431   8.637  0.1932  0.1454 -0.2243
 7581SOL    HW134376   1.777   0.482   8.667  0.2568  0.6108 -1.1714
 7581SOL    HW234377   1.632   0.473   8.688  0.7415 -0.7799  1.2931
 7582SOL     OW34378   1.657   0.866   1.925 -0.1686  0.4416 -0.2945
 7582SOL    HW134379   1.702   0.791   1.964  1.9138  1.0413 -1.5974
 7582SOL    HW234380   1.607   0.831   1.851  0.4068 -1.6907  0.3347
 7583SOL     OW34381   1.943   2.541   3.075  0.2018  0.1215  0.3005
 7583SOL    HW134382   1.909   2.553   2.987 -0.0723 -0.9779  0.2495
 7583SOL    HW234383   1.890   2.607   3.120  1.1384  1.6006 -0.7913
 7584SOL     OW34384   0.127   2.666   5.485  0.2637  0.0412  0.0129
 7584SOL    HW134385   0.070   2.593   5.460 -0.0158  0.5288 -0.7718
 7584SOL    HW234386   0.074   2.738   5.452  0.0718 -0.7234 -1.3661
 7585SOL     OW34387   1.581   2.258   4.997 -0.2338  0.8497 -0.3388
 7585SOL    HW134388   1.524   2.310   4.941 -1.3058 -0.7932 -0.7778
 7585SOL    HW234389   1.520   2.185   5.010  0.4481  0.2226 -0.6371
 7586SOL     OW34390   4.107   4.451   3.004 -0.0694  0.0253 -0.9695
 7586SOL    HW134391   4.033   4.507   3.027 -1.4641 -2.1650 -0.0792
 7586SOL    HW234392   4.062   4.398   2.939  0.5342 -1.9623  0.2276
 7587SOL     OW34393   0.166   2.439  11.812  0.4334 -0.4019 -0.2637
 7587SOL    HW134394   0.182   2.376  11.742 -0.6987 -0.9892  0.0117
 7587SOL    HW234395   0.086   2.404  11.851 -0.0126  0.2740 -0.5595
 7588SOL     OW34396   1.834   2.769   5.419 -0.4383 -0.6426  0.4436
 7588SOL    HW134397   1.824   2.686   5.465 -1.5900 -0.6770  0.1315
 7588SOL    HW234398   1.833   2.829   5.494 -0.8992 -0.7935  0.5610
 7589SOL     OW34399   4.385   0.457  11.484 -0.5495 -0.0171  0.0551
 7589SOL    HW134400   4.410   0.370  11.512 -1.2436  0.4396  2.0762
 7589SOL    HW234401   4.462   0.481  11.432 -0.0520  0.2891  0.9284
 7590SOL     OW34402   3.298   1.753   4.529  0.3442  0.3053  0.4805
 7590SOL    HW134403   3.359   1.696   4.482 -1.6264 -0.9952 -0.4573
 7590SOL    HW234404   3.311   1.721   4.619  1.8045 -0.8176 -0.1342
 7591SOL     OW34405   3.314   2.046   5.933  0.7833 -0.0820 -0.4503
 7591SOL    HW134406   3.244   1.981   5.942  1.5965 -0.7962  0.6399
 7591SOL    HW234407   3.362   2.036   6.015 -1.1362  1.0586  0.7985
 7592SOL     OW34408   0.946   4.275  12.259  0.2396  0.2581  0.3308
 7592SOL    HW134409   0.910   4.191  12.234  0.7674  0.1555 -0.0857
 7592SOL    HW234410   0.975   4.304  12.172 -1.4311  1.0684  0.0464
 7593SOL     OW34411   3.788   4.206  11.042 -0.0077 -0.0302  0.1826
 7593SOL    HW134412   3.812   4.141  11.108 -2.6911 -1.2156  0.0156
 7593SOL    HW234413   3.798   4.152  10.964 -0.9498 -1.7873  1.2734
 7594SOL     OW34414   3.959   3.608  15.095  0.1335 -0.5906 -0.1292
 7594SOL    HW134415   3.902   3.684  15.084 -0.1659 -0.7144  0.5497
 7594SOL    HW234416   3.957   3.606  15.191  1.5391 -1.8814 -0.1252
 7595SOL     OW34417   2.940   0.907   1.924  0.4352 -0.2139  0.0419
 7595SOL    HW134418   2.926   0.992   1.880  0.4064 -1.4729 -2.3879
 7595SOL    HW234419   2.984   0.857   1.856  0.7799  1.4203 -0.9572
 7596SOL     OW34420   2.566   4.586   1.183  0.2271  0.4816  0.4654
 7596SOL    HW134421   2.605   4.646   1.120  0.7110  1.2266  1.4767
 7596SOL    HW234422   2.504   4.646   1.225  0.0591  0.0281  0.8743
 7597SOL     OW34423   0.023   0.738  13.348  0.3109 -0.2363 -0.3133
 7597SOL    HW134424   4.688   0.767  13.409 -0.5472 -3.3463  0.2119
 7597SOL    HW234425   0.031   0.649  13.380  1.5572 -0.2566 -0.6977
 7598SOL     OW34426   1.999   2.709   8.346 -0.2862  0.0379 -0.0006
 7598SOL    HW134427   1.996   2.673   8.257 -1.3281  0.7201 -0.2457
 7598SOL    HW234428   2.093   2.725   8.338 -0.1613 -0.6075  0.1669
 7599SOL     OW34429   3.279   0.417  16.627 -0.6646 -0.0984  0.0135
 7599SOL    HW134430   3.241   0.339  16.587 -2.1905 -0.1673  1.5752
 7599SOL    HW234431   3.221   0.420  16.703 -0.2978  2.9540  0.1828
 7600SOL     OW34432   3.472   4.636  14.834 -0.2262 -0.5953  0.1993
 7600SOL    HW134433   3.488   4.621  14.927  2.6649  0.0749 -0.1987
 7600SOL    HW234434   3.401   4.575  14.812 -0.3599 -0.6085  0.6801
 7601SOL     OW34435   0.466   4.631   0.214  0.0588  0.4824  0.6924
 7601SOL    HW134436   0.559   4.653   0.212  0.1599  0.2302  2.3237
 7601SOL    HW234437   0.457   4.592   0.301  1.2443 -1.2451  0.0358
 7602SOL     OW34438   0.877   1.098   3.719 -0.4978 -0.5833 -0.2138
 7602SOL    HW134439   0.802   1.039   3.723 -2.0034  1.4463  2.2575
 7602SOL    HW234440   0.880   1.134   3.808  2.5163 -0.8000 -0.2385
 7603SOL     OW34441   0.568   2.474  16.092  0.2447 -0.0602  0.3138
 7603SOL    HW134442   0.527   2.543  16.144 -1.0581 -0.6808  0.1095
 7603SOL    HW234443   0.561   2.519  16.008  1.0798  0.1272  0.3465
 7604SOL     OW34444   4.349   2.523   3.849  0.0778  0.2047 -0.1549
 7604SOL    HW134445   4.312   2.527   3.760  0.3062 -1.6465 -0.3461
 7604SOL    HW234446   4.443   2.529   3.830  0.1084 -1.0455 -0.4063
 7605SOL     OW34447   2.699   3.111  16.654 -0.0441 -0.1787 -0.0631
 7605SOL    HW134448   2.730   3.152  16.735  0.0174 -2.3761  1.0229
 7605SOL    HW234449   2.608   3.097  16.683  0.8129 -3.3745  1.1368
 7606SOL     OW34450   3.545   3.609   6.759  0.6051 -0.2662  0.3398
 7606SOL    HW134451   3.514   3.605   6.668 -0.9329  3.0615  0.7081
 7606SOL    HW234452   3.557   3.704   6.763 -0.8441 -0.0336 -0.6926
 7607SOL     OW34453   3.699   2.884   7.128  0.1130 -0.8703  0.0040
 7607SOL    HW134454   3.673   2.971   7.099 -1.0825 -1.2079  0.0566
 7607SOL    HW234455   3.783   2.865   7.087 -0.1215 -3.3026  0.5988
 7608SOL     OW34456   4.315   0.020   6.904  0.0401 -0.4675  0.3639
 7608SOL    HW134457   4.334   4.659   6.898 -0.0633 -0.2558 -2.8730
 7608SOL    HW234458   4.226   0.019   6.869  0.8824  1.7197 -1.8067
 7609SOL     OW34459   1.398   3.108   5.207  0.0605 -0.0409 -0.3469
 7609SOL    HW134460   1.427   3.056   5.283  0.1204 -1.0750 -1.0729
 7609SOL    HW234461   1.400   3.032   5.148 -1.5722 -0.9011  0.6899
 7610SOL     OW34462   1.031   1.738   5.629 -0.2829 -0.0647  0.0013
 7610SOL    HW134463   1.083   1.800   5.579 -0.4026 -0.4075 -0.5545
 7610SOL    HW234464   1.091   1.665   5.615 -0.5180 -0.4099  0.8147
 7611SOL     OW34465   3.415   3.531   7.848  0.4371  1.0231 -0.0317
 7611SOL    HW134466   3.379   3.522   7.760  0.2097 -0.3987  0.2186
 7611SOL    HW234467   3.333   3.513   7.894  1.4909 -1.3991  0.8863
 7612SOL     OW34468   0.947   3.956   3.018 -0.1457  0.0422  0.1583
 7612SOL    HW134469   0.882   4.025   3.025 -1.4491 -1.0792 -0.8926
 7612SOL    HW234470   0.934   3.903   3.097  1.3572  0.1637  0.4762
 7613SOL     OW34471   3.595   1.368   3.945  0.1568 -0.3742  0.1952
 7613SOL    HW134472   3.521   1.416   3.983  0.8329  1.0840 -0.3149
 7613SOL    HW234473   3.558   1.324   3.870 -0.8528 -0.6175  0.8360
 7614SOL     OW34474   4.307   2.842  15.511 -0.4601 -0.2383  0.4174
 7614SOL    HW134475   4.334   2.864  15.422  0.4523 -1.1885  0.4493
 7614SOL    HW234476   4.240   2.780  15.483 -0.7485 -0.5801  1.8293
 7615SOL     OW34477   1.420   2.734   2.914  0.1428 -0.2637 -0.2577
 7615SOL    HW134478   1.474   2.658   2.892 -0.6489 -0.3429 -1.9490
 7615SOL    HW234479   1.427   2.794   2.839 -2.2097  1.2334  0.7226
 7616SOL     OW34480   1.380   0.662   3.698  0.5073 -0.5622  0.3843
 7616SOL    HW134481   1.414   0.578   3.728  0.5824  0.2004  2.4271
 7616SOL    HW234482   1.332   0.644   3.616  3.1988 -0.8964 -1.1083
 7617SOL     OW34483   0.188   3.596   4.833 -0.3202 -1.0516 -0.4124
 7617SOL    HW134484   0.241   3.636   4.764  0.4627  1.1476  1.4487
 7617SOL    HW234485   0.111   3.590   4.776  0.2591 -1.7278 -1.1143
 7618SOL     OW34486   1.505   0.174   6.091  0.1331  0.6937 -0.3899
 7618SOL    HW134487   1.589   0.138   6.120  0.3047 -0.5840 -2.4578
 7618SOL    HW234488   1.452   0.187   6.169  1.7061  2.7982  0.3313
 7619SOL     OW34489   0.110   1.257   6.697 -0.4193  0.4666 -0.7985
 7619SOL    HW134490   0.080   1.318   6.629 -0.7998 -0.9050 -1.8526
 7619SOL    HW234491   0.092   1.312   6.773 -2.1853  1.0839 -1.6555
 7620SOL     OW34492   3.409   4.020   7.069  0.3867  0.0051  0.3057
 7620SOL    HW134493   3.490   4.038   7.020 -1.1211  1.7958 -1.5473
 7620SOL    HW234494   3.366   3.957   7.012 -0.4681  1.5222 -0.7317
 7621SOL     OW34495   1.803   2.454   2.096 -0.2445  0.0626 -0.2680
 7621SOL    HW134496   1.887   2.486   2.064 -1.1355  1.9391 -0.7489
 7621SOL    HW234497   1.748   2.479   2.022 -1.7546 -2.0264  0.1445
 7622SOL     OW34498   2.161   4.288  15.653  0.1376  0.4687  0.1750
 7622SOL    HW134499   2.202   4.331  15.728 -0.4254  0.1320  0.6828
 7622SOL    HW234500   2.069   4.295  15.682 -0.4899 -2.7784 -1.0706
 7623SOL     OW34501   4.398   3.601   7.062 -0.1006 -0.7169  0.7114
 7623SOL    HW134502   4.309   3.627   7.039 -0.5802 -0.3717  2.9144
 7623SOL    HW234503   4.427   3.587   6.972 -0.0190 -2.0621  0.9410
 7624SOL     OW34504   3.128   1.062   6.233  0.2788 -0.1786  0.2075
 7624SOL    HW134505   3.125   1.075   6.328  2.7207  2.2816 -0.0830
 7624SOL    HW234506   3.110   1.149   6.197 -0.9765 -0.3159  0.4822
 7625SOL     OW34507   2.850   0.587  15.258  0.8830 -0.0640  0.7618
 7625SOL    HW134508   2.922   0.561  15.315 -0.5848 -0.3357  2.4951
 7625SOL    HW234509   2.868   0.679  15.240  0.7951  0.0923  1.4978
 7626SOL     OW34510   0.069   3.883  15.012 -0.2535  0.1708  0.8980
 7626SOL    HW134511   0.007   3.841  14.952  3.1917 -2.6334 -0.7385
 7626SOL    HW234512   0.011   3.946  15.053 -1.2290 -0.7348  0.9061
 7627SOL     OW34513   4.174   2.554  14.428  0.2607 -0.3478  0.0056
 7627SOL    HW134514   4.109   2.541  14.497 -0.2435 -0.2833 -0.4567
 7627SOL    HW234515   4.178   2.470  14.383  0.0106 -0.5214  0.3150
 7628SOL     OW34516   2.956   3.286   6.016 -0.3280  0.1140 -0.0472
 7628SOL    HW134517   2.977   3.367   6.063 -1.2891  1.7570 -2.4590
 7628SOL    HW234518   2.870   3.315   5.986 -0.0869  1.3183  0.4154
 7629SOL     OW34519   3.895   3.637   3.102 -1.1685  0.8504 -0.3423
 7629SOL    HW134520   3.912   3.725   3.068  0.6308  0.4642 -0.4132
 7629SOL    HW234521   3.917   3.639   3.195 -1.8928 -0.6458 -0.1510
 7630SOL     OW34522   2.924   2.158   9.501 -0.6480  0.0347  0.1035
 7630SOL    HW134523   2.948   2.096   9.432  1.9624 -0.8278  1.7860
 7630SOL    HW234524   2.973   2.122   9.575 -0.5644  0.7284  0.3940
 7631SOL     OW34525   4.289   2.028  17.562 -0.6463 -0.0089 -0.3184
 7631SOL    HW134526   4.368   1.973  17.557 -0.4409  0.1274  1.4298
 7631SOL    HW234527   4.254   2.017  17.473  1.0792 -0.7210 -0.9158
 7632SOL     OW34528   4.264   2.554   8.225 -0.6014  0.4615  0.0799
 7632SOL    HW134529   4.340   2.520   8.178  1.4723  1.7846  2.4331
 7632SOL    HW234530   4.203   2.481   8.223 -1.2239  1.0122 -0.9470
 7633SOL     OW34531   1.690   4.201   8.789  0.4461  0.2892  0.2938
 7633SOL    HW134532   1.653   4.256   8.857 -0.7343 -1.0925  0.7801
 7633SOL    HW234533   1.750   4.262   8.746  2.1556 -1.1354  0.6357
 7634SOL     OW34534   4.445   2.599   5.770 -0.1419 -0.2462 -0.1123
 7634SOL    HW134535   4.402   2.521   5.735 -0.3766 -0.2078  0.0926
 7634SOL    HW234536   4.536   2.573   5.756 -0.6672 -2.7769  1.1137
 7635SOL     OW34537   3.923   2.092   5.711 -0.3354 -0.2171  0.3405
 7635SOL    HW134538   3.899   2.039   5.634  1.1454 -1.1958  0.5431
 7635SOL    HW234539   4.015   2.069   5.720  0.2633  1.5721 -1.4453
 7636SOL     OW34540   3.550   3.503   4.202  0.2989 -0.1609  0.0131
 7636SOL    HW134541   3.536   3.575   4.141 -2.7895 -0.6994  0.0657
 7636SOL    HW234542   3.627   3.519   4.256  2.1116 -0.7862 -2.3942
 7637SOL     OW34543   3.221   3.124  16.984 -0.3372  0.2217  0.5524
 7637SOL    HW134544   3.304   3.098  16.945 -0.2235  0.0778  0.8909
 7637SOL    HW234545   3.164   3.120  16.908 -1.5351  0.2326  1.4455
 7638SOL     OW34546   1.215   0.890   7.150  0.1564  0.2671 -0.3564
 7638SOL    HW134547   1.152   0.839   7.101  1.8574 -1.5511 -0.6640
 7638SOL    HW234548   1.154   0.959   7.176 -1.4530 -2.2556  2.5501
 7639SOL     OW34549   4.154   1.973   4.511  0.2429  0.1471  0.0348
 7639SOL    HW134550   4.130   1.946   4.600 -1.2931  2.3929  0.3121
 7639SOL    HW234551   4.248   1.958   4.510  0.2732  0.4479 -1.6784
 7640SOL     OW34552   2.740   2.770   5.010 -0.1525 -0.9078 -0.1709
 7640SOL    HW134553   2.731   2.814   4.925 -0.0108 -0.3118  0.1236
 7640SOL    HW234554   2.797   2.697   4.984  0.1622 -0.6100 -0.3321
 7641SOL     OW34555   1.512   0.084   5.118  0.0778  0.2787  0.4462
 7641SOL    HW134556   1.505   0.059   5.025 -0.2476 -1.2862  0.8859
 7641SOL    HW234557   1.551   0.170   5.107 -0.9385  0.4546 -1.9809
 7642SOL     OW34558   3.642   3.428   1.999  0.1199  0.5311 -0.5919
 7642SOL    HW134559   3.710   3.424   1.933  0.4469 -0.8636 -0.1672
 7642SOL    HW234560   3.592   3.504   1.969 -1.3380  0.1440  0.8543
 7643SOL     OW34561   3.399   3.087   1.121  0.4857 -0.2761 -0.2471
 7643SOL    HW134562   3.320   3.100   1.173  0.9991 -0.6477  0.6233
 7643SOL    HW234563   3.453   3.163   1.143  1.2547 -1.9214  3.4091
 7644SOL     OW34564   2.447   3.327   3.268  0.0186 -0.4178  0.0517
 7644SOL    HW134565   2.434   3.372   3.184  0.7692  1.7186  1.0774
 7644SOL    HW234566   2.357   3.297   3.283 -0.0643 -1.2455 -2.0067
 7645SOL     OW34567   3.754   0.747   1.860 -0.1023  0.1718  0.7355
 7645SOL    HW134568   3.739   0.828   1.810 -3.1571 -0.4435  0.6852
 7645SOL    HW234569   3.673   0.703   1.836  1.6166 -1.7219 -1.5692
 7646SOL     OW34570   1.311   1.285   0.449 -0.3398  0.3502  0.6498
 7646SOL    HW134571   1.257   1.206   0.450  0.3262 -0.1081  0.1829
 7646SOL    HW234572   1.303   1.310   0.357  0.9289  2.9751  1.2760
 7647SOL     OW34573   0.211   2.133   3.833  0.1073 -0.1087 -0.0739
 7647SOL    HW134574   0.253   2.048   3.834  1.0923  0.3936  0.7351
 7647SOL    HW234575   0.259   2.174   3.905  0.4818  0.3902 -0.6058
 7648SOL     OW34576   3.260   3.971  17.159 -0.1485  0.6836 -0.5797
 7648SOL    HW134577   3.224   4.053  17.191  1.2156  0.5310  1.4088
 7648SOL    HW234578   3.191   3.905  17.166 -0.4093  0.9833 -0.3208
 7649SOL     OW34579   2.429   1.236   5.250  0.3431  0.2750  0.3235
 7649SOL    HW134580   2.487   1.163   5.229  0.4885  0.2155  0.9516
 7649SOL    HW234581   2.479   1.312   5.221  1.3220 -0.3440  0.3968
 7650SOL     OW34582   1.663   2.021   3.916 -0.0326  0.0256 -0.0937
 7650SOL    HW134583   1.661   1.959   3.989 -2.1001 -0.8939 -0.9541
 7650SOL    HW234584   1.685   1.963   3.843  0.2824  1.2852 -0.9881
 7651SOL     OW34585   2.808   2.519   9.186  0.0909  0.9996  0.3741
 7651SOL    HW134586   2.851   2.569   9.255 -1.3401  0.2452  1.7976
 7651SOL    HW234587   2.722   2.510   9.226  0.5337  0.4511  1.1967
 7652SOL     OW34588   3.697   0.736   5.895  0.0410  0.8213 -0.4044
 7652SOL    HW134589   3.787   0.768   5.890  0.9489 -1.3091  2.0715
 7652SOL    HW234590   3.656   0.808   5.943 -1.6908 -0.6857  0.4046
 7653SOL     OW34591   1.497   3.650   8.265  0.3196  0.1510 -0.8475
 7653SOL    HW134592   1.488   3.719   8.331  0.0205 -0.3563 -0.3533
 7653SOL    HW234593   1.521   3.696   8.185  1.2894 -1.7889 -1.6736
 7654SOL     OW34594   2.834   1.158   8.924  0.4637  0.3970  0.2115
 7654SOL    HW134595   2.869   1.095   8.861 -0.5985  0.8678 -0.8523
 7654SOL    HW234596   2.906   1.161   8.986  0.8715 -0.3724 -0.2249
 7655SOL     OW34597   2.315   3.650   1.141  0.7847  0.7677  0.1031
 7655SOL    HW134598   2.341   3.662   1.233 -1.7948 -0.3642  0.9744
 7655SOL    HW234599   2.397   3.639   1.094 -1.0855 -2.0605 -2.4894
 7656SOL     OW34600   0.586   4.614   9.332 -0.6306  0.0895 -0.0008
 7656SOL    HW134601   0.655   4.581   9.275 -0.8756 -0.4072 -0.0145
 7656SOL    HW234602   0.506   4.572   9.298 -0.8117  0.0615  0.4621
 7657SOL     OW34603   3.821   0.253   2.646  1.2219 -0.5005 -0.3760
 7657SOL    HW134604   3.749   0.205   2.606  0.6723 -1.0811  1.3183
 7657SOL    HW234605   3.782   0.339   2.633  1.5719 -0.4137 -0.8838
 7658SOL     OW34606   0.048   3.542   9.748  0.0701  0.2019 -0.5603
 7658SOL    HW134607   0.079   3.455   9.774 -1.1601 -0.3009 -0.7932
 7658SOL    HW234608   4.722   3.574   9.817 -0.7616 -2.4960 -0.0019
 7659SOL     OW34609   3.183   2.034   7.360 -0.1454 -0.3158 -0.4106
 7659SOL    HW134610   3.122   2.106   7.347 -1.9177 -1.4999  1.1533
 7659SOL    HW234611   3.221   2.046   7.448 -1.2900  2.1318 -0.2625
 7660SOL     OW34612   0.719   3.343   7.419  0.0965 -0.2249  0.8572
 7660SOL    HW134613   0.664   3.366   7.493 -0.8355 -0.0756  0.1152
 7660SOL    HW234614   0.702   3.418   7.361  1.5105 -0.9188 -0.4550
 7661SOL     OW34615   4.480   1.480   7.565  0.1341  0.4335 -0.0667
 7661SOL    HW134616   4.416   1.421   7.524  1.5130 -0.2335 -1.2795
 7661SOL    HW234617   4.533   1.410   7.603  0.5866  1.2595  0.8071
 7662SOL     OW34618   0.609   3.903   6.511 -0.1441 -0.5793  0.0277
 7662SOL    HW134619   0.579   3.831   6.568 -1.3741  1.5701  2.1198
 7662SOL    HW234620   0.526   3.943   6.484  0.2561 -0.5545 -1.1548
 7663SOL     OW34621   3.367   3.747   4.339 -0.2634  0.1481  0.4951
 7663SOL    HW134622   3.419   3.778   4.413 -0.0847  3.3699 -0.9450
 7663SOL    HW234623   3.305   3.695   4.389  0.4072 -1.1270 -0.0038
 7664SOL     OW34624   4.622   2.161   5.774 -0.2738 -0.2275  0.1229
 7664SOL    HW134625   4.650   2.082   5.819  2.5569 -0.3475 -1.8713
 7664SOL    HW234626   4.693   2.223   5.791  0.2538 -0.9833  0.6268
 7665SOL     OW34627   4.643   3.340   9.165 -0.2034 -0.0590  0.0700
 7665SOL    HW134628   4.674   3.321   9.253 -0.9973  1.3903  0.6623
 7665SOL    HW234629   4.720   3.323   9.111  0.6958  0.3223  1.2638
 7666SOL     OW34630   4.396   0.316   7.832  0.4388 -0.1040 -0.1519
 7666SOL    HW134631   4.378   0.226   7.857 -0.4296 -0.1206 -0.8407
 7666SOL    HW234632   4.488   0.317   7.859 -0.0591 -1.4357  1.5857
 7667SOL     OW34633   2.643   0.769   2.253 -0.2278 -1.0517  0.0445
 7667SOL    HW134634   2.710   0.772   2.322 -0.6882  0.5156  0.4156
 7667SOL    HW234635   2.619   0.677   2.262  1.1757 -1.4871 -0.6002
 7668SOL     OW34636   4.065   1.034   5.735 -0.0797 -0.5598  0.3012
 7668SOL    HW134637   4.140   1.007   5.682  0.7170  0.5371  0.8695
 7668SOL    HW234638   4.089   1.125   5.756 -1.4168 -0.1999  0.2594
 7669SOL     OW34639   4.545   3.355   1.461  0.4966  0.4335 -0.4682
 7669SOL    HW134640   4.482   3.285   1.445 -0.0867  0.8420  0.0252
 7669SOL    HW234641   4.539   3.378   1.554 -2.5476  0.3261 -0.6283
 7670SOL     OW34642   4.355   2.884  10.206 -0.5786 -0.2667 -0.6460
 7670SOL    HW134643   4.276   2.932  10.230  0.3895  1.8864 -1.8305
 7670SOL    HW234644   4.350   2.901  10.112 -0.4430 -1.2485 -0.8364
 7671SOL     OW34645   2.113   0.349   3.728  0.1765 -0.1184  0.1209
 7671SOL    HW134646   2.087   0.258   3.716 -1.8496  0.5028 -0.1443
 7671SOL    HW234647   2.195   0.340   3.680  0.2833 -0.7580  0.4280
 7672SOL     OW34648   4.442   4.255   4.577 -0.0091  0.3382  0.5668
 7672SOL    HW134649   4.469   4.188   4.640 -0.7287  0.4592  1.0125
 7672SOL    HW234650   4.467   4.334   4.626  2.3811  0.5570 -1.0306
 7673SOL     OW34651   0.800   1.357   3.874 -0.3997 -1.0186  0.7756
 7673SOL    HW134652   0.838   1.413   3.807  0.1746 -1.4777  0.7248
 7673SOL    HW234653   0.760   1.427   3.926 -0.5211 -1.1156  0.8131
 7674SOL     OW34654   2.595   0.558   7.504 -0.1084 -0.3152  0.3473
 7674SOL    HW134655   2.617   0.636   7.453 -1.6835 -0.5304 -0.6826
 7674SOL    HW234656   2.526   0.595   7.559 -1.4749 -0.1536 -1.4605
 7675SOL     OW34657   0.874   1.271   2.869  0.0139  0.4138 -0.3915
 7675SOL    HW134658   0.812   1.264   2.797 -0.2373 -0.5277 -0.0830
 7675SOL    HW234659   0.917   1.185   2.874  1.3060  1.0222 -0.9626
 7676SOL     OW34660   2.152   4.376  13.573 -0.0067 -0.0206 -0.1350
 7676SOL    HW134661   2.150   4.400  13.666  0.6676 -0.1130 -0.0992
 7676SOL    HW234662   2.115   4.457  13.537 -1.6755 -1.3744 -1.4960
 7677SOL     OW34663   0.810   0.400   5.694  0.4143  0.1941 -0.0471
 7677SOL    HW134664   0.859   0.331   5.650 -0.6842 -0.2753 -0.5431
 7677SOL    HW234665   0.869   0.474   5.685 -0.4770  0.6969 -1.6714
 7678SOL     OW34666   3.981   0.603   6.567  0.1265 -0.4891 -0.0865
 7678SOL    HW134667   3.926   0.627   6.642  0.6481  0.4210  0.0051
 7678SOL    HW234668   4.017   0.687   6.540 -1.1627 -0.2796 -1.1403
 7679SOL     OW34669   3.522   0.117   7.456 -0.1308 -0.1953  0.3012
 7679SOL    HW134670   3.604   0.133   7.501 -0.3206 -0.2251  0.6542
 7679SOL    HW234671   3.496   0.207   7.433  1.8863 -0.4523 -3.0100
 7680SOL     OW34672   1.101   3.145   9.093  0.2225 -0.0484  0.3821
 7680SOL    HW134673   1.013   3.123   9.125 -0.6104 -0.1775 -1.9768
 7680SOL    HW234674   1.129   3.067   9.045  2.5172 -0.1335  1.8369
 7681SOL     OW34675   3.674   0.851   3.264  0.0214  0.5030 -0.5877
 7681SOL    HW134676   3.725   0.855   3.345  0.4028  2.1618 -0.9133
 7681SOL    HW234677   3.591   0.896   3.282 -0.3099  0.3734 -1.7851
 7682SOL     OW34678   1.291   4.635  13.569 -0.8624  0.0583  0.6587
 7682SOL    HW134679   1.309   4.628  13.476 -4.2719  2.0251 -0.1431
 7682SOL    HW234680   1.375   4.677  13.588 -1.0794  1.4419 -1.4710
 7683SOL     OW34681   1.300   2.896   3.642 -0.1315 -0.2473  0.0780
 7683SOL    HW134682   1.235   2.953   3.600 -0.0903  0.1949  0.6228
 7683SOL    HW234683   1.329   2.952   3.713  2.8293  0.0340 -1.3590
 7684SOL     OW34684   4.475   4.455  15.659 -0.1916 -0.0489 -0.0365
 7684SOL    HW134685   4.509   4.376  15.617 -1.9857 -0.9989  0.3244
 7684SOL    HW234686   4.507   4.513  15.590  2.1161 -1.8249 -0.4664
 7685SOL     OW34687   0.003   3.283   7.256  0.3009  0.2828  0.2548
 7685SOL    HW134688   4.726   3.304   7.349  0.5276  1.4382  0.0156
 7685SOL    HW234689   0.011   3.188   7.251  2.1161  0.5216 -1.4523
 7686SOL     OW34690   0.652   4.400  15.103 -0.4036  0.2847  0.2602
 7686SOL    HW134691   0.572   4.349  15.088  0.4630 -1.7684  2.6188
 7686SOL    HW234692   0.673   4.350  15.182  0.7585 -0.9939 -0.8632
 7687SOL     OW34693   4.015   2.323   6.494  0.0432 -0.4163 -0.5410
 7687SOL    HW134694   3.992   2.266   6.568  1.6058 -0.4287 -0.0634
 7687SOL    HW234695   3.972   2.272   6.425  0.4953 -0.7528 -0.5728
 7688SOL     OW34696   0.794   2.220   3.690  0.5332  0.6009  0.1779
 7688SOL    HW134697   0.752   2.272   3.758 -1.1889 -1.7469  0.9258
 7688SOL    HW234698   0.883   2.254   3.698 -0.1370  2.2692  0.5238
 7689SOL     OW34699   0.087   1.743   6.887  0.0891  0.4343 -0.2262
 7689SOL    HW134700   4.727   1.768   6.891 -0.4076 -1.6454  1.3203
 7689SOL    HW234701   0.111   1.732   6.979 -0.2415 -1.5326 -0.3733
 7690SOL     OW34702   3.956   2.529   9.346  0.2814  0.6702  0.3441
 7690SOL    HW134703   3.887   2.545   9.281  0.6976 -1.9802 -0.7633
 7690SOL    HW234704   3.903   2.490   9.415  0.0078  1.5173  0.6090
 7691SOL     OW34705   0.097   3.995   6.269 -0.5736  0.1901  0.2139
 7691SOL    HW134706   0.103   3.899   6.275  1.2092  0.3113  0.4273
 7691SOL    HW234707   0.017   4.017   6.317 -0.4266  0.5757  0.2800
 7692SOL     OW34708   3.295   1.693  10.221 -0.5363  0.0192  1.0248
 7692SOL    HW134709   3.201   1.693  10.235 -0.7371  0.8079 -0.3071
 7692SOL    HW234710   3.324   1.775  10.262 -0.2796  0.5423 -0.2188
 7693SOL     OW34711   2.413   2.401   6.599 -0.1535  1.5260 -0.0185
 7693SOL    HW134712   2.491   2.356   6.564 -1.2040 -1.9979  2.1353
 7693SOL    HW234713   2.398   2.342   6.673 -2.4589  0.5844 -1.2445
 7694SOL     OW34714   2.340   2.999   9.599  0.1292  0.0868 -0.2766
 7694SOL    HW134715   2.398   2.923   9.605 -1.2209 -0.9613 -0.5075
 7694SOL    HW234716   2.259   2.957   9.569  1.1198 -1.9778 -0.0961
 7695SOL     OW34717   4.493   0.798   2.815 -0.1994  0.4431  0.2080
 7695SOL    HW134718   4.410   0.833   2.782  0.7420  2.2471 -0.2896
 7695SOL    HW234719   4.543   0.788   2.734 -2.3378 -1.6564 -0.8510
 7696SOL     OW34720   4.163   2.643  17.255  0.2289 -0.2185 -0.0708
 7696SOL    HW134721   4.143   2.556  17.220  2.4622 -0.6303 -0.2715
 7696SOL    HW234722   4.071   2.666  17.272 -0.5337 -2.4508 -1.1496
 7697SOL     OW34723   2.586   0.081   5.238  0.1709 -0.3500  0.4491
 7697SOL    HW134724   2.576   4.725   5.204 -1.6271 -0.1033  0.3637
 7697SOL    HW234725   2.519   0.078   5.306  0.2003  0.6741  0.5317
 7698SOL     OW34726   4.119   3.965  17.717  0.3939  0.0284  1.0695
 7698SOL    HW134727   4.054   3.895  17.705 -0.1924  0.4070  1.9927
 7698SOL    HW234728   4.084   4.016   0.060 -2.7697  0.5591 -0.8058
 7699SOL     OW34729   2.496   4.380   9.001  0.0018 -0.3249  0.0729
 7699SOL    HW134730   2.409   4.343   9.014  0.1972 -1.3307 -1.4560
 7699SOL    HW234731   2.545   4.356   9.080 -0.1743 -1.9877 -0.3332
 7700SOL     OW34732   2.680   4.028  13.067 -0.1920  0.1448  0.0235
 7700SOL    HW134733   2.744   4.082  13.113  0.2618 -1.1528  0.9173
 7700SOL    HW234734   2.601   4.072  13.097 -1.0831 -1.9765  0.7875
 7701SOL     OW34735   3.381   3.069   0.193 -0.1576 -0.2151 -0.3161
 7701SOL    HW134736   3.332   3.109   0.265 -1.4973  0.4941 -1.6251
 7701SOL    HW234737   3.311   3.069   0.127  0.1515  1.3960 -0.6457
 7702SOL     OW34738   2.485   2.652   7.140  0.3527 -0.0012  0.0851
 7702SOL    HW134739   2.391   2.663   7.155  0.4537 -0.7677  1.2369
 7702SOL    HW234740   2.499   2.605   7.222  0.6732  0.0970  0.0873
 7703SOL     OW34741   3.922   4.188   5.299 -0.1764  0.6392  0.0141
 7703SOL    HW134742   3.964   4.269   5.329  0.2906  0.3118  0.2322
 7703SOL    HW234743   3.829   4.210   5.292 -0.0844  1.1547  0.3641
 7704SOL     OW34744   3.678   3.578   7.862 -0.8281 -0.1034  0.2784
 7704SOL    HW134745   3.705   3.604   7.951 -0.8877  0.7571  0.0421
 7704SOL    HW234746   3.583   3.584   7.867 -0.9751 -0.0533 -2.9243
 7705SOL     OW34747   4.451   0.571   9.395 -0.1553 -0.4283 -0.0536
 7705SOL    HW134748   4.516   0.602   9.332 -1.3000 -0.0828 -1.0758
 7705SOL    HW234749   4.488   0.607   9.475  0.6929  1.1289 -1.1514
 7706SOL     OW34750   3.791   4.209  13.631 -0.0030  0.3695  0.3659
 7706SOL    HW134751   3.845   4.211  13.711  0.5767  0.6374 -0.0307
 7706SOL    HW234752   3.828   4.131  13.589 -4.0562 -1.4926  0.3278
 7707SOL     OW34753   4.244   2.146   9.792  0.1074  0.7056  0.3576
 7707SOL    HW134754   4.232   2.069   9.848  1.3788 -0.2910 -0.7409
 7707SOL    HW234755   4.312   2.127   9.728 -1.3809  1.9045 -1.5630
 7708SOL     OW34756   3.353   2.214  13.678  0.0546  0.1880 -0.7281
 7708SOL    HW134757   3.317   2.134  13.715  0.3435 -1.1667 -3.3355
 7708SOL    HW234758   3.419   2.232  13.744  0.5844  1.4176 -1.5681
 7709SOL     OW34759   1.694   1.845   3.731 -0.8580 -0.2671  0.4512
 7709SOL    HW134760   1.733   1.900   3.662  0.3291  0.0012  1.3363
 7709SOL    HW234761   1.764   1.779   3.730 -0.0752  0.5660  0.3290
 7710SOL     OW34762   0.989   3.327   4.984 -0.6524 -0.0087 -0.1416
 7710SOL    HW134763   0.959   3.238   5.002 -0.7076  0.5206  2.4624
 7710SOL    HW234764   1.078   3.300   4.960 -0.7262  0.8059 -1.3317
 7711SOL     OW34765   3.906   3.019  10.347 -0.6375 -0.5126  0.3859
 7711SOL    HW134766   3.860   2.952  10.297  1.0485 -0.5934 -1.0727
 7711SOL    HW234767   3.835   3.069  10.387 -1.3705 -1.7126  0.5612
 7712SOL     OW34768   3.521   3.396   4.825 -0.0709  0.4980 -0.5451
 7712SOL    HW134769   3.486   3.481   4.852 -0.1695 -0.5684  2.7799
 7712SOL    HW234770   3.485   3.340   4.895  0.5104  1.3304  0.4056
 7713SOL     OW34771   0.660   3.376   8.354  0.1401  0.2386  0.4494
 7713SOL    HW134772   0.635   3.349   8.266 -0.1811 -1.0033  0.9350
 7713SOL    HW234773   0.752   3.396   8.335  0.5426 -0.0894  2.0283
 7714SOL     OW34774   3.159   4.357  12.800 -0.0568 -0.3998  0.0904
 7714SOL    HW134775   3.091   4.330  12.862 -2.1837  2.5035 -0.9854
 7714SOL    HW234776   3.132   4.306  12.724  2.5430 -0.3506 -0.8609
 7715SOL     OW34777   1.673   1.862   5.300 -0.8151 -0.3594  0.6243
 7715SOL    HW134778   1.623   1.788   5.335 -0.2440 -1.8415 -1.7077
 7715SOL    HW234779   1.761   1.826   5.288 -0.1566  0.5722  2.7689
 7716SOL     OW34780   2.375   1.956   3.137 -0.1199 -0.1096 -0.4890
 7716SOL    HW134781   2.398   1.950   3.230  1.0819 -1.1844 -0.8385
 7716SOL    HW234782   2.306   2.022   3.142  0.4192  0.3027  1.3266
 7717SOL     OW34783   3.793   0.967   7.199 -0.2530  0.2794 -0.1735
 7717SOL    HW134784   3.787   0.982   7.105 -0.2180  2.5464  0.1908
 7717SOL    HW234785   3.699   0.969   7.217 -0.2212  0.4265 -0.0214
 7718SOL     OW34786   3.411   4.347  17.188 -0.0690  0.0054  0.0361
 7718SOL    HW134787   3.497   4.380  17.161 -0.1378  1.0441  1.1191
 7718SOL    HW234788   3.381   4.437  17.196 -3.0924 -1.0397  0.4730
 7719SOL     OW34789   3.090   0.229  15.923  0.0959  0.2640 -0.8680
 7719SOL    HW134790   3.051   0.310  15.956  0.9932  0.4945 -0.3788
 7719SOL    HW234791   3.010   0.191  15.886 -0.6510  0.7222  0.2504
 7720SOL     OW34792   2.283   4.089   6.824  0.0913  0.0079  0.1548
 7720SOL    HW134793   2.338   4.133   6.889  1.6052  0.9483 -1.7598
 7720SOL    HW234794   2.334   4.104   6.744  0.6709 -0.8620  0.3703
 7721SOL     OW34795   3.801   0.590  17.230 -0.0744 -0.4193 -0.0677
 7721SOL    HW134796   3.782   0.588  17.324  0.5077 -0.4536  0.0514
 7721SOL    HW234797   3.897   0.587  17.229 -0.0359  0.1580  1.4132
 7722SOL     OW34798   0.285   0.622  14.485 -0.2509 -0.1095 -0.3994
 7722SOL    HW134799   0.325   0.663  14.562  4.0625 -0.7829 -2.2800
 7722SOL    HW234800   0.212   0.572  14.522  0.4452 -0.4296  0.5238
 7723SOL     OW34801   1.848   3.089   0.204  0.2911  0.6849  0.8350
 7723SOL    HW134802   1.804   3.137   0.274  1.8532 -0.3564  2.5497
 7723SOL    HW234803   1.902   3.157   0.163  2.5540 -1.0479  0.8960
 7724SOL     OW34804   0.503   0.480   4.579  0.0362  0.4690  0.1342
 7724SOL    HW134805   0.418   0.476   4.623 -0.1398  2.3272 -0.0163
 7724SOL    HW234806   0.496   0.399   4.530  1.0430  0.6907 -0.3667
 7725SOL     OW34807   0.742   1.635  17.180 -0.0655  0.5157  0.0328
 7725SOL    HW134808   0.689   1.640  17.260  0.5709 -1.8609  0.6248
 7725SOL    HW234809   0.687   1.675  17.113  1.6987  2.8775  0.0040
 7726SOL     OW34810   0.260   2.923   9.505  0.3442 -0.1604  0.3098
 7726SOL    HW134811   0.257   2.828   9.491  0.9248 -0.1589  0.1774
 7726SOL    HW234812   0.346   2.925   9.548  0.3786 -2.8423  0.3950
 7727SOL     OW34813   3.367   4.396   3.976 -0.0603  0.2634 -0.0457
 7727SOL    HW134814   3.360   4.474   3.920  1.0129  0.8591  0.6531
 7727SOL    HW234815   3.293   4.406   4.036 -0.9917  2.9173 -1.5924
 7728SOL     OW34816   2.704   4.038   8.922  0.3190  0.6867  1.2557
 7728SOL    HW134817   2.667   3.950   8.925  4.0080 -0.9120 -0.8145
 7728SOL    HW234818   2.682   4.068   8.834 -2.5760 -0.7173  1.5002
 7729SOL     OW34819   1.993   0.836   7.481  0.1843 -0.1552 -0.5212
 7729SOL    HW134820   1.973   0.771   7.549  0.7120 -0.3664 -0.5638
 7729SOL    HW234821   1.926   0.834   7.413 -1.3361 -1.7575  1.0185
 7730SOL     OW34822   4.233   2.255   5.076  0.2124 -0.2029 -0.4183
 7730SOL    HW134823   4.324   2.265   5.105  0.0875  1.6939 -0.7159
 7730SOL    HW234824   4.192   2.336   5.105 -0.1531  0.1031 -1.8141
 7731SOL     OW34825   1.816   4.295  10.517  0.2384  1.0765  0.0464
 7731SOL    HW134826   1.831   4.208  10.556  2.3081  1.0891 -0.7393
 7731SOL    HW234827   1.895   4.296  10.463  0.9915 -0.7784  1.0992
 7732SOL     OW34828   4.537   1.422   7.236  0.8426 -0.0305 -0.0477
 7732SOL    HW134829   4.486   1.394   7.160 -0.9984  4.7009 -0.5680
 7732SOL    HW234830   4.459   1.418   7.292 -0.3683  0.1498 -1.7227
 7733SOL     OW34831   1.794   1.454   2.883 -0.3542 -0.6826  0.4880
 7733SOL    HW134832   1.772   1.491   2.797  2.1013 -1.4413 -0.4607
 7733SOL    HW234833   1.865   1.395   2.859 -1.7161 -1.2814 -1.9946
 7734SOL     OW34834   2.593   3.190  10.371 -0.3444 -0.1043  0.3270
 7734SOL    HW134835   2.562   3.271  10.411 -1.7770 -0.0270 -0.9508
 7734SOL    HW234836   2.622   3.140  10.448 -0.4889 -0.9698 -0.1816
 7735SOL     OW34837   3.097   1.934   2.897 -0.1912  0.5377  0.3721
 7735SOL    HW134838   3.104   1.838   2.897 -1.0669  0.4732  1.7064
 7735SOL    HW234839   3.186   1.965   2.913 -0.0426  1.7448 -2.8022
 7736SOL     OW34840   2.225   2.198  16.771 -0.2009 -0.0413 -0.4387
 7736SOL    HW134841   2.133   2.219  16.758 -0.5935 -0.7605  1.2110
 7736SOL    HW234842   2.211   2.105  16.788  0.1743 -0.1739 -0.8427
 7737SOL     OW34843   3.060   2.205   9.128 -0.0246 -0.2692  0.3119
 7737SOL    HW134844   3.029   2.179   9.214  0.6258  2.4428  1.3721
 7737SOL    HW234845   3.031   2.296   9.138  0.6755 -0.2022  1.7549
 7738SOL     OW34846   1.991   2.924   2.172  0.1003 -0.1691 -0.7714
 7738SOL    HW134847   1.989   2.852   2.109  0.0773 -0.2648 -0.6635
 7738SOL    HW234848   1.901   2.926   2.203  0.5375 -2.2945  0.6919
 7739SOL     OW34849   0.415   2.103   6.151 -0.1190  0.0512  0.2627
 7739SOL    HW134850   0.479   2.075   6.086  1.2203 -0.5194  1.8442
 7739SOL    HW234851   0.464   2.089   6.232  0.8318 -1.2255 -0.5380
 7740SOL     OW34852   1.941   3.818   9.531 -0.4468  0.4932  0.3909
 7740SOL    HW134853   1.987   3.791   9.452 -0.1124  0.6933  0.5185
 7740SOL    HW234854   1.880   3.744   9.535  1.4613 -1.1432 -1.0655
 7741SOL     OW34855   3.118   0.951   4.675  0.3403 -0.2547 -0.0719
 7741SOL    HW134856   3.035   0.949   4.628  0.4549 -2.5021 -0.1935
 7741SOL    HW234857   3.110   0.874   4.731  1.4247 -0.7904 -0.6418
 7742SOL     OW34858   0.348   2.806  15.503 -0.1465 -0.2974  0.0207
 7742SOL    HW134859   0.318   2.783  15.591 -0.6698 -0.7193 -0.2741
 7742SOL    HW234860   0.272   2.855  15.470  0.5371  0.0094 -1.1094
 7743SOL     OW34861   3.580   4.210   6.334 -0.0658 -0.3249  0.1888
 7743SOL    HW134862   3.670   4.229   6.311 -0.7551  1.7850 -0.7598
 7743SOL    HW234863   3.597   4.203   6.428  1.2871  0.4052 -0.0003
 7744SOL     OW34864   4.128   4.549  14.297 -1.0558  0.4902 -0.4327
 7744SOL    HW134865   4.067   4.589  14.236 -1.7312 -1.2194 -0.8628
 7744SOL    HW234866   4.077   4.556  14.378  1.4515  2.0705  1.0200
 7745SOL     OW34867   2.025   1.431  17.585 -0.5058  0.0854  0.0153
 7745SOL    HW134868   1.984   1.506  17.543 -3.1852 -1.0073  0.6490
 7745SOL    HW234869   2.030   1.466  17.674 -1.6361  1.6852 -0.5573
 7746SOL     OW34870   4.429   3.231   3.677  0.4046 -0.5358 -0.0568
 7746SOL    HW134871   4.516   3.205   3.710  0.4546 -0.3018 -0.0051
 7746SOL    HW234872   4.383   3.274   3.749  1.3905 -2.5704  1.8215
 7747SOL     OW34873   1.939   3.092   7.690 -0.2918 -0.0783 -0.4793
 7747SOL    HW134874   1.991   3.147   7.632 -0.5059  1.2798  0.6092
 7747SOL    HW234875   1.861   3.148   7.701  0.0220  0.8342 -2.7987
 7748SOL     OW34876   3.459   1.631   0.254  0.4790  0.3779  0.2175
 7748SOL    HW134877   3.474   1.726   0.256  0.4192  0.3334  3.5303
 7748SOL    HW234878   3.548   1.606   0.228 -0.8667  0.0886 -4.1048
 7749SOL     OW34879   0.174   2.098   9.579  0.1679 -0.1792 -0.1432
 7749SOL    HW134880   0.090   2.104   9.534  0.2828  0.1923 -0.3135
 7749SOL    HW234881   0.145   2.123   9.667  1.3802 -2.4820  0.9092
 7750SOL     OW34882   4.328   3.463   4.399  0.1140  0.0295  0.1005
 7750SOL    HW134883   4.398   3.481   4.336  2.1149  1.4167  2.7381
 7750SOL    HW234884   4.288   3.386   4.358  0.7656 -0.8952  1.1871
 7751SOL     OW34885   1.400   3.205   9.853 -0.3976 -0.2438 -0.3237
 7751SOL    HW134886   1.442   3.119   9.856  2.5302  1.2962  3.4425
 7751SOL    HW234887   1.445   3.253   9.783 -0.8289  0.1465 -0.3335
 7752SOL     OW34888   4.291   1.234   4.803 -0.5250  0.3186 -0.3779
 7752SOL    HW134889   4.221   1.235   4.869  0.3967 -0.4834  0.6221
 7752SOL    HW234890   4.250   1.304   4.752 -2.0958 -0.0253  0.4116
 7753SOL     OW34891   3.561   2.724   3.996 -1.0405 -0.7120  0.7158
 7753SOL    HW134892   3.636   2.689   4.044  1.1341 -0.1694 -2.2689
 7753SOL    HW234893   3.567   2.814   4.026 -0.6794 -0.2101 -0.9000
 7754SOL     OW34894   1.134   3.562   5.902 -0.2809  0.0370 -0.8931
 7754SOL    HW134895   1.069   3.504   5.942  0.4987  0.2431  0.6743
 7754SOL    HW234896   1.199   3.567   5.972 -0.1768 -0.9967 -0.9180
 7755SOL     OW34897   4.643   1.898   9.448 -0.4112 -0.1771  0.8512
 7755SOL    HW134898   4.593   1.824   9.412 -0.4070  0.1732  0.1143
 7755SOL    HW234899   4.587   1.919   9.523 -0.3548  0.2230  0.7786
 7756SOL     OW34900   3.616   2.453   6.266 -0.3667 -0.4481 -0.2541
 7756SOL    HW134901   3.626   2.544   6.293 -0.3728 -0.4076 -0.3864
 7756SOL    HW234902   3.648   2.398   6.338  0.0265  1.9353  1.3642
 7757SOL     OW34903   3.516   3.828   1.717  0.4743 -0.0040 -0.0782
 7757SOL    HW134904   3.456   3.782   1.658  0.1435 -0.4731  0.6196
 7757SOL    HW234905   3.482   3.917   1.711  0.9526  0.1725 -0.1593
 7758SOL     OW34906   0.667   4.150   3.247  0.1176 -0.0547 -0.0205
 7758SOL    HW134907   0.616   4.155   3.328  1.6742 -2.0577  1.0771
 7758SOL    HW234908   0.626   4.080   3.198 -1.5436  1.3773 -0.6597
 7759SOL     OW34909   0.119   0.880   9.299 -0.3059 -0.2348 -0.5038
 7759SOL    HW134910   0.089   0.963   9.336 -0.7586 -0.8865  0.5990
 7759SOL    HW234911   0.177   0.911   9.230 -1.9341  0.5575 -1.5357
 7760SOL     OW34912   4.703   0.575   8.767  0.7066  0.2815 -0.2610
 7760SOL    HW134913   0.012   0.506   8.820  1.3818  0.9648  0.0936
 7760SOL    HW234914   4.615   0.537   8.774  0.1340  1.5467 -0.7175
 7761SOL     OW34915   2.149   3.448   3.469 -0.3919  0.4228 -0.2837
 7761SOL    HW134916   2.161   3.385   3.398 -0.9615 -1.4195  1.2485
 7761SOL    HW234917   2.077   3.505   3.441  2.0321  3.7694  0.2851
 7762SOL     OW34918   1.743   2.234  16.973  1.1045 -0.0849 -0.5729
 7762SOL    HW134919   1.758   2.148  16.932  0.0872 -0.6948  0.3207
 7762SOL    HW234920   1.663   2.269  16.935  0.5510 -0.6153  0.1088
 7763SOL     OW34921   2.778   1.744  11.456 -0.2750 -0.6358 -0.4352
 7763SOL    HW134922   2.803   1.808  11.390 -2.3038  2.1841  1.4974
 7763SOL    HW234923   2.849   1.682  11.441  0.2766 -0.2643  0.6265
 7764SOL     OW34924   2.830   2.919   8.783  0.0203 -0.5540  0.5179
 7764SOL    HW134925   2.811   2.835   8.824  1.0875 -0.8580  0.3842
 7764SOL    HW234926   2.924   2.915   8.800 -0.2523  0.7944  2.4201
 7765SOL     OW34927   4.603   3.075  10.393  0.0260 -0.2260  0.0215
 7765SOL    HW134928   4.512   3.051  10.414 -0.5645  1.8201 -0.1534
 7765SOL    HW234929   4.615   3.039  10.306 -1.2797  1.7897 -1.0058
 7766SOL     OW34930   2.231   3.110  17.084 -0.5595  0.3201 -0.0321
 7766SOL    HW134931   2.196   3.056  17.014 -0.7101 -2.0239  1.8540
 7766SOL    HW234932   2.235   3.202  17.056  2.1641 -0.3689 -1.9561
 7767SOL     OW34933   2.179   3.016   6.651  0.2735 -0.3909  0.6632
 7767SOL    HW134934   2.230   2.934   6.655  0.5464 -0.2093  0.8796
 7767SOL    HW234935   2.091   2.990   6.625  0.4324 -0.4360  0.1537
 7768SOL     OW34936   3.752   3.644   5.914 -0.2562 -0.3258  0.3413
 7768SOL    HW134937   3.760   3.636   5.818  1.2313 -1.4162  0.5391
 7768SOL    HW234938   3.827   3.699   5.935 -0.4336  0.1731 -0.3375
 7769SOL     OW34939   3.908   3.665  16.274  0.0326 -0.4559  0.0957
 7769SOL    HW134940   3.950   3.722  16.209 -1.1554 -0.0967 -0.3459
 7769SOL    HW234941   3.941   3.581  16.241 -1.6316 -0.5971 -1.1968
 7770SOL     OW34942   2.526   3.108  15.952  0.3115  0.3207 -0.0112
 7770SOL    HW134943   2.509   3.104  15.858  1.9087 -1.9367 -0.2118
 7770SOL    HW234944   2.530   3.200  15.976 -0.2003  0.9731 -2.4714
 7771SOL     OW34945   0.567   3.372   9.368  0.7707 -0.1613  0.1531
 7771SOL    HW134946   0.617   3.320   9.432  0.6954  0.6096  0.8310
 7771SOL    HW234947   0.484   3.397   9.407  0.9714 -0.4521  0.7667
 7772SOL     OW34948   2.476   0.746   7.061 -0.1868  0.0721 -0.1880
 7772SOL    HW134949   2.558   0.697   7.065  1.0421  2.1058 -0.2320
 7772SOL    HW234950   2.500   0.833   7.030  1.2764 -1.5333 -3.5617
 7773SOL     OW34951   4.205   2.987  14.804  0.0236 -0.0942  0.0786
 7773SOL    HW134952   4.128   2.931  14.799  0.6775 -0.8740 -1.2239
 7773SOL    HW234953   4.179   3.071  14.765  1.8133  0.8839  0.9713
 7774SOL     OW34954   0.142   2.425   9.394  0.7492  0.2153  0.1776
 7774SOL    HW134955   0.099   2.384   9.468 -0.3560  0.2873 -0.4237
 7774SOL    HW234956   0.088   2.403   9.318  3.0440  0.3157 -1.5214
 7775SOL     OW34957   4.584   0.885   4.299 -0.3332  0.1656 -0.1731
 7775SOL    HW134958   4.554   0.822   4.365  0.3615 -0.0311 -0.0390
 7775SOL    HW234959   4.653   0.937   4.341  1.1553  1.1976 -3.9315
 7776SOL     OW34960   3.503   1.619   4.392  0.1103  0.3806 -0.5115
 7776SOL    HW134961   3.553   1.697   4.370  3.1051 -1.2032  0.6711
 7776SOL    HW234962   3.572   1.568   4.433 -1.9892  0.1622  2.7649
 7777SOL     OW34963   3.233   0.065   5.554 -0.4955  0.3686  0.0291
 7777SOL    HW134964   3.168   0.131   5.580 -1.3850 -1.2766  1.9595
 7777SOL    HW234965   3.176   0.026   5.489  0.1679 -0.8873  0.1973
 7778SOL     OW34966   1.030   1.449   7.629 -0.3792  0.5879 -0.0164
 7778SOL    HW134967   1.116   1.488   7.616 -0.8708  2.2935  2.0047
 7778SOL    HW234968   0.969   1.506   7.581  1.7129  0.9246 -2.2814
 7779SOL     OW34969   3.131   3.652   7.567 -0.1153 -0.3573 -0.4013
 7779SOL    HW134970   3.097   3.662   7.477  0.4476 -1.1527 -0.7013
 7779SOL    HW234971   3.134   3.557   7.575  0.7233 -0.4485 -1.7739
 7780SOL     OW34972   1.165   4.429   9.713 -0.3333 -0.1057 -0.3123
 7780SOL    HW134973   1.250   4.469   9.694 -0.2434  0.7047  1.7750
 7780SOL    HW234974   1.103   4.502   9.719 -0.6855 -0.6113  2.2233
 7781SOL     OW34975   2.101   0.078   4.843 -0.1520  0.4353  0.2500
 7781SOL    HW134976   2.081   0.172   4.837  1.4903  0.8355  0.9840
 7781SOL    HW234977   2.161   0.084   4.918 -1.6887  2.4734  1.3240
 7782SOL     OW34978   3.548   2.370   8.174  0.1585 -0.0049 -0.2630
 7782SOL    HW134979   3.541   2.457   8.213  1.6897 -1.6241  3.6475
 7782SOL    HW234980   3.457   2.357   8.150  0.4642  0.7298 -1.8548
 7783SOL     OW34981   0.044   3.909   7.771 -0.5131 -0.4780  0.0361
 7783SOL    HW134982   0.118   3.876   7.720 -1.5194 -1.6734 -0.6612
 7783SOL    HW234983   0.076   3.900   7.861 -0.7720 -2.7821 -0.0815
 7784SOL     OW34984   0.636   1.320   5.669 -0.1286 -0.3738 -0.0059
 7784SOL    HW134985   0.593   1.273   5.598 -0.9237  0.5118 -0.1094
 7784SOL    HW234986   0.567   1.317   5.735 -1.5900 -0.3396 -1.5233
 7785SOL     OW34987   0.782   3.123  14.781 -0.2158 -0.0622 -0.1918
 7785SOL    HW134988   0.734   3.173  14.847  0.8060 -1.0954  1.3266
 7785SOL    HW234989   0.706   3.078  14.745  1.0064 -0.0840 -2.7801
 7786SOL     OW34990   4.517   1.888  12.392 -0.9326 -0.2211 -0.0384
 7786SOL    HW134991   4.579   1.815  12.387 -3.2473 -2.1637 -0.1537
 7786SOL    HW234992   4.557   1.963  12.347  0.0457 -1.0792 -0.6074
 7787SOL     OW34993   1.560   2.436   3.626  0.0656  0.0174  0.0861
 7787SOL    HW134994   1.548   2.383   3.705 -0.8563  0.3900  0.1897
 7787SOL    HW234995   1.486   2.496   3.632 -2.2177 -2.7838  0.1199
 7788SOL     OW34996   3.327   4.620   8.493 -0.1311 -0.0427 -0.1910
 7788SOL    HW134997   3.347   4.528   8.510 -0.8020 -0.0598  0.4915
 7788SOL    HW234998   3.355   4.647   8.581  0.7517 -0.0263 -0.4749
 7789SOL     OW34999   0.836   3.479   6.296  0.4650  0.4903 -0.0815
 7789SOL    HW135000   0.770   3.411   6.308  0.8893 -0.2308 -1.8567
 7789SOL    HW235001   0.844   3.481   6.201 -0.3098 -1.1261 -0.1722
 7790SOL     OW35002   0.452   1.147   6.864  0.0318 -0.6548  0.2551
 7790SOL    HW135003   0.380   1.201   6.895 -1.2404  0.1452 -4.1095
 7790SOL    HW235004   0.531   1.193   6.891  0.2171 -1.3189  0.8376
 7791SOL     OW35005   4.621   0.709  12.263  0.0173 -0.2374  0.3475
 7791SOL    HW135006   4.531   0.687  12.289 -0.2857 -0.1447 -0.6155
 7791SOL    HW235007   4.622   0.785  12.320  2.9914 -0.2196  0.2389
 7792SOL     OW35008   3.972   4.412  11.143 -0.5029 -0.5039 -0.0285
 7792SOL    HW135009   4.003   4.375  11.226 -1.6767 -0.4354  0.4417
 7792SOL    HW235010   3.924   4.332  11.123 -2.5255  0.7317 -0.0897
 7793SOL     OW35011   2.564   0.843   9.627  0.0554 -0.3100  0.3796
 7793SOL    HW135012   2.632   0.777   9.623  0.2161 -0.0347 -1.2035
 7793SOL    HW235013   2.583   0.875   9.716 -4.5325  1.1001  0.8648
 7794SOL     OW35014   1.563   1.306   4.133 -0.0237  0.1271  0.3153
 7794SOL    HW135015   1.513   1.371   4.183  1.0146  1.1835 -0.0328
 7794SOL    HW235016   1.648   1.348   4.126  1.1148 -2.4433 -1.0574
 7795SOL     OW35017   0.909   4.190   1.553  0.3215  0.1417  0.2339
 7795SOL    HW135018   0.979   4.255   1.554  1.4639 -1.1126  1.7775
 7795SOL    HW235019   0.887   4.177   1.461  2.2398 -1.0278 -0.0691
 7796SOL     OW35020   1.604   1.618   7.843  0.0942 -0.2706 -0.2341
 7796SOL    HW135021   1.536   1.553   7.828  1.0946 -0.7309 -2.7764
 7796SOL    HW235022   1.577   1.670   7.919 -1.9332  0.2881 -1.3486
 7797SOL     OW35023   2.953   4.650   3.138  0.0678  0.6364 -0.0921
 7797SOL    HW135024   3.018   4.602   3.188 -1.4485  0.2182  1.4929
 7797SOL    HW235025   2.954   4.608   3.052 -1.6010 -1.1905  0.7873
 7798SOL     OW35026   4.048   1.013   9.157 -0.4016  0.2417 -0.7086
 7798SOL    HW135027   4.035   1.077   9.087 -0.0245 -0.1113 -1.1058
 7798SOL    HW235028   3.998   0.940   9.120 -1.0019  1.2734 -1.8837
 7799SOL     OW35029   4.183   4.364   4.766 -0.7918  0.1794 -0.2936
 7799SOL    HW135030   4.139   4.307   4.703  2.9913 -1.6386 -1.2916
 7799SOL    HW235031   4.268   4.386   4.728 -0.1666  0.0907  1.0644
 7800SOL     OW35032   3.331   4.582   1.994 -0.5919 -0.0314  0.5515
 7800SOL    HW135033   3.270   4.640   2.040  0.0571  1.4340 -0.4583
 7800SOL    HW235034   3.271   4.516   1.957 -0.0198 -0.4073  0.2984
 7801SOL     OW35035   3.347   2.320  16.840 -0.1147  0.2553  0.1648
 7801SOL    HW135036   3.267   2.268  16.838 -0.0890  0.3538 -3.1770
 7801SOL    HW235037   3.405   2.244  16.828  0.3860  0.4653  1.2841
 7802SOL     OW35038   0.892   4.490   2.836  0.1631 -0.7045  0.2989
 7802SOL    HW135039   0.815   4.492   2.779 -0.1808  2.2244  0.8317
 7802SOL    HW235040   0.878   4.409   2.884  1.2321 -1.0487  0.0311
 7803SOL     OW35041   0.015   2.834   7.668 -0.1130  0.0295  0.4392
 7803SOL    HW135042   0.029   2.904   7.732  2.0741 -0.6083  0.6431
 7803SOL    HW235043   4.653   2.843   7.655 -0.3181 -1.0442  1.2319
 7804SOL     OW35044   1.442   3.100  14.419  0.4400  0.1887  0.2752
 7804SOL    HW135045   1.445   3.170  14.484  0.8341  0.5241 -0.1073
 7804SOL    HW235046   1.470   3.030  14.478  0.0639  0.3330  0.6249
 7805SOL     OW35047   4.294   2.712  12.268 -0.2019 -0.5479  0.0717
 7805SOL    HW135048   4.353   2.747  12.202 -1.5803 -0.9119 -1.3534
 7805SOL    HW235049   4.352   2.701  12.343  0.2581  0.9736 -0.0633
 7806SOL     OW35050   4.477   1.940   7.479  0.4321 -0.5548 -0.2533
 7806SOL    HW135051   4.503   1.859   7.435 -1.2290 -1.0395 -0.3485
 7806SOL    HW235052   4.554   1.977   7.522  2.8427 -1.5534 -3.7353
 7807SOL     OW35053   2.239   1.829   4.022 -0.4805  0.3443 -0.0215
 7807SOL    HW135054   2.281   1.910   4.050  0.7643 -0.9427  1.7582
 7807SOL    HW235055   2.294   1.777   3.963 -1.1754 -1.1107  0.6231
 7808SOL     OW35056   4.260   2.895  17.284 -0.0681  0.8453 -0.1699
 7808SOL    HW135057   4.240   2.939  17.201  1.3201 -1.2183 -1.5982
 7808SOL    HW235058   4.225   2.806  17.288  0.3704  0.5989 -1.8387
 7809SOL     OW35059   3.279   1.665   4.818  0.2700  0.3834 -0.0707
 7809SOL    HW135060   3.277   1.753   4.856 -0.2523  0.4713 -0.3141
 7809SOL    HW235061   3.187   1.646   4.835  0.1067  0.7012 -0.5939
 7810SOL     OW35062   0.122   2.425  14.333  0.0198  0.1951 -0.4370
 7810SOL    HW135063   0.199   2.370  14.342 -0.4668 -0.4675 -0.3033
 7810SOL    HW235064   0.079   2.362  14.275 -1.0776 -1.8419  2.5602
 7811SOL     OW35065   2.642   4.030  12.529 -0.0696 -0.6991 -0.5409
 7811SOL    HW135066   2.642   3.935  12.516 -0.1575 -0.5727 -1.4539
 7811SOL    HW235067   2.714   4.038  12.591  0.4524  0.8937 -1.3434
 7812SOL     OW35068   2.197   1.499   0.979 -0.1710 -0.2279 -0.0611
 7812SOL    HW135069   2.170   1.497   1.070 -0.0189 -0.0259 -0.0110
 7812SOL    HW235070   2.111   1.491   0.938  0.8760 -0.8913 -2.1220
 7813SOL     OW35071   1.370   2.409   4.238 -0.3374 -0.2580 -0.1146
 7813SOL    HW135072   1.453   2.407   4.190  0.9665  2.3331  2.0569
 7813SOL    HW235073   1.309   2.393   4.166 -0.4166  0.3546 -0.1831
 7814SOL     OW35074   0.337   4.512   5.970  0.3687 -0.2129  0.0474
 7814SOL    HW135075   0.326   4.599   5.931 -2.5114  0.2674  1.9649
 7814SOL    HW235076   0.338   4.533   6.064  0.1474 -0.1622  0.0372
 7815SOL     OW35077   1.412   3.948   3.590 -0.7470  0.3215  0.5180
 7815SOL    HW135078   1.424   3.899   3.671 -0.1232 -3.2032 -1.7223
 7815SOL    HW235079   1.339   4.008   3.610 -1.8788 -1.4682  1.7672
 7816SOL     OW35080   1.161   3.513  13.217  0.3340 -0.2446  0.3501
 7816SOL    HW135081   1.194   3.550  13.299 -1.7643 -1.1302  1.5738
 7816SOL    HW235082   1.209   3.574  13.160  0.5778  0.0444  0.8647
 7817SOL     OW35083   1.636   4.181   6.289  0.0176  0.0112  0.6018
 7817SOL    HW135084   1.671   4.097   6.318 -0.8827  0.5723  3.3483
 7817SOL    HW235085   1.652   4.183   6.195 -0.4593 -0.3522  0.5117
 7818SOL     OW35086   1.213   4.295  16.192 -0.6441 -0.4458 -0.2150
 7818SOL    HW135087   1.294   4.264  16.151  0.1073  2.3272 -0.8548
 7818SOL    HW235088   1.256   4.309  16.277  0.0052  0.4523 -0.6801
 7819SOL     OW35089   0.128   1.663   5.448 -0.1194 -0.0367 -0.4915
 7819SOL    HW135090   0.218   1.637   5.469 -0.1223 -0.2192 -0.7022
 7819SOL    HW235091   0.095   1.684   5.535 -0.4360 -1.2252 -0.3215
 7820SOL     OW35092   2.337   4.452   6.909 -0.0296  0.3590  0.3663
 7820SOL    HW135093   2.300   4.382   6.963 -0.7441 -0.5756 -1.3203
 7820SOL    HW235094   2.429   4.437   6.928  0.2803  1.1546 -0.4884
 7821SOL     OW35095   4.438   4.319   8.750 -0.1932  0.4886 -0.3421
 7821SOL    HW135096   4.430   4.382   8.821  1.6682 -0.3989  0.6691
 7821SOL    HW235097   4.510   4.268   8.786  0.2738  0.8180 -0.8100
 7822SOL     OW35098   3.232   0.630   4.579 -0.2190 -0.4596  0.4545
 7822SOL    HW135099   3.289   0.689   4.630 -1.4668  1.9106 -0.8901
 7822SOL    HW235100   3.279   0.549   4.597 -0.5096 -1.2405 -2.3310
 7823SOL     OW35101   3.259   3.531   8.807  0.2910  0.1368 -0.1403
 7823SOL    HW135102   3.218   3.608   8.766  1.1448  0.0079 -1.2456
 7823SOL    HW235103   3.293   3.491   8.727  2.3267  1.3069  0.1397
 7824SOL     OW35104   2.533   4.191   6.806  0.1427 -0.1606  1.0555
 7824SOL    HW135105   2.564   4.245   6.879  0.6628  0.7897  0.1384
 7824SOL    HW235106   2.580   4.232   6.733 -1.3715 -0.2295  0.0521
 7825SOL     OW35107   3.740   0.654  17.533  0.1108 -0.0023 -0.0327
 7825SOL    HW135108   3.751   0.560  17.549 -2.8383 -0.2694  0.4197
 7825SOL    HW235109   3.783   0.693  17.609 -2.0765  0.9503  0.7022
 7826SOL     OW35110   3.664   4.129   7.423 -0.0771  0.6568  0.0070
 7826SOL    HW135111   3.677   4.147   7.330  0.9801  2.7015  0.5658
 7826SOL    HW235112   3.697   4.039   7.426  1.3243  1.1769  0.2840
 7827SOL     OW35113   4.656   2.769   5.320 -0.4563  0.5616  0.3644
 7827SOL    HW135114   4.678   2.802   5.233 -2.3140  2.8539  0.7851
 7827SOL    HW235115   4.569   2.733   5.303 -1.0669  1.1189  2.3262
 7828SOL     OW35116   0.462   1.295   5.895 -0.2122 -0.3563  0.5887
 7828SOL    HW135117   0.388   1.238   5.874 -0.1974 -0.4372  0.7597
 7828SOL    HW235118   0.506   1.250   5.966  1.4037  0.2515 -0.0365
 7829SOL     OW35119   3.666   2.689   3.746 -0.1548  0.2172  0.3634
 7829SOL    HW135120   3.725   2.763   3.734  0.2957 -0.7887 -3.5665
 7829SOL    HW235121   3.627   2.705   3.832 -3.4940 -1.0221 -0.8957
 7830SOL     OW35122   3.635   4.591   3.944 -0.2919  0.8065  0.1422
 7830SOL    HW135123   3.572   4.663   3.955  0.5067  1.5805 -0.4527
 7830SOL    HW235124   3.668   4.583   4.034 -1.8012  1.1798  0.7374
 7831SOL     OW35125   0.834   0.149  17.211  0.3947 -0.1113 -0.2647
 7831SOL    HW135126   0.764   0.166  17.147  0.5163 -1.8168 -0.8444
 7831SOL    HW235127   0.787   0.159  17.294  0.2309 -0.5238 -0.3054
 7832SOL     OW35128   3.308   2.700   5.043 -0.0795  0.0965 -0.1069
 7832SOL    HW135129   3.333   2.774   5.098  1.4798  0.3059 -1.1020
 7832SOL    HW235130   3.387   2.672   4.997  0.6818  0.8519  0.7321
 7833SOL     OW35131   2.653   2.381  12.920 -0.4994  0.5725  0.0373
 7833SOL    HW135132   2.702   2.416  12.995 -1.2811  0.9837  0.3557
 7833SOL    HW235133   2.725   2.358  12.861  0.9240  0.1910  1.9156
 7834SOL     OW35134   0.795   4.616   0.989 -0.1826  0.0629  0.3867
 7834SOL    HW135135   0.888   4.636   0.979 -0.5862  2.7326  1.7884
 7834SOL    HW235136   0.773   4.656   1.074 -1.5392 -0.3580  0.2347
 7835SOL     OW35137   4.442   4.261   2.823  0.1590  0.0860  0.5795
 7835SOL    HW135138   4.381   4.324   2.785 -1.2318 -2.3855 -1.1982
 7835SOL    HW235139   4.515   4.276   2.763 -1.0673  1.9318 -0.4691
 7836SOL     OW35140   1.294   2.592   9.608 -0.3778 -0.3872  0.2502
 7836SOL    HW135141   1.227   2.535   9.569 -0.7429  0.1006  0.1545
 7836SOL    HW235142   1.335   2.629   9.530 -4.4115  1.8916 -0.8219
 7837SOL     OW35143   3.436   3.313   5.512  0.5415  0.4762 -0.0425
 7837SOL    HW135144   3.352   3.347   5.483  0.4141 -1.1550 -1.6206
 7837SOL    HW235145   3.409   3.221   5.519 -0.2912  0.8049  1.1004
 7838SOL     OW35146   4.725   1.009  12.205  0.1172  0.3259  0.5084
 7838SOL    HW135147   4.659   0.986  12.271 -1.0665  0.9616 -0.4311
 7838SOL    HW235148   0.005   1.103  12.214  2.4127  0.1865 -1.2751
 7839SOL     OW35149   4.308   0.510   4.235 -0.1161  0.5523  0.3349
 7839SOL    HW135150   4.373   0.511   4.165  0.3337 -1.0092  0.7369
 7839SOL    HW235151   4.223   0.516   4.191 -0.4675  3.0642  1.3733
 7840SOL     OW35152   2.475   2.731   4.921  0.3440 -0.2474 -0.0854
 7840SOL    HW135153   2.549   2.712   4.979  0.6298  4.0631  0.9426
 7840SOL    HW235154   2.430   2.804   4.962 -0.5772 -0.4981 -0.6643
 7841SOL     OW35155   2.939   3.963   8.264  0.7173 -0.2619 -0.3318
 7841SOL    HW135156   2.882   3.997   8.195 -0.3301  0.1078  0.7150
 7841SOL    HW235157   2.963   3.883   8.217 -1.8297 -0.0723 -1.9320
 7842SOL     OW35158   0.963   4.550   2.440  0.6298  0.5390  0.5907
 7842SOL    HW135159   1.037   4.513   2.392 -1.4055 -1.5009 -0.9839
 7842SOL    HW235160   0.947   4.634   2.398  2.3346  1.8895  2.6915
 7843SOL     OW35161   3.621   3.095   3.735 -0.2706  0.1446  0.0855
 7843SOL    HW135162   3.606   3.124   3.645  1.5619  0.7511 -0.0304
 7843SOL    HW235163   3.667   3.173   3.766 -1.9403  0.8650  0.7345
 7844SOL     OW35164   4.259   0.857   1.002 -0.0588 -0.2961 -0.2376
 7844SOL    HW135165   4.269   0.764   1.024 -2.5729 -0.2797  1.0234
 7844SOL    HW235166   4.196   0.894   1.064  0.0990  0.2668 -0.4146
 7845SOL     OW35167   2.077   0.785   4.539  0.2440 -0.3998  0.2436
 7845SOL    HW135168   2.043   0.822   4.458  0.0917 -1.0200  0.0182
 7845SOL    HW235169   2.143   0.849   4.565 -0.4993 -0.4388  2.2105
 7846SOL     OW35170   0.077   0.483  15.240  0.0504 -0.3742  0.1973
 7846SOL    HW135171   0.090   0.392  15.266 -1.3311 -0.6167  0.0662
 7846SOL    HW235172   0.117   0.484  15.153 -0.7079 -2.0445 -0.1746
 7847SOL     OW35173   4.588   1.270   5.620 -0.3802  0.2403  0.5471
 7847SOL    HW135174   4.626   1.245   5.536 -0.1187  1.3500  0.3302
 7847SOL    HW235175   4.495   1.281   5.604 -0.2243  2.0454  0.8578
 7848SOL     OW35176   1.932   4.504   3.816  0.0793  0.5466 -0.3143
 7848SOL    HW135177   1.908   4.430   3.871 -2.4670  1.0342 -0.7757
 7848SOL    HW235178   1.872   4.565   3.860 -0.1301 -0.5381  0.9159
 7849SOL     OW35179   4.166   2.495   9.151 -0.5538  0.2677  0.6596
 7849SOL    HW135180   4.244   2.526   9.197  0.4447 -1.7977  0.3401
 7849SOL    HW235181   4.095   2.513   9.212 -1.2770  0.0007 -0.1082
 7850SOL     OW35182   0.791   0.542   5.328 -0.1048 -0.0764 -0.8040
 7850SOL    HW135183   0.762   0.623   5.370  0.4789 -1.2018  1.7426
 7850SOL    HW235184   0.877   0.568   5.294  0.8979 -0.3230  1.5368
 7851SOL     OW35185   4.524   1.043  14.055  0.7253  0.1854  0.0400
 7851SOL    HW135186   4.593   1.007  13.999 -0.5349 -1.5370 -0.4437
 7851SOL    HW235187   4.570   1.062  14.136  0.1579 -1.0897  0.6695
 7852SOL     OW35188   3.565   2.657  10.352 -0.2545 -0.2743  0.1369
 7852SOL    HW135189   3.530   2.740  10.383 -0.8985 -0.1250 -0.9760
 7852SOL    HW235190   3.635   2.670  10.415 -1.3830  2.4186  0.8277
 7853SOL     OW35191   0.596   1.631   2.775  0.3806 -0.2382 -0.2575
 7853SOL    HW135192   0.511   1.666   2.800 -1.2593 -2.4314 -2.6809
 7853SOL    HW235193   0.653   1.648   2.850 -0.4372 -1.8959  0.7296
 7854SOL     OW35194   4.254   3.340   5.698 -0.3555 -0.1477 -0.1246
 7854SOL    HW135195   4.277   3.281   5.770  0.8399  0.8642  0.3116
 7854SOL    HW235196   4.316   3.310   5.631 -1.5721 -0.8212 -0.9461
 7855SOL     OW35197   1.821   0.306   6.295  0.0634 -0.6351  0.2873
 7855SOL    HW135198   1.876   0.301   6.216  0.2968  1.1156  0.3354
 7855SOL    HW235199   1.768   0.382   6.274 -2.5828 -2.2914  0.9546
 7856SOL     OW35200   4.363   3.367   2.189  0.4202  1.5480  0.3401
 7856SOL    HW135201   4.319   3.438   2.143 -1.7844  0.3581  0.5976
 7856SOL    HW235202   4.306   3.290   2.193 -0.8188  2.5140  1.2997
 7857SOL     OW35203   1.115   3.973   4.880 -0.7373 -0.1921 -0.4427
 7857SOL    HW135204   1.042   3.981   4.819 -1.0198 -0.9875 -0.2150
 7857SOL    HW235205   1.174   4.044   4.857  0.0146 -1.2072 -1.6535
 7858SOL     OW35206   4.249   2.063   6.704 -0.1198 -0.0896  0.5367
 7858SOL    HW135207   4.168   2.115   6.713 -0.1504 -0.5626  2.9740
 7858SOL    HW235208   4.309   2.132   6.674  1.0426 -1.1087  0.5471
 7859SOL     OW35209   4.518   0.155   6.749  0.1819  0.4099 -0.3416
 7859SOL    HW135210   4.460   0.095   6.796  2.2474 -1.3722 -0.0786
 7859SOL    HW235211   4.550   0.100   6.677 -0.9757 -0.2604 -0.3574
 7860SOL     OW35212   3.317   0.597   3.157 -0.0866  0.1081 -0.3039
 7860SOL    HW135213   3.346   0.568   3.243 -1.0915  0.6164  0.2097
 7860SOL    HW235214   3.362   0.680   3.142  1.2469 -0.7685 -1.1026
 7861SOL     OW35215   0.898   3.874   7.977  0.4416 -0.1103 -0.3860
 7861SOL    HW135216   0.945   3.792   7.988 -2.2454 -1.6601 -0.4130
 7861SOL    HW235217   0.928   3.883   7.886  1.4583 -2.4798 -0.2602
 7862SOL     OW35218   4.725   2.758  15.965  0.0199 -0.6315 -0.2411
 7862SOL    HW135219   4.711   2.678  15.916 -0.6193  0.6672 -2.1760
 7862SOL    HW235220   0.083   2.750  15.995  0.9407  0.6167 -2.7440
 7863SOL     OW35221   1.071   1.659   8.790  0.1716 -0.2543  0.4559
 7863SOL    HW135222   1.072   1.578   8.840  0.5222 -1.2653 -1.2039
 7863SOL    HW235223   1.019   1.714   8.850  1.1617  1.3735 -0.1789
 7864SOL     OW35224   1.471   0.186   8.972  0.7706 -0.8066 -0.5993
 7864SOL    HW135225   1.457   0.277   9.001  1.2434 -1.1419  0.6731
 7864SOL    HW235226   1.426   0.186   8.888 -0.4649 -3.7326  0.0736
 7865SOL     OW35227   2.059   3.513   4.973  0.0920  0.1243 -0.0337
 7865SOL    HW135228   2.068   3.608   4.972  2.0978 -0.0676  0.8646
 7865SOL    HW235229   2.147   3.488   4.948 -0.5375 -1.4915 -0.6236
 7866SOL     OW35230   3.522   1.127   3.247 -0.2627 -0.3244 -0.4244
 7866SOL    HW135231   3.484   1.188   3.184  0.6438 -0.4599 -1.1006
 7866SOL    HW235232   3.457   1.056   3.240  0.8008 -1.5207  1.6174
 7867SOL     OW35233   4.203   3.542   5.027 -0.0228 -0.0555 -0.6918
 7867SOL    HW135234   4.209   3.467   4.968  0.6432 -0.6970  0.1796
 7867SOL    HW235235   4.202   3.610   4.960  1.8898  1.0856  0.4242
 7868SOL     OW35236   4.350   1.674  10.088 -0.6018  0.0640 -0.2652
 7868SOL    HW135237   4.372   1.761  10.122 -0.2248  0.2268 -0.9302
 7868SOL    HW235238   4.433   1.642  10.053 -0.6667 -0.6672  0.2426
 7869SOL     OW35239   3.458   3.769   1.034  0.1048 -0.2932 -0.6293
 7869SOL    HW135240   3.440   3.697   1.096  2.0676 -0.6211 -0.4345
 7869SOL    HW235241   3.553   3.767   1.022  0.1250  0.7063 -0.6099
 7870SOL     OW35242   2.743   4.381   1.251 -0.1782 -0.6392  0.1583
 7870SOL    HW135243   2.666   4.437   1.243 -1.1290 -2.1490 -1.1241
 7870SOL    HW235244   2.811   4.432   1.206  0.7644  0.1661  2.4898
 7871SOL     OW35245   1.083   1.136   8.662  0.0473 -0.1915 -0.3399
 7871SOL    HW135246   1.155   1.140   8.725 -1.3121  1.5866  1.0890
 7871SOL    HW235247   1.113   1.200   8.597 -2.6695  0.6138 -0.7785
 7872SOL     OW35248   2.830   2.980   3.061  0.2294  0.2976 -0.0694
 7872SOL    HW135249   2.852   2.917   3.130 -1.6764  2.9665  2.9385
 7872SOL    HW235250   2.888   3.046   3.099  0.2960  0.7640 -0.9766
 7873SOL     OW35251   2.482   2.763   9.989 -0.2977 -0.1246  0.9517
 7873SOL    HW135252   2.441   2.682  10.020 -0.1241 -1.0736 -1.2972
 7873SOL    HW235253   2.447   2.820  10.058 -1.3210  0.9014 -0.4296
 7874SOL     OW35254   4.548   1.443   6.794 -0.6256 -0.0345 -0.3768
 7874SOL    HW135255   4.459   1.476   6.784 -0.3185  1.3846  1.5375
 7874SOL    HW235256   4.586   1.494   6.723  0.4224 -0.2334  0.0313
 7875SOL     OW35257   0.874   4.016   4.731 -0.0252  0.4812  0.4336
 7875SOL    HW135258   0.792   4.028   4.779  0.5014  0.7460  1.2533
 7875SOL    HW235259   0.854   3.955   4.660  0.8669 -0.8200  1.3100
 7876SOL     OW35260   1.542   1.689   9.134 -0.3898 -0.1496  0.1750
 7876SOL    HW135261   1.485   1.685   9.211 -0.9699 -1.0386 -0.2977
 7876SOL    HW235262   1.553   1.784   9.127  0.2987 -0.4048 -2.0055
 7877SOL     OW35263   2.750   1.144   6.624 -0.0454  0.3039 -0.2368
 7877SOL    HW135264   2.677   1.201   6.599 -0.1499  0.9072  1.4404
 7877SOL    HW235265   2.705   1.060   6.630  3.1660 -1.4247 -0.9425
 7878SOL     OW35266   0.187   3.772   6.580 -0.3111  0.1852  0.0536
 7878SOL    HW135267   0.166   3.778   6.674  0.2307  0.1176  0.1787
 7878SOL    HW235268   0.227   3.685   6.570 -0.2992  0.1395  0.4970
 7879SOL     OW35269   4.717   4.502   8.922 -0.1946 -0.0164  0.1656
 7879SOL    HW135270   0.007   4.593   8.904  1.8271 -0.4188  0.6198
 7879SOL    HW235271   0.069   4.464   8.897  0.5777  2.1779 -0.5222
 7880SOL     OW35272   0.195   2.428  15.297  0.0471 -0.9717 -0.2637
 7880SOL    HW135273   0.206   2.424  15.202  0.7685 -3.2516 -0.0749
 7880SOL    HW235274   0.104   2.401  15.309 -0.2313  1.3167  2.7026
 7881SOL     OW35275   2.498   4.281   6.047 -0.5390 -0.2160  0.1768
 7881SOL    HW135276   2.416   4.269   5.999 -0.4878 -1.1552  0.3162
 7881SOL    HW235277   2.459   4.295   6.133  0.5986 -1.5191  0.9185
 7882SOL     OW35278   1.704   1.127   6.290  0.3611 -0.6254  0.0147
 7882SOL    HW135279   1.795   1.140   6.262  0.0672 -1.6377 -1.4019
 7882SOL    HW235280   1.720   1.061   6.357  0.1602 -0.4907  0.1940
 7883SOL     OW35281   3.795   4.639   2.433 -0.5095 -1.2366 -0.2847
 7883SOL    HW135282   3.748   4.715   2.466  1.1658  0.0489 -0.8626
 7883SOL    HW235283   3.860   4.669   2.370 -1.6151  1.1439 -0.2800
 7884SOL     OW35284   0.357   3.706   3.524 -0.1190 -0.5967  0.1231
 7884SOL    HW135285   0.374   3.779   3.465  0.1292 -1.9162 -1.4332
 7884SOL    HW235286   0.393   3.633   3.475 -1.9279 -1.5383  0.2020
 7885SOL     OW35287   0.294   2.310  13.166 -0.5364  0.2620  0.7812
 7885SOL    HW135288   0.275   2.243  13.231 -1.0405 -0.1864  0.1697
 7885SOL    HW235289   0.245   2.278  13.090 -0.7250  1.1855  0.5046
 7886SOL     OW35290   2.738   0.594   5.487  0.0049  0.1691 -0.3872
 7886SOL    HW135291   2.644   0.589   5.504  0.3804 -1.1995  1.3234
 7886SOL    HW235292   2.745   0.573   5.394 -0.1561 -2.5000  0.2091
 7887SOL     OW35293   2.184   2.276  13.855 -0.4386  0.0550 -0.7851
 7887SOL    HW135294   2.169   2.234  13.770  1.0272  1.4176 -1.7316
 7887SOL    HW235295   2.269   2.315  13.835  0.4791 -1.7898 -0.4225
 7888SOL     OW35296   0.174   3.998   2.041  0.4752  0.4706 -0.0902
 7888SOL    HW135297   0.107   4.040   2.095 -2.0653 -2.3103 -1.0423
 7888SOL    HW235298   0.222   3.942   2.102  2.1038  3.1137  1.0419
 7889SOL     OW35299   3.033   1.127  11.062 -0.0142 -0.3530 -0.0106
 7889SOL    HW135300   3.047   1.036  11.035 -2.5899 -0.3629 -1.3926
 7889SOL    HW235301   3.104   1.179  11.024 -0.8704 -0.1487 -1.3373
 7890SOL     OW35302   4.093   2.278  12.133  0.1437 -0.1656  0.3610
 7890SOL    HW135303   4.166   2.335  12.110 -0.7296  0.3844 -1.1031
 7890SOL    HW235304   4.023   2.343  12.126  0.1512 -0.1280  0.6619
 7891SOL     OW35305   0.791   2.016   8.121  0.4596  0.1111  0.1193
 7891SOL    HW135306   0.831   2.058   8.198 -2.0524  0.8765  1.0071
 7891SOL    HW235307   0.722   1.970   8.167  1.9240 -2.8157 -0.6554
 7892SOL     OW35308   3.262   3.527   6.968 -0.2884  0.7008  0.7070
 7892SOL    HW135309   3.201   3.462   7.001  1.1753 -1.7888 -1.4761
 7892SOL    HW235310   3.334   3.524   7.032  1.1648 -1.2003 -1.0073
 7893SOL     OW35311   4.252   1.916   3.126  0.4012  0.0933 -0.0899
 7893SOL    HW135312   4.333   1.866   3.139 -0.5172 -1.6823 -1.2184
 7893SOL    HW235313   4.293   1.999   3.101  0.2254 -0.0330 -0.7933
 7894SOL     OW35314   3.372   0.238   1.431 -0.7304  0.0724  0.3568
 7894SOL    HW135315   3.452   0.189   1.451  0.6796  1.7664 -1.1350
 7894SOL    HW235316   3.399   0.249   1.340 -1.3045 -1.9239 -0.0605
 7895SOL     OW35317   3.931   3.569  15.359  0.2765 -0.2971 -0.4347
 7895SOL    HW135318   4.015   3.550  15.401  0.9852  0.1050 -1.6552
 7895SOL    HW235319   3.864   3.535  15.418  0.8350 -1.0580 -0.2334
 7896SOL     OW35320   3.875   1.473  11.358  0.0196  0.2836 -1.0260
 7896SOL    HW135321   3.902   1.551  11.309 -0.5210  2.4632  2.1927
 7896SOL    HW235322   3.939   1.485  11.428  0.6029  0.9518 -1.6660
 7897SOL     OW35323   0.587   4.512   5.167 -0.2982 -0.4275  0.5416
 7897SOL    HW135324   0.595   4.604   5.192 -0.3772 -0.4346  0.5956
 7897SOL    HW235325   0.583   4.470   5.253  1.1971  0.9066  1.2460
 7898SOL     OW35326   4.127   0.989   4.959 -0.7432 -0.8018 -0.4079
 7898SOL    HW135327   4.125   0.897   4.983 -0.2232 -0.2036  1.9570
 7898SOL    HW235328   4.126   0.982   4.864  1.1733  0.0818 -0.5003
 7899SOL     OW35329   4.095   1.838   3.346 -0.0472  0.3966  0.8295
 7899SOL    HW135330   4.141   1.879   3.273  1.6945 -3.0414 -0.0142
 7899SOL    HW235331   4.018   1.893   3.363 -0.2435 -0.2090  1.9451
 7900SOL     OW35332   0.580   0.389   5.443 -0.3484  0.0576 -0.0870
 7900SOL    HW135333   0.644   0.431   5.386  0.9522  1.0378  2.0817
 7900SOL    HW235334   0.595   0.298   5.417  0.8417 -0.4989  2.5071
 7901SOL     OW35335   3.520   1.959   0.646  0.7493 -0.5689  0.1462
 7901SOL    HW135336   3.577   2.017   0.697 -3.3098  2.1452  1.6341
 7901SOL    HW235337   3.539   1.873   0.682  0.6538 -1.2043 -1.3015
 7902SOL     OW35338   0.383   0.117   6.323  0.0749 -0.0373 -0.2352
 7902SOL    HW135339   0.435   0.058   6.377 -1.2567  0.2096  1.3095
 7902SOL    HW235340   0.295   0.080   6.319  0.8636 -1.9941  0.6267
 7903SOL     OW35341   1.273   2.374   8.807  0.6348  0.1853 -0.1665
 7903SOL    HW135342   1.194   2.325   8.784  1.2740 -0.4618 -0.9760
 7903SOL    HW235343   1.309   2.399   8.722 -1.7027  1.2308 -0.8428
 7904SOL     OW35344   0.430   2.373   4.802  0.5074 -0.5528 -0.0661
 7904SOL    HW135345   0.408   2.461   4.770 -0.5778 -0.6938  0.2894
 7904SOL    HW235346   0.518   2.394   4.835 -0.2435  1.2599  0.8013
 7905SOL     OW35347   0.237   3.550   8.427  0.1409 -0.9473  0.5027
 7905SOL    HW135348   0.325   3.574   8.457  0.6015 -0.3258 -1.3533
 7905SOL    HW235349   0.210   3.517   8.513 -1.1326 -0.4505  0.2898
 7906SOL     OW35350   2.425   0.992   5.728  0.3438  0.1987  0.3253
 7906SOL    HW135351   2.435   0.975   5.821 -0.6616  3.3268  1.0012
 7906SOL    HW235352   2.416   1.087   5.726 -0.4776  0.0698 -2.5566
 7907SOL     OW35353   0.969   4.053   3.803 -1.1335 -0.0110 -0.4063
 7907SOL    HW135354   1.017   4.022   3.879 -0.5949  0.3927 -0.5828
 7907SOL    HW235355   0.911   3.979   3.785 -0.8238  0.3198 -2.7737
 7908SOL     OW35356   1.088   3.128   4.442 -0.0550 -0.5212 -0.3396
 7908SOL    HW135357   1.147   3.171   4.380 -1.7117  1.6166 -0.3941
 7908SOL    HW235358   1.053   3.214   4.465  0.7407 -0.5214  0.8860
 7909SOL     OW35359   4.339   0.844   6.663 -0.1599  0.8723 -0.2184
 7909SOL    HW135360   4.263   0.797   6.696  0.6259 -0.5331 -0.3888
 7909SOL    HW235361   4.410   0.790   6.698 -1.3076 -0.9129 -0.6200
 7910SOL     OW35362   4.391   0.929  11.979  0.3851 -0.3132  0.1765
 7910SOL    HW135363   4.439   0.987  11.920 -0.6673  0.1038 -0.2659
 7910SOL    HW235364   4.456   0.859  11.989  0.1090 -1.1095 -3.5176
 7911SOL     OW35365   2.804   3.312   7.086 -0.4515 -0.0475  0.6557
 7911SOL    HW135366   2.810   3.230   7.037 -1.3718 -0.7975  1.8169
 7911SOL    HW235367   2.778   3.376   7.020  2.3138 -0.2944 -0.6944
 7912SOL     OW35368   2.588   0.804   4.353  0.3810  0.1014 -0.1289
 7912SOL    HW135369   2.589   0.898   4.336  1.2847 -0.1237 -1.3433
 7912SOL    HW235370   2.629   0.777   4.270  0.1636 -1.4448  0.2737
 7913SOL     OW35371   2.069   0.060   6.570  0.1116 -0.0131 -0.0799
 7913SOL    HW135372   2.116   0.131   6.526 -0.0019  1.1495  1.6484
 7913SOL    HW235373   1.986   0.106   6.585 -0.3673 -1.2194  0.9724
 7914SOL     OW35374   0.588   4.040   2.822 -0.1647  0.0706 -0.0488
 7914SOL    HW135375   0.653   3.994   2.769  1.0341  1.2842  0.3564
 7914SOL    HW235376   0.633   4.120   2.849  0.6514 -1.0499  1.9773
 7915SOL     OW35377   2.670   2.492  14.731 -0.1703  0.3196  0.0653
 7915SOL    HW135378   2.594   2.440  14.707 -0.1664 -0.2978  1.3789
 7915SOL    HW235379   2.733   2.472  14.661 -2.3124 -1.4086 -1.3587
 7916SOL     OW35380   4.679   0.788   8.565  0.4975 -0.4787  0.1442
 7916SOL    HW135381   4.620   0.746   8.628  0.8148 -0.1960  0.6283
 7916SOL    HW235382   4.621   0.852   8.524  2.2553  1.2906  0.4425
 7917SOL     OW35383   4.553   4.534   0.048  0.4164  0.4989  0.1986
 7917SOL    HW135384   4.601   4.598  17.725 -0.0530  0.7350  0.0497
 7917SOL    HW235385   4.516   4.481  17.707  1.8342 -1.0672  0.6463
 7918SOL     OW35386   1.433   3.510   3.871  0.0999 -0.3272 -0.4910
 7918SOL    HW135387   1.404   3.436   3.817 -0.1397  1.0480 -2.2198
 7918SOL    HW235388   1.466   3.563   3.799 -0.0901 -0.9192 -1.0179
 7919SOL     OW35389   0.572   2.108   3.665 -0.1385 -0.1336 -0.0655
 7919SOL    HW135390   0.611   2.022   3.680  0.9882  0.5115  0.6914
 7919SOL    HW235391   0.654   2.157   3.657  1.1572 -2.4834 -1.0458
 7920SOL     OW35392   0.913   1.194   6.583 -0.2971 -0.8585 -0.4055
 7920SOL    HW135393   0.825   1.207   6.618  0.8248 -0.6755  2.3694
 7920SOL    HW235394   0.911   1.250   6.506  1.7193 -1.8410 -1.1484
 7921SOL     OW35395   3.092   1.791   4.284 -0.1364  0.3955 -0.3587
 7921SOL    HW135396   3.023   1.840   4.328 -0.1841  0.4300 -0.4706
 7921SOL    HW235397   3.147   1.756   4.353 -1.6049  0.5017  0.8551
 7922SOL     OW35398   0.097   3.465  13.659  0.3439  0.1852 -0.0067
 7922SOL    HW135399   0.015   3.512  13.644 -0.9102 -1.2727  2.2424
 7922SOL    HW235400   0.075   3.431  13.746  3.2553 -0.1534  0.6106
 7923SOL     OW35401   3.906   0.858   8.988 -0.6811  0.5175  0.6089
 7923SOL    HW135402   3.839   0.790   8.986 -1.7116  1.5979 -1.8460
 7923SOL    HW235403   3.888   0.908   8.908  2.3046  2.1830  0.9833
 7924SOL     OW35404   0.186   1.446   9.323  0.4803 -0.3156 -0.2887
 7924SOL    HW135405   0.249   1.385   9.362  0.1225 -0.9044 -0.6408
 7924SOL    HW235406   0.176   1.511   9.393 -1.3590  0.7668 -1.5253
 7925SOL     OW35407   3.783   1.749  12.975 -0.1258 -0.4471  0.3462
 7925SOL    HW135408   3.698   1.715  13.001  0.4786 -2.8046 -0.8203
 7925SOL    HW235409   3.822   1.669  12.940  0.7181 -0.1844  0.6676
 7926SOL     OW35410   1.366   2.335   8.050 -0.4249 -0.0885  0.8250
 7926SOL    HW135411   1.372   2.405   7.985 -0.6709 -3.6691 -3.0355
 7926SOL    HW235412   1.272   2.321   8.051 -0.9438  3.3969  2.2479
 7927SOL     OW35413   2.701   0.555   4.699  0.3610  0.4733  0.1419
 7927SOL    HW135414   2.734   0.509   4.776 -1.7177 -0.7174  0.3373
 7927SOL    HW235415   2.776   0.610   4.678  1.3382 -1.4420 -1.3708
 7928SOL     OW35416   2.254   2.542   7.851  0.0655 -0.3508 -0.0099
 7928SOL    HW135417   2.312   2.607   7.891 -0.8587  0.0272  0.7387
 7928SOL    HW235418   2.175   2.596   7.845  0.5337  0.2037 -1.1383
 7929SOL     OW35419   0.110   0.381   8.893  0.2249 -0.4886 -0.3207
 7929SOL    HW135420   0.119   0.322   8.968  2.4981 -1.3575 -1.2461
 7929SOL    HW235421   0.204   0.379   8.874  0.4624  2.2956  0.5620
 7930SOL     OW35422   4.299   4.314   9.160 -0.2928 -0.1758  0.0907
 7930SOL    HW135423   4.336   4.345   9.077  1.6539 -0.1173  1.0005
 7930SOL    HW235424   4.262   4.397   9.193 -1.1621 -1.0166  1.2283
 7931SOL     OW35425   4.332   3.692   5.208 -0.2220  0.0612 -0.4764
 7931SOL    HW135426   4.291   3.640   5.139 -0.7637  0.0228 -0.1248
 7931SOL    HW235427   4.325   3.782   5.177  1.2187 -0.3127 -1.8873
 7932SOL     OW35428   0.201   1.062  13.009 -0.4925 -0.8796  0.1706
 7932SOL    HW135429   0.152   1.062  13.092 -1.7280  1.4343 -0.5593
 7932SOL    HW235430   0.126   1.041  12.953  1.8403 -0.2563 -3.1349
 7933SOL     OW35431   4.615   1.585   6.140 -0.0896 -1.1955 -0.5128
 7933SOL    HW135432   4.579   1.613   6.056 -2.7136  0.0200  1.0024
 7933SOL    HW235433   4.710   1.588   6.131 -0.1513  2.7381 -0.0277
 7934SOL     OW35434   3.263   2.549   9.267  0.6324 -0.2965  0.1693
 7934SOL    HW135435   3.282   2.468   9.314 -1.1363 -0.4238  0.6560
 7934SOL    HW235436   3.207   2.514   9.199  1.6624 -0.6329 -0.5087
 7935SOL     OW35437   0.845   0.185   8.873  0.1626  0.3967  0.2802
 7935SOL    HW135438   0.771   0.141   8.914  0.5022  0.2817  0.7660
 7935SOL    HW235439   0.859   0.124   8.801  2.1165 -0.5205  1.4467
 7936SOL     OW35440   0.705   4.280  12.030 -0.1062 -0.0157  0.2547
 7936SOL    HW135441   0.739   4.366  12.056 -0.4604  0.6701 -1.5804
 7936SOL    HW235442   0.693   4.240  12.116 -0.2756  1.0191  0.7116
 7937SOL     OW35443   0.022   1.117   5.835 -0.4225 -0.1973 -0.1203
 7937SOL    HW135444   0.038   1.205   5.871 -2.6357  0.5675 -0.9908
 7937SOL    HW235445   4.697   1.155   5.769  0.7046 -2.1618 -2.2060
 7938SOL     OW35446   3.915   4.527   1.412  0.3075 -0.5304 -0.2095
 7938SOL    HW135447   3.886   4.604   1.460 -1.8070 -2.3023  1.3305
 7938SOL    HW235448   3.832   4.516   1.367  0.0521 -2.3344  0.7064
 7939SOL     OW35449   4.602   0.211  13.353  0.0104  0.0606  0.3192
 7939SOL    HW135450   4.607   0.158  13.433 -2.0695 -2.1518 -1.0260
 7939SOL    HW235451   4.560   0.144  13.299  1.0726  0.1292 -0.5683
 7940SOL     OW35452   1.849   2.762   4.532 -0.0505 -0.1450 -0.5364
 7940SOL    HW135453   1.882   2.745   4.620 -0.2429  3.2965  0.2024
 7940SOL    HW235454   1.764   2.803   4.548 -0.4791 -1.2110 -0.0926
 7941SOL     OW35455   1.489   2.786  15.228  0.7831  0.2239 -0.0141
 7941SOL    HW135456   1.514   2.878  15.235 -0.8473  0.5197  1.9608
 7941SOL    HW235457   1.563   2.757  15.175 -1.2605 -3.0647 -1.1152
 7942SOL     OW35458   1.388   4.158  14.191 -0.3712 -0.2761  0.3681
 7942SOL    HW135459   1.328   4.230  14.169 -1.6756 -1.5693 -0.2651
 7942SOL    HW235460   1.457   4.182  14.129 -2.1864 -0.0551 -1.5754
 7943SOL     OW35461   3.797   3.404   4.798 -0.1850  0.0335 -0.8634
 7943SOL    HW135462   3.706   3.426   4.814  0.1442 -0.0995  1.2923
 7943SOL    HW235463   3.804   3.320   4.844  1.1237 -0.2511 -1.5796
 7944SOL     OW35464   0.434   4.421   4.751  0.1089 -0.9894 -0.3324
 7944SOL    HW135465   0.377   4.477   4.803  0.5770  0.4337 -1.3387
 7944SOL    HW235466   0.516   4.437   4.797 -0.4181 -1.0460  0.6084
 7945SOL     OW35467   2.205   0.709   8.941 -0.4778 -0.0130  0.3490
 7945SOL    HW135468   2.144   0.762   8.992 -0.2672  4.2789 -3.8946
 7945SOL    HW235469   2.246   0.782   8.895  0.7938 -0.5185  0.6794
 7946SOL     OW35470   1.451   0.932  14.988 -0.0956  0.6731 -0.1057
 7946SOL    HW135471   1.529   0.884  15.016 -1.2550 -0.2437  1.5925
 7946SOL    HW235472   1.483   1.022  14.983 -1.7002  1.1055 -2.2299
 7947SOL     OW35473   1.100   3.232   7.995 -0.2336  0.0378 -0.0184
 7947SOL    HW135474   1.179   3.179   7.998 -0.1428 -0.0568 -3.7282
 7947SOL    HW235475   1.051   3.179   7.933  0.7463  0.9576 -1.5868
 7948SOL     OW35476   1.091   0.751  10.431  0.1004  0.3825 -0.2156
 7948SOL    HW135477   1.144   0.709  10.363  0.7800 -0.7154  1.0033
 7948SOL    HW235478   1.026   0.789  10.372 -0.1184 -1.1330 -0.9667
 7949SOL     OW35479   1.772   4.273   3.475 -0.1846 -0.3753 -0.7293
 7949SOL    HW135480   1.823   4.218   3.535  0.1861  0.5164 -0.2098
 7949SOL    HW235481   1.688   4.227   3.476  0.4088 -1.4365 -0.2194
 7950SOL     OW35482   1.616   2.703   7.801 -0.1662  0.0560  0.0283
 7950SOL    HW135483   1.584   2.787   7.835 -4.4259 -2.0812  1.3131
 7950SOL    HW235484   1.637   2.727   7.710  1.8154  0.2297  0.5278
 7951SOL     OW35485   1.871   1.454   6.861  0.4168  0.6205  0.5030
 7951SOL    HW135486   1.955   1.473   6.903  1.8610  0.1852 -2.1908
 7951SOL    HW235487   1.822   1.409   6.930  1.9640 -4.3279 -1.6545
 7952SOL     OW35488   4.375   2.582  13.605  0.1894  0.3519 -0.1894
 7952SOL    HW135489   4.382   2.521  13.679  1.3494  3.5214  2.2856
 7952SOL    HW235490   4.294   2.623  13.636 -0.1756 -0.2021 -0.4097
 7953SOL     OW35491   0.593   1.918  10.301 -0.0169 -0.0741  0.1614
 7953SOL    HW135492   0.590   1.944  10.393 -0.5891 -1.2662  0.4697
 7953SOL    HW235493   0.519   1.955  10.253 -0.6513 -2.9289 -1.0684
 7954SOL     OW35494   2.789   2.037   5.125 -0.2605  0.5210  0.1333
 7954SOL    HW135495   2.778   2.110   5.185  1.1934  0.7381  0.1249
 7954SOL    HW235496   2.699   2.019   5.099  0.3623 -0.2959 -1.4710
 7955SOL     OW35497   2.721   3.539  12.592 -0.0071 -0.0744 -0.3055
 7955SOL    HW135498   2.706   3.544  12.686 -0.4854 -3.5376 -0.2133
 7955SOL    HW235499   2.637   3.572  12.558 -0.8617 -0.5298  1.3609
 7956SOL     OW35500   0.951   3.331   9.959  0.1279 -0.0021 -0.1123
 7956SOL    HW135501   0.909   3.398   9.905 -0.3349 -0.1684  0.0328
 7956SOL    HW235502   0.886   3.336  10.030 -0.1419 -1.1763 -0.2787
 7957SOL     OW35503   3.830   4.101   2.705  0.1515 -0.4005 -0.1682
 7957SOL    HW135504   3.770   4.093   2.631 -0.6246 -0.0780  0.4304
 7957SOL    HW235505   3.818   4.031   2.769  2.1773  0.2774  0.9479
 7958SOL     OW35506   1.119   0.643  13.085 -0.7021 -0.0787  0.1590
 7958SOL    HW135507   1.107   0.736  13.064  0.1617  0.2395  1.0394
 7958SOL    HW235508   1.073   0.605  13.011  2.1372 -0.8652 -1.1762
 7959SOL     OW35509   4.312   0.092   2.367  0.0510 -0.3399  0.5930
 7959SOL    HW135510   4.383   0.140   2.410  0.3440 -0.2702  0.0255
 7959SOL    HW235511   4.247   0.158   2.344  1.2701  0.8278  0.5135
 7960SOL     OW35512   4.573   1.497   8.130  0.1025 -0.4461 -0.4395
 7960SOL    HW135513   4.588   1.460   8.217  0.8943  0.1554 -0.3206
 7960SOL    HW235514   4.503   1.555   8.160  0.2060  0.2208 -1.4672
 7961SOL     OW35515   1.096   1.055   2.198  0.6553  0.0308 -0.0682
 7961SOL    HW135516   1.168   1.062   2.261  1.1252  0.6472 -0.6751
 7961SOL    HW235517   1.102   0.962   2.175 -0.3278  0.1714 -0.8724
 7962SOL     OW35518   1.669   2.126   0.965  0.6811  0.1436  0.8531
 7962SOL    HW135519   1.709   2.087   1.043  2.1923  4.1736  2.1069
 7962SOL    HW235520   1.655   2.217   0.989 -1.6516 -0.3430  1.3322
 7963SOL     OW35521   0.635   1.597   5.019  0.5340 -0.1942  0.1181
 7963SOL    HW135522   0.688   1.671   5.052 -0.7572  0.8012 -0.0422
 7963SOL    HW235523   0.635   1.540   5.096  0.8078  2.9725  2.4831
 7964SOL     OW35524   4.730   4.606   6.001  0.0862 -0.2878  0.1168
 7964SOL    HW135525   0.078   4.640   6.040  0.6872  2.2399 -3.3601
 7964SOL    HW235526   4.717   4.651   5.918 -2.3136 -0.7323  0.2292
 7965SOL     OW35527   0.945   3.827   4.232  0.0968 -0.3473  0.0548
 7965SOL    HW135528   0.894   3.872   4.299 -2.1377  0.0272 -1.8614
 7965SOL    HW235529   0.983   3.897   4.178  0.4179 -0.8313 -0.3471
 7966SOL     OW35530   4.142   0.084   5.728  0.4779  0.6002 -1.4071
 7966SOL    HW135531   4.085   0.063   5.801  2.4951  0.1952  0.0617
 7966SOL    HW235532   4.223   0.077   5.779 -0.0219  0.8565 -0.5938
 7967SOL     OW35533   1.209   2.456  11.039  0.6664 -0.0398  0.5987
 7967SOL    HW135534   1.234   2.548  11.027 -1.1344  0.6047  1.7830
 7967SOL    HW235535   1.254   2.437  11.121 -0.3977 -3.1465  0.4433
 7968SOL     OW35536   2.575   1.095   2.740 -0.4767 -0.4175  0.0665
 7968SOL    HW135537   2.666   1.106   2.713  0.5102 -2.5165  2.4567
 7968SOL    HW235538   2.562   1.001   2.723  0.2074 -0.8623  2.0090
 7969SOL     OW35539   0.705   0.007   2.521 -0.3982 -0.5866  0.1612
 7969SOL    HW135540   0.626   0.055   2.496 -0.6173 -0.8117  0.4107
 7969SOL    HW235541   0.755   0.001   2.440  0.6602  0.3678  0.7497
 7970SOL     OW35542   3.334   3.960   0.896 -0.4577 -0.0659 -0.2212
 7970SOL    HW135543   3.419   4.000   0.877  0.0678 -0.9850  0.2114
 7970SOL    HW235544   3.356   3.876   0.937  0.2042  0.9686  1.5382
 7971SOL     OW35545   1.237   4.085   6.922 -0.3359  0.1961  0.5534
 7971SOL    HW135546   1.197   4.156   6.871  2.2971  1.6975  0.5636
 7971SOL    HW235547   1.327   4.117   6.924 -0.4032  0.2406  3.1510
 7972SOL     OW35548   2.793   3.781  13.709 -0.1534  0.2814 -0.4438
 7972SOL    HW135549   2.722   3.794  13.646  1.8652  0.5280 -2.6401
 7972SOL    HW235550   2.744   3.720  13.765 -1.1618  2.9529  1.5927
 7973SOL     OW35551   0.539   1.101   9.390 -0.1210 -0.1618 -0.1092
 7973SOL    HW135552   0.617   1.141   9.352 -1.1310 -0.5329 -2.5862
 7973SOL    HW235553   0.540   1.013   9.353 -2.1737 -0.0736 -0.3686
 7974SOL     OW35554   3.072   2.876  12.116  0.4612  0.6497 -0.2702
 7974SOL    HW135555   3.106   2.961  12.089  0.0728  0.4676 -1.3181
 7974SOL    HW235556   3.124   2.811  12.068 -1.2709 -2.3398  1.8559
 7975SOL     OW35557   0.409   2.937  11.267 -0.4173 -0.5121 -0.8962
 7975SOL    HW135558   0.439   3.027  11.276  0.0226 -0.7167 -0.2919
 7975SOL    HW235559   0.399   2.930  11.172  0.1032  0.9775 -1.0576
 7976SOL     OW35560   0.730   4.342   2.485 -0.1296  0.2581  0.3886
 7976SOL    HW135561   0.673   4.403   2.531 -2.5895 -1.0311 -0.9093
 7976SOL    HW235562   0.806   4.399   2.490 -0.0969  0.3256 -0.8434
 7977SOL     OW35563   2.215   3.370   9.966 -0.1741 -0.4041  0.2892
 7977SOL    HW135564   2.279   3.378  10.037 -2.6854  1.3042  2.4077
 7977SOL    HW235565   2.203   3.464   9.953 -0.9114 -0.5929 -0.3794
 7978SOL     OW35566   4.654   3.653  10.689  0.2714 -0.5275  0.7414
 7978SOL    HW135567   4.679   3.697  10.608 -2.8775  0.1080  0.1267
 7978SOL    HW235568   4.702   3.570  10.683 -0.0855 -0.7254  0.6343
 7979SOL     OW35569   3.973   1.344  11.614 -1.0069 -0.1876 -0.4371
 7979SOL    HW135570   4.014   1.425  11.643 -0.6250 -0.4424 -0.2537
 7979SOL    HW235571   4.010   1.289  11.683 -1.6924  0.4482  0.4183
 7980SOL     OW35572   0.467   4.525   1.498  0.0125  0.5372  0.0136
 7980SOL    HW135573   0.526   4.450   1.487 -0.3116 -0.0299  2.2055
 7980SOL    HW235574   0.415   4.501   1.574 -0.0821  1.1434  0.1384
 7981SOL     OW35575   0.461   2.924   6.971  0.3843 -0.0088  0.3324
 7981SOL    HW135576   0.408   2.892   7.044 -2.0095  1.5866 -0.6921
 7981SOL    HW235577   0.400   2.997   6.960 -0.1470 -0.4517  0.3000
 7982SOL     OW35578   2.406   4.246   8.743  0.0143 -0.3729 -0.4310
 7982SOL    HW135579   2.461   4.274   8.816 -0.6800  2.4422 -1.0001
 7982SOL    HW235580   2.319   4.281   8.763  0.7922  1.2751  0.0231
 7983SOL     OW35581   1.997   1.574   5.481  0.1008 -0.0229 -0.0051
 7983SOL    HW135582   2.076   1.577   5.535  0.5100  0.5938 -0.6379
 7983SOL    HW235583   2.021   1.508   5.416 -2.4672 -0.8915 -0.0705
 7984SOL     OW35584   3.878   4.643   7.600 -0.1285 -0.1915  0.1845
 7984SOL    HW135585   3.785   4.628   7.619  0.2722 -1.3469  1.2876
 7984SOL    HW235586   3.886   4.730   7.562  0.3267  0.5469  1.9824
 7985SOL     OW35587   0.921   4.136   3.248  0.0485  0.3273  0.0441
 7985SOL    HW135588   0.919   4.041   3.255 -1.0345  0.3466 -0.1204
 7985SOL    HW235589   0.826   4.147   3.246 -0.0318 -0.7644 -2.8353
 7986SOL     OW35590   1.002   3.872  14.567 -0.2059 -0.1436 -0.1363
 7986SOL    HW135591   1.011   3.780  14.593  0.5187  0.2044  0.8334
 7986SOL    HW235592   1.052   3.916  14.636 -0.5325  1.5468 -0.9803
 7987SOL     OW35593   1.826   4.380  11.870  0.4214 -0.1799 -0.0184
 7987SOL    HW135594   1.879   4.419  11.801  0.5009  1.1203  0.7637
 7987SOL    HW235595   1.812   4.457  11.926  0.1805  0.3373 -0.7906
 7988SOL     OW35596   2.146   4.346  11.748  0.0242 -0.1885 -0.3992
 7988SOL    HW135597   2.087   4.422  11.750 -0.1024 -0.3467  1.4173
 7988SOL    HW235598   2.222   4.380  11.700 -0.5375  0.2007 -1.0133
 7989SOL     OW35599   1.146   1.607   6.714 -0.1457  0.1302 -0.0120
 7989SOL    HW135600   1.057   1.635   6.736  0.0532 -1.1337  2.3321
 7989SOL    HW235601   1.199   1.660   6.775 -2.7974  0.9364  1.5729
 7990SOL     OW35602   2.163   0.165   7.688 -0.2140 -0.2175  0.0816
 7990SOL    HW135603   2.133   0.256   7.689  1.2295  0.2363  1.8085
 7990SOL    HW235604   2.079   0.121   7.704 -0.2786  0.0027  0.3455
 7991SOL     OW35605   4.608   0.191   2.727  0.9924 -0.2317  0.0998
 7991SOL    HW135606   4.682   0.159   2.777  0.8166 -3.1265 -1.5074
 7991SOL    HW235607   4.561   0.240   2.795 -1.2434 -0.6710 -1.1090
 7992SOL     OW35608   2.700   0.470   6.224  0.0353  0.3010  0.1863
 7992SOL    HW135609   2.704   0.565   6.212  0.6530  0.0871 -1.3770
 7992SOL    HW235610   2.725   0.467   6.316 -0.5556 -0.0022  0.3417
 7993SOL     OW35611   0.845   0.844  15.963 -0.4122  0.7706  1.1083
 7993SOL    HW135612   0.798   0.899  15.900  1.7515  0.3851 -0.8393
 7993SOL    HW235613   0.898   0.905  16.014 -0.1607  1.9566 -0.5991
 7994SOL     OW35614   1.797   3.958   6.737  0.1026  0.5781 -0.4998
 7994SOL    HW135615   1.716   3.938   6.691 -0.2561  1.5436 -0.2788
 7994SOL    HW235616   1.834   3.870   6.753 -0.5529  0.5158  0.7056
 7995SOL     OW35617   2.432   1.710   1.013 -0.1438  0.4063  0.5096
 7995SOL    HW135618   2.450   1.767   0.938 -1.8882  0.6535  0.2737
 7995SOL    HW235619   2.356   1.751   1.055 -1.0254 -0.8418  0.1288
 7996SOL     OW35620   4.690   0.057   9.154  0.1200  0.3528  0.0096
 7996SOL    HW135621   4.632   4.729   9.200 -1.0040  2.2798  1.1224
 7996SOL    HW235622   0.019   0.083   9.223 -0.1195 -0.1808  0.4260
 7997SOL     OW35623   2.222   1.712   1.987 -0.2170  0.2923  0.2073
 7997SOL    HW135624   2.222   1.753   2.074  1.3892 -0.3551  0.5202
 7997SOL    HW235625   2.316   1.715   1.967 -0.7719  2.0296 -2.0795
 7998SOL     OW35626   0.718   0.903   6.017 -0.0790  0.1478 -0.2038
 7998SOL    HW135627   0.658   0.833   5.990  1.4670 -1.0174 -0.6286
 7998SOL    HW235628   0.721   0.959   5.940 -1.3457 -0.1879 -0.5000
 7999SOL     OW35629   0.820   4.342   7.904 -0.3375 -0.0634 -0.1677
 7999SOL    HW135630   0.839   4.369   7.994  0.4539  0.6022 -0.5331
 7999SOL    HW235631   0.906   4.318   7.869 -0.3141 -0.3968  0.1142
 8000SOL     OW35632   3.125   0.149   6.519 -0.8694 -0.2605 -0.1462
 8000SOL    HW135633   3.054   0.211   6.536 -0.4367 -0.2904  1.7776
 8000SOL    HW235634   3.176   0.163   6.599 -0.5387  0.6801 -0.5187
 8001SOL     OW35635   1.502   4.126  11.115 -0.2009 -0.0499  0.0056
 8001SOL    HW135636   1.541   4.117  11.028  1.9393 -0.7335  1.0109
 8001SOL    HW235637   1.542   4.053  11.164 -0.6814  0.1798  0.7348
 8002SOL     OW35638   1.190   2.569   3.373  0.3335 -0.2801  0.1252
 8002SOL    HW135639   1.265   2.526   3.330 -0.6329 -2.5839  0.7202
 8002SOL    HW235640   1.121   2.518   3.331  0.1787  0.5207 -0.5892
 8003SOL     OW35641   0.885   3.821   0.733 -0.2871  0.3433 -0.4216
 8003SOL    HW135642   0.953   3.774   0.685  1.3921  2.7023 -0.3655
 8003SOL    HW235643   0.935   3.857   0.807 -0.6686 -1.5738  0.7582
 8004SOL     OW35644   4.657   2.880   5.058  0.4049 -0.5214  0.3499
 8004SOL    HW135645   4.635   2.839   4.975 -2.4175  0.7454  0.4675
 8004SOL    HW235646   4.650   2.971   5.027  2.2348 -0.6745 -0.5761
 8005SOL     OW35647   4.408   0.331   5.797 -0.0124 -0.1368 -0.3747
 8005SOL    HW135648   4.334   0.286   5.837  1.2404 -2.4273 -0.6549
 8005SOL    HW235649   4.387   0.326   5.704  0.3709  0.5170 -0.4998
 8006SOL     OW35650   2.967   1.074  16.045 -0.0531  0.0116  0.0762
 8006SOL    HW135651   3.011   1.001  15.999  1.6739  2.1376 -1.6508
 8006SOL    HW235652   3.030   1.091  16.115  2.5618 -0.2351 -2.1706
 8007SOL     OW35653   0.172   1.516  14.779 -0.3972 -0.2540  0.0115
 8007SOL    HW135654   0.114   1.560  14.841  0.0461  4.4036 -2.9000
 8007SOL    HW235655   0.246   1.575  14.771 -0.3967 -0.2947 -0.3041
 8008SOL     OW35656   3.244   1.702   8.434 -0.3139  0.1009 -0.0707
 8008SOL    HW135657   3.211   1.750   8.357 -0.8921  2.5613  1.7182
 8008SOL    HW235658   3.168   1.698   8.491 -0.6169 -1.1016 -0.5733
 8009SOL     OW35659   4.317   0.289  14.656 -0.0471 -0.1846  0.8149
 8009SOL    HW135660   4.283   0.371  14.622 -0.0244 -0.2988  0.5185
 8009SOL    HW235661   4.264   0.222  14.612 -0.8328 -0.2932  1.9151
 8010SOL     OW35662   3.053   2.388   6.827  0.2416 -0.6943 -0.1667
 8010SOL    HW135663   3.140   2.391   6.786  1.7353 -3.6111  2.7794
 8010SOL    HW235664   3.078   2.380   6.919 -1.7581  2.8912  0.6539
 8011SOL     OW35665   2.583   1.339   4.369  0.1860 -0.3392  0.3597
 8011SOL    HW135666   2.533   1.421   4.374  3.0335  1.4812 -1.4328
 8011SOL    HW235667   2.519   1.280   4.411 -1.2462 -0.0995 -1.4877
 8012SOL     OW35668   3.269   3.119  10.630  0.0128  0.1462 -0.6572
 8012SOL    HW135669   3.339   3.136  10.567  0.7783 -2.7876 -0.6306
 8012SOL    HW235670   3.272   3.024  10.644  0.9098  0.4292  1.0159
 8013SOL     OW35671   3.479   4.569   4.475 -0.5490  0.2874  0.3427
 8013SOL    HW135672   3.543   4.516   4.427  0.1111  0.5687  0.9177
 8013SOL    HW235673   3.539   4.636   4.509  0.0461 -0.7742  1.4070
 8014SOL     OW35674   0.863   0.886   3.058 -0.3536  0.1340  0.3632
 8014SOL    HW135675   0.913   0.875   3.139  1.1303 -1.4730 -0.7666
 8014SOL    HW235676   0.784   0.932   3.086 -1.6703 -1.9344  0.0998
 8015SOL     OW35677   4.336   1.335  10.194  0.0463 -0.1591 -0.0720
 8015SOL    HW135678   4.425   1.335  10.230 -0.9395 -1.2073  2.3742
 8015SOL    HW235679   4.313   1.424  10.223 -0.9061 -0.7938  1.1625
 8016SOL     OW35680   2.039   0.366   5.828  0.6275  0.2566  0.2901
 8016SOL    HW135681   2.102   0.332   5.765 -0.5492 -1.9287  0.3140
 8016SOL    HW235682   2.009   0.447   5.786 -0.6871 -2.0502 -3.2310
 8017SOL     OW35683   0.159   1.228   2.008 -0.1606  0.2650 -0.0633
 8017SOL    HW135684   0.242   1.262   2.039  0.5957 -0.3626 -1.3879
 8017SOL    HW235685   0.155   1.268   1.921  1.3041  1.5556  0.4808
 8018SOL     OW35686   1.806   3.070   9.830  0.0424  0.2542 -0.3422
 8018SOL    HW135687   1.780   3.109   9.913  2.0063  0.4229  0.1877
 8018SOL    HW235688   1.851   3.144   9.790 -2.1694  2.3951  1.0654
 8019SOL     OW35689   4.001   1.530   2.242 -0.0206 -0.2649  0.5680
 8019SOL    HW135690   3.962   1.542   2.328 -0.2702 -1.7942  0.6712
 8019SOL    HW235691   3.943   1.581   2.185 -2.2111 -1.4470  1.7497
 8020SOL     OW35692   3.319   2.729   4.309 -0.2317 -0.0403 -0.6534
 8020SOL    HW135693   3.316   2.636   4.287  0.7390 -0.1454 -0.3431
 8020SOL    HW235694   3.289   2.768   4.227 -1.1953  1.2774  0.3322
 8021SOL     OW35695   1.592   0.983   7.208 -0.7496  0.1123 -0.1501
 8021SOL    HW135696   1.566   1.069   7.176  0.2391  0.8184  0.9326
 8021SOL    HW235697   1.509   0.952   7.246  0.0638  0.0099  1.5534
 8022SOL     OW35698   4.125   1.498   5.951 -0.0464  0.4001  0.3234
 8022SOL    HW135699   4.168   1.418   5.923 -0.5493  0.5486 -0.8692
 8022SOL    HW235700   4.192   1.553   5.910  1.3060 -1.8301 -0.4590
 8023SOL     OW35701   1.059   3.861   5.124  0.0870 -0.0795  0.2275
 8023SOL    HW135702   1.009   3.784   5.098  0.7296 -0.3898 -0.1029
 8023SOL    HW235703   1.101   3.883   5.041  0.5286  0.4587  0.5936
 8024SOL     OW35704   3.219   3.148  13.226 -0.0621  0.0742  0.0419
 8024SOL    HW135705   3.273   3.107  13.159  0.3482 -2.1378  1.7084
 8024SOL    HW235706   3.181   3.069  13.265 -1.2511  0.2676 -0.7421
 8025SOL     OW35707   4.553   2.823   6.534 -0.5700  0.1612 -0.6009
 8025SOL    HW135708   4.636   2.777   6.526 -0.4165  0.6456 -1.7850
 8025SOL    HW235709   4.523   2.808   6.445  2.9278  1.1380 -1.9416
 8026SOL     OW35710   4.620   4.613  13.518  0.4535 -0.0436 -0.0945
 8026SOL    HW135711   4.543   4.585  13.469  0.5474 -0.4079 -0.0356
 8026SOL    HW235712   4.582   4.694  13.552  2.1653  1.0994 -0.9151
 8027SOL     OW35713   2.824   1.734   8.333  0.1909  0.9256  0.0786
 8027SOL    HW135714   2.883   1.662   8.312  0.5333  0.5915  2.1533
 8027SOL    HW235715   2.793   1.722   8.423  2.0293 -0.3628  0.5439
 8028SOL     OW35716   2.378   0.923   3.658  0.8453  0.7295  0.1412
 8028SOL    HW135717   2.321   0.971   3.597 -0.3829 -0.8672  0.0471
 8028SOL    HW235718   2.362   0.830   3.640  1.7339  0.8267 -1.1810
 8029SOL     OW35719   4.025   2.154   5.354 -0.7772 -0.3270  0.3573
 8029SOL    HW135720   4.111   2.129   5.319 -0.0316 -0.4820  2.2962
 8029SOL    HW235721   4.012   2.087   5.422  1.0824 -0.4144  0.6382
 8030SOL     OW35722   0.561   1.903  12.241 -0.0295 -0.3972  0.5207
 8030SOL    HW135723   0.479   1.940  12.275  0.7441  0.5036  1.4136
 8030SOL    HW235724   0.523   1.843  12.178 -1.2636  1.4006 -0.4647
 8031SOL     OW35725   0.811   2.904   3.198  0.3185  0.5964  0.5995
 8031SOL    HW135726   0.892   2.909   3.250  0.6467 -1.0885  0.2521
 8031SOL    HW235727   0.840   2.837   3.137 -2.5031  0.9465 -1.0850
 8032SOL     OW35728   2.037   2.720   4.023 -0.4905 -0.0240  0.2921
 8032SOL    HW135729   1.999   2.745   4.107 -0.8530 -0.2431  0.1922
 8032SOL    HW235730   2.123   2.758   4.040 -0.0118 -0.2777 -1.4928
 8033SOL     OW35731   3.066   3.164   2.550  0.0656 -0.5465  0.3016
 8033SOL    HW135732   3.123   3.096   2.513 -0.0160 -1.0715  1.1435
 8033SOL    HW235733   3.106   3.171   2.637 -1.4003  0.2831  0.9118
 8034SOL     OW35734   1.478   3.509   3.517  0.3847 -0.1521 -0.3699
 8034SOL    HW135735   1.420   3.582   3.497  1.0759  0.7793  0.9766
 8034SOL    HW235736   1.422   3.432   3.520 -1.7324  1.3951 -0.6684
 8035SOL     OW35737   2.499   4.278  12.502 -0.0965  0.0872 -0.4750
 8035SOL    HW135738   2.499   4.335  12.580 -1.1112 -2.1102  1.1197
 8035SOL    HW235739   2.565   4.212  12.523  0.3251  0.6424 -0.0271
 8036SOL     OW35740   0.727   1.300   5.026  0.6944  0.0911  0.4166
 8036SOL    HW135741   0.801   1.322   5.082  0.5673 -0.2913  0.7349
 8036SOL    HW235742   0.770   1.231   4.976  0.7453 -0.2662  0.9554
 8037SOL     OW35743   1.789   0.661   2.017  0.0271  0.3047  0.1112
 8037SOL    HW135744   1.843   0.728   2.060  0.8072 -0.6174  0.5752
 8037SOL    HW235745   1.748   0.620   2.093 -2.8534  1.4927 -0.8196
 8038SOL     OW35746   3.283   2.992   5.889 -0.7822 -0.1655 -0.0614
 8038SOL    HW135747   3.220   2.969   5.957  0.9477  3.1643  2.6632
 8038SOL    HW235748   3.268   2.918   5.830 -1.5715  0.4881 -0.6920
 8039SOL     OW35749   1.715   1.133   9.972 -0.1828  0.4102  0.9691
 8039SOL    HW135750   1.733   1.224   9.997  1.5424  1.3138 -3.5570
 8039SOL    HW235751   1.650   1.140   9.902  0.4457  0.2589  0.3657
 8040SOL     OW35752   3.253   3.565   2.924 -0.1861  0.3762  0.1478
 8040SOL    HW135753   3.327   3.563   2.985 -1.0823  0.3497  1.2259
 8040SOL    HW235754   3.175   3.541   2.973  0.7109 -1.0395  0.8850
 8041SOL     OW35755   0.015   2.825   1.640  0.2081  0.4778 -0.5441
 8041SOL    HW135756   4.685   2.756   1.660  2.9952 -1.2912  2.0516
 8041SOL    HW235757   4.690   2.900   1.657 -2.6885 -1.9356  0.3633
 8042SOL     OW35758   4.130   0.738   4.372  0.4516 -0.1957  0.2869
 8042SOL    HW135759   4.052   0.793   4.359  1.7364  1.5116 -0.1374
 8042SOL    HW235760   4.184   0.788   4.433  0.2411 -1.2374  1.3452
 8043SOL     OW35761   1.897   1.871  11.499  0.2319 -0.1091 -0.3590
 8043SOL    HW135762   1.977   1.827  11.527  0.6540  1.2229  0.4789
 8043SOL    HW235763   1.858   1.873  11.586  0.7117  0.7558 -0.1674
 8044SOL     OW35764   1.612   1.989   7.502 -0.1494  0.3932  0.3308
 8044SOL    HW135765   1.550   1.978   7.430 -1.6594 -1.0208  1.8213
 8044SOL    HW235766   1.692   1.957   7.461 -0.6972  0.3738 -0.7306
 8045SOL     OW35767   3.034   4.127  15.545  0.4469  0.1757 -0.0274
 8045SOL    HW135768   3.045   4.198  15.482  2.9487 -1.0204 -0.9256
 8045SOL    HW235769   3.095   4.060  15.514 -0.5628 -0.3551 -0.8605
 8046SOL     OW35770   3.477   2.978   6.955 -0.0172 -0.4005 -0.3711
 8046SOL    HW135771   3.473   2.906   7.018 -0.7540 -0.0042  0.0401
 8046SOL    HW235772   3.494   2.929   6.874  0.3450 -0.0804 -0.4909
 8047SOL     OW35773   1.080   0.107   8.534 -0.1618  0.1791 -0.1208
 8047SOL    HW135774   1.116   0.176   8.479  1.8689  0.1632  1.1687
 8047SOL    HW235775   1.155   0.048   8.541 -0.2790 -0.0363 -0.7363
 8048SOL     OW35776   1.040   4.090  17.171  0.0585 -0.2792  0.2977
 8048SOL    HW135777   0.977   4.156  17.198 -0.1864 -0.1466 -0.5990
 8048SOL    HW235778   1.065   4.102  17.080  2.2522 -0.4359  0.8735
 8049SOL     OW35779   1.099   3.533   5.317 -0.6226 -0.4988 -0.9446
 8049SOL    HW135780   1.163   3.472   5.281 -0.2634  1.3001 -3.3378
 8049SOL    HW235781   1.154   3.601   5.356 -1.2361 -0.3171 -0.3935
 8050SOL     OW35782   0.321   3.850   9.451 -0.4384  0.2611 -0.2246
 8050SOL    HW135783   0.306   3.944   9.450  2.4051  0.7173 -0.6991
 8050SOL    HW235784   0.236   3.811   9.467 -1.8757  1.6641 -4.2645
 8051SOL     OW35785   1.010   0.541  12.843  0.1691  0.1550  0.1827
 8051SOL    HW135786   0.935   0.597  12.822  1.6829  3.2194  3.1489
 8051SOL    HW235787   1.031   0.494  12.762  0.8535  0.6229  0.0930
 8052SOL     OW35788   1.406   0.489  11.156  0.4426  0.2463  0.2279
 8052SOL    HW135789   1.475   0.547  11.188  1.1805 -1.4540  1.7227
 8052SOL    HW235790   1.343   0.553  11.123 -1.4249 -2.8334 -2.2230
 8053SOL     OW35791   1.511   3.603   5.292 -0.2922 -0.1393 -0.3570
 8053SOL    HW135792   1.461   3.607   5.211 -0.9528  1.0328  0.1031
 8053SOL    HW235793   1.451   3.655   5.346 -3.2385 -4.6439  0.7376
 8054SOL     OW35794   1.356   4.542   8.223  0.4512 -0.3176  0.9086
 8054SOL    HW135795   1.371   4.475   8.289 -1.6461 -0.4553  1.2584
 8054SOL    HW235796   1.261   4.540   8.208  0.6286  2.1558 -0.7360
 8055SOL     OW35797   4.536   1.535   4.421 -0.2044  0.0972  0.1079
 8055SOL    HW135798   4.545   1.620   4.378 -0.4443  1.8627  3.5988
 8055SOL    HW235799   4.627   1.506   4.417 -0.6897 -1.3541 -0.7521
 8056SOL     OW35800   4.213   3.247  13.864  0.2003  0.1139 -0.3351
 8056SOL    HW135801   4.255   3.189  13.928  1.3674 -3.5401 -4.3975
 8056SOL    HW235802   4.167   3.303  13.926 -0.7526  0.5359 -1.4139
 8057SOL     OW35803   0.012   0.419  11.184  0.1048 -0.0104  0.2184
 8057SOL    HW135804   4.659   0.456  11.205  0.2225  0.1402  0.4428
 8057SOL    HW235805   0.070   0.471  11.240  0.4929  0.2229 -0.3948
 8058SOL     OW35806   4.563   3.741   8.435  0.1901  0.3599 -0.1445
 8058SOL    HW135807   4.549   3.809   8.369  2.4723 -0.6789 -1.7220
 8058SOL    HW235808   4.473   3.733   8.464  0.0316  4.1174  0.3737
 8059SOL     OW35809   0.331   3.911  11.452 -0.0031  0.6737 -0.6119
 8059SOL    HW135810   0.379   3.951  11.524  1.4528 -2.4627  0.2069
 8059SOL    HW235811   0.254   3.967  11.450 -0.5587 -0.1256 -1.8176
 8060SOL     OW35812   2.855   4.677   6.444  0.2409 -0.4543  0.5430
 8060SOL    HW135813   2.898   4.724   6.372 -1.0921 -0.9297 -0.5770
 8060SOL    HW235814   2.811   0.016   6.490 -0.2751 -0.4471  0.0316
 8061SOL     OW35815   4.364   0.334   6.492  0.5647  0.1080 -0.2732
 8061SOL    HW135816   4.279   0.334   6.536 -0.0793 -0.6265 -1.5280
 8061SOL    HW235817   4.417   0.294   6.561 -1.5206 -0.6876  0.8598
 8062SOL     OW35818   3.122   2.920   5.354  0.5507 -0.1873 -0.5225
 8062SOL    HW135819   3.027   2.930   5.363  0.9461  3.9671 -1.0613
 8062SOL    HW235820   3.119   2.836   5.401 -0.5527  0.0187 -0.2112
 8063SOL     OW35821   0.246   1.313   7.092  0.1729  0.5122 -0.1929
 8063SOL    HW135822   0.210   1.349   7.011  1.0665 -2.2856 -1.8367
 8063SOL    HW235823   0.230   1.378   7.160  0.4362  1.0568 -0.6512
 8064SOL     OW35824   1.501   1.757  17.156 -0.0555 -0.5626  0.3946
 8064SOL    HW135825   1.406   1.762  17.159 -0.0439  1.1152 -2.0890
 8064SOL    HW235826   1.520   1.848  17.132 -0.3903 -1.0020 -1.5797
 8065SOL     OW35827   2.833   2.990   2.252  0.0764  0.0324 -0.0788
 8065SOL    HW135828   2.840   2.997   2.157 -1.5799 -1.9836 -0.3647
 8065SOL    HW235829   2.922   2.961   2.273 -0.3487  0.2937  2.1026
 8066SOL     OW35830   3.195   0.411   7.081  0.2306  0.4750 -0.2169
 8066SOL    HW135831   3.141   0.446   7.010  1.1308  3.3302  0.5250
 8066SOL    HW235832   3.186   0.476   7.151 -2.2905 -0.8122  0.7021
 8067SOL     OW35833   0.597   1.969   7.871 -0.4782  0.7291 -0.5220
 8067SOL    HW135834   0.610   2.018   7.953 -1.2396 -0.0224  0.0451
 8067SOL    HW235835   0.682   1.927   7.859 -0.1457  1.5222 -0.9849
 8068SOL     OW35836   0.156   3.741  13.955  0.1846  0.0163  0.3690
 8068SOL    HW135837   0.174   3.835  13.963 -0.0205  0.1258 -0.4360
 8068SOL    HW235838   0.215   3.705  13.889 -0.0449  2.2819 -1.0476
 8069SOL     OW35839   2.091   1.611  11.979  0.3746  0.5071  0.0782
 8069SOL    HW135840   2.162   1.551  11.956  3.6744  2.8166  4.3473
 8069SOL    HW235841   2.036   1.589  11.903  1.9453  1.3479 -1.2881
 8070SOL     OW35842   2.205   4.555   7.811  0.0978 -0.0691  0.0267
 8070SOL    HW135843   2.240   4.528   7.726 -1.5750 -0.5271 -0.5198
 8070SOL    HW235844   2.115   4.539   7.782 -0.7331 -0.0482  2.6142
 8071SOL     OW35845   4.064   2.736   8.756  0.1314 -0.3189 -0.5443
 8071SOL    HW135846   4.145   2.730   8.808  0.4213 -0.3371 -1.0027
 8071SOL    HW235847   4.103   2.758   8.672 -0.0714  0.6209 -0.3907
 8072SOL     OW35848   2.548   1.929   6.487  0.6731  0.4816 -0.3697
 8072SOL    HW135849   2.549   1.873   6.409  4.4448  0.9073 -0.6343
 8072SOL    HW235850   2.500   2.006   6.456 -2.1003 -1.0220  0.2097
 8073SOL     OW35851   1.350   2.275   9.488  0.2463 -0.5169 -0.1311
 8073SOL    HW135852   1.398   2.199   9.522  1.1166  0.7030  1.3388
 8073SOL    HW235853   1.418   2.310   9.430  0.2569 -1.0369 -0.4379
 8074SOL     OW35854   0.078   4.009  15.458  0.6169 -0.0070  0.0036
 8074SOL    HW135855   0.160   4.030  15.413  0.0365  1.3335 -0.4547
 8074SOL    HW235856   0.101   3.942  15.522  0.2555  1.3691  1.5801
 8075SOL     OW35857   1.512   4.188   7.166 -0.8799 -0.1262  0.3362
 8075SOL    HW135858   1.489   4.181   7.074 -1.2455  2.5235  0.2462
 8075SOL    HW235859   1.493   4.281   7.177  2.3057  0.4341  1.2274
 8076SOL     OW35860   4.182   3.829   2.832 -0.5283 -0.2520 -0.6333
 8076SOL    HW135861   4.200   3.922   2.842  0.3516 -0.4166 -0.6895
 8076SOL    HW235862   4.208   3.817   2.740 -0.8000  1.9524 -1.0062
 8077SOL     OW35863   0.529   2.713   6.822  0.3606 -0.0166  0.2750
 8077SOL    HW135864   0.512   2.783   6.885  1.8237 -0.4774  1.1746
 8077SOL    HW235865   0.555   2.761   6.743  2.1873 -1.2795  0.1047
 8078SOL     OW35866   2.919   1.505   7.064 -0.1353  0.5088 -0.7088
 8078SOL    HW135867   2.831   1.474   7.042 -0.3612 -0.3268  1.4044
 8078SOL    HW235868   2.973   1.484   6.988 -0.2132 -1.8746 -0.0982
 8079SOL     OW35869   3.491   0.448   6.926  0.1225 -0.1755 -0.0987
 8079SOL    HW135870   3.581   0.417   6.925 -0.0012 -0.6944  3.4287
 8079SOL    HW235871   3.470   0.458   7.019  2.4140 -0.9732  0.5107
 8080SOL     OW35872   2.599   1.983  13.595 -0.3413  0.0730 -0.5444
 8080SOL    HW135873   2.550   2.053  13.554 -0.8580  0.4722  0.7600
 8080SOL    HW235874   2.581   1.907  13.539  1.2462 -0.4495 -0.3635
 8081SOL     OW35875   4.682   3.117  16.679  0.2442  0.0040  0.2477
 8081SOL    HW135876   4.630   3.092  16.602  0.2395  1.0593 -0.0933
 8081SOL    HW235877   0.001   3.037  16.692 -1.9879 -1.5157 -0.1755
 8082SOL     OW35878   2.265   0.198   4.035 -0.1207  0.0644  0.2633
 8082SOL    HW135879   2.345   0.215   4.084  1.7743 -2.1158 -2.1162
 8082SOL    HW235880   2.214   0.279   4.048 -2.5110 -0.9117 -3.0623
 8083SOL     OW35881   1.885   2.061   5.384  0.0816 -0.8281  0.3108
 8083SOL    HW135882   1.901   1.967   5.376 -1.7830 -1.2833  1.7968
 8083SOL    HW235883   1.795   2.071   5.353  0.4729  0.3222 -0.4160
 8084SOL     OW35884   0.832   1.417  14.395  0.9078  0.5162 -0.0568
 8084SOL    HW135885   0.860   1.422  14.486  2.1070  0.3006 -0.4049
 8084SOL    HW235886   0.909   1.452  14.349  0.0502  2.0587 -0.3287
 8085SOL     OW35887   0.910   0.975   8.122  0.5750  0.7835  0.3456
 8085SOL    HW135888   0.815   0.975   8.131  0.7219 -1.1852  1.7438
 8085SOL    HW235889   0.927   1.060   8.081 -1.3675  0.5891 -0.8476
 8086SOL     OW35890   0.031   0.152   8.499 -0.3978  0.6221 -0.4361
 8086SOL    HW135891   4.718   0.068   8.508 -0.6939  0.8736  0.4034
 8086SOL    HW235892   0.019   0.175   8.407  1.7970 -0.5672 -1.0079
 8087SOL     OW35893   2.654   0.009  11.921 -0.4165 -0.4809 -0.2606
 8087SOL    HW135894   2.736   4.692  11.922 -1.6879 -2.6018 -1.2821
 8087SOL    HW235895   2.639   0.005  12.015 -2.5408 -0.0336 -0.5869
 8088SOL     OW35896   0.260   4.618   8.647 -0.0554 -0.3579  0.4880
 8088SOL    HW135897   0.242   4.535   8.603  0.2526  0.6535 -1.5476
 8088SOL    HW235898   0.317   4.580   8.713  1.2660 -0.2875 -0.6256
 8089SOL     OW35899   1.905   4.032   7.842 -0.2500 -0.4145 -0.3238
 8089SOL    HW135900   1.909   4.116   7.889 -1.5521 -1.6653  2.0063
 8089SOL    HW235901   1.858   4.073   7.770  3.1133  1.5126 -1.4509
 8090SOL     OW35902   2.977   1.694   4.021 -0.3236 -0.2317  0.2855
 8090SOL    HW135903   3.013   1.730   4.102  1.1172  0.8990 -0.8544
 8090SOL    HW235904   2.921   1.628   4.062 -1.5896  0.5217 -0.2313
 8091SOL     OW35905   3.665   4.595   8.956  0.3287 -0.3854 -0.5603
 8091SOL    HW135906   3.680   4.577   8.864 -1.5728 -0.3372 -0.8758
 8091SOL    HW235907   3.683   4.514   9.003 -0.4427 -0.9339 -1.2139
 8092SOL     OW35908   3.029   1.565   6.651 -0.3941  0.4692 -0.3673
 8092SOL    HW135909   3.097   1.629   6.670  0.0748 -0.5082  1.2500
 8092SOL    HW235910   2.974   1.628   6.605 -1.5457 -0.7302 -0.6341
 8093SOL     OW35911   1.571   4.028  16.289  0.0129 -0.2774  0.0523
 8093SOL    HW135912   1.604   4.070  16.369  0.1425 -1.1904  0.4700
 8093SOL    HW235913   1.605   3.941  16.308  1.0718  0.4593  1.6198
 8094SOL     OW35914   0.330   2.400   1.614 -0.1156 -0.2330 -0.4192
 8094SOL    HW135915   0.303   2.405   1.522 -0.8722 -0.5000 -0.2160
 8094SOL    HW235916   0.296   2.312   1.631 -3.6435  0.8472 -1.9535
 8095SOL     OW35917   0.384   4.305   5.784 -0.1050  0.1312  0.7934
 8095SOL    HW135918   0.333   4.339   5.711 -1.0737 -0.0081  1.4042
 8095SOL    HW235919   0.358   4.369   5.851 -1.0102 -0.2386  0.7927
 8096SOL     OW35920   4.156   1.589   5.242 -0.1179  0.0280 -0.2027
 8096SOL    HW135921   4.210   1.543   5.177  1.1818  0.3068  0.6787
 8096SOL    HW235922   4.116   1.653   5.183  1.1227 -0.7295 -1.8918
 8097SOL     OW35923   1.992   1.590   9.088  0.8113 -0.1751  0.0997
 8097SOL    HW135924   2.035   1.661   9.041 -0.3844  1.2743  1.1769
 8097SOL    HW235925   2.028   1.510   9.050  0.4152  0.0535 -0.7715
 8098SOL     OW35926   0.392   3.043   2.055  0.0007  0.0235  0.3296
 8098SOL    HW135927   0.392   3.060   2.149  0.1074  0.7185  0.2051
 8098SOL    HW235928   0.400   2.948   2.046  0.3993  0.2285 -1.5684
 8099SOL     OW35929   1.699   1.954  16.847  0.5353  0.3196 -0.3377
 8099SOL    HW135930   1.659   1.982  16.765  0.1179  1.7209  0.3267
 8099SOL    HW235931   1.668   1.865  16.863  1.5761 -0.2905 -1.8286
 8100SOL     OW35932   1.896   1.734   6.114 -0.2117 -0.5064 -0.0736
 8100SOL    HW135933   1.897   1.827   6.091  0.0374 -0.6086 -0.4854
 8100SOL    HW235934   1.980   1.702   6.080  0.2041 -0.5935  1.0301
 8101SOL     OW35935   1.489   0.652   5.028 -0.3112 -0.1066 -0.0539
 8101SOL    HW135936   1.548   0.661   4.953 -0.9740 -1.4252 -0.7294
 8101SOL    HW235937   1.403   0.639   4.988  0.3352 -0.7936 -1.2406
 8102SOL     OW35938   0.039   0.214   7.816 -0.5323 -0.7887  0.0309
 8102SOL    HW135939   0.010   0.303   7.796  0.6386 -0.3528  0.2875
 8102SOL    HW235940   0.060   0.221   7.909  0.9036 -0.5112 -0.3212
 8103SOL     OW35941   1.139   0.252   0.926  0.2590 -0.0497  0.1574
 8103SOL    HW135942   1.185   0.247   0.842  1.8392 -2.7363  1.1728
 8103SOL    HW235943   1.051   0.283   0.906  1.4126  1.6651 -2.1692
 8104SOL     OW35944   0.170   1.240   5.265 -0.2020 -0.2163  0.6018
 8104SOL    HW135945   0.222   1.202   5.336  2.8819  0.6489 -1.2371
 8104SOL    HW235946   0.201   1.207   5.182 -0.5880  0.4152  0.2044
 8105SOL     OW35947   2.509   0.841   5.516  0.2091 -0.2429 -0.3930
 8105SOL    HW135948   2.498   0.750   5.542 -0.9357  0.0711  0.1950
 8105SOL    HW235949   2.468   0.878   5.594  0.5689  3.4308 -1.9197
 8106SOL     OW35950   3.315   4.453   5.054 -0.1499 -0.1546  0.8898
 8106SOL    HW135951   3.401   4.433   5.016 -0.0329  3.7593 -0.9497
 8106SOL    HW235952   3.280   4.514   4.989  2.9054  0.4215 -0.2020
 8107SOL     OW35953   2.228   3.149   7.956  0.1096  0.1034  0.3104
 8107SOL    HW135954   2.279   3.215   8.003  1.1066  0.4537 -1.2813
 8107SOL    HW235955   2.218   3.177   7.866 -0.8609  0.6924  0.6096
 8108SOL     OW35956   1.879   3.340  12.051 -0.2721 -0.0651  0.3611
 8108SOL    HW135957   1.894   3.435  12.053  0.3722 -0.1350 -1.3004
 8108SOL    HW235958   1.812   3.337  12.120  0.7952  0.8045  1.4330
 8109SOL     OW35959   3.276   1.931   7.850  0.1175  0.0673  0.1520
 8109SOL    HW135960   3.249   1.951   7.760 -1.1015 -0.5195  0.3864
 8109SOL    HW235961   3.266   1.836   7.855 -0.9107  0.1484 -0.3800
 8110SOL     OW35962   2.298   1.967  11.599  0.2834  0.6504  0.5293
 8110SOL    HW135963   2.387   1.990  11.623  0.7865  1.7550 -2.4074
 8110SOL    HW235964   2.277   2.036  11.536 -2.3946 -0.9646 -0.3494
 8111SOL     OW35965   3.421   1.431   6.617  0.3193 -0.5754 -0.0172
 8111SOL    HW135966   3.438   1.493   6.688  1.1668 -0.7191 -0.0963
 8111SOL    HW235967   3.511   1.418   6.588 -0.4170 -0.1546 -2.5192
 8112SOL     OW35968   0.290   2.558   4.053  0.2170  0.1846  0.0156
 8112SOL    HW135969   0.253   2.564   4.141 -1.3716 -0.6769 -0.5994
 8112SOL    HW235970   0.349   2.633   4.043 -0.7139  1.0928  1.2881
 8113SOL     OW35971   0.587   0.685  14.699  0.0186 -0.2068 -0.7291
 8113SOL    HW135972   0.504   0.715  14.737  0.9472 -0.8206  1.7841
 8113SOL    HW235973   0.573   0.704  14.607  1.0028  2.4306 -0.3394
 8114SOL     OW35974   3.329   4.439  12.274 -0.2176 -0.2239  0.0136
 8114SOL    HW135975   3.242   4.476  12.294  0.4418  1.2815  0.1093
 8114SOL    HW235976   3.307   4.346  12.271 -1.1725  0.0678 -2.5354
 8115SOL     OW35977   2.157   3.644   2.467  0.0646 -0.0263  0.5887
 8115SOL    HW135978   2.127   3.696   2.392  1.3992  0.8499  0.6482
 8115SOL    HW235979   2.136   3.558   2.432  1.4207  0.0900 -0.4875
 8116SOL     OW35980   4.263   4.079  15.097 -0.1323 -0.8799 -0.3266
 8116SOL    HW135981   4.209   4.038  15.164 -0.1482 -0.3118  0.0067
 8116SOL    HW235982   4.262   4.170  15.126  0.7858 -0.8739 -0.2902
 8117SOL     OW35983   2.072   3.982   3.577 -0.9874  0.2088  0.7318
 8117SOL    HW135984   2.097   3.984   3.484 -0.4662  0.6316  0.8810
 8117SOL    HW235985   2.047   4.073   3.588 -3.2636 -0.4364  0.9614
 8118SOL     OW35986   2.647   2.894  16.452  0.8169  0.7406 -0.1955
 8118SOL    HW135987   2.685   2.949  16.521  0.6868 -0.1462  0.5793
 8118SOL    HW235988   2.592   2.948  16.396 -3.3447 -0.0835  3.0912
 8119SOL     OW35989   3.553   3.631  13.940 -0.2683  0.5117  0.4266
 8119SOL    HW135990   3.575   3.649  13.849  1.0234 -0.7797  0.4712
 8119SOL    HW235991   3.487   3.698  13.957 -1.5885 -0.6071 -0.2463
 8120SOL     OW35992   2.734   2.755   1.210  0.0997  0.6661  0.2040
 8120SOL    HW135993   2.675   2.766   1.136  0.4229  0.5632 -0.0667
 8120SOL    HW235994   2.769   2.843   1.226 -0.3880  0.5601  1.9285
 8121SOL     OW35995   4.691   0.925   7.259 -0.3163 -0.0407  0.2583
 8121SOL    HW135996   0.040   0.962   7.226 -1.0282 -0.1655 -1.6432
 8121SOL    HW235997   4.665   0.983   7.331 -0.2382 -1.5522  1.5191
 8122SOL     OW35998   0.170   1.277   8.279  0.1194 -0.2505 -0.3681
 8122SOL    HW135999   0.217   1.203   8.316 -1.9752  0.0174  2.8243
 8122SOL    HW236000   0.236   1.298   8.213 -0.6874 -0.5166 -1.2603
 8123SOL     OW36001   2.386   1.006   2.505 -0.6557  0.3677  0.0941
 8123SOL    HW136002   2.338   0.924   2.513 -0.5205  0.3404  0.6314
 8123SOL    HW236003   2.314   1.068   2.506 -0.4751  0.5858 -0.2652
 8124SOL     OW36004   3.402   0.554   2.085 -0.1520  0.0991 -0.0508
 8124SOL    HW136005   3.308   0.536   2.098 -0.4104  1.1215 -0.5133
 8124SOL    HW236006   3.392   0.648   2.072  1.7191  0.2949 -0.0529
 8125SOL     OW36007   4.236   1.810   6.564  0.3053  0.0619 -0.4154
 8125SOL    HW136008   4.215   1.896   6.601 -1.1341  0.4396 -2.1343
 8125SOL    HW236009   4.168   1.794   6.500 -0.3004 -1.7940  0.6986
 8126SOL     OW36010   0.128   4.006   3.475  0.0763 -0.3177 -0.2714
 8126SOL    HW136011   0.145   4.100   3.481 -1.5036 -0.0969  0.6441
 8126SOL    HW236012   0.044   3.996   3.519  0.2187 -2.5534 -0.5298
 8127SOL     OW36013   3.260   2.691   8.164 -0.0351  0.0184 -0.5270
 8127SOL    HW136014   3.283   2.712   8.074 -1.3111  2.2322 -0.3527
 8127SOL    HW236015   3.183   2.635   8.154  0.2666 -0.5547  0.3061
 8128SOL     OW36016   3.778   2.629   4.127  0.1436  0.2368 -0.2252
 8128SOL    HW136017   3.845   2.665   4.069 -0.2991  0.1485 -0.7827
 8128SOL    HW236018   3.789   2.672   4.212 -1.1076  0.5406 -0.2197
 8129SOL     OW36019   0.885   3.668   3.600  0.2758 -0.3406 -0.2695
 8129SOL    HW136020   0.833   3.729   3.652  2.1541  0.9619  0.0968
 8129SOL    HW236021   0.832   3.676   3.520 -0.1573  1.1260  0.1619
 8130SOL     OW36022   4.584   4.702   6.546  0.7336  0.2912  0.4093
 8130SOL    HW136023   4.551   4.614   6.526 -1.0443  0.5916  2.0356
 8130SOL    HW236024   4.522   0.029   6.505  0.7909  0.3792  0.4499
 8131SOL     OW36025   1.703   3.937  17.397  0.3041 -0.1761  0.1102
 8131SOL    HW136026   1.664   3.873  17.339  0.9620  0.5713 -1.1484
 8131SOL    HW236027   1.643   3.939  17.472  0.1068  0.2238 -0.0582
 8132SOL     OW36028   0.220   2.892   4.994  0.4065 -0.0159 -0.0118
 8132SOL    HW136029   0.144   2.857   5.040 -0.9908  2.1634 -0.6571
 8132SOL    HW236030   0.193   2.979   4.964 -0.2540  0.5368  2.1972
 8133SOL     OW36031   3.334   3.388   8.585  0.1841  0.1472  0.4432
 8133SOL    HW136032   3.266   3.324   8.565 -0.7623  0.6543  1.9767
 8133SOL    HW236033   3.385   3.324   8.634 -0.3347 -2.0341 -1.9154
 8134SOL     OW36034   4.496   2.210  13.551  0.2202 -0.0276 -0.3265
 8134SOL    HW136035   4.571   2.248  13.505 -0.1916  0.4093 -0.6307
 8134SOL    HW236036   4.478   2.275  13.619  1.9926  0.0092  0.1196
 8135SOL     OW36037   1.221   0.225  15.680 -0.6694 -0.5534 -0.2732
 8135SOL    HW136038   1.262   0.144  15.648  1.5094  0.6526 -0.5248
 8135SOL    HW236039   1.150   0.232  15.617 -0.4075  2.2297 -0.2328
 8136SOL     OW36040   1.770   1.673   6.726 -0.2345 -0.0454  0.4724
 8136SOL    HW136041   1.775   1.586   6.765  0.9899  0.3668  1.2612
 8136SOL    HW236042   1.828   1.665   6.650 -0.3716 -1.5042  0.5251
 8137SOL     OW36043   2.090   2.808   0.927  0.0725 -0.1079  0.3830
 8137SOL    HW136044   2.082   2.886   0.873 -3.0639 -0.3218  0.5451
 8137SOL    HW236045   2.016   2.815   0.988  0.0709 -3.2378  0.7465
 8138SOL     OW36046   3.229   2.989  13.544  0.2184  0.2840 -0.3318
 8138SOL    HW136047   3.300   3.042  13.507  0.6609 -0.1861 -0.1477
 8138SOL    HW236048   3.174   2.990  13.466 -2.5149 -2.8871  1.5914
 8139SOL     OW36049   2.007   2.257   5.796 -0.0093 -0.0866 -0.3195
 8139SOL    HW136050   1.993   2.324   5.863  0.4814 -0.0497 -0.2561
 8139SOL    HW236051   1.996   2.312   5.718  2.2857  1.7452  0.6519
 8140SOL     OW36052   3.370   2.915   9.638 -0.5266 -0.3838 -0.1368
 8140SOL    HW136053   3.374   2.861   9.559 -1.7896 -0.6985  0.0069
 8140SOL    HW236054   3.374   2.861   9.717  0.1129  2.4289  1.7742
 8141SOL     OW36055   0.374   0.044   8.000 -0.1889 -0.8462 -0.2317
 8141SOL    HW136056   0.339   0.052   7.911  0.8259 -0.3741 -0.5895
 8141SOL    HW236057   0.405   0.134   8.010 -0.0853 -0.7423 -1.5147
 8142SOL     OW36058   4.353   0.749  16.742  0.1424 -0.2496 -0.2240
 8142SOL    HW136059   4.258   0.742  16.755  0.6107 -0.7126  3.0201
 8142SOL    HW236060   4.359   0.779  16.652 -0.2458  2.5840  0.6790
 8143SOL     OW36061   2.724   2.944   9.932  0.1396 -0.4041  0.4780
 8143SOL    HW136062   2.759   2.994  10.005  0.8394 -2.1510  1.3323
 8143SOL    HW236063   2.632   2.969   9.939  0.5306  0.4928  2.3146
 8144SOL     OW36064   1.877   0.048   7.555  0.3805 -0.2084  0.3301
 8144SOL    HW136065   1.934   0.039   7.479 -0.5445  3.2504 -0.7870
 8144SOL    HW236066   1.895   0.141   7.571 -0.2166 -0.0164 -0.0779
 8145SOL     OW36067   4.542   1.933   5.460  0.3416 -0.1136 -0.7233
 8145SOL    HW136068   4.581   1.918   5.374 -1.2005 -0.0674 -1.4412
 8145SOL    HW236069   4.619   1.967   5.505  0.6951 -1.9200  0.0389
 8146SOL     OW36070   3.574   1.462   2.766 -0.4043 -0.4418 -0.4777
 8146SOL    HW136071   3.605   1.412   2.691  2.2524  0.6064 -0.0602
 8146SOL    HW236072   3.582   1.407   2.844 -0.1211  2.8413  1.8060
 8147SOL     OW36073   0.876   0.775  16.803  0.2331  0.0428  0.1664
 8147SOL    HW136074   0.911   0.839  16.864  2.1389  0.2640 -1.1830
 8147SOL    HW236075   0.827   0.715  16.860 -1.5043  0.7292 -0.5834
 8148SOL     OW36076   4.124   3.757   1.743 -0.1381  0.0051 -0.3897
 8148SOL    HW136077   4.134   3.850   1.719 -5.2970  0.6866  0.1815
 8148SOL    HW236078   4.064   3.762   1.817  0.9600 -1.4733  0.5766
 8149SOL     OW36079   1.842   1.713   9.646 -0.4002 -0.6550 -0.6381
 8149SOL    HW136080   1.928   1.749   9.625  0.7711 -1.6333  2.4393
 8149SOL    HW236081   1.805   1.784   9.700 -1.0056 -0.8622 -0.7826
 8150SOL     OW36082   3.171   1.740  13.365  0.1618 -0.0252 -0.1468
 8150SOL    HW136083   3.161   1.699  13.451  0.6212  2.2357  1.0074
 8150SOL    HW236084   3.170   1.834  13.385 -1.0691 -0.5914  2.4343
 8151SOL     OW36085   0.204   0.079  10.830  0.8831 -0.0702 -0.1338
 8151SOL    HW136086   0.122   0.069  10.783 -0.2767  0.1667  1.8313
 8151SOL    HW236087   0.175   0.136  10.902 -0.6790 -0.0132 -0.8078
 8152SOL     OW36088   3.194   0.505   2.625  0.5733  0.3043 -0.3256
 8152SOL    HW136089   3.246   0.577   2.661 -1.1287  1.0811  0.5936
 8152SOL    HW236090   3.137   0.499   2.702 -0.8093  1.9729 -1.2112
 8153SOL     OW36091   0.975   3.163   5.316 -0.4888 -0.2571 -0.3791
 8153SOL    HW136092   0.990   3.251   5.282 -0.9048 -0.8835 -2.2085
 8153SOL    HW236093   0.883   3.179   5.338 -0.6941 -0.6708 -0.9336
 8154SOL     OW36094   0.458   3.807   1.405  0.1434  0.7831  0.5777
 8154SOL    HW136095   0.362   3.804   1.399  0.2686 -1.9373  0.0799
 8154SOL    HW236096   0.478   3.769   1.320 -0.5545  1.0953  0.2729
 8155SOL     OW36097   1.797   2.975   6.302  0.3648  0.2470 -0.2195
 8155SOL    HW136098   1.723   3.035   6.307 -0.1284 -0.2902 -0.9375
 8155SOL    HW236099   1.810   2.959   6.208 -0.9942 -0.1405 -0.3420
 8156SOL     OW36100   1.858   4.101   2.078 -0.0868 -1.1497  0.6249
 8156SOL    HW136101   1.915   4.127   2.006  0.6211 -1.0460  1.2217
 8156SOL    HW236102   1.919   4.112   2.152 -1.5762  1.4740  1.4639
 8157SOL     OW36103   4.445   3.359   3.440 -0.3117 -0.1912 -0.4868
 8157SOL    HW136104   4.509   3.423   3.473 -0.6041 -0.2788  0.2628
 8157SOL    HW236105   4.423   3.331   3.529 -2.2306  1.6542 -0.3719
 8158SOL     OW36106   2.360   0.510   5.266  0.1249  0.1631 -0.0823
 8158SOL    HW136107   2.406   0.481   5.188 -1.7035  0.8057 -1.4001
 8158SOL    HW236108   2.423   0.473   5.328  1.0791 -1.0983 -1.8261
 8159SOL     OW36109   3.694   1.292   7.845  0.2012  0.1595  0.0533
 8159SOL    HW136110   3.672   1.359   7.909  0.9556 -1.3172  1.8347
 8159SOL    HW236111   3.785   1.267   7.860  1.3297  2.2628 -2.9860
 8160SOL     OW36112   0.531   3.539   4.986  0.4782 -0.2326  0.5082
 8160SOL    HW136113   0.568   3.627   4.998  4.0060 -1.3786 -1.9904
 8160SOL    HW236114   0.544   3.528   4.892  1.4149  0.8747  0.5043
 8161SOL     OW36115   3.545   2.295   1.997  0.4812 -0.4601  0.1273
 8161SOL    HW136116   3.550   2.275   1.903  2.3710  1.3409 -0.1465
 8161SOL    HW236117   3.494   2.217   2.021 -1.1119  1.3890  2.6681
 8162SOL     OW36118   3.032   3.966  15.262 -0.3949  0.1516  0.1493
 8162SOL    HW136119   3.051   4.025  15.189 -1.6480  0.6188  0.1981
 8162SOL    HW236120   3.095   3.998  15.326 -1.1210 -0.2712  1.0770
 8163SOL     OW36121   1.047   2.367   8.374 -0.0693  0.1551 -0.6317
 8163SOL    HW136122   1.048   2.450   8.423 -1.0791  1.0435 -2.1312
 8163SOL    HW236123   1.132   2.340   8.409 -0.2032 -0.7063 -0.9810
 8164SOL     OW36124   1.635   1.736   3.328  0.1498 -0.1330  0.2951
 8164SOL    HW136125   1.723   1.704   3.348  0.4539  1.2495  1.1324
 8164SOL    HW236126   1.577   1.676   3.376 -0.5788  0.1166 -0.2810
 8165SOL     OW36127   3.784   3.028   2.035  0.0990  1.2014 -0.7036
 8165SOL    HW136128   3.814   2.946   1.997  0.0951  1.7798 -1.9542
 8165SOL    HW236129   3.707   3.037   1.978  0.6967  0.4637 -1.6030
 8166SOL     OW36130   2.417   3.147  15.194  0.0831  0.3261  0.4908
 8166SOL    HW136131   2.422   3.059  15.158 -0.9259  0.1986  0.6542
 8166SOL    HW236132   2.356   3.127  15.265 -0.3639  0.5804  0.1742
 8167SOL     OW36133   3.308   4.232   7.226  0.0388 -0.3354  0.2113
 8167SOL    HW136134   3.278   4.265   7.142 -0.0390  0.2386  0.4656
 8167SOL    HW236135   3.350   4.150   7.199  0.8662  0.1112  0.1489
 8168SOL     OW36136   0.516   2.827   6.574  0.0520 -0.0038  0.1019
 8168SOL    HW136137   0.566   2.897   6.532 -1.6464  0.5433 -1.0075
 8168SOL    HW236138   0.550   2.755   6.522  1.3226  1.1957 -0.7101
 8169SOL     OW36139   1.158   3.673   8.758  0.3059  0.2489  0.4881
 8169SOL    HW136140   1.071   3.648   8.790  0.9334 -1.2722  0.9694
 8169SOL    HW236141   1.223   3.616   8.799  1.0127  0.7087 -0.0093
 8170SOL     OW36142   1.488   4.243   3.606  0.2482  0.7560  0.7244
 8170SOL    HW136143   1.442   4.320   3.575  0.2522  0.9285  1.1450
 8170SOL    HW236144   1.437   4.229   3.686 -1.9593  0.9194 -0.6583
 8171SOL     OW36145   3.914   2.488  17.437 -0.0420  0.3232  0.3099
 8171SOL    HW136146   3.866   2.568  17.460  1.9518  2.4028 -2.7003
 8171SOL    HW236147   3.872   2.418  17.486  1.1440 -0.2082  0.5466
 8172SOL     OW36148   1.423   0.339   0.407 -0.1891  0.0928  0.0705
 8172SOL    HW136149   1.446   0.305   0.321  0.0236 -0.9123  0.5286
 8172SOL    HW236150   1.359   0.407   0.386  0.7887  1.4463  1.4401
 8173SOL     OW36151   4.158   0.583  11.406 -0.0176 -0.2840  0.0150
 8173SOL    HW136152   4.239   0.543  11.436  0.2306  0.5171  0.4007
 8173SOL    HW236153   4.098   0.549  11.473  0.2133 -1.0580 -0.1738
 8174SOL     OW36154   0.485   3.934  13.891 -0.7954  0.0162  0.2145
 8174SOL    HW136155   0.517   4.021  13.866  0.4086 -0.4235  0.2287
 8174SOL    HW236156   0.515   3.929  13.982 -0.8003 -0.0940  0.2095
 8175SOL     OW36157   4.378   2.139  15.595  0.9919 -0.6905 -0.0470
 8175SOL    HW136158   4.375   2.233  15.579  2.2897 -0.6539 -0.0869
 8175SOL    HW236159   4.286   2.112  15.596  0.8988 -0.2640  3.2056
 8176SOL     OW36160   0.238   4.133  13.527 -0.0732  0.1343  0.3261
 8176SOL    HW136161   0.257   4.108  13.618  0.3257 -1.1037 -0.0965
 8176SOL    HW236162   0.143   4.135  13.535 -0.2673 -2.6009 -1.4380
 8177SOL     OW36163   1.525   2.082   4.398 -0.0677  0.3858  0.2195
 8177SOL    HW136164   1.588   2.085   4.470 -0.4550  1.1396  0.5374
 8177SOL    HW236165   1.573   2.123   4.326 -0.3886 -0.5704 -0.5352
 8178SOL     OW36166   1.327   2.674   0.049  0.1332 -0.2678 -0.8478
 8178SOL    HW136167   1.390   2.736   0.086 -1.9941  0.1147  2.1570
 8178SOL    HW236168   1.249   2.721   0.079  1.8961  0.5145  2.5945
 8179SOL     OW36169   4.271   4.089   3.244 -0.2713 -0.2070 -0.6321
 8179SOL    HW136170   4.325   4.095   3.166 -1.3290  0.8201 -1.2708
 8179SOL    HW236171   4.317   4.152   3.299 -0.1638 -0.7278 -0.1193
 8180SOL     OW36172   3.748   1.449   7.507  0.3308  0.4694 -0.8759
 8180SOL    HW136173   3.783   1.538   7.517  1.1273  0.0118  0.4320
 8180SOL    HW236174   3.668   1.444   7.559 -0.0460  0.5628 -1.4555
 8181SOL     OW36175   0.530   1.469  15.910 -0.0479 -0.1480  0.4919
 8181SOL    HW136176   0.616   1.471  15.952 -0.6563  0.3397  1.6977
 8181SOL    HW236177   0.547   1.528  15.837  0.0261 -1.3965 -0.5016
 8182SOL     OW36178   3.573   1.965   9.004  0.1672  0.1566 -0.2473
 8182SOL    HW136179   3.625   2.016   8.941  0.1878  0.2256 -0.1742
 8182SOL    HW236180   3.492   2.014   9.017  0.2762  0.7728 -1.8149
 8183SOL     OW36181   2.797   1.883  16.274  0.2646  0.4067 -0.7719
 8183SOL    HW136182   2.801   1.915  16.184  0.5499  0.2370 -0.8177
 8183SOL    HW236183   2.875   1.917  16.317 -1.0806  0.4719  1.6172
 8184SOL     OW36184   0.408   1.994   3.993 -0.1773 -0.2702 -0.2557
 8184SOL    HW136185   0.455   2.072   4.026 -0.9143  0.3635 -0.7168
 8184SOL    HW236186   0.489   1.954   3.961  0.1570  1.2837 -1.3720
 8185SOL     OW36187   1.419   3.413   0.503 -0.2942 -0.7679  0.1250
 8185SOL    HW136188   1.472   3.464   0.442 -0.1907 -0.9654  0.0531
 8185SOL    HW236189   1.338   3.392   0.455 -0.0987  1.0977 -1.0443
 8186SOL     OW36190   2.879   4.080  17.107  0.0387  0.1095  0.1513
 8186SOL    HW136191   2.938   4.122  17.044  0.2743 -0.7955 -0.2334
 8186SOL    HW236192   2.914   3.992  17.093  0.4936  0.3099  0.0136
 8187SOL     OW36193   3.145   2.729   4.749  0.1152  0.0163  0.1063
 8187SOL    HW136194   3.218   2.736   4.811  0.4744 -0.7538 -0.2400
 8187SOL    HW236195   3.166   2.775   4.668 -2.4075  1.1435  0.0883
 8188SOL     OW36196   2.692   3.687   7.180  0.2390 -0.1874  0.0181
 8188SOL    HW136197   2.623   3.690   7.247  1.8190  2.2580  1.5294
 8188SOL    HW236198   2.634   3.693   7.104  1.1747  1.6209 -0.5448
 8189SOL     OW36199   3.156   2.955   7.512  0.0310  0.4484  0.4130
 8189SOL    HW136200   3.096   3.007   7.458 -1.2864 -2.4972 -0.9839
 8189SOL    HW236201   3.160   2.998   7.597 -0.5094  0.7815  0.2710
 8190SOL     OW36202   0.924   0.624   4.843  0.1356  0.8274 -0.8890
 8190SOL    HW136203   0.832   0.638   4.865  0.4510  1.7809 -0.2098
 8190SOL    HW236204   0.928   0.636   4.748 -2.1655  0.5928 -1.0238
 8191SOL     OW36205   2.808   4.200  15.664 -0.5715  0.3803 -0.2467
 8191SOL    HW136206   2.858   4.278  15.691 -0.3197  0.9133 -2.3005
 8191SOL    HW236207   2.874   4.147  15.620  0.5387  0.4158  1.3558
 8192SOL     OW36208   0.680   0.113   7.646  0.1493 -0.0126 -0.5378
 8192SOL    HW136209   0.643   0.168   7.716 -0.9219 -1.5540  0.1004
 8192SOL    HW236210   0.696   0.179   7.579  1.2371  0.6091  0.3362
 8193SOL     OW36211   3.409   1.937   5.351 -0.1499 -0.2108  0.1461
 8193SOL    HW136212   3.412   2.010   5.289  1.0164 -0.7563 -0.4349
 8193SOL    HW236213   3.450   1.985   5.422  0.5215  1.1512 -1.1608
 8194SOL     OW36214   1.350   2.220   9.149  0.0467  0.4008 -0.1345
 8194SOL    HW136215   1.372   2.309   9.121 -0.6377  0.2214 -1.2370
 8194SOL    HW236216   1.280   2.226   9.214 -0.1268  1.4420 -0.4158
 8195SOL     OW36217   3.298   4.134   3.384  0.3268  0.1090 -0.5041
 8195SOL    HW136218   3.379   4.088   3.404  0.0393 -1.5045 -3.1456
 8195SOL    HW236219   3.240   4.057   3.385 -0.7703  0.9514  1.4784
 8196SOL     OW36220   2.069   2.887   9.807  0.0571  0.1561 -0.1381
 8196SOL    HW136221   2.108   2.863   9.890  0.4877  0.1853 -0.3298
 8196SOL    HW236222   2.002   2.953   9.824  1.4511  1.2547  1.1279
 8197SOL     OW36223   1.880   2.293   1.346  0.1660 -0.0641  0.2957
 8197SOL    HW136224   1.957   2.347   1.331 -0.2532 -0.0391 -1.7371
 8197SOL    HW236225   1.850   2.336   1.426 -0.0923  0.6540 -0.1845
 8198SOL     OW36226   2.752   3.759   5.732  0.4781  0.1802 -0.6737
 8198SOL    HW136227   2.721   3.671   5.713 -0.0356  0.4807 -1.2545
 8198SOL    HW236228   2.816   3.777   5.663  1.6948  0.6765  0.5763
 8199SOL     OW36229   3.992   3.806   4.935  0.1918 -0.1543 -0.2547
 8199SOL    HW136230   3.911   3.771   4.971  0.2146 -0.3441 -0.3905
 8199SOL    HW236231   4.014   3.868   5.005 -0.2004  0.0357 -0.3031
 8200SOL     OW36232   4.354   3.854   2.157  0.6498 -0.1070  0.4207
 8200SOL    HW136233   4.307   3.933   2.130 -0.3341 -0.0731  2.2369
 8200SOL    HW236234   4.290   3.792   2.192  0.6485  0.7475  1.9416
 8201SOL     OW36235   1.647   2.484   0.906 -0.6470 -0.0675 -0.0878
 8201SOL    HW136236   1.735   2.517   0.887  0.4200 -2.1637  1.2102
 8201SOL    HW236237   1.660   2.450   0.995  0.5372 -0.4818 -0.4138
 8202SOL     OW36238   3.097   0.881   6.004  0.2040  0.0446 -0.0302
 8202SOL    HW136239   3.106   0.916   6.093  1.1855  0.4557 -0.2886
 8202SOL    HW236240   3.150   0.938   5.948  0.1488 -1.7792 -1.9219
 8203SOL     OW36241   3.681   0.150   5.050  0.1035  0.6789 -0.4979
 8203SOL    HW136242   3.650   0.241   5.046  1.5246  1.1190 -1.8828
 8203SOL    HW236243   3.642   0.106   4.974  0.7160  1.9884 -1.5891
 8204SOL     OW36244   0.529   1.738  16.113  0.2543 -0.0440  0.0248
 8204SOL    HW136245   0.617   1.723  16.078  0.6574 -0.2467  1.1406
 8204SOL    HW236246   0.547   1.803  16.180 -0.9405  1.3486 -1.0026
 8205SOL     OW36247   0.658   3.006   8.727 -0.1616  0.5453  0.1813
 8205SOL    HW136248   0.745   3.032   8.758 -0.1041  0.5314  0.0265
 8205SOL    HW236249   0.622   3.091   8.703 -2.6324 -1.0755 -1.7443
 8206SOL     OW36250   3.020   1.140   7.695  0.5113 -0.0068  0.0332
 8206SOL    HW136251   3.086   1.159   7.629 -0.3979 -0.4467 -1.0036
 8206SOL    HW236252   2.941   1.171   7.650  0.9075  0.1145 -0.5842
 8207SOL     OW36253   4.331   3.303   4.155 -0.4836  0.5422 -0.2857
 8207SOL    HW136254   4.323   3.219   4.110  2.8152 -0.9802  2.0192
 8207SOL    HW236255   4.241   3.336   4.147 -1.0054 -0.6519  0.6365
 8208SOL     OW36256   2.539   4.181   2.912  0.1157 -0.3604  0.1894
 8208SOL    HW136257   2.502   4.093   2.908  1.2329 -0.8946  1.5820
 8208SOL    HW236258   2.614   4.167   2.970  0.3573 -1.7783 -0.4930
 8209SOL     OW36259   2.695   1.932   5.700 -0.0306  0.2232  0.5548
 8209SOL    HW136260   2.740   1.903   5.621 -1.0796 -3.0599  1.1797
 8209SOL    HW236261   2.739   2.017   5.702 -0.8049  0.6185  0.8425
 8210SOL     OW36262   4.701   3.068   2.904  0.4520 -0.2209  0.0938
 8210SOL    HW136263   0.000   3.035   2.820 -2.6233 -1.5379 -0.5663
 8210SOL    HW236264   0.051   3.084   2.950 -0.7232  1.4272  1.6223
 8211SOL     OW36265   2.787   4.343   3.892  0.7212  0.7195 -0.3843
 8211SOL    HW136266   2.775   4.390   3.974 -1.3551  0.1237 -0.3546
 8211SOL    HW236267   2.817   4.411   3.831  0.2496  1.8984  0.7014
 8212SOL     OW36268   2.562   2.763  14.663  0.1566  0.6282  0.0046
 8212SOL    HW136269   2.611   2.686  14.693 -2.3166 -1.7586 -1.9927
 8212SOL    HW236270   2.488   2.707  14.639  2.5078 -2.0449 -1.1647
 8213SOL     OW36271   2.658   1.813   6.851  0.2292  0.3068 -0.3058
 8213SOL    HW136272   2.638   1.896   6.894 -0.6121  0.2545 -0.6120
 8213SOL    HW236273   2.611   1.750   6.906  0.7981 -0.0151 -0.1773
 8214SOL     OW36274   2.253   3.373  16.993 -0.3037  0.9785  0.2520
 8214SOL    HW136275   2.274   3.439  16.927 -1.0905  1.5579  0.5825
 8214SOL    HW236276   2.258   3.426  17.072  2.7889  0.4233  0.4193
 8215SOL     OW36277   4.026   3.972   5.497 -0.4740  0.1820 -0.0003
 8215SOL    HW136278   4.015   4.028   5.420  0.7544 -2.2714 -1.9747
 8215SOL    HW236279   4.040   3.889   5.451  1.2168 -0.0082  0.8449
 8216SOL     OW36280   3.630   1.303  11.808  0.1745 -0.1909  0.6528
 8216SOL    HW136281   3.676   1.383  11.833 -2.1920  1.0854  0.9299
 8216SOL    HW236282   3.681   1.228  11.839  0.9324  0.6753  1.4803
 8217SOL     OW36283   2.948   3.520   6.144 -0.0033 -0.3223  0.4148
 8217SOL    HW136284   2.883   3.565   6.092  1.1430  0.6400 -0.1842
 8217SOL    HW236285   2.907   3.508   6.230 -0.4740  0.8556  0.3431
 8218SOL     OW36286   2.824   0.199   4.862 -0.5635  0.0939  0.1161
 8218SOL    HW136287   2.761   0.269   4.878 -0.0885  0.9892 -1.9567
 8218SOL    HW236288   2.776   0.121   4.890  0.0513  0.0336  1.0037
 8219SOL     OW36289   2.606   0.103   1.550 -0.6092  0.1469  0.1256
 8219SOL    HW136290   2.572   0.105   1.640 -0.2567  0.3997  0.2535
 8219SOL    HW236291   2.694   0.069   1.564 -0.0876  1.1977 -0.5829
 8220SOL     OW36292   0.528   4.276   9.834 -0.3715  0.2998 -0.4413
 8220SOL    HW136293   0.492   4.235   9.912  0.8770 -0.8712 -0.4670
 8220SOL    HW236294   0.470   4.352   9.830  0.8646  1.2569 -0.1994
 8221SOL     OW36295   3.032   3.826  17.166 -0.1005 -0.4417  0.0857
 8221SOL    HW136296   3.040   3.731  17.166  1.4810 -0.3113  0.0535
 8221SOL    HW236297   3.004   3.837  17.075  0.2545 -1.6514 -0.1633
 8222SOL     OW36298   2.570   0.671  16.789 -0.7302  0.0495  0.4526
 8222SOL    HW136299   2.581   0.696  16.697  0.6974 -0.9156  0.3504
 8222SOL    HW236300   2.608   0.746  16.835  1.0622 -0.2461 -0.5185
 8223SOL     OW36301   1.637   2.534   9.801 -0.0988  0.0264  0.0357
 8223SOL    HW136302   1.649   2.627   9.784 -2.8522  0.8666  2.8219
 8223SOL    HW236303   1.721   2.492   9.783  0.3438  0.2009  1.7186
 8224SOL     OW36304   4.561   1.722  12.827  0.6107 -0.1570  0.1993
 8224SOL    HW136305   4.597   1.774  12.898 -0.2145  0.2598  0.3198
 8224SOL    HW236306   4.486   1.769  12.789  0.5614 -0.5885 -0.2354
 8225SOL     OW36307   1.271   0.704   1.979  0.2190  1.0769  0.2820
 8225SOL    HW136308   1.326   0.777   2.009  1.4207  0.9282 -1.6080
 8225SOL    HW236309   1.301   0.629   2.031 -0.5884 -0.2868 -1.2278
 8226SOL     OW36310   0.911   1.473   0.161 -0.0824  0.2315 -0.0428
 8226SOL    HW136311   0.966   1.551   0.155 -2.0454  1.5693 -0.9432
 8226SOL    HW236312   0.948   1.402   0.109  1.6340 -0.0114  1.5568
 8227SOL     OW36313   1.329   2.701   9.891 -0.1092 -0.1424  0.2186
 8227SOL    HW136314   1.334   2.644   9.814  1.0488  0.6099 -0.2459
 8227SOL    HW236315   1.234   2.711   9.882 -0.0891 -0.5012 -0.4374
 8228SOL     OW36316   0.901   3.581   8.674 -0.2204  0.4575 -0.0813
 8228SOL    HW136317   0.885   3.634   8.596 -1.6933 -1.8428 -1.3517
 8228SOL    HW236318   0.978   3.542   8.635  0.4522  1.7118 -0.0094
 8229SOL     OW36319   0.855   2.992   7.142 -0.5158  0.0670 -0.0713
 8229SOL    HW136320   0.928   3.052   7.161  1.2950 -1.4785 -2.2081
 8229SOL    HW236321   0.799   2.999   7.220 -1.1166  1.6213 -0.6415
 8230SOL     OW36322   3.109   3.349   7.117  0.4104  0.0042  0.2348
 8230SOL    HW136323   3.013   3.347   7.113  0.5033  0.4500 -2.4315
 8230SOL    HW236324   3.119   3.333   7.210  1.6306 -0.9743 -0.0698
 8231SOL     OW36325   3.396   2.799   2.187  0.0481 -0.1567 -0.4726
 8231SOL    HW136326   3.406   2.732   2.119 -0.0252 -1.7428  1.0619
 8231SOL    HW236327   3.454   2.762   2.254 -0.1568 -0.3742 -0.4150
 8232SOL     OW36328   1.904   2.473   9.196 -0.5448 -0.0646 -0.5742
 8232SOL    HW136329   1.878   2.421   9.272 -1.0937 -0.6220 -1.1418
 8232SOL    HW236330   1.971   2.538   9.216 -0.1111 -0.9287  0.8294
 8233SOL     OW36331   0.662   0.704   4.011  0.0951 -0.3302 -0.4224
 8233SOL    HW136332   0.593   0.758   4.049 -0.3798 -2.4471  1.7083
 8233SOL    HW236333   0.721   0.716   4.085 -1.9525  0.9820  1.0024
 8234SOL     OW36334   2.009   3.438   4.526  0.2382 -0.5344 -0.5504
 8234SOL    HW136335   2.000   3.516   4.582  1.5927  2.2614 -4.2368
 8234SOL    HW236336   2.046   3.478   4.447 -2.6258  3.1142 -0.0736
 8235SOL     OW36337   0.071   0.191   4.159  0.2067 -0.2122  0.2328
 8235SOL    HW136338   0.112   0.113   4.195 -1.0921 -1.3881 -0.8515
 8235SOL    HW236339   0.087   0.171   4.067  1.3139 -2.8499  0.9993
 8236SOL     OW36340   3.424   2.582   0.521 -0.0487  0.1863  0.1717
 8236SOL    HW136341   3.458   2.669   0.501  0.9263  0.1133  1.4913
 8236SOL    HW236342   3.410   2.545   0.434 -0.9838  1.4032 -0.1779
 8237SOL     OW36343   4.727   3.269   9.412  0.3277 -0.3804  0.1445
 8237SOL    HW136344   4.680   3.187   9.432  0.2887  0.1804  2.2949
 8237SOL    HW236345   0.064   3.240   9.353 -1.4448 -0.9276 -1.7009
 8238SOL     OW36346   2.946   3.705   5.540  0.0506  0.3839 -0.3491
 8238SOL    HW136347   2.934   3.683   5.448  1.5212  1.4378 -0.7948
 8238SOL    HW236348   3.041   3.717   5.536 -0.1342  1.7316 -0.6587
 8239SOL     OW36349   1.915   2.994   8.071 -0.1232 -0.0056  0.5847
 8239SOL    HW136350   1.884   2.998   8.162 -2.0591  1.2308 -0.1343
 8239SOL    HW236351   1.978   3.066   8.067  1.3985 -1.4961 -2.2203
 8240SOL     OW36352   1.081   4.123   2.100  0.1037 -0.3990  0.7955
 8240SOL    HW136353   1.126   4.178   2.035 -2.6013  1.9993  0.9543
 8240SOL    HW236354   1.039   4.193   2.151 -0.6838  0.2433 -0.7312
 8241SOL     OW36355   3.037   1.334   8.076  0.4066  0.2072 -0.0350
 8241SOL    HW136356   2.956   1.384   8.085 -0.0319 -0.2513 -1.3574
 8241SOL    HW236357   3.038   1.323   7.981 -0.0465  0.7097 -0.0972
 8242SOL     OW36358   0.895   0.745   9.147  0.0784  0.0610  0.7005
 8242SOL    HW136359   0.826   0.732   9.212 -0.6550  0.7171  0.0384
 8242SOL    HW236360   0.858   0.693   9.076  0.0430 -1.2235  1.6515
 8243SOL     OW36361   1.585   2.162   6.153  0.3804  0.0679 -0.1442
 8243SOL    HW136362   1.627   2.098   6.210 -1.2034  0.1514  1.1360
 8243SOL    HW236363   1.575   2.116   6.070 -2.0777  4.3464 -2.2533
 8244SOL     OW36364   3.235   3.371   3.318 -0.1154 -0.3302 -0.2099
 8244SOL    HW136365   3.142   3.378   3.337 -0.0059  1.2047 -0.2879
 8244SOL    HW236366   3.276   3.392   3.402 -0.4067 -1.3176  0.1844
 8245SOL     OW36367   0.807   0.800  14.149  0.7475  0.3584 -0.2260
 8245SOL    HW136368   0.723   0.802  14.102 -0.2114 -3.9617  1.2873
 8245SOL    HW236369   0.832   0.708  14.147  0.1414  0.2213 -1.6766
 8246SOL     OW36370   0.349   0.766   3.330  0.1867 -0.4474 -1.1466
 8246SOL    HW136371   0.312   0.847   3.366 -2.0946 -1.7193 -0.6301
 8246SOL    HW236372   0.281   0.706   3.360  0.1744  1.0956  1.8985
 8247SOL     OW36373   0.862   0.438   4.409 -0.1372 -0.4315  0.2684
 8247SOL    HW136374   0.869   0.359   4.464  1.8063 -0.0482  0.5481
 8247SOL    HW236375   0.819   0.401   4.332 -0.7740  3.0401 -1.0556
 8248SOL     OW36376   0.248   4.510  15.414  0.3554  0.1804  0.1817
 8248SOL    HW136377   0.313   4.580  15.407  0.0748  0.5721  1.4509
 8248SOL    HW236378   0.305   4.446  15.456 -1.0991 -0.5555  1.0574
 8249SOL     OW36379   2.868   2.264   6.637  0.2320 -0.0670  0.6565
 8249SOL    HW136380   2.877   2.308   6.721  0.3003  0.7503  0.2190
 8249SOL    HW236381   2.960   2.251   6.613  0.4740  0.6045  1.2210
 8250SOL     OW36382   0.642   2.762   7.261 -0.3803 -0.2412  0.0542
 8250SOL    HW136383   0.648   2.818   7.184 -0.2934  1.5550  1.3864
 8250SOL    HW236384   0.631   2.821   7.335  1.4756 -0.5498  0.5704
 8251SOL     OW36385   4.500   2.913  16.019 -0.0543  0.8760 -0.1865
 8251SOL    HW136386   4.580   2.860  16.024  0.8119  2.1426 -0.4972
 8251SOL    HW236387   4.477   2.893  15.928  0.3109 -0.5375  0.0298
 8252SOL     OW36388   2.510   3.142   4.455  0.2880  0.0268  0.2178
 8252SOL    HW136389   2.597   3.181   4.452  0.4550 -0.4016 -0.5117
 8252SOL    HW236390   2.528   3.054   4.420 -0.0004  0.0089  0.1144
 8253SOL     OW36391   2.825   2.987   4.031 -0.0520 -0.1962  0.0509
 8253SOL    HW136392   2.754   2.968   3.970 -0.9509 -2.6818  1.9019
 8253SOL    HW236393   2.771   3.012   4.106  0.7454 -1.6504  1.1098
 8254SOL     OW36394   1.009   0.186   3.794  0.3568 -0.0032 -0.3185
 8254SOL    HW136395   1.054   0.135   3.727 -1.2628  0.4251 -1.7318
 8254SOL    HW236396   1.072   0.259   3.789 -0.3240  0.7018  1.2922
 8255SOL     OW36397   4.079   0.260   2.676  0.4822 -0.5171  0.1493
 8255SOL    HW136398   3.987   0.238   2.661  0.2608  0.1057  0.6424
 8255SOL    HW236399   4.086   0.331   2.612 -0.2096 -1.5654 -1.0835
 8256SOL     OW36400   2.127   3.973   9.653 -0.4039 -0.4017  0.1387
 8256SOL    HW136401   2.072   4.050   9.640  3.3254  1.9054 -2.0661
 8256SOL    HW236402   2.065   3.902   9.633  1.2673 -1.6933 -0.4929
 8257SOL     OW36403   3.006   3.942   6.316  0.4634  0.0746 -0.0971
 8257SOL    HW136404   3.052   3.862   6.290  1.6485  0.2750  1.3710
 8257SOL    HW236405   2.913   3.920   6.311  0.2583  0.9724 -0.3314
 8258SOL     OW36406   0.639   1.336   6.586  0.2573  0.5519 -0.3478
 8258SOL    HW136407   0.621   1.385   6.666  0.0460 -0.0799 -0.0064
 8258SOL    HW236408   0.668   1.408   6.530  1.2800  1.0133  0.7574
 8259SOL     OW36409   3.962   3.572  14.433 -0.4139 -0.0307  0.1503
 8259SOL    HW136410   3.914   3.556  14.352 -1.0304  0.7968  0.3642
 8259SOL    HW236411   3.998   3.484  14.448  1.7629  0.3499 -2.7999
 8260SOL     OW36412   1.355   0.009   2.635  0.4841  1.0466 -0.4352
 8260SOL    HW136413   1.348   0.080   2.699 -0.5647 -0.1009  0.7295
 8260SOL    HW236414   1.295   0.038   2.566  1.0682  1.9361 -0.5640
 8261SOL     OW36415   3.521   2.243  17.272 -0.4217  0.0509  0.1401
 8261SOL    HW136416   3.547   2.286  17.191  2.8859  1.6601  2.0681
 8261SOL    HW236417   3.491   2.164  17.227 -2.7053  2.1007 -1.9110
 8262SOL     OW36418   1.378   0.742   5.868 -0.1600  0.4306 -0.0805
 8262SOL    HW136419   1.325   0.663   5.879 -2.8149  2.3527  1.0308
 8262SOL    HW236420   1.304   0.800   5.854  0.3641  0.9962 -0.4922
 8263SOL     OW36421   2.111   1.721  11.569  0.0012 -0.3438  0.0234
 8263SOL    HW136422   2.174   1.649  11.566  1.7742  1.1356  1.3872
 8263SOL    HW236423   2.171   1.791  11.596  1.0576 -0.7411 -1.2731
 8264SOL     OW36424   1.597   0.510   2.165  0.4853  0.4158  0.3238
 8264SOL    HW136425   1.527   0.463   2.119  0.3763 -0.4722  1.4090
 8264SOL    HW236426   1.553   0.591   2.191 -1.8598 -0.5700 -0.5309
 8265SOL     OW36427   4.689   2.014  16.186  0.1840 -0.1133  0.5584
 8265SOL    HW136428   4.649   1.982  16.267 -0.3980  0.2617  0.4221
 8265SOL    HW236429   0.030   1.954  16.185 -0.1439 -0.4325 -2.1703
 8266SOL     OW36430   1.380   0.502   4.742  0.0293 -0.4342 -0.0939
 8266SOL    HW136431   1.307   0.514   4.802  0.1584 -1.1915  0.2161
 8266SOL    HW236432   1.437   0.573   4.770 -0.6255 -0.2422  0.7294
 8267SOL     OW36433   0.412   0.790   4.064  1.1842 -0.1155  0.4734
 8267SOL    HW136434   0.384   0.699   4.052  2.4011 -0.4419  0.1209
 8267SOL    HW236435   0.363   0.828   3.991 -0.4898 -0.6244  1.3204
 8268SOL     OW36436   1.755   3.385   7.990  0.3953 -0.3114 -0.1976
 8268SOL    HW136437   1.714   3.462   8.029 -1.1660 -0.9041 -0.6561
 8268SOL    HW236438   1.838   3.422   7.960  1.1065  0.6387  2.8996
 8269SOL     OW36439   1.186   3.791   3.775 -0.2410  0.6997  0.3836
 8269SOL    HW136440   1.269   3.787   3.822 -0.5749  0.9865  0.9942
 8269SOL    HW236441   1.126   3.746   3.835 -1.0581 -0.1258 -1.0498
 8270SOL     OW36442   2.637   4.600   8.893 -0.0410 -0.4801 -0.0554
 8270SOL    HW136443   2.566   4.554   8.939 -0.2133 -1.6022 -1.4129
 8270SOL    HW236444   2.707   4.535   8.891  1.8672  1.5652  0.8536
 8271SOL     OW36445   1.846   3.591  12.758  0.5128 -0.6892  0.0175
 8271SOL    HW136446   1.932   3.618  12.725 -0.3848  2.4624  0.2078
 8271SOL    HW236447   1.842   3.498  12.735  0.2850 -0.3935 -1.1162
 8272SOL     OW36448   0.071   0.809   2.341 -0.0208  0.2482 -0.1564
 8272SOL    HW136449   0.150   0.756   2.353  0.4296  1.0467  0.3779
 8272SOL    HW236450   0.088   0.865   2.265  2.4700 -0.2079  0.0763
 8273SOL     OW36451   0.649   3.850  11.509  0.4698 -0.0138  0.5714
 8273SOL    HW136452   0.622   3.897  11.588 -1.3583 -0.9453  0.4972
 8273SOL    HW236453   0.652   3.758  11.537  0.7126 -0.0316  0.4954
 8274SOL     OW36454   4.210   0.503   9.295 -0.0703  0.1855  0.0525
 8274SOL    HW136455   4.293   0.483   9.338 -0.5625  0.4900  1.1563
 8274SOL    HW236456   4.149   0.439   9.333  0.4425  0.2535  0.9968
 8275SOL     OW36457   4.602   0.740   6.757 -0.0371  0.3170 -0.1064
 8275SOL    HW136458   4.638   0.829   6.759  1.3086 -0.2557  1.4649
 8275SOL    HW236459   4.630   0.692   6.835 -1.2741 -1.1581 -0.5764
 8276SOL     OW36460   2.858   0.699   0.725  0.0665  0.3084 -0.1423
 8276SOL    HW136461   2.840   0.716   0.633  1.5859  0.1457 -0.4703
 8276SOL    HW236462   2.799   0.754   0.777  1.9113  0.5562  1.7183
 8277SOL     OW36463   0.377   0.096  10.597  0.0719  0.5646 -0.3478
 8277SOL    HW136464   0.459   0.061  10.629 -1.0838 -2.0652 -0.3147
 8277SOL    HW236465   0.316   0.072  10.667  0.1631 -0.6114 -0.6748
 8278SOL     OW36466   1.428   1.297   8.342 -0.9279 -0.1301  0.7093
 8278SOL    HW136467   1.495   1.309   8.275 -0.3005 -2.8833  0.8554
 8278SOL    HW236468   1.387   1.384   8.340  1.2800  0.9152  1.1505
 8279SOL     OW36469   4.010   3.715   5.412  0.3511  0.3307 -0.0032
 8279SOL    HW136470   3.950   3.668   5.470 -0.8989 -0.0525 -1.5879
 8279SOL    HW236471   4.047   3.639   5.368  1.1514  0.0193  1.2193
 8280SOL     OW36472   2.716   2.878   2.841  0.0080 -0.3280 -0.7940
 8280SOL    HW136473   2.761   2.928   2.910  2.6527  0.3664 -3.0284
 8280SOL    HW236474   2.793   2.843   2.796  1.4142 -0.0149  1.3495
 8281SOL     OW36475   1.120   4.102   4.608 -0.0873 -0.1479 -0.2013
 8281SOL    HW136476   1.191   4.124   4.669  0.9166  1.8194 -2.0885
 8281SOL    HW236477   1.044   4.066   4.653 -0.9614 -2.0572 -3.2158
 8282SOL     OW36478   0.219   0.869   2.734 -0.2608  0.4923 -0.0450
 8282SOL    HW136479   0.201   0.962   2.723 -1.7711  0.4872  2.2902
 8282SOL    HW236480   0.228   0.858   2.829  1.0385 -0.0687 -0.2352
 8283SOL     OW36481   2.822   1.954  13.742  0.1936 -0.1895  0.1502
 8283SOL    HW136482   2.902   1.917  13.703  1.0146  1.7736 -0.0289
 8283SOL    HW236483   2.758   1.955  13.671 -0.8415  2.2442  1.1314
 8284SOL     OW36484   0.431   3.599   7.603 -0.0093  0.1641 -0.1355
 8284SOL    HW136485   0.485   3.523   7.624 -1.5843 -1.4746 -2.0489
 8284SOL    HW236486   0.486   3.665   7.646  1.8365 -0.2683 -1.8411
 8285SOL     OW36487   0.569   2.375   2.614 -0.1275 -0.3292  0.3328
 8285SOL    HW136488   0.482   2.349   2.644  0.3923 -2.8807 -0.3973
 8285SOL    HW236489   0.573   2.324   2.534  0.6783  0.4051 -0.0894
 8286SOL     OW36490   4.647   4.191  13.854  0.2449 -0.1192  0.8135
 8286SOL    HW136491   4.556   4.217  13.871 -0.0815 -1.9399  1.8144
 8286SOL    HW236492   4.665   4.235  13.771  3.4184  1.2061  2.2306
 8287SOL     OW36493   1.593   4.466  14.980 -0.2012 -0.0265  0.6608
 8287SOL    HW136494   1.512   4.502  14.946 -0.2818  0.3466  1.2581
 8287SOL    HW236495   1.649   4.541  14.999  1.4011 -0.4190 -2.4121
 8288SOL     OW36496   3.519   1.085   8.494  0.0549  0.2331  0.1844
 8288SOL    HW136497   3.522   1.137   8.574 -0.0245  1.3806 -0.5591
 8288SOL    HW236498   3.425   1.085   8.477  0.4046 -1.7063 -1.8331
 8289SOL     OW36499   1.549   2.795   3.871  0.0682 -0.3123 -0.5282
 8289SOL    HW136500   1.494   2.716   3.874  0.6775 -0.7878 -1.8669
 8289SOL    HW236501   1.579   2.796   3.780 -0.7001 -1.9697 -0.8006
 8290SOL     OW36502   1.738   4.530   3.573 -0.2412 -0.2626  0.7757
 8290SOL    HW136503   1.744   4.454   3.515 -0.2547  0.7596 -0.5888
 8290SOL    HW236504   1.819   4.522   3.625  1.3961  2.4921 -1.3176
 8291SOL     OW36505   2.755   0.692   3.608  0.3253 -0.1486  0.2478
 8291SOL    HW136506   2.689   0.701   3.677 -1.4972  0.3019 -1.5536
 8291SOL    HW236507   2.805   0.620   3.645 -0.5949 -1.5605 -1.2474
 8292SOL     OW36508   3.399   3.216   4.998 -0.6648  0.2220 -0.1682
 8292SOL    HW136509   3.329   3.253   5.052  1.1890  2.5094  0.6726
 8292SOL    HW236510   3.434   3.156   5.064  2.0093 -1.4927 -3.1969
 8293SOL     OW36511   0.123   1.462   3.616 -0.3605 -0.2985  0.6918
 8293SOL    HW136512   0.208   1.420   3.625 -0.8388 -0.8956  2.2819
 8293SOL    HW236513   0.097   1.468   3.708  1.1298  1.0961  1.0150
 8294SOL     OW36514   4.341   4.499   2.726  0.2555  0.7515  0.0934
 8294SOL    HW136515   4.275   4.565   2.704 -0.7074 -1.0350 -2.3189
 8294SOL    HW236516   4.399   4.538   2.791 -0.9787  0.5534  1.2913
 8295SOL     OW36517   4.434   2.867   3.116  0.5115 -0.3545  0.6050
 8295SOL    HW136518   4.351   2.906   3.141 -0.5572 -0.7913 -2.2231
 8295SOL    HW236519   4.497   2.939   3.123 -1.7873  1.7694 -0.4305
 8296SOL     OW36520   0.492   3.602   2.504 -0.1753 -0.1286  0.7653
 8296SOL    HW136521   0.434   3.649   2.564 -0.5776 -0.4902  0.6646
 8296SOL    HW236522   0.513   3.667   2.437 -1.6007  0.0369  0.4779
 8297SOL     OW36523   2.835   3.011   5.114  0.4579  0.0467  0.2076
 8297SOL    HW136524   2.781   3.065   5.057 -0.7563 -0.2422  1.0940
 8297SOL    HW236525   2.802   2.923   5.097  1.3419 -0.2248 -0.1474
 8298SOL     OW36526   2.249   1.945   4.868  0.1411  0.4138 -0.0676
 8298SOL    HW136527   2.160   1.971   4.893 -0.0200 -1.9932  1.8838
 8298SOL    HW236528   2.232   1.952   4.774  0.7263  0.0259 -0.1979
 8299SOL     OW36529   3.346   3.471   3.542 -0.0185 -0.1633  0.0716
 8299SOL    HW136530   3.340   3.565   3.557  0.6835  0.4456 -3.4907
 8299SOL    HW236531   3.356   3.436   3.631 -0.6469  1.2936  0.7051
 8300SOL     OW36532   3.010   3.229  12.144 -1.1415  0.5693 -0.1341
 8300SOL    HW136533   3.067   3.157  12.115  1.1650  0.7442  3.8758
 8300SOL    HW236534   3.074   3.301  12.151  1.9464 -1.9325 -2.5188
 8301SOL     OW36535   0.976   0.830   5.616 -0.6896  0.0558 -0.2102
 8301SOL    HW136536   1.035   0.839   5.691  1.9162  0.6573 -2.3310
 8301SOL    HW236537   1.024   0.897   5.567 -0.2847 -0.3426 -0.3646
 8302SOL     OW36538   3.306   0.661   7.944 -0.3139  0.0037 -0.0919
 8302SOL    HW136539   3.398   0.645   7.921  0.1912  3.8893 -0.7889
 8302SOL    HW236540   3.298   0.594   8.011  1.1765  1.1534  1.2427
 8303SOL     OW36541   3.605   3.626   3.421  0.2079 -0.3390  0.1478
 8303SOL    HW136542   3.693   3.658   3.444  0.4580 -0.3791 -0.7493
 8303SOL    HW236543   3.601   3.566   3.496  0.4931 -0.3814  0.1319
 8304SOL     OW36544   0.362   0.201   8.915 -0.1604  0.0265 -0.0826
 8304SOL    HW136545   0.285   0.168   8.870 -0.8823  0.2928  0.9576
 8304SOL    HW236546   0.422   0.216   8.842  1.2077 -1.6965  0.6992
 8305SOL     OW36547   4.107   1.564   6.946  0.2951  0.7020  0.2402
 8305SOL    HW136548   4.142   1.649   6.919  1.3335  0.1677 -0.0857
 8305SOL    HW236549   4.016   1.591   6.965  0.1075  0.1523  0.1066
 8306SOL     OW36550   4.723   4.505   6.837 -0.3237  0.2147  0.3207
 8306SOL    HW136551   0.071   4.481   6.883  0.4623  1.5414 -0.3694
 8306SOL    HW236552   4.684   4.570   6.894 -3.2142  0.0943 -1.5208
 8307SOL     OW36553   0.180   3.234   8.464 -0.1525 -0.1049 -0.1907
 8307SOL    HW136554   0.240   3.309   8.457  0.6765 -0.8115 -0.6096
 8307SOL    HW236555   0.099   3.261   8.422 -0.0966  0.7587  0.2581
 8308SOL     OW36556   2.158   3.317   4.749 -0.3884 -0.1688 -0.4770
 8308SOL    HW136557   2.103   3.242   4.774 -0.2018  0.0089  0.4599
 8308SOL    HW236558   2.123   3.339   4.663 -0.9458  0.3446 -0.1131
 8309SOL     OW36559   1.105   1.780   2.850  0.3920 -0.2153  0.5411
 8309SOL    HW136560   1.128   1.751   2.762 -2.2391  1.1410 -0.5822
 8309SOL    HW236561   1.154   1.863   2.856 -0.5555  0.2199  2.1447
 8310SOL     OW36562   1.643   0.684   0.474 -0.3055 -0.3099  1.1079
 8310SOL    HW136563   1.612   0.761   0.426 -1.9551 -2.0505 -0.6163
 8310SOL    HW236564   1.631   0.714   0.565 -1.9840  1.7136  0.2232
 8311SOL     OW36565   4.166   3.167   8.204 -0.2115 -0.1593 -0.4188
 8311SOL    HW136566   4.201   3.084   8.238  0.6991  0.2316 -0.4098
 8311SOL    HW236567   4.092   3.141   8.150 -0.2987  1.2106 -0.9593
 8312SOL     OW36568   2.901   1.251   1.477  0.0447  0.0822 -0.1871
 8312SOL    HW136569   2.861   1.227   1.394 -1.7837 -0.3242  0.8098
 8312SOL    HW236570   2.978   1.294   1.440  0.9370 -2.1373 -0.9083
 8313SOL     OW36571   2.099   1.249  17.401 -0.0452  0.0574 -0.2019
 8313SOL    HW136572   2.174   1.286  17.355  0.6886 -2.1811 -0.8065
 8313SOL    HW236573   2.080   1.323  17.459  0.3318 -1.8948  2.4159
 8314SOL     OW36574   2.521   0.909   5.961 -0.4666 -0.3469 -0.4660
 8314SOL    HW136575   2.519   0.862   6.045  0.2733  0.3592 -0.0566
 8314SOL    HW236576   2.595   0.861   5.922  0.5675  0.2772  0.7254
 8315SOL     OW36577   1.040   3.402   4.560  0.2380  0.2701  0.1017
 8315SOL    HW136578   1.125   3.406   4.603  1.4243 -1.2313 -2.0957
 8315SOL    HW236579   1.055   3.459   4.485 -1.2509  1.2935  0.5808
 8316SOL     OW36580   4.558   1.667   9.327  0.7170 -0.5182 -0.4495
 8316SOL    HW136581   4.495   1.609   9.285  0.2352 -0.1799 -0.1930
 8316SOL    HW236582   4.581   1.609   9.399  0.2396  0.2584  0.3283
 8317SOL     OW36583   4.412   4.609   8.386 -0.3912 -0.5461  0.1881
 8317SOL    HW136584   4.340   4.659   8.425  0.4806  0.5611  0.3937
 8317SOL    HW236585   4.369   4.525   8.369  0.9511 -1.1704 -0.0920
 8318SOL     OW36586   4.014   1.807  14.931  0.7012 -0.3962 -0.4115
 8318SOL    HW136587   4.087   1.813  14.870  0.5360  1.1300 -0.4776
 8318SOL    HW236588   4.048   1.867  14.998 -1.0396  0.8031 -0.5858
 8319SOL     OW36589   2.819   2.212   7.184 -0.2832  0.6948 -0.3336
 8319SOL    HW136590   2.782   2.260   7.110  2.0134  1.1503 -1.2046
 8319SOL    HW236591   2.841   2.130   7.142  1.6069  0.1432  1.6886
 8320SOL     OW36592   1.670   0.747   9.897 -0.4186 -0.6429 -0.1504
 8320SOL    HW136593   1.602   0.801   9.856  0.6496 -0.0903 -1.2015
 8320SOL    HW236594   1.737   0.752   9.829  2.1141 -1.6750  2.2915
 8321SOL     OW36595   2.167   0.297  10.072  0.1652 -0.2223  0.3350
 8321SOL    HW136596   2.120   0.314   9.990  1.2850  0.9022 -0.0830
 8321SOL    HW236597   2.162   0.383  10.113 -0.7259 -0.9380  1.7051
 8322SOL     OW36598   1.295   4.156   0.045  0.2325 -0.6858 -0.1541
 8322SOL    HW136599   1.315   4.161  17.682 -2.5921 -1.4729 -0.7935
 8322SOL    HW236600   1.210   4.113   0.048 -0.0572  0.0770  2.7617
 8323SOL     OW36601   1.804   1.041   5.243  0.1499  0.4167  0.1658
 8323SOL    HW136602   1.803   0.980   5.169 -1.5351  2.5216 -1.5336
 8323SOL    HW236603   1.718   1.082   5.243  1.0901  2.4202 -2.0903
 8324SOL     OW36604   2.980   1.322   4.591 -0.4197  0.1971  0.1048
 8324SOL    HW136605   2.966   1.376   4.668 -1.4400 -2.2853  1.6592
 8324SOL    HW236606   3.056   1.268   4.611 -0.2696 -0.0823 -1.1876
 8325SOL     OW36607   4.524   0.367   8.909 -0.7589  0.2699  0.5778
 8325SOL    HW136608   4.567   0.282   8.900 -1.3719  0.0706 -0.4154
 8325SOL    HW236609   4.557   0.400   8.993 -0.8581  1.5770  0.1082
 8326SOL     OW36610   3.985   3.082   9.078  0.1463 -0.5195  0.3815
 8326SOL    HW136611   4.080   3.080   9.074  0.1080 -1.7737  0.2532
 8326SOL    HW236612   3.965   3.175   9.090 -2.3912 -1.1496  0.9599
 8327SOL     OW36613   2.916   4.253   8.159  0.3107  0.8441  0.0296
 8327SOL    HW136614   2.830   4.236   8.121 -0.2443  2.5133  0.5088
 8327SOL    HW236615   2.899   4.252   8.253  0.2885  1.6320  0.0392
 8328SOL     OW36616   4.615   2.199   2.471  0.3356  0.5283  0.1683
 8328SOL    HW136617   4.680   2.193   2.541 -0.0169 -0.5001  0.4093
 8328SOL    HW236618   4.534   2.226   2.515  0.5359  0.5633  0.5197
 8329SOL     OW36619   3.074   3.113   9.826 -0.2135  0.2144 -0.2117
 8329SOL    HW136620   3.124   3.044   9.869 -1.5720 -0.3398  0.4705
 8329SOL    HW236621   2.997   3.125   9.882  0.0081 -0.4812  0.2342
 8330SOL     OW36622   1.534   0.349   2.969  0.1524 -0.1810 -0.2031
 8330SOL    HW136623   1.608   0.289   2.963  0.5886  0.7513 -4.5511
 8330SOL    HW236624   1.502   0.343   3.059  0.8363  0.5121  0.0958
 8331SOL     OW36625   3.819   4.727   1.580 -0.6007 -0.1901 -0.4295
 8331SOL    HW136626   3.734   0.039   1.581 -1.1822 -1.2833 -1.0420
 8331SOL    HW236627   3.866   0.067   1.620 -0.1343 -1.5113  1.4027
 8332SOL     OW36628   2.514   4.310   4.817  0.2333 -0.3032 -0.1634
 8332SOL    HW136629   2.456   4.337   4.887 -0.6958 -2.0279 -0.2563
 8332SOL    HW236630   2.460   4.267   4.750  2.2910  1.2698 -2.8113
 8333SOL     OW36631   2.057   3.800   3.263 -0.0436  0.0285 -0.0724
 8333SOL    HW136632   2.127   3.750   3.222  0.5605  0.3727  0.5322
 8333SOL    HW236633   1.987   3.736   3.274 -0.3009  0.0573 -1.5296
 8334SOL     OW36634   0.567   3.602   9.896 -0.2512  0.1204  0.1352
 8334SOL    HW136635   0.609   3.530   9.849  0.6009  1.9393 -1.8597
 8334SOL    HW236636   0.484   3.623   9.854  0.0535  0.1929 -0.4334
 8335SOL     OW36637   0.108   2.900  16.663 -0.4914 -0.3775 -0.3724
 8335SOL    HW136638   0.172   2.958  16.622 -0.3466 -1.6127 -1.8884
 8335SOL    HW236639   0.168   2.849  16.717 -1.8082 -1.7674 -0.2318
 8336SOL     OW36640   3.362   3.468   1.210  0.1336  0.1111 -0.2880
 8336SOL    HW136641   3.333   3.438   1.297 -0.9498  0.1135 -0.6478
 8336SOL    HW236642   3.448   3.427   1.203  0.2545  0.3637 -0.2876
 8337SOL     OW36643   3.861   2.781   5.413  0.1841 -0.0463  0.0079
 8337SOL    HW136644   3.775   2.739   5.405 -0.8262  2.1195 -0.4678
 8337SOL    HW236645   3.838   2.863   5.457  3.3098 -0.5132  2.4938
 8338SOL     OW36646   0.424   3.322  16.485 -0.1470 -0.0821  0.0064
 8338SOL    HW136647   0.469   3.299  16.403 -0.8027  0.4386 -0.4985
 8338SOL    HW236648   0.395   3.411  16.464 -2.4528 -0.2899  2.3326
 8339SOL     OW36649   1.595   0.696   3.988 -0.6900 -0.0788 -0.2091
 8339SOL    HW136650   1.633   0.667   3.905  0.7512 -1.0334  0.7762
 8339SOL    HW236651   1.532   0.763   3.963 -0.4880  0.1130 -0.2061
 8340SOL     OW36652   0.244   3.132   3.324 -0.5037 -0.0473 -0.5652
 8340SOL    HW136653   0.172   3.146   3.386  0.3562  0.0331  0.4275
 8340SOL    HW236654   0.256   3.039   3.346 -0.5462  0.5764  2.1833
 8341SOL     OW36655   1.181   3.339   6.854 -0.8903  0.4051 -0.2517
 8341SOL    HW136656   1.092   3.351   6.823 -0.9289 -0.2077 -0.3791
 8341SOL    HW236657   1.172   3.377   6.941 -0.6619  0.8119 -0.4061
 8342SOL     OW36658   0.655   2.911   4.718 -0.2142  0.3156 -0.8443
 8342SOL    HW136659   0.586   2.846   4.706 -0.0494 -0.3696  1.9235
 8342SOL    HW236660   0.727   2.854   4.746  0.5950  0.7948 -1.9733
 8343SOL     OW36661   1.986   2.273  16.760  0.3419 -0.3071  0.2100
 8343SOL    HW136662   1.980   2.317  16.845  0.1504  0.4395 -0.1987
 8343SOL    HW236663   1.897   2.266  16.725 -0.3549  2.0708  1.5687
 8344SOL     OW36664   1.439   0.830  13.785  0.0416 -0.3134 -0.7811
 8344SOL    HW136665   1.416   0.901  13.845  0.7947 -0.8004  0.0875
 8344SOL    HW236666   1.366   0.772  13.806 -0.0970  1.1087  2.7229
 8345SOL     OW36667   0.107   0.649   9.066 -0.1977  0.4903 -0.1105
 8345SOL    HW136668   0.103   0.607   8.981 -0.2626  0.4343 -0.0799
 8345SOL    HW236669   0.107   0.742   9.043  0.0303  0.6426  0.5039
 8346SOL     OW36670   1.435   3.492   7.431 -0.3256 -0.0972 -0.0518
 8346SOL    HW136671   1.447   3.505   7.337  0.8638 -1.6066 -0.0978
 8346SOL    HW236672   1.478   3.577   7.445 -1.3847  0.1604  1.6939
 8347SOL     OW36673   0.041   4.160   8.622  0.0106 -1.2229  0.7067
 8347SOL    HW136674   4.692   4.113   8.604 -1.7654  2.3908 -0.5555
 8347SOL    HW236675   0.020   4.176   8.714  0.5352 -0.6723  0.7344
 8348SOL     OW36676   0.024   0.492   3.147 -0.1549 -0.0006  0.5371
 8348SOL    HW136677   0.106   0.457   3.180  0.0719 -0.3269 -0.3692
 8348SOL    HW236678   0.041   0.585   3.130  0.8699 -0.1152  0.9440
 8349SOL     OW36679   4.405   2.325   1.392  0.5211  0.4560  0.2581
 8349SOL    HW136680   4.446   2.298   1.310 -0.7641 -2.4879  0.5942
 8349SOL    HW236681   4.472   2.283   1.447 -2.1432 -2.8674  0.9094
 8350SOL     OW36682   3.149   2.602   0.899 -0.1243 -0.1961  0.0842
 8350SOL    HW136683   3.122   2.517   0.936 -1.9217  0.8938  1.2701
 8350SOL    HW236684   3.233   2.568   0.868  0.7324  1.6425  0.3884
 8351SOL     OW36685   2.669   2.175   1.589 -0.0099 -0.6258  0.1789
 8351SOL    HW136686   2.592   2.166   1.534 -0.2815 -0.7027  0.5680
 8351SOL    HW236687   2.636   2.230   1.660  0.0456 -2.2939  1.5021
 8352SOL     OW36688   2.419   2.886  15.141  0.1166 -0.3363  0.1714
 8352SOL    HW136689   2.415   2.873  15.046 -0.3334 -2.1987  0.4379
 8352SOL    HW236690   2.512   2.870  15.155  0.3029  1.5535  1.0643
 8353SOL     OW36691   4.504   0.587  14.237  0.1095  0.0129 -0.1628
 8353SOL    HW136692   4.559   0.629  14.302  0.0882  1.5710 -1.1668
 8353SOL    HW236693   4.434   0.652  14.242 -1.9586 -2.1040 -1.3846
 8354SOL     OW36694   4.417   2.264   9.360  0.5350  0.1199 -0.0675
 8354SOL    HW136695   4.331   2.300   9.379  0.4968 -0.6247  1.1859
 8354SOL    HW236696   4.448   2.332   9.301  0.4900  1.0199  0.9542
 8355SOL     OW36697   0.992   3.125  15.515 -0.4718 -0.2102  0.2277
 8355SOL    HW136698   1.013   3.131  15.422  0.6067 -0.0438  0.4774
 8355SOL    HW236699   0.990   3.030  15.526 -0.0247 -0.2085  0.3173
 8356SOL     OW36700   0.111   0.516   9.675 -0.1681  0.2458  0.5320
 8356SOL    HW136701   0.073   0.580   9.735 -0.7186 -0.1952  0.6512
 8356SOL    HW236702   0.161   0.583   9.629 -2.7588  3.2722  2.1080
 8357SOL     OW36703   1.303   3.341   3.705 -0.0526 -0.3618  0.3360
 8357SOL    HW136704   1.221   3.379   3.675  2.2009  4.0687 -0.2313
 8357SOL    HW236705   1.324   3.276   3.638  0.8284 -0.6344  0.8762
 8358SOL     OW36706   4.596   0.746   9.245  0.2254 -0.2029  0.0505
 8358SOL    HW136707   4.577   0.840   9.249 -2.9664 -0.7957 -0.8468
 8358SOL    HW236708   4.690   0.746   9.228  0.0233 -0.2529 -1.0310
 8359SOL     OW36709   2.119   4.095  15.454 -0.8754  0.2329 -0.1593
 8359SOL    HW136710   2.133   4.155  15.527  0.1838 -1.9341  1.4048
 8359SOL    HW236711   2.189   4.114  15.392 -0.5942 -0.0311  0.0767
 8360SOL     OW36712   1.157   2.586   8.491 -0.2763 -0.2445  0.8194
 8360SOL    HW136713   1.144   2.623   8.579 -2.1841  0.7831  0.1105
 8360SOL    HW236714   1.246   2.557   8.508 -0.3221 -0.2300  1.0954
 8361SOL     OW36715   3.577   2.690   1.790  0.3989  0.5688 -0.1608
 8361SOL    HW136716   3.533   2.679   1.874 -0.7703  1.8957 -0.5936
 8361SOL    HW236717   3.664   2.718   1.818  0.4242 -0.3219  0.6347
 8362SOL     OW36718   0.019   2.243   0.264  0.4651 -0.5406  0.5691
 8362SOL    HW136719   0.053   2.261   0.352  0.3926 -2.0522  0.8979
 8362SOL    HW236720   0.101   2.258   0.217  0.4239 -2.5263 -0.1367
 8363SOL     OW36721   0.092   1.729   9.578  0.3064  0.0580  0.0085
 8363SOL    HW136722   0.040   1.656   9.544  0.1401  0.5914 -0.8808
 8363SOL    HW236723   0.066   1.790   9.509  0.4536 -0.2094 -0.2816
 8364SOL     OW36724   1.526   4.142   7.530  0.7266  0.5001  1.0642
 8364SOL    HW136725   1.468   4.213   7.501  0.2438 -1.2540 -2.2518
 8364SOL    HW236726   1.494   4.071   7.474 -0.8330 -0.3216  2.9827
 8365SOL     OW36727   1.985   4.139  11.750 -0.2927 -0.4342 -0.2081
 8365SOL    HW136728   2.053   4.207  11.754  0.6899 -1.4853  0.8771
 8365SOL    HW236729   1.919   4.187  11.700 -0.9332 -0.5946  0.4860
 8366SOL     OW36730   2.107   1.163  14.547 -0.3097  0.3411  0.2827
 8366SOL    HW136731   2.131   1.184  14.456 -0.2945  0.5113  0.3259
 8366SOL    HW236732   2.111   1.067  14.545  1.1956  0.4354 -1.6161
 8367SOL     OW36733   4.428   0.396   4.900 -0.2390 -0.3423 -0.1197
 8367SOL    HW136734   4.400   0.484   4.872 -0.1103 -0.5180 -0.7837
 8367SOL    HW236735   4.357   0.356   4.951  1.0964 -0.1513  1.8934
 8368SOL     OW36736   1.362   1.717   6.117  0.1216 -0.2548 -0.0472
 8368SOL    HW136737   1.453   1.690   6.106 -0.0658 -1.7850  2.2462
 8368SOL    HW236738   1.339   1.739   6.026  0.3855  1.4358  0.2926
 8369SOL     OW36739   3.834   2.072   3.700  0.1644 -0.2313 -0.1514
 8369SOL    HW136740   3.824   2.167   3.708  1.1107 -0.2957  1.8939
 8369SOL    HW236741   3.755   2.052   3.651 -0.1379  0.4412  0.0648
 8370SOL     OW36742   3.009   4.087   4.533 -0.5508 -0.2289  0.0418
 8370SOL    HW136743   2.960   4.163   4.564 -1.2373  0.0124 -1.6414
 8370SOL    HW236744   2.988   4.077   4.440 -0.4532 -2.2533  0.2487
 8371SOL     OW36745   3.659   2.824  11.043  0.4568 -0.5416  0.4424
 8371SOL    HW136746   3.701   2.743  11.070  0.3873 -0.9246 -0.6090
 8371SOL    HW236747   3.715   2.866  11.109 -1.6646  0.8023  1.3871
 8372SOL     OW36748   0.702   3.725   3.415  0.2423  0.1190 -0.2877
 8372SOL    HW136749   0.655   3.808   3.427 -0.7131  0.0289 -3.4412
 8372SOL    HW236750   0.641   3.666   3.371 -1.0120  1.6584 -0.6385
 8373SOL     OW36751   1.242   3.062   4.816 -0.3660  0.1631  0.0275
 8373SOL    HW136752   1.285   3.002   4.877  1.7092  2.3050  0.6680
 8373SOL    HW236753   1.266   3.145   4.857 -0.8376  0.5602 -0.5035
 8374SOL     OW36754   3.749   2.522  16.160  0.1869  0.2278  0.2147
 8374SOL    HW136755   3.831   2.570  16.147  1.7598 -2.0333  1.7380
 8374SOL    HW236756   3.783   2.441  16.198  3.5025  0.7275 -1.6534
 8375SOL     OW36757   0.681   3.304  13.009 -0.6134  0.2646 -0.0245
 8375SOL    HW136758   0.759   3.277  12.960 -1.6831 -0.2546 -1.4576
 8375SOL    HW236759   0.654   3.220  13.044  1.0664  0.1209  0.9281
 8376SOL     OW36760   2.864   0.350   2.937 -0.3220 -0.2271  0.1010
 8376SOL    HW136761   2.805   0.275   2.943  0.1344 -0.4332  2.0388
 8376SOL    HW236762   2.915   0.345   3.018 -0.6263  2.6001  0.4827
 8377SOL     OW36763   1.073   4.045   4.074 -0.3574 -0.3731  0.3020
 8377SOL    HW136764   1.131   4.102   4.024 -3.8092  2.3645 -0.6169
 8377SOL    HW236765   1.065   4.085   4.161  0.2626  1.2073 -0.3768
 8378SOL     OW36766   0.654   2.870   5.614  0.3594  0.6549 -0.2730
 8378SOL    HW136767   0.685   2.804   5.552 -1.1002 -0.1043 -0.1948
 8378SOL    HW236768   0.562   2.871   5.588  0.1902  1.8266  0.3799
 8379SOL     OW36769   1.366   3.172   5.785 -0.2469 -0.5043  0.2549
 8379SOL    HW136770   1.309   3.179   5.708 -0.0919  0.3876  0.2228
 8379SOL    HW236771   1.410   3.257   5.785  1.8033 -1.5759  1.7188
 8380SOL     OW36772   1.791   4.604   5.041 -0.6194  0.7337 -0.1276
 8380SOL    HW136773   1.834   4.557   4.970 -1.5788 -1.3889  0.6883
 8380SOL    HW236774   1.703   4.567   5.032 -0.1407 -0.4440 -0.0619
 8381SOL     OW36775   1.772   1.399  14.051 -0.2423 -0.9387 -0.4332
 8381SOL    HW136776   1.812   1.404  14.138  1.4608 -0.0776 -1.2795
 8381SOL    HW236777   1.700   1.344  14.081 -1.2928  1.0351  0.6381
 8382SOL     OW36778   2.697   1.551   2.284  0.4049  0.4079  0.0151
 8382SOL    HW136779   2.740   1.582   2.363 -1.1337  2.1600  0.1866
 8382SOL    HW236780   2.764   1.552   2.216  0.8084 -1.2173  0.3931
 8383SOL     OW36781   2.350   3.182   6.476 -0.2501 -0.2285 -0.2705
 8383SOL    HW136782   2.368   3.123   6.403 -1.6081 -1.8139  0.6858
 8383SOL    HW236783   2.281   3.133   6.521  1.0176 -0.1020  1.7894
 8384SOL     OW36784   3.343   0.989   4.493 -0.4447  0.4565  0.3320
 8384SOL    HW136785   3.306   1.077   4.497 -0.9121  0.3596 -2.0821
 8384SOL    HW236786   3.265   0.935   4.496  0.2380 -0.5353  0.4064
 8385SOL     OW36787   3.610   1.499  10.175  0.3862  0.2267  0.3973
 8385SOL    HW136788   3.702   1.482  10.156 -0.0345 -0.4505 -0.9794
 8385SOL    HW236789   3.574   1.499  10.087 -1.7240  3.5346  1.2654
 8386SOL     OW36790   3.374   1.127  16.304  0.1600 -0.3231 -0.3305
 8386SOL    HW136791   3.387   1.057  16.368  3.0769  3.1308  2.7672
 8386SOL    HW236792   3.453   1.180  16.313 -0.1920 -0.0048  0.7945
 8387SOL     OW36793   1.501   0.188   7.963 -0.0913  0.1909 -0.4084
 8387SOL    HW136794   1.487   0.113   8.021 -2.0745  0.1495 -0.9166
 8387SOL    HW236795   1.431   0.246   7.992  2.4587  2.3691  1.2471
 8388SOL     OW36796   2.945   1.476   7.362  0.1429 -0.6006 -0.1800
 8388SOL    HW136797   2.938   1.474   7.266 -3.8654 -0.7634  0.0975
 8388SOL    HW236798   3.039   1.489   7.372  0.4495 -2.5094 -0.6242
 8389SOL     OW36799   4.692   1.283  12.243 -0.5464 -0.6734 -0.3751
 8389SOL    HW136800   4.598   1.264  12.236  0.2486 -3.9590 -1.9602
 8389SOL    HW236801   4.699   1.299  12.337 -1.4422  1.8755 -0.7495
 8390SOL     OW36802   2.326   0.865   1.732 -0.5330 -0.4913 -0.2535
 8390SOL    HW136803   2.397   0.929   1.731  1.2507 -2.4880  0.3886
 8390SOL    HW236804   2.373   0.797   1.780  0.9839 -0.3401 -1.5191
 8391SOL     OW36805   1.893   3.717   6.741 -0.2084  0.1904  0.5036
 8391SOL    HW136806   1.816   3.664   6.717  0.2376  0.2452 -1.0172
 8391SOL    HW236807   1.910   3.665   6.820 -1.1730  0.0847  0.6516
 8392SOL     OW36808   1.746   3.551   9.360  0.1297 -0.2044 -0.4179
 8392SOL    HW136809   1.807   3.583   9.294  0.1524  1.5401  0.4518
 8392SOL    HW236810   1.806   3.530   9.432  0.5528 -0.7081 -0.9149
 8393SOL     OW36811   1.393   0.289   7.370  0.4127 -0.3199  0.5440
 8393SOL    HW136812   1.378   0.319   7.459  1.5642  4.7288 -0.9522
 8393SOL    HW236813   1.452   0.353   7.330  2.1978 -1.6301  1.1458
 8394SOL     OW36814   1.522   3.853  12.091 -0.3052 -0.2848 -0.1257
 8394SOL    HW136815   1.609   3.874  12.124  0.0592 -0.4272 -0.9716
 8394SOL    HW236816   1.526   3.760  12.069 -1.4486 -0.5023  0.5614
 8395SOL     OW36817   4.235   3.769   0.629 -0.6046  0.0672 -0.0282
 8395SOL    HW136818   4.314   3.715   0.622 -0.9641 -0.3589 -0.8507
 8395SOL    HW236819   4.177   3.717   0.573 -0.4639  0.6740 -0.7336
 8396SOL     OW36820   0.146   0.471   2.251  0.0714 -0.0784  0.0005
 8396SOL    HW136821   0.059   0.447   2.283 -0.7721 -0.7681 -2.7934
 8396SOL    HW236822   0.153   0.440   2.161 -0.0611  0.0892 -0.0687
 8397SOL     OW36823   4.579   0.389  10.378  0.6449 -0.3415  0.0456
 8397SOL    HW136824   4.616   0.468  10.416  1.4850 -1.1032  0.8242
 8397SOL    HW236825   4.628   0.385  10.296  0.4687 -0.8316 -0.0371
 8398SOL     OW36826   2.127   2.635   2.678 -0.3006  0.3954 -0.3052
 8398SOL    HW136827   2.189   2.703   2.704  0.7163  0.2981 -2.4972
 8398SOL    HW236828   2.174   2.553   2.692 -0.4855  0.0715 -1.6096
 8399SOL     OW36829   0.629   1.350   8.895 -0.0560  0.3143  0.1064
 8399SOL    HW136830   0.694   1.353   8.824  0.8502  1.2341  0.9913
 8399SOL    HW236831   0.694   1.364   8.963 -0.3572  1.6337  0.1168
 8400SOL     OW36832   3.913   0.260   1.728 -0.4548  0.3030 -0.0165
 8400SOL    HW136833   3.870   0.345   1.736 -1.7884 -0.5471  1.7832
 8400SOL    HW236834   3.946   0.244   1.817  0.3794  1.0607 -0.1910
 8401SOL     OW36835   3.232   4.541   7.448  0.3164 -0.0059 -0.0262
 8401SOL    HW136836   3.136   4.544   7.454  0.4894  1.2588  1.6877
 8401SOL    HW236837   3.247   4.605   7.378 -0.4124 -1.1666 -1.2682
 8402SOL     OW36838   0.754   3.530   0.145  0.1990 -0.3139 -0.1890
 8402SOL    HW136839   0.782   3.487   0.226  1.7565 -0.4092 -0.7647
 8402SOL    HW236840   0.840   3.541   0.104 -0.6975 -1.0238 -2.2596
 8403SOL     OW36841   4.330   3.237  12.529  0.4399 -0.3130  0.2288
 8403SOL    HW136842   4.242   3.266  12.551  0.3236 -0.4139 -0.1049
 8403SOL    HW236843   4.331   3.143  12.543 -0.0590 -0.4609 -0.7395
 8404SOL     OW36844   2.691   1.761   2.878  0.3392 -0.2301 -0.2064
 8404SOL    HW136845   2.762   1.800   2.827  1.4635 -1.2388  0.6051
 8404SOL    HW236846   2.747   1.749   2.954 -1.1277  1.7507  1.1689
 8405SOL     OW36847   1.370   3.236   1.843  0.3676 -0.1273  0.7138
 8405SOL    HW136848   1.291   3.272   1.884 -1.6918 -2.9739 -0.7686
 8405SOL    HW236849   1.335   3.188   1.769 -1.6612  1.0520  0.9037
 8406SOL     OW36850   1.740   0.019   6.905  0.3169 -0.0414 -0.5238
 8406SOL    HW136851   1.686   0.073   6.848  2.6083  2.1358 -0.6098
 8406SOL    HW236852   1.822   0.061   6.881  1.2055 -0.1134  2.3479
 8407SOL     OW36853   0.106   2.072   6.074 -0.1351  0.2637 -0.4787
 8407SOL    HW136854   0.200   2.065   6.091 -0.4019  0.2579  0.9562
 8407SOL    HW236855   0.104   2.068   5.978  1.5487 -1.9671 -0.4219
 8408SOL     OW36856   0.570   4.230   4.545 -0.6559 -0.2653  0.7340
 8408SOL    HW136857   0.663   4.252   4.546 -0.6865 -0.1993  1.7044
 8408SOL    HW236858   0.541   4.309   4.590  0.2041 -1.2064  2.9135
 8409SOL     OW36859   1.167   2.550  17.226  0.6076  0.0714  0.0744
 8409SOL    HW136860   1.229   2.510  17.287 -0.6229 -2.2175 -0.1782
 8409SOL    HW236861   1.143   2.480  17.165  0.0007 -1.9145  2.5816
 8410SOL     OW36862   2.835   3.106   6.916  0.1529  0.2460  0.1730
 8410SOL    HW136863   2.820   3.040   6.984  0.6079  1.8693  1.8634
 8410SOL    HW236864   2.917   3.075   6.877  0.8675  2.9289 -0.4791
 8411SOL     OW36865   0.276   0.020   5.190  0.0652  0.2370 -0.3411
 8411SOL    HW136866   0.352   0.011   5.247 -0.0267 -0.7948 -0.3733
 8411SOL    HW236867   0.213   0.058   5.252 -0.7910 -0.9515 -0.4823
 8412SOL     OW36868   1.267   3.681   2.793  0.3892 -0.1242  0.4618
 8412SOL    HW136869   1.330   3.743   2.756  0.1895 -0.5230 -0.5549
 8412SOL    HW236870   1.193   3.743   2.795 -0.2666 -0.8075 -2.5687
 8413SOL     OW36871   4.517   1.015   9.184  0.0155 -0.4998  0.5133
 8413SOL    HW136872   4.568   1.082   9.139  1.0117 -0.5023  1.6307
 8413SOL    HW236873   4.433   1.058   9.201  1.0278  1.8651 -0.3390
 8414SOL     OW36874   0.325   4.261   5.000 -0.2269 -0.0864  0.3246
 8414SOL    HW136875   0.284   4.246   5.086  0.7560 -1.8775  0.4764
 8414SOL    HW236876   0.306   4.354   4.990 -0.9859 -0.1084  1.5290
 8415SOL     OW36877   2.385   3.322   5.748  0.2451 -0.0802 -0.1187
 8415SOL    HW136878   2.376   3.364   5.834 -2.0110  1.1117 -0.9564
 8415SOL    HW236879   2.415   3.236   5.778 -0.7684  0.2169  1.7330
 8416SOL     OW36880   0.357   3.665  15.361  0.1124 -0.2265  0.0468
 8416SOL    HW136881   0.275   3.615  15.361  0.5514 -0.9803  3.1925
 8416SOL    HW236882   0.414   3.608  15.310  1.5163  0.1915  1.1596
 8417SOL     OW36883   2.846   4.117   7.639  0.2996  0.3063  0.6413
 8417SOL    HW136884   2.919   4.123   7.577 -1.0201  1.1740 -0.8166
 8417SOL    HW236885   2.820   4.209   7.631  0.6659  0.5594  2.2489
 8418SOL     OW36886   0.568   3.990  11.068 -0.2211  0.0518 -0.0122
 8418SOL    HW136887   0.501   3.921  11.068 -0.4212  0.2493 -2.4975
 8418SOL    HW236888   0.585   4.000  11.162 -2.6093 -1.3931  0.5986
 8419SOL     OW36889   3.699   0.107   7.880  0.0880  0.0598 -0.1935
 8419SOL    HW136890   3.759   0.072   7.946 -1.7770 -1.0914  0.9247
 8419SOL    HW236891   3.620   0.055   7.898  0.5260 -0.9251 -1.1275
 8420SOL     OW36892   0.076   0.487   8.515  0.1419 -0.4477 -0.1746
 8420SOL    HW136893   4.725   0.441   8.518 -0.1578  0.1548  0.8213
 8420SOL    HW236894   0.070   0.554   8.583  0.3859  1.5814 -2.1740
 8421SOL     OW36895   3.152   2.879   4.519 -0.3828 -0.3047  0.1015
 8421SOL    HW136896   3.220   2.837   4.466  0.0531  0.1551  0.2991
 8421SOL    HW236897   3.136   2.956   4.465  1.7974 -0.0808 -0.2076
 8422SOL     OW36898   3.289   1.319  15.609  0.2833 -1.0154 -0.3964
 8422SOL    HW136899   3.193   1.312  15.608  0.0049  2.5172  1.8655
 8422SOL    HW236900   3.313   1.266  15.685 -0.3917  3.8828  3.2351
 8423SOL     OW36901   4.394   0.029   5.062 -0.0446 -0.3547  0.3611
 8423SOL    HW136902   4.317   0.017   5.006  0.6223  2.7930 -1.2072
 8423SOL    HW236903   4.418   4.669   5.055  0.7846 -0.0678 -0.6947
 8424SOL     OW36904   2.919   1.841   6.682  0.2730  0.2739  0.1325
 8424SOL    HW136905   2.873   1.862   6.601 -0.0278 -0.1598  0.1886
 8424SOL    HW236906   2.853   1.811   6.744 -0.8510  1.7047 -0.3688
 8425SOL     OW36907   2.206   2.264   7.326 -0.0693 -0.0568  0.2412
 8425SOL    HW136908   2.154   2.344   7.316 -1.1779 -0.7252  0.7570
 8425SOL    HW236909   2.258   2.284   7.404  0.3315  1.6188 -0.4525
 8426SOL     OW36910   4.092   0.084   4.486 -0.1157  0.1029 -0.1655
 8426SOL    HW136911   4.157   0.140   4.443  2.1736 -0.4115  2.6796
 8426SOL    HW236912   4.145   0.034   4.547 -0.1645  2.7544  2.0173
 8427SOL     OW36913   1.573   3.693   4.051  0.1481  0.2792 -0.0911
 8427SOL    HW136914   1.662   3.686   4.015 -0.7235 -0.8167 -2.0485
 8427SOL    HW236915   1.537   3.607   4.031  1.8092 -0.1568 -1.2824
 8428SOL     OW36916   3.232   0.528  14.814  0.0157  0.2805  0.1808
 8428SOL    HW136917   3.198   0.571  14.893  0.5185  1.8097 -0.4523
 8428SOL    HW236918   3.170   0.552  14.745 -0.7177 -1.7283  0.1260
 8429SOL     OW36919   1.206   0.197  11.802 -0.1535  0.1819  0.1125
 8429SOL    HW136920   1.296   0.179  11.775 -0.1924 -0.6439  0.5134
 8429SOL    HW236921   1.213   0.290  11.820 -1.7181  0.3646 -0.2421
 8430SOL     OW36922   0.075   2.547  10.730  0.6551  0.1525 -0.0237
 8430SOL    HW136923   0.033   2.580  10.650 -0.6422  0.8129  0.9231
 8430SOL    HW236924   4.730   2.502  10.763  1.3442 -0.3921  0.8164
 8431SOL     OW36925   1.944   4.240   9.323 -0.4252 -0.7372 -0.3127
 8431SOL    HW136926   1.967   4.331   9.306 -0.2872 -1.0912 -2.0413
 8431SOL    HW236927   1.929   4.241   9.418 -1.9563 -0.5731 -0.5571
 8432SOL     OW36928   1.794   4.036   4.697  0.1076 -0.7297 -0.2459
 8432SOL    HW136929   1.848   3.985   4.637 -1.5320 -1.4432 -1.1056
 8432SOL    HW236930   1.847   4.040   4.777 -0.4721 -0.2531  0.1123
 8433SOL     OW36931   3.780   4.283   3.173 -0.2933  0.0419 -0.4732
 8433SOL    HW136932   3.705   4.342   3.172  0.0340  0.4531 -1.0523
 8433SOL    HW236933   3.785   4.278   3.077  0.6650 -2.2283 -0.3127
 8434SOL     OW36934   2.181   3.391  12.004  0.6239 -0.3813  0.2330
 8434SOL    HW136935   2.107   3.333  11.986 -0.9395  2.2875 -1.9079
 8434SOL    HW236936   2.262   3.346  11.978  0.7630  0.3926 -0.6970
 8435SOL     OW36937   0.208   1.352   4.509  0.0211  0.0211  0.3886
 8435SOL    HW136938   0.194   1.373   4.602  0.7757  1.3145  0.2118
 8435SOL    HW236939   0.246   1.265   4.512  0.7969  0.3114 -1.1694
 8436SOL     OW36940   2.742   1.700   1.866 -0.2514 -0.4055 -0.2260
 8436SOL    HW136941   2.792   1.638   1.812  0.6393 -0.8745  1.1401
 8436SOL    HW236942   2.774   1.685   1.955 -2.2178  1.4351  0.7818
 8437SOL     OW36943   4.430   1.894   8.828  0.1319  0.5645  0.4315
 8437SOL    HW136944   4.395   1.920   8.743 -0.8133  1.3995  1.0708
 8437SOL    HW236945   4.351   1.880   8.879  1.2056  0.6972  2.1529
 8438SOL     OW36946   2.115   2.485   6.268  0.4032 -0.2412  0.0284
 8438SOL    HW136947   2.127   2.405   6.319  0.3408 -0.1278  0.2215
 8438SOL    HW236948   2.163   2.468   6.187  0.2656  2.2883 -0.5838
 8439SOL     OW36949   0.457   3.780   7.380 -0.2091  0.2735 -0.2762
 8439SOL    HW136950   0.474   3.777   7.286  4.2362 -2.5591  0.6211
 8439SOL    HW236951   0.481   3.695   7.416  1.6049  0.5310 -0.9192
 8440SOL     OW36952   2.965   2.357   2.062  0.0873 -0.6270 -0.2152
 8440SOL    HW136953   3.027   2.306   2.011  0.5626  0.8574 -1.1173
 8440SOL    HW236954   2.885   2.331   2.016 -0.9017 -0.1376  1.2217
 8441SOL     OW36955   1.733   0.452   4.695 -0.0176  0.4621  0.2613
 8441SOL    HW136956   1.742   0.358   4.682 -0.8942  0.3002  0.7930
 8441SOL    HW236957   1.649   0.469   4.652  0.3006  0.7586 -0.2493
 8442SOL     OW36958   3.695   1.375   5.698  0.0930 -0.2551  0.8431
 8442SOL    HW136959   3.734   1.338   5.777  1.0718  1.7554  1.3062
 8442SOL    HW236960   3.760   1.345   5.635  0.7776  0.1556  1.3508
 8443SOL     OW36961   4.407   1.861  12.635  0.1984  0.0983 -0.0995
 8443SOL    HW136962   4.342   1.931  12.627 -0.0319 -0.0806  0.2215
 8443SOL    HW236963   4.425   1.841  12.543  0.3007  1.5526 -0.3979
 8444SOL     OW36964   4.430   4.186   3.570  0.0432  0.3814 -0.5106
 8444SOL    HW136965   4.434   4.220   3.480 -1.3757  0.3883 -0.5777
 8444SOL    HW236966   4.393   4.259   3.619  0.8013 -0.1997  0.9122
 8445SOL     OW36967   1.490   1.681   8.088  0.3088  0.0401  0.2282
 8445SOL    HW136968   1.477   1.758   8.143 -0.4437 -0.8576  1.2960
 8445SOL    HW236969   1.400   1.666   8.057  0.1229  0.6716  0.4549
 8446SOL     OW36970   4.335   0.995   6.308 -0.6580  0.2699 -0.1462
 8446SOL    HW136971   4.429   0.999   6.289 -0.4080 -0.7256  0.8845
 8446SOL    HW236972   4.296   1.010   6.222 -0.6920 -0.8156 -0.3100
 8447SOL     OW36973   2.176   1.101  17.623 -0.4396 -0.3239 -0.0630
 8447SOL    HW136974   2.260   1.060  17.605  1.1466  1.4360  3.3292
 8447SOL    HW236975   2.169   1.154  17.543  0.2995 -0.8911 -0.4987
 8448SOL     OW36976   0.892   4.057  12.730  0.3696  0.5661  0.0889
 8448SOL    HW136977   0.941   4.020  12.804 -1.3020 -2.7832 -0.5391
 8448SOL    HW236978   0.961   4.107  12.686  1.5325  0.0299  1.3108
 8449SOL     OW36979   4.128   3.603   4.511  0.3524 -0.2589  0.1581
 8449SOL    HW136980   4.085   3.520   4.527 -2.4545  1.2374  0.3919
 8449SOL    HW236981   4.205   3.569   4.464 -1.3933 -2.0144 -1.4217
 8450SOL     OW36982   2.167   2.549   8.906 -0.1051 -0.6058 -0.1723
 8450SOL    HW136983   2.073   2.536   8.920 -0.6186  0.6359 -2.4405
 8450SOL    HW236984   2.195   2.458   8.908 -0.0372 -0.6061 -1.2823
 8451SOL     OW36985   1.147   0.058   0.670 -0.7966 -0.2455 -0.5043
 8451SOL    HW136986   1.188   0.144   0.660  2.3170 -1.8193 -1.2237
 8451SOL    HW236987   1.211   0.018   0.729 -1.1741 -1.1149 -0.6888
 8452SOL     OW36988   3.700   2.623  12.424  0.2358 -0.2415  0.5631
 8452SOL    HW136989   3.655   2.546  12.458 -1.6393  0.3054 -0.7003
 8452SOL    HW236990   3.781   2.579  12.396  0.2229  0.5244 -0.6477
 8453SOL     OW36991   1.944   0.935   4.345  0.0258  0.0688  0.0233
 8453SOL    HW136992   1.993   0.926   4.263 -0.6967 -2.6934 -0.1208
 8453SOL    HW236993   1.853   0.931   4.315 -0.4758 -0.5386  1.6465
 8454SOL     OW36994   2.497   4.468   2.081  0.1156  0.7528 -0.0294
 8454SOL    HW136995   2.482   4.376   2.062  1.7128  0.2303  1.2684
 8454SOL    HW236996   2.590   4.480   2.062  0.1140 -2.3278 -1.9720
 8455SOL     OW36997   0.254   3.443  11.185 -0.0049  0.4514  0.3428
 8455SOL    HW136998   0.213   3.528  11.202  0.1559  0.5557  0.2074
 8455SOL    HW236999   0.188   3.407  11.126 -1.1995  2.3045  0.5580
 8456SOL     OW37000   2.041   2.763   5.017 -0.3336 -0.1412 -0.2201
 8456SOL    HW137001   2.126   2.727   5.041 -0.1444 -0.8861 -2.0576
 8456SOL    HW237002   1.997   2.773   5.102  0.7827 -0.6424  0.4163
 8457SOL     OW37003   3.089   1.226  10.247  0.3245  0.3334 -0.4813
 8457SOL    HW137004   3.053   1.144  10.282 -0.2586  0.1122 -1.5885
 8457SOL    HW237005   3.179   1.198  10.231  0.1870  0.6716 -1.7925
 8458SOL     OW37006   3.059   2.206   8.530  0.4268  0.5835  0.7938
 8458SOL    HW137007   3.056   2.133   8.468  2.2894  2.2611 -1.2863
 8458SOL    HW237008   3.151   2.230   8.539  0.3012  0.6669  1.8257
 8459SOL     OW37009   3.966   0.820   2.368  0.1442 -0.0917  0.3314
 8459SOL    HW137010   4.060   0.801   2.366  0.5677  2.1474 -0.5148
 8459SOL    HW237011   3.965   0.915   2.356 -0.5128  0.1773  2.4544
 8460SOL     OW37012   1.806   2.635   1.727 -0.4049  0.7340  0.1007
 8460SOL    HW137013   1.752   2.594   1.794 -1.2888  1.8541  0.0768
 8460SOL    HW237014   1.782   2.728   1.731 -1.2906  0.5505 -0.9378
 8461SOL     OW37015   3.670   1.816   4.324  0.4313  0.1571  0.0693
 8461SOL    HW137016   3.720   1.797   4.244 -0.2297  1.0090 -0.5411
 8461SOL    HW237017   3.738   1.853   4.380  0.5028 -0.0316  0.1095
 8462SOL     OW37018   1.538   1.812   6.614  0.0936  0.3455 -0.1209
 8462SOL    HW137019   1.533   1.740   6.550  0.0899  1.5730 -1.5053
 8462SOL    HW237020   1.595   1.768   6.677  0.0425  1.3177  0.6077
 8463SOL     OW37021   3.895   1.016   2.671 -0.0904  0.1950  0.2552
 8463SOL    HW137022   3.877   1.089   2.731  0.9827  0.7202 -0.0535
 8463SOL    HW237023   3.961   1.059   2.616  0.7025  0.7763  1.6601
 8464SOL     OW37024   3.940   1.332  15.376  0.0699 -0.3918  0.5447
 8464SOL    HW137025   3.866   1.281  15.343  1.2993 -1.2427 -0.8683
 8464SOL    HW237026   3.957   1.396  15.306  0.5026 -1.6220 -0.4681
 8465SOL     OW37027   4.579   2.328  10.585 -0.1655  0.2292  0.3629
 8465SOL    HW137028   4.601   2.421  10.587  0.8367  0.0886 -3.2216
 8465SOL    HW237029   4.605   2.301  10.673 -0.1354  1.3232  0.6899
 8466SOL     OW37030   0.715   4.174  16.611 -0.6859  0.1224 -0.0097
 8466SOL    HW137031   0.761   4.217  16.539 -1.5037 -0.3667 -0.8139
 8466SOL    HW237032   0.784   4.129  16.660  0.1985 -0.7008 -2.0153
 8467SOL     OW37033   1.112   0.199   4.288  0.0222  0.2158  0.2376
 8467SOL    HW137034   1.166   0.234   4.359 -1.1883 -0.9130  1.7000
 8467SOL    HW237035   1.155   0.246   4.216  0.7467  0.2163  0.6786
 8468SOL     OW37036   2.416   2.288   4.247 -0.2711  0.0105 -0.3307
 8468SOL    HW137037   2.452   2.352   4.308 -1.8021  0.0913  0.5020
 8468SOL    HW237038   2.334   2.332   4.223  0.0238  1.0933  0.6788
 8469SOL     OW37039   2.734   0.783   3.088 -0.8498 -0.4873 -0.1608
 8469SOL    HW137040   2.766   0.796   3.178  0.0809 -1.1567 -0.4036
 8469SOL    HW237041   2.727   0.688   3.091  2.2887 -0.7039  0.4369
 8470SOL     OW37042   2.536   2.791  10.390  0.8515 -0.2626  0.1328
 8470SOL    HW137043   2.502   2.855  10.328 -1.9546 -1.3970  0.5046
 8470SOL    HW237044   2.459   2.746  10.424 -0.4315  1.4858 -0.4845
 8471SOL     OW37045   0.360   0.913   5.068  0.0782  0.2508 -0.1569
 8471SOL    HW137046   0.311   0.875   5.142  0.2655 -0.1372 -0.2293
 8471SOL    HW237047   0.349   0.845   5.002  1.1644 -0.4754  0.4010
 8472SOL     OW37048   4.166   2.501  17.536  0.1872  0.4253  0.2106
 8472SOL    HW137049   4.078   2.505  17.499 -0.8255 -1.1359  2.4843
 8472SOL    HW237050   4.210   2.520  17.453  1.9979 -0.5497  0.9530
 8473SOL     OW37051   4.512   1.088   8.766  0.2144  0.4877  0.1605
 8473SOL    HW137052   4.572   1.163   8.759 -1.5353  1.7772 -0.9862
 8473SOL    HW237053   4.546   1.044   8.844 -1.0684 -0.2064  0.3212
 8474SOL     OW37054   2.754   3.260   6.529 -0.2326 -0.2369  0.4171
 8474SOL    HW137055   2.835   3.274   6.577  0.0979 -1.2614  0.1474
 8474SOL    HW237056   2.754   3.166   6.512  1.1219 -0.2547  0.5775
 8475SOL     OW37057   1.697   1.434  11.777  0.4974 -0.4715  0.3191
 8475SOL    HW137058   1.770   1.495  11.790 -1.2892  1.2843  2.0521
 8475SOL    HW237059   1.667   1.466  11.692  0.9580 -0.1718  0.2671
 8476SOL     OW37060   2.109   1.668   6.833  0.2664 -0.0386  0.3004
 8476SOL    HW137061   2.065   1.603   6.887 -1.1092  1.6856  1.2459
 8476SOL    HW237062   2.119   1.624   6.749 -0.2697 -0.3849  0.4176
 8477SOL     OW37063   4.159   4.717   2.697  0.1746  0.0785 -0.3110
 8477SOL    HW137064   4.149   0.079   2.683 -0.3946  0.2928  1.4932
 8477SOL    HW237065   4.102   4.673   2.634  0.4242  1.2559 -1.3531
 8478SOL     OW37066   4.047   3.616  15.688  0.0173 -0.3968 -0.4377
 8478SOL    HW137067   4.036   3.595  15.781 -0.7005  0.6127 -0.3008
 8478SOL    HW237068   3.962   3.648  15.658  0.5558 -0.2933 -1.8487
 8479SOL     OW37069   1.132   1.299   9.991  1.0712  0.0417 -0.3617
 8479SOL    HW137070   1.047   1.307  10.033  0.6664 -2.1289 -0.7260
 8479SOL    HW237071   1.117   1.309   9.897 -2.4974 -2.2266 -0.0484
 8480SOL     OW37072   3.384   4.619   5.670  0.2511  0.0561  0.7919
 8480SOL    HW137073   3.331   4.691   5.638  0.6341  0.3559  0.8356
 8480SOL    HW237074   3.323   4.548   5.649  1.0539 -0.8292  1.4407
 8481SOL     OW37075   4.446   2.103   9.604 -0.5301 -0.4995  0.7681
 8481SOL    HW137076   4.432   2.165   9.532  0.9585  1.6862  2.3896
 8481SOL    HW237077   4.517   2.148   9.649  0.4043  0.1891 -1.4035
 8482SOL     OW37078   3.034   3.198   8.917 -0.1624  0.4592  0.3405
 8482SOL    HW137079   3.076   3.124   8.962  1.4296  0.8002 -0.5999
 8482SOL    HW237080   2.943   3.178   8.940  0.5872 -0.2360  2.7124
 8483SOL     OW37081   1.994   3.247   2.101 -0.0482 -0.4353  0.3133
 8483SOL    HW137082   2.052   3.294   2.041  1.2803 -1.0987  1.0947
 8483SOL    HW237083   2.042   3.169   2.127 -0.8242 -0.5690  1.3570
 8484SOL     OW37084   3.469   0.507   3.811 -0.1251 -0.3418  0.4935
 8484SOL    HW137085   3.528   0.579   3.792 -1.3051  0.0339 -1.8260
 8484SOL    HW237086   3.427   0.536   3.891 -0.4322  0.0978  0.1703
 8485SOL     OW37087   4.274   2.726   5.537  0.2403  0.2678  0.0720
 8485SOL    HW137088   4.182   2.703   5.527  0.3996  0.0013 -0.7496
 8485SOL    HW237089   4.314   2.650   5.579 -1.3072 -1.3029 -1.3212
 8486SOL     OW37090   1.585   1.211   3.088 -0.4335  0.0282 -0.3245
 8486SOL    HW137091   1.552   1.137   3.139  2.4727 -0.5853  0.6472
 8486SOL    HW237092   1.557   1.189   2.999 -0.5389  1.7104 -0.7083
 8487SOL     OW37093   3.892   3.575   3.937 -0.3579 -0.1027 -0.3765
 8487SOL    HW137094   3.821   3.594   3.999 -2.4972 -0.7853 -2.6237
 8487SOL    HW237095   3.875   3.483   3.916  0.6810 -0.1143 -1.1760
 8488SOL     OW37096   0.917   1.259  14.843  0.0276  0.3011 -0.5516
 8488SOL    HW137097   0.874   1.180  14.810  2.3690 -0.6194 -1.4692
 8488SOL    HW237098   0.840   1.314  14.854 -1.5805 -2.0492  0.0243
 8489SOL     OW37099   0.642   2.859   0.749 -0.1264 -0.1755  0.9695
 8489SOL    HW137100   0.580   2.856   0.822  0.7689 -0.5778  1.7117
 8489SOL    HW237101   0.721   2.840   0.798  1.0056  0.4304 -0.6189
 8490SOL     OW37102   2.686   0.230  12.317  1.0121 -0.8130  0.4007
 8490SOL    HW137103   2.611   0.196  12.366  1.0849 -3.5263 -1.3731
 8490SOL    HW237104   2.662   0.322  12.306  1.7183 -0.3561  2.6732
 8491SOL     OW37105   1.238   1.781   3.377 -0.2050 -0.2060 -0.1834
 8491SOL    HW137106   1.316   1.822   3.414 -1.1698  1.8152 -0.3550
 8491SOL    HW237107   1.213   1.727   3.453  2.1596  0.3409  1.0066
 8492SOL     OW37108   0.800   4.154   4.086  0.0658 -0.0971 -0.0317
 8492SOL    HW137109   0.868   4.090   4.069  0.7502  1.1907 -2.2772
 8492SOL    HW237110   0.749   4.166   4.006 -1.5590 -1.6486  0.7839
 8493SOL     OW37111   1.430   2.870  10.651  0.4730 -0.1383 -0.1479
 8493SOL    HW137112   1.403   2.878  10.560 -0.9842  2.3006  0.5122
 8493SOL    HW237113   1.417   2.775  10.658 -3.4530  0.4507  0.8305
 8494SOL     OW37114   4.653   0.469   7.822  0.2300 -0.0276  0.0869
 8494SOL    HW137115   4.674   0.543   7.765 -1.1949  0.3573  0.0589
 8494SOL    HW237116   4.612   0.527   7.887  0.5014  1.6205 -1.2031
 8495SOL     OW37117   0.320   1.813   6.159 -0.3797 -0.6022  0.1239
 8495SOL    HW137118   0.411   1.787   6.176 -0.0926 -0.9390 -1.9761
 8495SOL    HW237119   0.283   1.830   6.246 -1.0061 -0.4611 -0.1662
 8496SOL     OW37120   0.975   0.451  15.324  0.0573  0.0638 -0.0315
 8496SOL    HW137121   1.019   0.534  15.346  0.0427 -0.4777  2.0901
 8496SOL    HW237122   1.021   0.417  15.248 -0.5714  0.8574 -0.7692
 8497SOL     OW37123   1.365   3.273   2.501 -0.1868  0.9345 -0.5679
 8497SOL    HW137124   1.425   3.219   2.552 -2.1718 -2.5880 -1.9827
 8497SOL    HW237125   1.361   3.335   2.574  1.6649  1.9653 -1.3395
 8498SOL     OW37126   0.976   1.137   2.608 -0.3025  0.2970 -0.0045
 8498SOL    HW137127   0.909   1.082   2.567 -1.0002 -1.0358  2.9031
 8498SOL    HW237128   1.009   1.072   2.670  0.0320 -0.1854 -0.6954
 8499SOL     OW37129   1.402   0.154  17.511  0.5966 -0.0421  0.3940
 8499SOL    HW137130   1.310   0.161  17.486  1.2478  0.4986 -1.8762
 8499SOL    HW237131   1.433   0.130  17.423  0.8219  0.9480  0.2028
 8500SOL     OW37132   1.405   1.550   9.708 -0.7846 -0.0999  0.0895
 8500SOL    HW137133   1.369   1.590   9.629 -0.8595 -0.0547  0.1465
 8500SOL    HW237134   1.464   1.619   9.737 -0.0779  0.1098 -1.8766
 8501SOL     OW37135   4.620   4.491   3.756  0.3167  1.1772  0.1551
 8501SOL    HW137136   4.549   4.547   3.787 -0.1923 -0.0519  1.2200
 8501SOL    HW237137   4.602   4.504   3.663 -0.2505 -1.9818 -0.1862
 8502SOL     OW37138   0.951   1.077  17.701  0.1460  0.0095 -0.8329
 8502SOL    HW137139   0.899   1.089  17.622 -1.0276 -0.0881 -0.0851
 8502SOL    HW237140   1.012   1.009  17.673  1.2289  0.4790  0.3539
 8503SOL     OW37141   3.679   3.714   8.645 -0.0946  0.8394 -0.3874
 8503SOL    HW137142   3.711   3.672   8.724  0.4049  1.2570 -0.3658
 8503SOL    HW237143   3.615   3.650   8.615 -0.7741  0.0791  2.7521
 8504SOL     OW37144   1.173   1.792   8.226 -0.1291  0.5730  0.6289
 8504SOL    HW137145   1.135   1.706   8.242  0.6837  0.3082  1.1702
 8504SOL    HW237146   1.212   1.770   8.142  0.3304 -0.8725  1.2221
 8505SOL     OW37147   2.192   0.477   8.778  0.3109 -0.1490 -0.3098
 8505SOL    HW137148   2.178   0.427   8.858  1.1280  1.1438  0.6395
 8505SOL    HW237149   2.225   0.558   8.818 -0.6838 -0.1855  0.5861
 8506SOL     OW37150   1.842   2.711   3.417 -0.0970 -0.3530  0.0984
 8506SOL    HW137151   1.840   2.651   3.491 -1.9809  0.4893  0.7098
 8506SOL    HW237152   1.790   2.658   3.357  0.0212  0.0166 -0.3389
 8507SOL     OW37153   3.097   3.079  10.313 -0.1725 -0.0179  0.1065
 8507SOL    HW137154   3.010   3.038  10.316 -0.0804 -0.2686 -0.7552
 8507SOL    HW237155   3.069   3.163  10.350  2.0808  1.1447 -0.8491
 8508SOL     OW37156   4.701   1.335  16.831  0.0239  0.7736  0.3392
 8508SOL    HW137157   4.664   1.422  16.841 -0.7569  0.4760  0.0693
 8508SOL    HW237158   4.670   1.325  16.741  0.5772  1.9007  0.0214
 8509SOL     OW37159   0.947   4.269   8.542 -0.2851 -0.1387  0.4565
 8509SOL    HW137160   1.039   4.271   8.515  0.0725 -0.4388  1.6363
 8509SOL    HW237161   0.917   4.179   8.552  1.6386 -0.7551  0.7376
 8510SOL     OW37162   1.163   2.057   8.306  0.0534  0.8768  0.4053
 8510SOL    HW137163   1.175   1.962   8.307  3.9952  1.3398 -2.2265
 8510SOL    HW237164   1.200   2.083   8.221 -0.2454  1.6720  0.5232
 8511SOL     OW37165   4.514   4.450  13.258 -0.0397  0.1559 -0.1780
 8511SOL    HW137166   4.513   4.461  13.163  1.1586  0.4794 -0.1541
 8511SOL    HW237167   4.605   4.466  13.285 -0.3370  1.2609  0.1917
 8512SOL     OW37168   3.833   0.601   5.130 -0.6827 -0.1681 -0.0754
 8512SOL    HW137169   3.798   0.644   5.208  2.6501  3.5569 -0.6723
 8512SOL    HW237170   3.840   0.509   5.156  0.6796  0.0424  0.3532
 8513SOL     OW37171   0.753   3.376  12.554 -0.5486  1.1089 -0.4700
 8513SOL    HW137172   0.669   3.349  12.591  0.8667  1.4911  2.9703
 8513SOL    HW237173   0.810   3.337  12.620 -0.9415  1.4640  0.0739
 8514SOL     OW37174   4.060   4.128   9.796  0.3586  0.1630  0.0006
 8514SOL    HW137175   4.034   4.215   9.768 -0.7601 -0.1887 -0.0378
 8514SOL    HW237176   4.094   4.147   9.884 -2.3095  0.7949  0.8825
 8515SOL     OW37177   0.453   2.545  13.155  0.4728  0.2348  0.0523
 8515SOL    HW137178   0.385   2.485  13.124  1.1099 -0.4498 -0.0149
 8515SOL    HW237179   0.405   2.585  13.228  0.6962  2.0153 -0.7563
 8516SOL     OW37180   3.596   0.897  17.457 -0.5479  0.1052  0.2240
 8516SOL    HW137181   3.660   0.953  17.501  0.2196 -0.2195 -0.4887
 8516SOL    HW237182   3.637   0.813  17.439  0.8266  1.0287 -0.9088
 8517SOL     OW37183   0.189   1.915   4.687 -0.6200  0.2818  0.4920
 8517SOL    HW137184   0.240   1.974   4.630  0.6399  1.3593  2.7519
 8517SOL    HW237185   0.254   1.847   4.703 -0.7216  0.4353  1.5566
 8518SOL     OW37186   0.229   1.210   7.899  0.3889  0.1301 -0.3054
 8518SOL    HW137187   0.202   1.119   7.902  3.7742 -0.8406  0.1383
 8518SOL    HW237188   0.145   1.251   7.920  0.1949 -0.6997  0.5155
 8519SOL     OW37189   4.531   2.716   7.472 -0.2862 -0.5880  0.2045
 8519SOL    HW137190   4.580   2.717   7.554  0.6533  0.4639 -0.3728
 8519SOL    HW237191   4.454   2.764   7.503 -1.1063 -1.6945 -0.0931
 8520SOL     OW37192   3.814   3.830   7.417 -0.2327  0.1633  0.2292
 8520SOL    HW137193   3.752   3.785   7.475  0.1394  0.1796  0.6403
 8520SOL    HW237194   3.771   3.799   7.338 -1.8653 -0.6453  1.4226
 8521SOL     OW37195   3.851   3.009   5.560 -0.2667 -0.2011 -0.1771
 8521SOL    HW137196   3.772   3.060   5.545 -0.8934 -0.8765  0.7808
 8521SOL    HW237197   3.921   3.070   5.584 -1.9642  2.6083 -2.5699
 8522SOL     OW37198   3.548   3.269   7.955 -0.5225  0.2905  0.7278
 8522SOL    HW137199   3.524   3.357   7.927 -0.7047 -0.2109 -0.7050
 8522SOL    HW237200   3.474   3.246   8.011 -0.4888 -1.4392  0.0727
 8523SOL     OW37201   4.481   3.145   8.989 -0.0621  0.3614 -0.7926
 8523SOL    HW137202   4.505   3.205   9.060  1.5432 -2.8668  1.3974
 8523SOL    HW237203   4.557   3.089   9.006 -0.1516  0.4820  0.0249
 8524SOL     OW37204   0.399   2.320   3.979 -0.3548  0.1591  0.5987
 8524SOL    HW137205   0.335   2.391   3.985  0.4099  0.6445  3.4143
 8524SOL    HW237206   0.477   2.358   4.020 -0.9837  0.3857  1.5996
 8525SOL     OW37207   0.961   4.629   3.952 -0.3340 -0.1202 -0.4855
 8525SOL    HW137208   1.021   4.692   3.913  1.8499 -1.6275  0.4393
 8525SOL    HW237209   1.009   4.627   4.035  1.7455 -1.8481 -1.7099
 8526SOL     OW37210   3.128   3.062   7.772 -0.4600  0.2863  0.0189
 8526SOL    HW137211   3.156   3.129   7.710  3.6569  0.4715  2.1279
 8526SOL    HW237212   3.083   3.116   7.837  0.9026  1.1754  0.2266
 8527SOL     OW37213   1.775   3.734   2.494 -0.3495  0.8702  0.4008
 8527SOL    HW137214   1.727   3.802   2.447 -2.0532  0.1443  1.0921
 8527SOL    HW237215   1.799   3.672   2.425 -3.7171 -3.4243  3.1226
 8528SOL     OW37216   1.920   3.761   7.891  0.4486 -0.0173  0.0871
 8528SOL    HW137217   1.918   3.856   7.879 -1.6907  0.0218  0.7667
 8528SOL    HW237218   1.999   3.729   7.847 -0.5716 -0.8140 -1.1625
 8529SOL     OW37219   3.524   0.964   7.273 -0.0452  0.3033  0.2791
 8529SOL    HW137220   3.435   0.998   7.267  0.2686  0.6400 -2.4662
 8529SOL    HW237221   3.507   0.870   7.276 -3.0859  0.8518  0.6210
 8530SOL     OW37222   1.899   1.240   3.898 -0.4757 -0.2994 -0.0645
 8530SOL    HW137223   1.861   1.236   3.810  2.7765  0.9365 -1.5228
 8530SOL    HW237224   1.991   1.217   3.884 -1.2951 -2.1344 -2.5238
 8531SOL     OW37225   4.630   1.157   3.981  0.4750  0.0847 -0.1095
 8531SOL    HW137226   4.686   1.086   4.014 -2.0062 -1.2695  1.2132
 8531SOL    HW237227   4.623   1.202   4.065  3.3462  2.0329 -0.9105
 8532SOL     OW37228   3.000   2.467   7.836 -0.0146 -0.4938 -0.3705
 8532SOL    HW137229   2.986   2.384   7.791  1.0015 -0.5267 -0.6175
 8532SOL    HW237230   2.950   2.455   7.917  0.8910  1.5555  0.4804
 8533SOL     OW37231   2.980   3.854   8.508 -0.0229 -0.5113  0.3972
 8533SOL    HW137232   2.960   3.925   8.570  1.3640  1.1844 -1.0713
 8533SOL    HW237233   2.959   3.902   8.427  4.2067 -0.3208 -0.6142
 8534SOL     OW37234   1.075   3.871  13.401  0.1792  0.8673 -0.2852
 8534SOL    HW137235   1.117   3.923  13.333 -0.9746 -1.6722 -2.9335
 8534SOL    HW237236   0.989   3.853  13.365 -0.8015  0.8000  2.0944
 8535SOL     OW37237   4.674   3.171   5.005 -0.0809 -0.2937 -0.5960
 8535SOL    HW137238   0.017   3.211   5.047  1.2227 -2.9962 -0.3762
 8535SOL    HW237239   4.638   3.250   4.966 -0.0034  0.6233  1.2042
 8536SOL     OW37240   3.836   1.837  16.975 -0.3943  0.1362 -0.1596
 8536SOL    HW137241   3.762   1.843  17.035 -1.0267  0.2365 -0.9465
 8536SOL    HW237242   3.880   1.919  16.998 -0.1367  0.3313 -1.3322
 8537SOL     OW37243   1.162   0.917   5.261 -0.5365  0.0460  0.2031
 8537SOL    HW137244   1.240   0.910   5.206 -0.2337  0.6234  0.5643
 8537SOL    HW237245   1.096   0.936   5.194  1.9424  2.9419 -1.3841
 8538SOL     OW37246   2.494   4.373   7.268 -0.1872 -0.0273 -0.3712
 8538SOL    HW137247   2.485   4.336   7.356  0.4952  0.7170  0.0144
 8538SOL    HW237248   2.512   4.464   7.292  1.3996 -0.0820 -1.3647
 8539SOL     OW37249   2.719   2.070   2.934  0.2504  0.5652 -0.1395
 8539SOL    HW137250   2.765   2.043   2.855 -0.0094  0.6118 -0.3067
 8539SOL    HW237251   2.783   2.069   3.005  0.3089 -0.5081 -0.1966
 8540SOL     OW37252   1.023   2.270   7.713 -0.5554 -0.0331 -0.3865
 8540SOL    HW137253   1.053   2.360   7.725  1.3066 -0.8143  0.8008
 8540SOL    HW237254   0.976   2.251   7.794 -0.6267  2.2534  0.1269
 8541SOL     OW37255   2.603   1.038   3.018 -0.4539 -0.4581 -0.2102
 8541SOL    HW137256   2.592   0.955   2.971 -0.3450  0.2328 -1.4651
 8541SOL    HW237257   2.569   1.099   2.953  0.2963 -0.5045 -0.6543
 8542SOL     OW37258   3.450   3.834   2.559  0.1322  0.3958 -0.2897
 8542SOL    HW137259   3.489   3.767   2.616 -0.1716  1.4244  1.1220
 8542SOL    HW237260   3.528   3.883   2.532  0.3538  0.7049  0.9071
 8543SOL     OW37261   3.914   1.562  12.769  0.1504 -0.0258  0.5069
 8543SOL    HW137262   3.975   1.571  12.842  2.0592 -3.5377 -0.6665
 8543SOL    HW237263   3.938   1.474  12.741  0.8248 -0.0081  1.0269
 8544SOL     OW37264   0.529   1.117   4.353 -0.5617  0.5596 -0.4219
 8544SOL    HW137265   0.436   1.124   4.332 -0.6972 -0.2949 -0.1284
 8544SOL    HW237266   0.524   1.148   4.443 -1.4249  0.4035 -0.4095
 8545SOL     OW37267   3.045   4.642   3.532 -0.0283 -0.3991 -0.6688
 8545SOL    HW137268   2.977   4.647   3.464  0.4509  2.2789 -0.9185
 8545SOL    HW237269   3.089   4.723   3.508  1.0809 -0.8441 -0.1498
 8546SOL     OW37270   2.594   4.360   7.016  0.4680 -0.0949 -0.0752
 8546SOL    HW137271   2.556   4.364   7.103  0.9491 -1.7050  0.2102
 8546SOL    HW237272   2.683   4.344   7.048  1.2233 -0.6790 -2.3856
 8547SOL     OW37273   1.356   2.921   7.515  0.1246 -0.3219 -0.1800
 8547SOL    HW137274   1.421   2.914   7.446 -2.5662  0.1258 -2.7499
 8547SOL    HW237275   1.378   3.004   7.558 -0.6570  0.5291 -1.4254
 8548SOL     OW37276   0.869   1.545  14.970  0.8249  0.0382  0.2965
 8548SOL    HW137277   0.867   1.456  15.005  0.6270 -0.3768 -0.7735
 8548SOL    HW237278   0.962   1.567  14.964  1.4889 -2.2450  2.1621
 8549SOL     OW37279   0.152   1.703   3.197 -0.0272  0.8531 -0.0746
 8549SOL    HW137280   0.231   1.713   3.250  0.3974  2.9296 -1.0825
 8549SOL    HW237281   0.083   1.714   3.263 -0.6790 -0.2772 -0.5620
 8550SOL     OW37282   1.266   2.115   5.168  0.3010  0.2295 -0.0871
 8550SOL    HW137283   1.258   2.154   5.081 -0.2788 -0.4270 -0.3264
 8550SOL    HW237284   1.349   2.066   5.167  0.3840  0.3540  1.3085
 8551SOL     OW37285   1.862   3.609   2.287  0.2086  0.3393  0.6232
 8551SOL    HW137286   1.838   3.592   2.196  0.4990  0.3096  0.5537
 8551SOL    HW237287   1.933   3.672   2.273 -0.2339  0.2996 -1.9028
 8552SOL     OW37288   0.771   3.311   1.623 -0.0112  0.1231 -0.0192
 8552SOL    HW137289   0.802   3.293   1.712  1.8750  0.1010 -0.6916
 8552SOL    HW237290   0.823   3.245   1.578 -0.1718  0.2723 -0.4183
 8553SOL     OW37291   2.344   3.506   4.579 -0.5630 -0.1028  0.2255
 8553SOL    HW137292   2.382   3.552   4.504  0.6252  0.7714  1.3730
 8553SOL    HW237293   2.311   3.434   4.525  1.4710  0.5251 -1.8593
 8554SOL     OW37294   2.800   3.258   4.780  0.0814 -0.2863 -0.5942
 8554SOL    HW137295   2.889   3.291   4.789  0.0272  0.5525 -3.0363
 8554SOL    HW237296   2.801   3.185   4.717  2.7221  0.4612 -1.4017
 8555SOL     OW37297   2.006   2.724   8.058 -0.1722 -0.2377 -0.5007
 8555SOL    HW137298   1.954   2.801   8.080  0.0731  0.4171 -2.2313
 8555SOL    HW237299   2.090   2.760   8.030 -0.4208  0.4601 -0.3498
 8556SOL     OW37300   3.662   2.834   7.998  0.6090  1.0052  0.0996
 8556SOL    HW137301   3.722   2.781   7.946 -0.9802 -1.1041  0.4067
 8556SOL    HW237302   3.708   2.842   8.081 -0.2634 -1.0324  0.7771
 8557SOL     OW37303   3.286   1.945   7.037 -0.0785 -0.1683 -0.8918
 8557SOL    HW137304   3.231   1.917   6.963  0.4203 -1.7821 -0.6554
 8557SOL    HW237305   3.283   1.868   7.093  1.0166 -0.1675 -0.8286
 8558SOL     OW37306   1.287   1.243   2.778  0.0409 -0.0885 -0.3561
 8558SOL    HW137307   1.250   1.272   2.694  0.0146  1.1206  0.0640
 8558SOL    HW237308   1.231   1.167   2.790  1.7444 -1.6505 -2.4037
 8559SOL     OW37309   3.715   1.485   7.228  0.0762  0.1692  0.3934
 8559SOL    HW137310   3.736   1.578   7.236  1.7121 -0.0670 -1.2294
 8559SOL    HW237311   3.750   1.442   7.305 -0.7674  1.0930  1.2890
 8560SOL     OW37312   4.121   1.428  14.674 -0.2551 -0.1401  0.0974
 8560SOL    HW137313   4.184   1.459  14.609  0.4114 -3.8623 -1.0383
 8560SOL    HW237314   4.040   1.447  14.627  0.7122 -1.0624 -1.9553
 8561SOL     OW37315   2.347   4.582   6.675 -0.5876 -0.0476 -0.2292
 8561SOL    HW137316   2.402   4.660   6.676 -0.0880 -0.3956 -0.5583
 8561SOL    HW237317   2.357   4.546   6.763 -0.5634  0.6464  0.0496
 8562SOL     OW37318   4.063   1.251  10.810  0.0282 -0.3878  0.1419
 8562SOL    HW137319   4.064   1.162  10.845 -1.9968  0.6435  2.8185
 8562SOL    HW237320   3.982   1.257  10.760  1.6026  1.3051 -2.2498
 8563SOL     OW37321   2.552   2.439   9.294  1.0214 -0.4284  0.0333
 8563SOL    HW137322   2.536   2.363   9.350 -0.8298 -0.4786 -0.5512
 8563SOL    HW237323   2.510   2.502   9.352 -1.5282 -0.5779 -1.6472
 8564SOL     OW37324   4.004   3.023   8.046  1.0012 -0.4194 -0.3287
 8564SOL    HW137325   3.949   3.081   7.992  0.7679  1.4588  1.9017
 8564SOL    HW237326   4.058   2.973   7.985  0.3654 -2.7232  0.9941
 8565SOL     OW37327   0.991   2.569   8.777 -0.1245  0.4568 -0.1495
 8565SOL    HW137328   0.942   2.618   8.843  0.9380  0.6792  0.4812
 8565SOL    HW237329   1.081   2.602   8.784  0.4407 -0.8281 -1.3530
 8566SOL     OW37330   0.354   3.877   1.767  0.2123 -0.7218  0.2461
 8566SOL    HW137331   0.449   3.873   1.766  0.2930  1.4391 -1.2419
 8566SOL    HW237332   0.333   3.966   1.795  0.0005 -1.1261  1.3656
 8567SOL     OW37333   2.087   4.323   7.239  0.3780  0.1637  0.4872
 8567SOL    HW137334   2.152   4.331   7.169 -1.1555 -0.2753 -1.0040
 8567SOL    HW237335   2.008   4.345   7.189  1.8416 -0.9254 -2.2855
 8568SOL     OW37336   4.587   3.884  11.559 -0.0073  0.3561 -0.1208
 8568SOL    HW137337   4.656   3.899  11.494 -0.9657  0.1153 -1.1804
 8568SOL    HW237338   4.607   3.794  11.585 -0.0698  1.2286  2.9362
 8569SOL     OW37339   3.630   0.302   3.765  0.1879 -0.0838 -0.6152
 8569SOL    HW137340   3.700   0.366   3.781  0.3047 -0.9937  2.5884
 8569SOL    HW237341   3.560   0.368   3.766  0.3277  0.0878 -2.7511
 8570SOL     OW37342   2.034   0.521   4.266  0.0326  0.3162 -0.0277
 8570SOL    HW137343   2.034   0.483   4.354  0.2556  2.5240  0.9529
 8570SOL    HW237344   2.128   0.522   4.248  0.2952  0.4606  1.3620
 8571SOL     OW37345   4.427   3.690   6.147 -0.2254 -0.6190  0.3082
 8571SOL    HW137346   4.378   3.667   6.069  0.0293  1.6207 -0.5140
 8571SOL    HW237347   4.446   3.779   6.116  0.3180 -0.6285  0.6017
 8572SOL     OW37348   2.277   3.347  10.827  0.2468  0.2222 -0.1664
 8572SOL    HW137349   2.210   3.413  10.808 -0.6114  0.1842  2.8122
 8572SOL    HW237350   2.296   3.352  10.920  2.5814 -1.0104 -0.5687
 8573SOL     OW37351   0.675   4.378   0.926  0.4077 -0.2037  0.6211
 8573SOL    HW137352   0.695   4.340   0.840  3.6042  0.4826  1.0525
 8573SOL    HW237353   0.728   4.458   0.923 -0.3685  0.2182 -2.0490
 8574SOL     OW37354   3.208   1.748   8.152 -0.0801  0.0015 -0.2171
 8574SOL    HW137355   3.123   1.706   8.164 -0.7809  1.8547  1.4269
 8574SOL    HW237356   3.164   1.833   8.140 -0.8451 -0.6310 -1.9554
 8575SOL     OW37357   3.681   3.844   2.123  0.0883  0.4627 -0.0580
 8575SOL    HW137358   3.756   3.787   2.108 -2.0764 -2.3086 -0.2604
 8575SOL    HW237359   3.715   3.900   2.193  2.0701  0.7725 -1.2543
 8576SOL     OW37360   1.217   0.729   9.261 -0.1539 -0.2941  0.0801
 8576SOL    HW137361   1.202   0.705   9.169 -1.9782  2.0883 -0.2440
 8576SOL    HW237362   1.219   0.825   9.256  1.1582 -0.3211 -0.0176
 8577SOL     OW37363   0.750   3.579   2.882  0.1871 -0.6733  0.2250
 8577SOL    HW137364   0.702   3.620   2.810 -0.0116  1.2594  1.4462
 8577SOL    HW237365   0.835   3.548   2.851  0.2951 -1.1196  0.9550
 8578SOL     OW37366   4.696   0.930  12.856 -0.1747 -0.0688 -0.4817
 8578SOL    HW137367   4.729   0.841  12.849 -1.4372 -0.6094  0.3606
 8578SOL    HW237368   4.718   0.973  12.773  0.7375  2.3575  1.0199
 8579SOL     OW37369   1.558   0.696   6.066  0.2379  0.1788 -0.0517
 8579SOL    HW137370   1.521   0.716   5.980  0.7686 -0.3968 -0.4102
 8579SOL    HW237371   1.475   0.716   6.110  0.2920  0.6556 -0.1737
 8580SOL     OW37372   4.007   3.436   1.957  0.3472  0.3733 -0.4088
 8580SOL    HW137373   3.998   3.362   1.897 -0.7793 -0.1137  0.3372
 8580SOL    HW237374   3.978   3.403   2.043  2.3331 -1.2293 -0.3403
 8581SOL     OW37375   3.407   2.533   7.663  0.0400 -0.1740  0.2039
 8581SOL    HW137376   3.335   2.591   7.639  0.4834 -0.0947 -0.9124
 8581SOL    HW237377   3.476   2.563   7.604 -0.9068 -0.2056 -0.9240
 8582SOL     OW37378   4.504   2.419   2.944 -0.6304 -0.0395  0.2278
 8582SOL    HW137379   4.496   2.345   3.004  0.3990  1.5161  2.2664
 8582SOL    HW237380   4.490   2.495   3.000 -0.6828  1.4293 -1.7947
 8583SOL     OW37381   1.359   1.793   5.857 -0.3250  0.0078  0.9661
 8583SOL    HW137382   1.398   1.731   5.794  0.1928  0.4960  0.8035
 8583SOL    HW237383   1.375   1.879   5.819  4.5607 -1.3633 -0.0870
 8584SOL     OW37384   4.064   1.166   4.297  0.1187  0.5199  0.2740
 8584SOL    HW137385   4.021   1.240   4.254 -0.5873 -0.1648 -0.1957
 8584SOL    HW237386   4.109   1.120   4.226 -1.8196 -0.2738 -0.4336
 8585SOL     OW37387   3.767   0.476   6.428 -0.0871  0.1087 -0.4937
 8585SOL    HW137388   3.851   0.494   6.469  0.8112 -1.2789 -1.7044
 8585SOL    HW237389   3.792   0.492   6.337 -1.4368  2.1678 -0.4866
 8586SOL     OW37390   1.107   1.613   1.242  0.1491 -0.1690 -0.2571
 8586SOL    HW137391   1.028   1.614   1.297  0.8004  1.4022  0.6374
 8586SOL    HW237392   1.076   1.620   1.152  0.2206 -2.8043 -0.5035
 8587SOL     OW37393   0.212   2.536   8.781  0.6803 -0.3123 -0.2297
 8587SOL    HW137394   0.276   2.605   8.798  0.7245 -0.9822  2.4073
 8587SOL    HW237395   0.199   2.547   8.687  0.4345  0.4586 -0.0991
 8588SOL     OW37396   3.272   2.085   0.365 -0.8417 -0.3703 -0.2765
 8588SOL    HW137397   3.260   2.177   0.340 -1.9856 -0.8182 -1.3390
 8588SOL    HW237398   3.207   2.052   0.303 -0.1311 -0.7935 -0.8006
 8589SOL     OW37399   4.465   3.033  11.922 -0.1260 -0.1174 -0.0171
 8589SOL    HW137400   4.379   3.072  11.907  0.6654  1.8633  0.7083
 8589SOL    HW237401   4.515   3.056  11.844  2.6420 -0.3110  1.6606
 8590SOL     OW37402   3.438   1.609   6.825 -0.9308  0.0821  0.2268
 8590SOL    HW137403   3.476   1.649   6.903 -0.2182  2.7218 -1.4608
 8590SOL    HW237404   3.370   1.673   6.802  0.0372  0.9059 -0.3406
 8591SOL     OW37405   0.545   3.075  14.505  0.2461  0.1483  0.0554
 8591SOL    HW137406   0.467   3.079  14.450  0.4631  0.3078 -0.2431
 8591SOL    HW237407   0.516   3.011  14.570  0.2643  0.7052  0.6063
 8592SOL     OW37408   0.418   0.865   5.440 -0.0133  0.1381 -0.4434
 8592SOL    HW137409   0.465   0.863   5.523 -0.2381  4.1111 -0.2235
 8592SOL    HW237410   0.396   0.772   5.438 -2.0940  0.6056  0.2419
 8593SOL     OW37411   2.262   1.182   3.501  0.0620  0.0511 -0.0798
 8593SOL    HW137412   2.199   1.142   3.442  1.2232 -1.2121 -0.4761
 8593SOL    HW237413   2.295   1.259   3.455  1.4176  0.1317  1.0322
 8594SOL     OW37414   3.279   1.803   8.851 -0.0079  0.1036 -0.3880
 8594SOL    HW137415   3.341   1.772   8.785 -0.3989  0.0286 -0.7220
 8594SOL    HW237416   3.217   1.843   8.790  0.2912  0.0311 -0.7364
 8595SOL     OW37417   2.756   2.223   4.334  0.5410  0.3215 -0.2578
 8595SOL    HW137418   2.706   2.194   4.410  1.7409 -0.8200  0.0888
 8595SOL    HW237419   2.701   2.212   4.257  0.2563 -0.0993  0.0051
 8596SOL     OW37420   4.354   0.863  16.497  0.1034  0.2979 -0.2286
 8596SOL    HW137421   4.350   0.958  16.490  0.6831  0.1119 -3.0322
 8596SOL    HW237422   4.443   0.837  16.471 -1.2854 -3.5797 -1.1085
 8597SOL     OW37423   1.420   2.559  13.966 -0.2904  0.1800 -0.7217
 8597SOL    HW137424   1.490   2.620  13.990 -3.0001  3.2223 -0.6434
 8597SOL    HW237425   1.349   2.601  14.016  0.7196  1.5998 -0.4850
 8598SOL     OW37426   4.367   0.196  16.367  0.0213 -0.4875 -0.6054
 8598SOL    HW137427   4.362   0.101  16.355 -1.3570  0.1271 -5.0045
 8598SOL    HW237428   4.312   0.206  16.445 -1.2949  0.3470 -1.6217
 8599SOL     OW37429   1.304   4.149   4.272  0.0399  0.3906 -0.6346
 8599SOL    HW137430   1.213   4.144   4.301  0.8314 -2.6772  1.2500
 8599SOL    HW237431   1.324   4.058   4.293  4.6108  1.4122 -0.5659
 8600SOL     OW37432   0.117   2.961   4.146 -0.2416 -0.1245  0.2563
 8600SOL    HW137433   0.071   3.001   4.072  1.0211  0.3211 -0.2933
 8600SOL    HW237434   0.137   2.879   4.102 -0.8782  0.0039 -0.2699
 8601SOL     OW37435   0.865   3.532   8.941 -0.4181 -0.5888 -0.1703
 8601SOL    HW137436   0.933   3.465   8.948 -0.8449 -0.8400  1.5478
 8601SOL    HW237437   0.861   3.551   8.847  1.6957  1.8632  0.2193
 8602SOL     OW37438   3.800   4.290   2.912  0.0176 -0.6863 -0.3434
 8602SOL    HW137439   3.787   4.241   2.832 -0.8564 -0.9081 -0.0590
 8602SOL    HW237440   3.744   4.367   2.904  1.1027  0.2076  0.5604
 8603SOL     OW37441   3.138   0.299   6.271 -0.1419  0.4299  0.0019
 8603SOL    HW137442   3.168   0.368   6.331  0.5242 -0.5846  0.8356
 8603SOL    HW237443   3.223   0.294   6.227 -0.7616  0.5830 -1.2100
 8604SOL     OW37444   0.254   2.614   4.821  1.0834  0.4669 -0.1604
 8604SOL    HW137445   0.219   2.554   4.888  2.3734  0.2182  0.2905
 8604SOL    HW237446   0.250   2.701   4.860  0.4584  0.2932  0.1736
 8605SOL     OW37447   2.975   3.859   2.411 -0.2474  0.5418 -0.2793
 8605SOL    HW137448   3.014   3.838   2.496 -0.0464 -1.0542 -0.7646
 8605SOL    HW237449   3.023   3.795   2.360 -0.9777  0.0076 -0.2998
 8606SOL     OW37450   4.619   0.109   8.913 -1.1186 -0.0874 -0.4328
 8606SOL    HW137451   4.693   0.102   8.853 -1.5758 -3.2153 -0.6386
 8606SOL    HW237452   4.661   0.097   8.998 -4.0548 -0.8715  0.9226
 8607SOL     OW37453   4.688   4.629   8.499 -0.0758  0.0564 -0.0155
 8607SOL    HW137454   4.606   4.589   8.472  0.0117 -1.5727  2.1496
 8607SOL    HW237455   0.011   4.554   8.520  0.9512  1.2380  1.4940
 8608SOL     OW37456   3.956   1.016  14.106 -0.9385 -0.3839 -0.1412
 8608SOL    HW137457   4.022   1.078  14.137  0.9298 -1.3061 -2.2677
 8608SOL    HW237458   4.012   0.954  14.060 -1.5115 -1.8112  1.0772
 8609SOL     OW37459   3.644   1.904   3.383  0.2890 -1.0248  0.2123
 8609SOL    HW137460   3.642   1.809   3.369 -0.1182 -0.7257 -1.8238
 8609SOL    HW237461   3.596   1.909   3.465 -0.9605 -0.0933 -0.5911
 8610SOL     OW37462   0.014   3.502   3.061 -0.2824  0.2431  0.0609
 8610SOL    HW137463   0.033   3.594   3.077  0.0181  0.6970 -2.9006
 8610SOL    HW237464   4.693   3.504   2.982  1.1593 -1.1928 -0.9570
 8611SOL     OW37465   1.518   4.404   5.692  0.4095 -0.1996  0.0469
 8611SOL    HW137466   1.532   4.314   5.662  0.4895 -0.4761  0.9303
 8611SOL    HW237467   1.486   4.439   5.609 -3.1022 -1.1816  0.9698
 8612SOL     OW37468   2.697   4.089   8.637  0.2060  0.5021  0.2001
 8612SOL    HW137469   2.708   4.176   8.675  2.7109  0.2528  0.0232
 8612SOL    HW237470   2.718   4.114   8.547 -0.3272  0.5190  0.0782
 8613SOL     OW37471   2.525   0.723  14.879 -0.0411  0.0210 -0.5370
 8613SOL    HW137472   2.527   0.650  14.817  1.3354 -1.3607  1.1287
 8613SOL    HW237473   2.452   0.700  14.936 -0.2053 -0.5726 -0.9917
 8614SOL     OW37474   2.731   0.672   6.650  0.4020 -0.4518 -0.0025
 8614SOL    HW137475   2.779   0.628   6.579  0.8694 -0.4460  0.3075
 8614SOL    HW237476   2.672   0.602   6.677  0.0636 -0.3371 -0.4409
 8615SOL     OW37477   2.590   4.062  12.272  0.4029  0.0592  0.5105
 8615SOL    HW137478   2.505   4.105  12.263  0.8760  1.2905  1.9422
 8615SOL    HW237479   2.592   4.043  12.366 -1.9113  0.9781  0.7563
 8616SOL     OW37480   3.306   2.402   5.382 -0.6442  0.2217  0.1201
 8616SOL    HW137481   3.380   2.447   5.422  0.0306 -0.0447 -0.8296
 8616SOL    HW237482   3.241   2.424   5.449 -2.4375  0.5887 -1.7310
 8617SOL     OW37483   0.716   0.971  10.570  0.4732 -0.1070 -0.6901
 8617SOL    HW137484   0.676   0.891  10.537 -0.3009  0.5101 -1.2411
 8617SOL    HW237485   0.635   1.022  10.577  0.1240 -0.9533  1.3995
 8618SOL     OW37486   0.116   2.911   2.359 -0.1222  0.3056 -0.2462
 8618SOL    HW137487   0.074   2.992   2.387  1.6130  1.3531 -0.6485
 8618SOL    HW237488   0.178   2.901   2.432  0.9863  1.5009 -1.0266
 8619SOL     OW37489   0.344   2.926   8.971 -0.0306 -0.0340 -0.1648
 8619SOL    HW137490   0.340   2.937   8.876 -0.0654  1.0152 -0.0510
 8619SOL    HW237491   0.421   2.979   8.993 -1.4244  2.8953 -2.1944
 8620SOL     OW37492   3.943   4.090   4.756 -0.4697 -0.4496 -0.0059
 8620SOL    HW137493   3.988   4.134   4.684 -0.9301  0.0002 -0.0127
 8620SOL    HW237494   3.985   4.004   4.746  2.4844  1.0013 -0.2484
 8621SOL     OW37495   2.831   1.643   2.512  0.1935 -0.0166 -0.2994
 8621SOL    HW137496   2.907   1.690   2.479  1.0068 -1.5408 -0.5727
 8621SOL    HW237497   2.873   1.577   2.568 -2.6044  0.2429  2.1289
 8622SOL     OW37498   0.976   0.818  10.678 -0.0879  0.0875 -0.1306
 8622SOL    HW137499   1.038   0.862  10.735  0.0374  0.0825 -0.2633
 8622SOL    HW237500   1.016   0.794  10.595 -0.8187 -0.9460 -0.1920
 8623SOL     OW37501   3.196   3.079   3.580  0.1177 -0.3296  0.4714
 8623SOL    HW137502   3.241   3.088   3.496 -0.0547  0.5434  0.4684
 8623SOL    HW237503   3.257   3.026   3.631  2.6526  1.3537 -0.8074
 8624SOL     OW37504   4.042   0.153  11.995 -0.0128  0.0464 -0.3333
 8624SOL    HW137505   4.110   0.147  12.061 -0.9313  1.3943  0.7503
 8624SOL    HW237506   4.011   0.241  12.019  0.1320 -0.5261  1.9539
 8625SOL     OW37507   1.569   0.728  12.102 -0.1183 -0.0248  0.3535
 8625SOL    HW137508   1.664   0.729  12.092 -0.1756  0.7262 -0.1039
 8625SOL    HW237509   1.537   0.785  12.032  1.7438  1.1212  0.4446
 8626SOL     OW37510   0.684   1.350   9.918  0.2749 -0.0456 -0.6674
 8626SOL    HW137511   0.642   1.422   9.872 -0.8359 -1.2769 -1.5776
 8626SOL    HW237512   0.728   1.311   9.843  0.9285 -0.9177  0.1697
 8627SOL     OW37513   2.078   4.204   1.909  0.5792  0.0916  0.2579
 8627SOL    HW137514   2.060   4.296   1.889 -2.9418 -1.0078 -1.5824
 8627SOL    HW237515   2.079   4.162   1.823  0.6325  1.2252 -0.2870
 8628SOL     OW37516   3.336   0.803  15.422 -0.3886 -0.0565  0.1886
 8628SOL    HW137517   3.342   0.751  15.342  2.0522 -0.8668  0.8795
 8628SOL    HW237518   3.256   0.852  15.404 -0.5347  0.3410  1.9558
 8629SOL     OW37519   2.071   0.606  12.755 -0.1401 -0.6126  0.5942
 8629SOL    HW137520   2.119   0.664  12.695 -0.8513 -0.1195  0.5079
 8629SOL    HW237521   2.114   0.618  12.840  2.2522 -0.9100 -0.5605
 8630SOL     OW37522   0.983   2.779   5.083 -0.4094 -0.2651  0.4402
 8630SOL    HW137523   1.066   2.772   5.130 -0.1570  0.1204  0.0519
 8630SOL    HW237524   1.017   2.787   4.993 -2.3220 -0.5549 -0.3046
 8631SOL     OW37525   2.008   3.880   7.611  0.0701 -0.4941  0.6558
 8631SOL    HW137526   2.035   3.962   7.570  1.8702 -1.1870  0.4398
 8631SOL    HW237527   1.956   3.911   7.685  1.4045  1.8205  0.6308
 8632SOL     OW37528   3.099   3.408   2.360  0.6418 -0.1359 -0.5500
 8632SOL    HW137529   3.065   3.334   2.410 -1.1551  0.8746 -0.2728
 8632SOL    HW237530   3.178   3.430   2.411  2.5095 -0.1425 -3.4288
 8633SOL     OW37531   4.151   0.417   6.090  0.1675 -0.3084  0.1130
 8633SOL    HW137532   4.062   0.433   6.123  0.3109 -0.0196  0.3550
 8633SOL    HW237533   4.216   0.466   6.140 -0.5113  0.7177  0.0033
 8634SOL     OW37534   2.426   0.296   8.144  0.4569  0.5168 -0.2804
 8634SOL    HW137535   2.451   0.249   8.223 -1.9232 -1.6837 -0.8646
 8634SOL    HW237536   2.375   0.235   8.091 -0.0936 -0.5897  1.5414
 8635SOL     OW37537   1.924   2.025   5.669  0.1819 -0.2384 -0.5293
 8635SOL    HW137538   1.946   2.110   5.705  0.1397 -1.3495  2.1134
 8635SOL    HW237539   1.923   2.035   5.574  1.4918  2.5796 -0.2301
 8636SOL     OW37540   0.454   0.749   0.609 -0.0673 -0.4753  0.5873
 8636SOL    HW137541   0.421   0.790   0.529 -0.2512  1.6292  1.7600
 8636SOL    HW237542   0.384   0.690   0.639  0.0216 -0.6095  0.5333
 8637SOL     OW37543   4.181   2.472   6.673  1.0701  0.3080 -0.1535
 8637SOL    HW137544   4.114   2.531   6.707 -2.7195 -2.6925 -2.3959
 8637SOL    HW237545   4.134   2.429   6.601 -0.9345 -0.6253  1.7336
 8638SOL     OW37546   1.661   4.228   3.026 -0.5453  0.1147 -0.0725
 8638SOL    HW137547   1.731   4.173   3.062 -0.8740 -1.6993 -2.2012
 8638SOL    HW237548   1.615   4.244   3.109  0.7722  1.6451  0.3541
 8639SOL     OW37549   3.803   3.150   1.088 -0.2703  0.2086  0.4753
 8639SOL    HW137550   3.831   3.060   1.102 -0.9817 -0.3698 -1.9530
 8639SOL    HW237551   3.882   3.192   1.055 -0.5318  1.8223  1.8542
 8640SOL     OW37552   1.544   3.494   5.004 -0.3072  0.1791  0.5786
 8640SOL    HW137553   1.467   3.551   4.999  1.2495  2.0909 -1.4719
 8640SOL    HW237554   1.615   3.552   4.976 -1.1320  0.8479 -0.1643
 8641SOL     OW37555   2.796   1.010   8.212  0.6231 -0.4952 -0.2273
 8641SOL    HW137556   2.707   1.046   8.212  1.2648  1.1171  0.5274
 8641SOL    HW237557   2.788   0.919   8.187  0.2589 -0.3429 -0.6518
 8642SOL     OW37558   3.273   1.040   2.995 -0.2327 -0.3526 -0.2783
 8642SOL    HW137559   3.244   1.000   2.913 -0.3647 -2.3857  0.7689
 8642SOL    HW237560   3.222   1.120   2.992  1.9339  1.0466 -0.2212
 8643SOL     OW37561   3.442   4.633   2.477 -0.0994 -0.1663  0.4220
 8643SOL    HW137562   3.484   4.624   2.563 -0.1454 -1.7331  0.2797
 8643SOL    HW237563   3.444   4.543   2.446  0.2285  0.2972 -0.8863
 8644SOL     OW37564   2.021   2.240   2.884 -0.2386  0.3250 -0.1055
 8644SOL    HW137565   2.059   2.180   2.820 -1.5545 -0.1092 -0.4770
 8644SOL    HW237566   1.931   2.209   2.872 -0.6789  1.6015 -0.1290
 8645SOL     OW37567   0.616   4.005   1.513  0.4758  0.7223  0.2921
 8645SOL    HW137568   0.685   3.991   1.448 -2.4690  0.7223 -2.8858
 8645SOL    HW237569   0.541   3.956   1.476  1.0472  0.8222 -1.0019
 8646SOL     OW37570   0.734   2.471  12.516  0.1059 -0.9185  0.5844
 8646SOL    HW137571   0.823   2.500  12.496 -0.8954  1.1779 -0.8883
 8646SOL    HW237572   0.698   2.439  12.434  0.9361  1.1339 -0.5940
 8647SOL     OW37573   0.737   1.234   6.961 -0.0343  0.5162 -0.0010
 8647SOL    HW137574   0.743   1.314   6.909 -1.9153 -0.1855 -1.3013
 8647SOL    HW237575   0.811   1.249   7.019  0.1675  1.6748 -0.5647
 8648SOL     OW37576   2.209   3.324  13.466  0.5151  0.2352 -0.2045
 8648SOL    HW137577   2.256   3.270  13.528 -0.0278  1.8028  1.5910
 8648SOL    HW237578   2.149   3.257  13.432 -0.5174  0.6625  0.7565
 8649SOL     OW37579   4.406   2.719   4.629  0.0654 -0.0718 -0.0411
 8649SOL    HW137580   4.335   2.721   4.693 -0.6471  0.4570 -0.8536
 8649SOL    HW237581   4.407   2.626   4.606  0.2579  0.4616 -2.2022
 8650SOL     OW37582   1.323   0.950   9.412  0.0710 -0.2986  0.1781
 8650SOL    HW137583   1.324   1.019   9.345  1.5493  1.3946  1.9621
 8650SOL    HW237584   1.416   0.927   9.413  0.2541  0.3144 -2.8771
 8651SOL     OW37585   3.096   1.472   1.638  0.2544 -0.3473  0.0342
 8651SOL    HW137586   3.076   1.440   1.550  0.5831 -3.4157  1.0688
 8651SOL    HW237587   3.189   1.451   1.632 -0.0273 -1.5146 -0.2652
 8652SOL     OW37588   2.284   1.638   5.140 -0.2662  0.0405 -0.0997
 8652SOL    HW137589   2.273   1.702   5.209  1.1050  0.1814 -0.0304
 8652SOL    HW237590   2.378   1.632   5.128  0.3117  2.4572  3.6909
 8653SOL     OW37591   1.838   1.520   9.860 -0.4399  0.4481 -0.2125
 8653SOL    HW137592   1.829   1.494   9.768  0.8667 -0.2483 -0.1554
 8653SOL    HW237593   1.851   1.614   9.848  1.6351 -0.0979 -2.3681
 8654SOL     OW37594   2.016   4.198   5.165  0.5698  0.1078 -0.6427
 8654SOL    HW137595   1.986   4.174   5.252  0.4636  0.3355 -0.6152
 8654SOL    HW237596   2.032   4.292   5.173  1.1829  0.1322 -2.1657
 8655SOL     OW37597   3.352   4.651  10.500 -0.0902 -0.0087  0.7198
 8655SOL    HW137598   3.442   4.655  10.533  0.4431  1.5805 -0.9477
 8655SOL    HW237599   3.342   0.011  10.481 -1.6440 -0.3682 -0.2351
 8656SOL     OW37600   1.084   2.573   6.275  0.3229 -0.0600  0.3455
 8656SOL    HW137601   1.049   2.566   6.364 -1.2266 -0.1131 -0.2552
 8656SOL    HW237602   1.178   2.563   6.287  0.6031  4.0193  1.2849
 8657SOL     OW37603   3.264   1.372   8.811  0.7697 -0.0689  0.1313
 8657SOL    HW137604   3.257   1.462   8.842  1.0841  0.0665 -0.1964
 8657SOL    HW237605   3.194   1.375   8.746  0.2270 -1.1694  0.6496
 8658SOL     OW37606   2.180   3.160  16.146 -1.3935 -0.0422 -0.3224
 8658SOL    HW137607   2.215   3.138  16.059 -1.4922  0.0724 -0.3910
 8658SOL    HW237608   2.169   3.072  16.181 -1.5055  0.2696  0.4125
 8659SOL     OW37609   3.365   2.520   2.905 -0.2886 -0.4174 -0.3057
 8659SOL    HW137610   3.430   2.586   2.881  1.0617 -1.7584 -0.2967
 8659SOL    HW237611   3.319   2.511   2.821 -1.5422 -0.9422  0.4458
 8660SOL     OW37612   2.094   2.505   7.307 -0.0879 -0.0798 -0.0036
 8660SOL    HW137613   2.025   2.530   7.368 -1.9535 -0.0500 -2.1326
 8660SOL    HW237614   2.154   2.579   7.318  1.3317 -1.3634  0.8926
 8661SOL     OW37615   4.424   0.223   7.255 -0.2570 -0.5049 -0.1343
 8661SOL    HW137616   4.514   0.193   7.240  0.2812  0.7373  0.5992
 8661SOL    HW237617   4.435   0.281   7.330 -0.3113 -0.5467 -0.0937
 8662SOL     OW37618   1.383   3.215   3.478  0.1753  0.0496  0.4166
 8662SOL    HW137619   1.350   3.132   3.443  1.7694 -1.1366  1.7145
 8662SOL    HW237620   1.474   3.196   3.497 -0.3153  1.9232  4.7557
 8663SOL     OW37621   0.672   1.429   3.261 -0.0860  0.5159  0.4989
 8663SOL    HW137622   0.695   1.344   3.223  2.2352  0.8158  1.2841
 8663SOL    HW237623   0.722   1.492   3.210 -0.8202 -0.0584 -0.9435
 8664SOL     OW37624   2.339   1.593   7.615 -0.2502 -0.7943 -0.4207
 8664SOL    HW137625   2.411   1.532   7.630  1.6753  1.5916  0.0884
 8664SOL    HW237626   2.387   1.662   7.569 -0.0292  0.1947  1.2814
 8665SOL     OW37627   2.997   0.792   7.162  0.3727 -0.5921 -0.6391
 8665SOL    HW137628   3.092   0.783   7.159  0.3110 -1.3604 -0.1190
 8665SOL    HW237629   2.977   0.884   7.141  1.6518  0.2985  2.0450
 8666SOL     OW37630   0.489   3.087   6.280 -0.2886  0.1521  0.0757
 8666SOL    HW137631   0.464   2.997   6.262  0.6626  0.0269 -0.6159
 8666SOL    HW237632   0.567   3.062   6.329  0.1545  1.0877 -0.1488
 8667SOL     OW37633   2.914   4.083   6.053  0.1145  0.2024  0.0348
 8667SOL    HW137634   2.872   4.019   6.110 -2.3710  0.3728 -1.5758
 8667SOL    HW237635   2.992   4.033   6.030 -0.1913 -0.4770  0.4758
 8668SOL     OW37636   2.094   0.568  10.118 -0.0671 -0.1286  0.2004
 8668SOL    HW137637   2.107   0.614  10.202 -2.3717  0.5953  0.1716
 8668SOL    HW237638   2.001   0.588  10.107 -0.0727  0.6867  1.6212
 8669SOL     OW37639   1.507   1.651   5.346 -0.0440 -0.1981 -0.6997
 8669SOL    HW137640   1.439   1.650   5.278 -1.8145 -1.7278  1.0719
 8669SOL    HW237641   1.495   1.566   5.390 -1.1004 -0.2507 -1.0729
 8670SOL     OW37642   4.561   2.703   9.116 -0.1438 -0.2641  0.5786
 8670SOL    HW137643   4.610   2.755   9.054 -2.6379  2.4914  0.9083
 8670SOL    HW237644   4.578   2.755   9.194  3.5961 -0.1072 -0.3826
 8671SOL     OW37645   0.401   4.721   3.972 -0.2269  0.3801  0.5210
 8671SOL    HW137646   0.421   0.076   3.939  1.1719  0.4830  1.6661
 8671SOL    HW237647   0.481   4.675   3.946 -2.2926 -2.0544 -1.4907
 8672SOL     OW37648   1.013   4.236   2.910 -0.8413 -0.3697  0.2821
 8672SOL    HW137649   1.044   4.205   2.825 -2.3580 -3.1648  0.7464
 8672SOL    HW237650   1.086   4.211   2.968 -1.5236 -0.7922  0.9599
 8673SOL     OW37651   2.102   3.282  14.879  0.1727  0.0260  0.3945
 8673SOL    HW137652   2.090   3.313  14.969  0.6845  2.1301 -0.2567
 8673SOL    HW237653   2.157   3.206  14.894  0.3701 -0.1252 -1.0879
 8674SOL     OW37654   2.865   3.541  13.190  0.5604 -0.5653  0.1473
 8674SOL    HW137655   2.896   3.611  13.132  1.3760 -1.3205 -0.3299
 8674SOL    HW237656   2.848   3.477  13.121  0.2330 -2.8042  2.2855
 8675SOL     OW37657   3.245   0.895   7.129  0.0275 -0.1512 -0.0432
 8675SOL    HW137658   3.334   0.867   7.106 -0.4891 -0.5201 -1.5846
 8675SOL    HW237659   3.259   0.987   7.150  0.1121  0.2989 -2.0633
 8676SOL     OW37660   4.317   3.631   7.844  0.0029  0.0690  0.2112
 8676SOL    HW137661   4.339   3.559   7.785 -0.9259 -1.7156  2.0321
 8676SOL    HW237662   4.397   3.684   7.839  1.0413 -1.7345 -1.9720
 8677SOL     OW37663   0.576   2.418   9.843  0.2898 -0.4252  0.3187
 8677SOL    HW137664   0.562   2.471   9.921  0.8427  0.0345  0.1056
 8677SOL    HW237665   0.494   2.369   9.857 -0.7189  0.3310 -2.8442
 8678SOL     OW37666   3.064   3.126  12.432  0.0904  0.2041  0.0315
 8678SOL    HW137667   3.056   3.102  12.340  0.5436 -1.0500  0.3086
 8678SOL    HW237668   3.156   3.131  12.461 -0.5083 -0.2889  2.0057
 8679SOL     OW37669   3.057   2.027   5.666  0.4068  0.1550  0.2467
 8679SOL    HW137670   3.082   1.935   5.659  0.9152  0.3283 -0.1482
 8679SOL    HW237671   3.071   2.048   5.574 -0.5791 -3.1227 -0.6549
 8680SOL     OW37672   3.029   1.249   6.832 -0.5976  0.0523  0.2294
 8680SOL    HW137673   2.961   1.315   6.817 -0.6273 -0.8173 -3.5128
 8680SOL    HW237674   3.107   1.304   6.836 -0.6561  0.1510  0.0346
 8681SOL     OW37675   0.345   0.405   3.280 -0.2475 -0.4319 -0.6440
 8681SOL    HW137676   0.398   0.485   3.273  0.2971 -0.6983  0.5951
 8681SOL    HW237677   0.348   0.392   3.374  0.4959  0.8025 -0.4866
 8682SOL     OW37678   1.290   1.398   2.097 -0.5976 -0.1513 -0.5094
 8682SOL    HW137679   1.374   1.362   2.123 -0.8063 -0.5433 -0.3771
 8682SOL    HW237680   1.238   1.388   2.177 -2.0448 -1.7394 -1.6364
 8683SOL     OW37681   1.313   2.720   5.183 -0.3704  0.1463 -0.4274
 8683SOL    HW137682   1.282   2.803   5.220 -2.3370 -0.0702 -1.5662
 8683SOL    HW237683   1.381   2.694   5.245 -0.0109 -0.0516 -0.9053
 8684SOL     OW37684   0.254   0.619   6.350  0.4212  0.4596  0.1649
 8684SOL    HW137685   0.332   0.616   6.406  0.9202  1.0411 -0.4921
 8684SOL    HW237686   0.204   0.687   6.394  0.9208  0.2132  1.1236
 8685SOL     OW37687   0.237   2.145  16.831 -0.2864 -0.0758 -0.6679
 8685SOL    HW137688   0.308   2.204  16.805 -0.6999  0.3864 -0.7414
 8685SOL    HW237689   0.231   2.150  16.926 -0.5229 -0.2004 -0.6773
 8686SOL     OW37690   4.124   4.091   7.918  0.4403  0.0272  0.0162
 8686SOL    HW137691   4.127   3.995   7.920 -1.2668  0.0096  1.0655
 8686SOL    HW237692   4.209   4.112   7.956  0.2416  1.0107 -0.0950
 8687SOL     OW37693   3.288   1.225   8.144  0.0305  0.6340  0.6537
 8687SOL    HW137694   3.205   1.273   8.148 -0.7214 -0.8295  2.6099
 8687SOL    HW237695   3.272   1.174   8.064 -1.8868  2.7633 -0.3418
 8688SOL     OW37696   2.832   4.479  17.184 -0.6576 -0.3225 -0.4613
 8688SOL    HW137697   2.885   4.513  17.113  0.3484 -1.9288 -0.5034
 8688SOL    HW237698   2.890   4.498  17.258  0.6028  1.1310 -1.8381
 8689SOL     OW37699   0.272   2.862   3.318  0.2243 -0.2629  0.5131
 8689SOL    HW137700   0.365   2.848   3.332  0.6687 -0.2618 -2.5316
 8689SOL    HW237701   0.260   2.836   3.226 -0.0303 -0.5989  0.6394
 8690SOL     OW37702   2.349   3.462   5.969  0.7009  0.0449 -0.1882
 8690SOL    HW137703   2.359   3.463   6.064 -1.5109 -3.1198  0.0822
 8690SOL    HW237704   2.316   3.549   5.946 -1.2949 -0.4587  0.8519
 8691SOL     OW37705   2.884   0.938   4.561 -0.7778  0.1049 -0.2860
 8691SOL    HW137706   2.926   0.985   4.489  0.7977 -1.0264 -0.0965
 8691SOL    HW237707   2.876   0.848   4.531 -1.0798  0.5275 -1.4739
 8692SOL     OW37708   3.496   2.296   9.092 -0.0381 -0.5633  0.7003
 8692SOL    HW137709   3.590   2.281   9.083 -0.0024 -1.7871  3.2721
 8692SOL    HW237710   3.463   2.229   9.032 -0.1462  0.1295 -0.0151
 8693SOL     OW37711   4.376   2.900  16.281  0.2034 -0.1096  0.0884
 8693SOL    HW137712   4.403   2.886  16.190 -0.1752 -1.7484  0.2334
 8693SOL    HW237713   4.281   2.888  16.268  0.1503  0.9268 -0.4618
 8694SOL     OW37714   3.082   0.726   7.812  0.0705  0.3282  0.6217
 8694SOL    HW137715   3.030   0.649   7.834  2.2377 -1.5138 -0.6182
 8694SOL    HW237716   3.164   0.696   7.851  1.5624  1.1957 -1.8019
 8695SOL     OW37717   1.255   1.030  14.822  0.2106 -0.2921  0.0797
 8695SOL    HW137718   1.201   1.087  14.876 -0.7365 -1.6828  0.6158
 8695SOL    HW237719   1.308   0.982  14.884  1.2583 -0.9713 -1.3405
 8696SOL     OW37720   1.063   1.028   6.173 -0.3482 -0.0678 -0.3872
 8696SOL    HW137721   0.995   1.056   6.234 -0.3810 -0.4166 -0.2678
 8696SOL    HW237722   1.023   0.946   6.146 -1.3983  0.9332 -1.9362
 8697SOL     OW37723   0.819   1.050  15.080  0.0770 -0.3725 -0.4708
 8697SOL    HW137724   0.912   1.070  15.075  0.4626 -1.7960  1.3156
 8697SOL    HW237725   0.829   0.976  15.020  1.1496 -1.2754  0.8253
 8698SOL     OW37726   1.095   2.543   3.720 -0.4175  0.9281  0.1919
 8698SOL    HW137727   1.098   2.463   3.667  0.5073  1.5647 -0.7128
 8698SOL    HW237728   1.165   2.593   3.679  1.0078 -1.2403 -0.0143
 8699SOL     OW37729   4.210   2.819   3.908  0.2961  0.2896 -0.3095
 8699SOL    HW137730   4.189   2.726   3.919 -0.4788  0.3595 -1.2004
 8699SOL    HW237731   4.303   2.810   3.891  0.8716  0.9742  2.4933
 8700SOL     OW37732   3.238   2.841  10.623  0.1600 -0.4652  0.3626
 8700SOL    HW137733   3.170   2.816  10.686  1.4859 -0.8970  1.6238
 8700SOL    HW237734   3.285   2.761  10.645 -2.2386 -2.1074 -0.4408
 8701SOL     OW37735   3.921   3.750   2.703 -0.4765  0.4818  0.6630
 8701SOL    HW137736   3.925   3.654   2.702  0.8529  0.5354  0.3236
 8701SOL    HW237737   3.988   3.775   2.766 -1.0478  0.6118  1.2120
 8702SOL     OW37738   3.153   3.335  14.498  0.0177 -0.0004  0.2048
 8702SOL    HW137739   3.076   3.358  14.551  1.2152 -3.4405  3.4589
 8702SOL    HW237740   3.167   3.413  14.445  0.7065  0.8106  1.5722
 8703SOL     OW37741   2.502   1.139   4.830 -0.3944 -1.0484  0.1934
 8703SOL    HW137742   2.507   1.054   4.873 -0.4042 -1.9822 -1.6763
 8703SOL    HW237743   2.417   1.170   4.862  0.1873 -1.0687  1.7900
 8704SOL     OW37744   4.542   3.154  16.138 -0.4518  0.2550 -0.8717
 8704SOL    HW137745   4.530   3.066  16.101  1.0109  0.5408 -2.0257
 8704SOL    HW237746   4.635   3.168  16.121 -0.4300  1.7772  0.5267
 8705SOL     OW37747   2.594   3.405  11.005  0.0480 -0.2167 -0.5164
 8705SOL    HW137748   2.522   3.462  11.030 -0.8680 -1.2349 -0.8430
 8705SOL    HW237749   2.565   3.322  11.043 -0.9425 -0.1175 -1.0523
 8706SOL     OW37750   0.765   2.936  15.228  0.3659 -0.1639  0.0353
 8706SOL    HW137751   0.825   2.912  15.157 -0.4012  0.5074 -0.8467
 8706SOL    HW237752   0.801   3.018  15.262  0.6711 -0.4227  0.3294
 8707SOL     OW37753   3.510   1.277   6.033 -0.5509 -0.3280  0.5369
 8707SOL    HW137754   3.489   1.283   6.126 -1.4655 -2.6184  0.4840
 8707SOL    HW237755   3.562   1.355   6.015 -2.6143  1.2556  1.4172
 8708SOL     OW37756   3.688   0.526   2.643 -0.0676 -0.0930 -0.3150
 8708SOL    HW137757   3.608   0.523   2.591 -0.4178 -1.0278  0.2826
 8708SOL    HW237758   3.763   0.538   2.584 -0.8058 -0.2293 -1.2824
 8709SOL     OW37759   3.650   0.799   6.266  0.1953 -0.5098 -0.3437
 8709SOL    HW137760   3.732   0.760   6.294 -1.0643 -0.9623  2.6868
 8709SOL    HW237761   3.601   0.797   6.348 -0.0368 -0.3747 -0.4776
 8710SOL     OW37762   1.718   3.767   8.443 -0.3533 -0.0953 -1.3408
 8710SOL    HW137763   1.738   3.753   8.535 -0.8856  2.5960 -0.8213
 8710SOL    HW237764   1.641   3.825   8.438 -0.6654 -0.3018  1.0422
 8711SOL     OW37765   4.119   2.099   6.051 -0.3542  0.3528 -0.0862
 8711SOL    HW137766   4.097   2.178   6.001  1.0106  1.1373  0.5283
 8711SOL    HW237767   4.069   2.032   6.006  0.4727  0.6134 -1.3831
 8712SOL     OW37768   2.494   4.211   9.762  0.0919 -0.5052  0.0505
 8712SOL    HW137769   2.504   4.264   9.682 -2.9052 -2.5749 -1.6653
 8712SOL    HW237770   2.425   4.258   9.810 -0.6114  0.3165 -1.7683
 8713SOL     OW37771   4.547   3.641  16.948  0.8653 -0.2111  0.1765
 8713SOL    HW137772   4.574   3.588  17.023 -0.0958 -0.7830  0.1154
 8713SOL    HW237773   4.482   3.580  16.913  0.3248  0.4192  0.0815
 8714SOL     OW37774   2.222   4.499  13.843 -0.0671  0.4379  0.1812
 8714SOL    HW137775   2.162   4.436  13.883 -2.7425  1.5341 -2.1429
 8714SOL    HW237776   2.209   4.581  13.891 -0.1477  0.1053  0.7352
 8715SOL     OW37777   3.283   1.185   7.214  0.1493  0.3920 -0.3183
 8715SOL    HW137778   3.196   1.224   7.207 -0.4775 -1.3175 -2.0941
 8715SOL    HW237779   3.336   1.238   7.156 -0.7413  0.5918 -0.9516
 8716SOL     OW37780   2.643   4.254   6.567 -0.2396  0.2916 -0.0123
 8716SOL    HW137781   2.574   4.220   6.510 -0.3961 -0.4285  0.6164
 8716SOL    HW237782   2.717   4.201   6.539  0.8188  2.4307 -1.2862
 8717SOL     OW37783   1.650   4.486   2.928  0.4125  0.4984  0.1887
 8717SOL    HW137784   1.578   4.467   2.868  1.2577 -1.8169 -0.1056
 8717SOL    HW237785   1.670   4.400   2.965 -0.7111 -0.6640 -1.8877
 8718SOL     OW37786   4.671   2.576  14.495 -0.2839  0.6236  0.1166
 8718SOL    HW137787   4.685   2.660  14.539 -1.5461  0.9908 -0.1694
 8718SOL    HW237788   0.016   2.559  14.442 -0.2167  1.2122  0.0247
 8719SOL     OW37789   1.796   2.983   3.350  0.1626 -0.0222 -0.0259
 8719SOL    HW137790   1.833   2.905   3.309 -0.9758 -1.3074  1.3763
 8719SOL    HW237791   1.776   3.035   3.273 -2.8063 -0.9475  0.1189
 8720SOL     OW37792   3.017   1.735   4.847  0.1330  0.0056 -0.1325
 8720SOL    HW137793   2.959   1.736   4.923  1.4184  1.0156  0.8293
 8720SOL    HW237794   3.009   1.825   4.817 -0.9764 -0.9698 -2.8414
 8721SOL     OW37795   0.415   0.340  10.269  0.1340 -0.1781 -0.0163
 8721SOL    HW137796   0.482   0.374  10.208  3.2915 -1.1988  2.8765
 8721SOL    HW237797   0.454   0.258  10.298 -1.6347 -0.7038  0.8376
 8722SOL     OW37798   1.504   0.740   9.500 -0.1008 -0.2656  0.5027
 8722SOL    HW137799   1.515   0.771   9.589  0.8835  0.3338  0.1671
 8722SOL    HW237800   1.585   0.693   9.483  1.8855  3.7867 -1.2306
 8723SOL     OW37801   3.445   1.120  13.442  0.0437  0.3987 -0.3017
 8723SOL    HW137802   3.514   1.054  13.454 -2.5386 -1.9064  1.8296
 8723SOL    HW237803   3.371   1.093  13.496  0.1693 -1.6107 -1.1333
 8724SOL     OW37804   3.966   0.597   3.213  0.7968  0.3557  0.1196
 8724SOL    HW137805   3.871   0.604   3.216  0.7928 -0.7364  2.1141
 8724SOL    HW237806   3.988   0.507   3.237  1.0485  0.5393  0.5711
 8725SOL     OW37807   4.485   2.282  17.235 -0.0803  0.3346 -0.2296
 8725SOL    HW137808   4.525   2.319  17.156 -0.3369 -1.0469 -1.0140
 8725SOL    HW237809   4.489   2.363  17.286  2.5880 -1.2033  2.0225
 8726SOL     OW37810   2.977   1.372  11.520 -0.3615 -0.2640  0.0321
 8726SOL    HW137811   2.971   1.308  11.449  0.9073 -0.8100  0.4197
 8726SOL    HW237812   2.988   1.323  11.601 -1.0742  0.3778  0.5137
 8727SOL     OW37813   1.403   0.753   4.417  0.7848 -0.2904 -0.0983
 8727SOL    HW137814   1.419   0.696   4.341  2.2827 -1.7413  1.2975
 8727SOL    HW237815   1.308   0.745   4.422  0.8404 -0.2271  0.9082
 8728SOL     OW37816   0.171   0.634   1.886 -0.7905 -0.3096  0.0573
 8728SOL    HW137817   0.090   0.615   1.933 -1.3223 -0.4829 -0.9396
 8728SOL    HW237818   0.202   0.716   1.925 -0.2950 -0.0497 -0.8880
 8729SOL     OW37819   0.084   2.491  13.345  0.4471 -0.3093 -0.7513
 8729SOL    HW137820   0.025   2.417  13.333 -0.2987 -0.3175  2.9430
 8729SOL    HW237821   0.163   2.438  13.344 -1.1268 -2.6404 -1.1347
 8730SOL     OW37822   0.304   0.814   2.049  0.1560  0.1777 -0.1682
 8730SOL    HW137823   0.338   0.773   2.129  0.1145  2.6653  1.1135
 8730SOL    HW237824   0.240   0.874   2.085 -0.1944 -0.3846  0.1497
 8731SOL     OW37825   4.343   3.034   2.700 -0.1800  0.1611 -0.0430
 8731SOL    HW137826   4.382   3.070   2.620  0.4075 -1.4943 -0.4975
 8731SOL    HW237827   4.354   3.113   2.752 -0.4295 -0.8359  1.5072
 8732SOL     OW37828   2.101   4.504   6.617  0.0244  0.4185 -0.1642
 8732SOL    HW137829   2.195   4.508   6.631 -0.0809  0.3698  0.5641
 8732SOL    HW237830   2.073   4.590   6.649 -1.7749  0.3527 -1.5230
 8733SOL     OW37831   3.689   1.759   8.876  0.1468 -0.1385 -0.2462
 8733SOL    HW137832   3.640   1.823   8.928  1.2496  1.0074 -0.6173
 8733SOL    HW237833   3.615   1.720   8.829 -0.1855 -0.4489  0.5270
 8734SOL     OW37834   4.582   0.857   7.658  0.0550  0.3806  0.4908
 8734SOL    HW137835   4.535   0.841   7.576 -0.2689 -0.4591  0.8364
 8734SOL    HW237836   4.626   0.940   7.643  1.3244 -0.2331  0.8175
 8735SOL     OW37837   0.339   0.422   3.563 -0.2002  0.0409 -0.1309
 8735SOL    HW137838   0.394   0.457   3.633  1.1396 -0.3616 -0.9896
 8735SOL    HW237839   0.283   0.360   3.609 -0.6726  1.9260  1.8442
 8736SOL     OW37840   0.638   4.315  17.645 -0.3738  0.4345 -0.0375
 8736SOL    HW137841   0.661   4.404  17.673  0.5182 -0.0892  0.8762
 8736SOL    HW237842   0.653   4.265  17.725 -1.0786  1.3304  0.6526
 8737SOL     OW37843   1.524   1.588   2.870 -0.0783 -0.1463 -0.1783
 8737SOL    HW137844   1.493   1.543   2.948  0.3901 -0.5854 -0.2535
 8737SOL    HW237845   1.603   1.539   2.850 -0.4714 -1.0388  0.4503
 8738SOL     OW37846   3.210   0.510   6.435 -0.4149  0.6489  0.3143
 8738SOL    HW137847   3.225   0.505   6.530  0.6485  1.7697  0.2209
 8738SOL    HW237848   3.301   0.497   6.406 -1.3273 -1.3551 -1.5684
 8739SOL     OW37849   0.628   1.845   3.861 -0.9440 -0.1647 -0.4886
 8739SOL    HW137850   0.696   1.779   3.875  0.5807  1.2127 -1.4332
 8739SOL    HW237851   0.570   1.789   3.808 -3.2581  2.5178 -0.8012
 8740SOL     OW37852   0.232   1.935  13.658  0.1282 -0.0494  0.2392
 8740SOL    HW137853   0.287   1.947  13.581 -0.6520  1.6389 -0.0445
 8740SOL    HW237854   0.251   1.846  13.689  2.2098  0.5664  0.7100
 8741SOL     OW37855   3.679   3.140   3.232 -0.1924 -0.2471  0.1254
 8741SOL    HW137856   3.754   3.093   3.268  0.4868 -0.2177 -1.2665
 8741SOL    HW237857   3.722   3.223   3.214 -0.4923 -0.2967 -0.8184
 8742SOL     OW37858   0.934   0.954   5.116 -0.3850 -0.2187  0.2278
 8742SOL    HW137859   0.868   0.885   5.122 -0.0245 -0.5234  0.7197
 8742SOL    HW237860   0.892   1.011   5.052 -0.9950  0.1331  0.9476
 8743SOL     OW37861   3.614   2.610  17.691  0.0382 -0.0354  0.2583
 8743SOL    HW137862   3.543   2.567  17.643  0.0166  0.7561 -0.4095
 8743SOL    HW237863   3.560   2.674   0.008 -1.4804 -1.2309  0.1388
 8744SOL     OW37864   2.442   2.310   9.060  0.3371  0.2534 -0.1345
 8744SOL    HW137865   2.353   2.293   9.090 -0.8526  1.2058 -3.2140
 8744SOL    HW237866   2.484   2.359   9.131 -0.9225 -1.1110  1.5564
 8745SOL     OW37867   1.053   1.291   8.335 -0.4361  0.0600 -0.0278
 8745SOL    HW137868   1.112   1.312   8.408  0.0927  0.2045 -0.4933
 8745SOL    HW237869   1.115   1.287   8.262  0.4183  2.2426  0.5855
 8746SOL     OW37870   0.673   0.480  17.133  0.2788  0.2002  0.1422
 8746SOL    HW137871   0.630   0.395  17.123  1.6451 -0.7428  2.4464
 8746SOL    HW237872   0.697   0.485  17.040  0.2471  0.9612  0.1732
 8747SOL     OW37873   0.539   2.899   7.848  0.2156 -0.3298  0.1207
 8747SOL    HW137874   0.462   2.889   7.904 -2.0954 -2.7147 -3.4718
 8747SOL    HW237875   0.611   2.905   7.910 -1.1705  0.1271  1.6837
 8748SOL     OW37876   1.566   2.966   8.336  0.1352 -0.3747 -0.1051
 8748SOL    HW137877   1.558   2.907   8.261 -0.1954  0.4777 -0.7446
 8748SOL    HW237878   1.543   3.045   8.287 -2.1096 -0.4065  0.8964
 8749SOL     OW37879   3.043   0.362   2.403  0.6055 -0.4735 -0.3523
 8749SOL    HW137880   3.044   0.429   2.471 -2.3924 -1.5722  0.7681
 8749SOL    HW237881   3.062   0.276   2.439 -0.3403 -0.3201  0.5158
 8750SOL     OW37882   0.022   2.889   4.566 -0.0175 -0.1411  0.0850
 8750SOL    HW137883   4.721   2.835   4.494 -0.4383  0.3295 -0.0700
 8750SOL    HW237884   0.114   2.868   4.554 -0.0310  1.2546 -2.5259
 8751SOL     OW37885   3.641   1.568   8.130 -0.1662  0.5713 -0.1636
 8751SOL    HW137886   3.548   1.549   8.136  0.2284 -2.5329 -3.7400
 8751SOL    HW237887   3.682   1.520   8.203 -1.8215 -1.3763 -0.5362
 8752SOL     OW37888   3.331   2.315  11.475  0.1468 -0.3295 -0.0301
 8752SOL    HW137889   3.241   2.282  11.485  0.2900 -0.9190 -0.7204
 8752SOL    HW237890   3.383   2.282  11.549 -2.4899 -1.3045  1.4124
 8753SOL     OW37891   2.490   0.855   5.239 -0.5797  0.4228  0.0835
 8753SOL    HW137892   2.506   0.847   5.333 -0.1866  0.8082  0.0483
 8753SOL    HW237893   2.553   0.919   5.207  0.9546 -0.8936  0.4561
 8754SOL     OW37894   1.200   2.961  14.448  0.2367  0.0660  0.2918
 8754SOL    HW137895   1.237   2.986  14.363  0.1169 -1.4814 -0.2286
 8754SOL    HW237896   1.169   3.042  14.487 -4.4080 -0.8232 -1.6127
 8755SOL     OW37897   3.853   0.344   4.262 -0.4483  0.4782  0.1362
 8755SOL    HW137898   3.806   0.379   4.338 -1.8065  1.3571 -1.1049
 8755SOL    HW237899   3.883   0.263   4.303  1.6158  1.2142  0.0651
 8756SOL     OW37900   1.481   1.059   4.200 -0.0625 -0.6478 -0.5060
 8756SOL    HW137901   1.568   1.027   4.180  0.7254  0.2627  1.4167
 8756SOL    HW237902   1.484   1.151   4.174 -0.1569  0.1803  2.3438
 8757SOL     OW37903   1.096   2.496   2.764  0.1086 -0.3008  0.0551
 8757SOL    HW137904   1.114   2.590   2.765  2.3368 -0.7497  1.0681
 8757SOL    HW237905   1.001   2.502   2.763  0.0797 -0.9906 -1.7257
 8758SOL     OW37906   4.439   3.449  12.018  0.0160 -0.2022 -0.2087
 8758SOL    HW137907   4.472   3.381  12.077  1.5689  2.3547  1.8678
 8758SOL    HW237908   4.345   3.462  12.031 -0.0181  2.0261 -2.6976
 8759SOL     OW37909   1.213   0.906  14.064  0.1403 -0.5696  0.0498
 8759SOL    HW137910   1.210   0.892  14.158 -1.5220  0.8063  0.1930
 8759SOL    HW237911   1.125   0.935  14.043  0.0930 -2.6026 -2.5310
 8760SOL     OW37912   4.583   1.185   5.128 -0.7578  0.5645  0.3221
 8760SOL    HW137913   4.648   1.142   5.073 -0.3205  1.5445  0.0694
 8760SOL    HW237914   4.577   1.274   5.092  0.6976  1.0340  1.2832
 8761SOL     OW37915   3.896   1.411  16.527 -0.1325  0.1195 -0.6210
 8761SOL    HW137916   3.909   1.324  16.489 -3.0848 -0.2154 -0.8401
 8761SOL    HW237917   3.839   1.376  16.596 -2.8425  2.4562 -1.6665
 8762SOL     OW37918   4.501   0.981   9.491 -0.4702  0.0752 -0.0295
 8762SOL    HW137919   4.429   0.941   9.442  0.2657 -0.9657 -0.2539
 8762SOL    HW237920   4.523   1.036   9.416 -0.3632  0.1007  0.0215
 8763SOL     OW37921   0.044   4.097   5.054 -0.2990  0.0028 -0.2398
 8763SOL    HW137922   0.062   4.013   5.096  0.5587  0.2138 -0.2001
 8763SOL    HW237923   0.112   4.104   4.988  1.3379  2.1016  1.6971
 8764SOL     OW37924   0.372   2.514   5.420 -0.2264  0.4370 -0.4043
 8764SOL    HW137925   0.379   2.476   5.507 -1.1171 -2.9045 -1.8103
 8764SOL    HW237926   0.298   2.574   5.419  0.1895  0.9728  1.1265
 8765SOL     OW37927   1.153   2.782  11.218 -0.0583  0.3345 -0.1455
 8765SOL    HW137928   1.078   2.727  11.240  1.5434 -1.4100  0.9277
 8765SOL    HW237929   1.115   2.868  11.236  1.3112  1.1049 -0.9398
 8766SOL     OW37930   1.899   3.303  11.795 -0.8090 -0.5126 -0.3532
 8766SOL    HW137931   1.878   3.305  11.889  3.4289  0.1822  0.5935
 8766SOL    HW237932   1.942   3.218  11.787 -0.0357 -0.2541  0.9952
 8767SOL     OW37933   1.987   1.418   0.162  0.2653  0.8596  0.1746
 8767SOL    HW137934   2.021   1.329   0.153  1.2646  1.0285  2.1739
 8767SOL    HW237935   2.066   1.462   0.194  2.8490 -2.3129 -1.8894
 8768SOL     OW37936   2.520   3.806  13.042  0.3821 -0.2746  0.1290
 8768SOL    HW137937   2.588   3.874  13.035  0.6360 -0.3976  1.4340
 8768SOL    HW237938   2.512   3.804  13.137  3.8356  3.2458  0.5166
 8769SOL     OW37939   1.689   1.787   2.432 -0.0642 -0.5560  0.4392
 8769SOL    HW137940   1.599   1.812   2.410 -1.2109 -4.0313  1.2076
 8769SOL    HW237941   1.718   1.791   2.341  1.9026 -2.8400  0.9506
 8770SOL     OW37942   4.145   1.595   3.850  0.1492 -0.3699  0.6009
 8770SOL    HW137943   4.131   1.661   3.783  0.8699 -0.6879  0.1400
 8770SOL    HW237944   4.115   1.511   3.817  0.3928 -0.5186  0.7512
 8771SOL     OW37945   2.616   1.572   4.090  0.2323 -0.2633 -0.2082
 8771SOL    HW137946   2.527   1.572   4.054  0.2089  1.0554 -0.1546
 8771SOL    HW237947   2.598   1.603   4.178  1.8428 -1.6303  0.5941
 8772SOL     OW37948   2.706   0.105   9.289  0.1635  0.0557 -0.0402
 8772SOL    HW137949   2.787   0.156   9.281 -0.2398  0.6898 -0.1286
 8772SOL    HW237950   2.691   0.088   9.196  1.9493 -2.1590  0.0933
 8773SOL     OW37951   2.483   1.381   1.886  0.1734  0.1203 -0.1344
 8773SOL    HW137952   2.397   1.372   1.928 -0.4928  2.7875 -0.9528
 8773SOL    HW237953   2.525   1.295   1.893  0.4290  0.2326 -0.2739
 8774SOL     OW37954   1.112   0.514   7.232  0.2309  0.1592 -0.1247
 8774SOL    HW137955   1.120   0.562   7.150 -0.4461  0.4289 -0.0321
 8774SOL    HW237956   1.093   0.589   7.288 -0.5080 -0.4362  0.4325
 8775SOL     OW37957   2.316   0.623   3.147 -0.5455  0.4230  0.2345
 8775SOL    HW137958   2.221   0.632   3.159 -0.6273  3.1403 -2.3643
 8775SOL    HW237959   2.359   0.646   3.229 -1.6516  0.4332  0.8155
 8776SOL     OW37960   0.079   1.155   3.409  0.1817  0.1843 -0.0019
 8776SOL    HW137961   4.731   1.207   3.401  1.0485  1.4831 -0.4511
 8776SOL    HW237962   0.133   1.205   3.348 -0.6947 -1.2195 -1.9113
 8777SOL     OW37963   3.780   4.018   7.717 -0.5694 -0.6152  0.0913
 8777SOL    HW137964   3.769   4.112   7.705 -0.1633 -0.4177  1.2479
 8777SOL    HW237965   3.867   4.008   7.677 -0.7008 -1.1052 -0.0758
 8778SOL     OW37966   0.177   0.771  12.332 -0.0963  0.3917  0.4408
 8778SOL    HW137967   0.092   0.777  12.289 -0.6544 -2.3693  1.1890
 8778SOL    HW237968   0.188   0.864  12.353  1.3220 -0.3980  3.2998
 8779SOL     OW37969   2.910   2.214  15.896  0.0956  0.0449 -0.3014
 8779SOL    HW137970   2.977   2.282  15.898 -0.2429  0.4487 -2.4667
 8779SOL    HW237971   2.899   2.209  15.801  1.8850 -2.0274 -0.3780
 8780SOL     OW37972   2.480   3.858  13.300 -0.7497 -0.6811  0.2310
 8780SOL    HW137973   2.457   3.869  13.392 -0.8749  1.9839 -0.1166
 8780SOL    HW237974   2.549   3.791  13.305 -1.4083 -1.5988 -2.8806
 8781SOL     OW37975   2.641   0.277   4.298  0.1761 -0.8071 -0.2077
 8781SOL    HW137976   2.549   0.284   4.324 -0.0176 -1.7620 -0.5941
 8781SOL    HW237977   2.674   0.340   4.361  1.6675  0.1800 -1.9942
 8782SOL     OW37978   1.320   1.824   0.365  0.3277 -0.3688  0.3874
 8782SOL    HW137979   1.369   1.876   0.302  0.5588 -0.4640  0.4882
 8782SOL    HW237980   1.393   1.808   0.425  0.5757 -0.7917 -0.0168
 8783SOL     OW37981   2.044   0.577  12.106 -0.0826  0.1476  0.2596
 8783SOL    HW137982   2.123   0.626  12.127 -0.2453 -0.4783  2.3367
 8783SOL    HW237983   2.070   0.540  12.022 -2.0712  0.3756 -0.4639
 8784SOL     OW37984   4.177   1.349   9.866  0.0816 -0.1315 -0.1912
 8784SOL    HW137985   4.123   1.360   9.787 -1.1620  0.2217  0.7100
 8784SOL    HW237986   4.140   1.404   9.935 -2.9978 -1.2540 -0.9252
 8785SOL     OW37987   3.915   0.389   2.930 -0.3784 -0.5132  0.1276
 8785SOL    HW137988   3.910   0.441   2.850  1.0179 -1.0937 -0.3185
 8785SOL    HW237989   3.900   0.458   2.996 -1.4671 -0.6545  0.0202
 8786SOL     OW37990   2.727   3.755   7.526 -0.3149  0.2581  0.1655
 8786SOL    HW137991   2.792   3.708   7.579 -0.5484  0.3664  0.5530
 8786SOL    HW237992   2.711   3.683   7.466 -0.4194  0.6531 -0.2748
 8787SOL     OW37993   0.071   0.087   4.943 -0.1028 -0.6734  0.2629
 8787SOL    HW137994   4.726   0.122   4.987  0.7248  0.5953  0.7031
 8787SOL    HW237995   0.148   0.102   4.998 -0.8633  1.4180  0.7464
 8788SOL     OW37996   4.602   0.782   6.383 -0.0033 -0.0591 -0.7820
 8788SOL    HW137997   4.532   0.809   6.442  2.2182 -0.7126  2.1692
 8788SOL    HW237998   4.679   0.799   6.438 -0.4523 -0.7974  0.0810
 8789SOL     OW37999   4.117   2.499  11.015  0.4367 -0.7160  0.4081
 8789SOL    HW138000   4.145   2.583  10.979 -3.1327  1.1815  2.0557
 8789SOL    HW238001   4.036   2.480  10.968 -0.8416  1.5115  1.7232
 8790SOL     OW38002   1.549   1.619   6.367  0.3677  0.4057 -0.2829
 8790SOL    HW138003   1.581   1.633   6.278  2.3381 -1.2207  0.1513
 8790SOL    HW238004   1.549   1.524   6.378 -0.5549  0.2833 -1.3503
 8791SOL     OW38005   3.725   3.915   4.805 -0.2870 -0.0367 -0.1766
 8791SOL    HW138006   3.717   3.924   4.899 -0.9249  0.0146 -0.2346
 8791SOL    HW238007   3.776   3.993   4.783  0.2788 -0.5434 -0.6870
 8792SOL     OW38008   2.792   1.397   3.791  0.4123 -0.3749  0.2952
 8792SOL    HW138009   2.698   1.381   3.803  0.1105  1.2365  0.0543
 8792SOL    HW238010   2.835   1.353   3.864  1.5780 -0.8973 -0.7048
 8793SOL     OW38011   4.298   2.051   5.339 -0.2484 -0.4675 -0.0867
 8793SOL    HW138012   4.371   2.023   5.395  0.3920 -3.3723 -2.3788
 8793SOL    HW238013   4.331   2.110   5.271  0.9185 -1.3551 -0.2945
 8794SOL     OW38014   4.506   0.475   8.500  0.1846  0.2369 -0.9800
 8794SOL    HW138015   4.438   0.526   8.545 -1.0384 -1.1439 -1.2744
 8794SOL    HW238016   4.525   0.531   8.424 -1.2525  1.1185 -0.7016
 8795SOL     OW38017   4.530   3.724   4.952  0.4633  0.8815 -0.3518
 8795SOL    HW138018   4.505   3.740   4.860 -0.7212 -1.2941 -0.4145
 8795SOL    HW238019   4.498   3.798   5.003  1.1894  2.2732 -1.9275
 8796SOL     OW38020   4.091   0.971   3.037  0.3084  0.1290 -0.2038
 8796SOL    HW138021   3.996   0.961   3.038  0.3105  0.0620 -1.6079
 8796SOL    HW238022   4.114   0.939   3.125  0.8458 -1.6156 -0.9751
 8797SOL     OW38023   0.792   3.098   5.626  0.2112  0.4284  0.5842
 8797SOL    HW138024   0.744   3.140   5.555 -1.1145 -0.0583  1.1827
 8797SOL    HW238025   0.745   3.015   5.639  0.5592  0.3647  1.4285
 8798SOL     OW38026   4.434   3.208  17.579 -0.1209 -0.1281 -0.3862
 8798SOL    HW138027   4.410   3.256  17.658  0.6588 -0.7378  0.2206
 8798SOL    HW238028   4.349   3.174  17.551 -0.0423  1.1116 -2.1717
 8799SOL     OW38029   4.083   3.516   5.257 -0.6179  0.6146  0.1936
 8799SOL    HW138030   4.076   3.425   5.286  1.4711  0.4202  0.0778
 8799SOL    HW238031   4.135   3.513   5.177 -1.6285  0.7214 -0.4706
 8800SOL     OW38032   2.846   0.022   1.058  0.3840 -0.3524 -0.1383
 8800SOL    HW138033   2.795   0.072   1.122  0.4681 -0.6049  0.1206
 8800SOL    HW238034   2.932   0.051   1.086  0.5739 -1.1428  0.0829
 8801SOL     OW38035   0.491   1.317   5.192  0.5827  0.3207  0.2679
 8801SOL    HW138036   0.421   1.264   5.153  0.6685  0.2378  0.2245
 8801SOL    HW238037   0.561   1.308   5.127  1.0107 -5.4836  1.4940
 8802SOL     OW38038   3.003   3.851   4.727  0.1440  0.7141  0.0803
 8802SOL    HW138039   3.044   3.934   4.706 -1.3407  1.5598  0.4890
 8802SOL    HW238040   2.922   3.849   4.676 -0.1703  1.0851  0.5637
 8803SOL     OW38041   1.213   2.787   4.344  0.3600  0.2609  0.2585
 8803SOL    HW138042   1.230   2.787   4.250 -1.1770 -0.9575 -0.0267
 8803SOL    HW238043   1.302   2.804   4.374  0.4636 -0.0004  0.1012
 8804SOL     OW38044   2.692   2.473   8.378  0.2947 -0.9618 -0.7714
 8804SOL    HW138045   2.620   2.424   8.339 -0.3062 -0.2612 -0.5223
 8804SOL    HW238046   2.651   2.501   8.460  3.7969  0.8224  0.3751
 8805SOL     OW38047   1.347   1.925   2.980 -0.1962 -0.0428 -0.4115
 8805SOL    HW138048   1.362   1.840   3.021 -0.5102  0.9679  1.7565
 8805SOL    HW238049   1.369   1.900   2.890  2.4225 -1.0110  0.5188
 8806SOL     OW38050   3.057   3.061  13.776  0.0004 -0.5345 -0.0310
 8806SOL    HW138051   3.058   3.020  13.862 -0.0997  1.8621  1.1207
 8806SOL    HW238052   3.134   3.018  13.737  1.2489  2.0467 -0.4385
 8807SOL     OW38053   4.126   1.730  11.019 -0.0833  0.6066 -0.1144
 8807SOL    HW138054   4.105   1.641  10.991 -0.3548  0.8371 -0.6275
 8807SOL    HW238055   4.114   1.717  11.113  1.2633  0.6804  0.0712
 8808SOL     OW38056   4.124   0.947  10.572  0.4483 -0.0797  0.4385
 8808SOL    HW138057   4.107   0.973  10.663 -1.4607 -1.0076  0.3293
 8808SOL    HW238058   4.216   0.924  10.585 -0.1476 -1.9637  1.3128
 8809SOL     OW38059   0.153   2.320   4.859  0.2018  0.6139 -0.6285
 8809SOL    HW138060   0.160   2.233   4.897 -0.8016  0.8292  0.0529
 8809SOL    HW238061   0.246   2.342   4.859  0.7100 -1.5357  1.5517
 8810SOL     OW38062   2.968   3.325   5.346 -0.5460 -0.3719 -0.1733
 8810SOL    HW138063   2.891   3.307   5.291 -1.2233  0.5993  0.4388
 8810SOL    HW238064   2.928   3.400   5.392 -1.8118  0.0047 -1.8832
 8811SOL     OW38065   4.669   3.661  14.093  0.3384  0.3187 -0.1295
 8811SOL    HW138066   0.009   3.679  14.034  0.5826  0.8063  0.3314
 8811SOL    HW238067   4.684   3.566  14.092  2.5110  0.6726  0.1961
 8812SOL     OW38068   3.068   4.409   3.261  0.3202  0.4575  0.3933
 8812SOL    HW138069   3.105   4.335   3.212 -0.0490 -0.2626  1.2013
 8812SOL    HW238070   3.009   4.363   3.321  1.3387 -1.3036  0.0376
 8813SOL     OW38071   3.622   2.262   6.473 -0.3320  0.8085  0.0383
 8813SOL    HW138072   3.554   2.196   6.484  2.0551 -1.7684 -0.5945
 8813SOL    HW238073   3.581   2.335   6.519 -0.3581  1.8661 -1.6692
 8814SOL     OW38074   4.441   2.431   4.910  0.3037  0.4585 -0.3553
 8814SOL    HW138075   4.528   2.461   4.934 -0.0385  2.2032 -1.3415
 8814SOL    HW238076   4.447   2.338   4.935 -0.8580  1.0666  2.2051
 8815SOL     OW38077   0.250   3.229   6.793 -0.5093 -0.0966  0.0621
 8815SOL    HW138078   0.283   3.194   6.875 -0.8907 -0.7126 -0.0474
 8815SOL    HW238079   0.158   3.201   6.795 -0.6249  0.2944  0.2539
 8816SOL     OW38080   4.539   4.620   9.297  0.3212 -0.7373  0.4082
 8816SOL    HW138081   4.488   4.699   9.314  2.4452  0.4583  1.2234
 8816SOL    HW238082   4.611   4.652   9.352 -0.4301 -0.4057  1.1983
 8817SOL     OW38083   1.275   2.133   6.836 -0.7538  0.6663 -0.1154
 8817SOL    HW138084   1.301   2.060   6.779 -1.5479  0.5621 -0.3499
 8817SOL    HW238085   1.359   2.176   6.849 -0.8841  0.5312  1.1263
 8818SOL     OW38086   3.586   4.474   3.184 -0.4093 -0.8016  0.2523
 8818SOL    HW138087   3.601   4.567   3.199 -0.1694 -0.6710 -0.7635
 8818SOL    HW238088   3.503   4.470   3.231 -1.2548  3.4286 -0.8491
 8819SOL     OW38089   3.846   3.957   7.002 -0.7661 -0.0808  0.3379
 8819SOL    HW138090   3.908   3.977   6.932 -0.7105  0.4162  0.5261
 8819SOL    HW238091   3.906   3.930   7.071 -0.2923  0.7340  0.2471
 8820SOL     OW38092   2.920   2.587   1.289  0.5465 -0.4642 -0.4490
 8820SOL    HW138093   2.975   2.623   1.358 -0.6393  1.5521 -0.5696
 8820SOL    HW238094   2.852   2.654   1.284  0.9881  0.1551  2.0826
 8821SOL     OW38095   1.622   3.327   1.488 -0.3340 -0.5933  0.2757
 8821SOL    HW138096   1.577   3.247   1.461  0.8084 -0.9902 -0.4594
 8821SOL    HW238097   1.624   3.327   1.584  0.0658 -2.5211  0.2641
 8822SOL     OW38098   3.778   0.811   3.979  0.3103  0.9580  0.4513
 8822SOL    HW138099   3.755   0.845   4.065  3.8399  0.2114  1.6587
 8822SOL    HW238100   3.692   0.812   3.937 -0.3744 -1.7971  1.8426
 8823SOL     OW38101   2.827   3.547  10.907 -0.4820  0.2541  0.0807
 8823SOL    HW138102   2.751   3.510  10.952 -1.4150  0.4684 -1.3305
 8823SOL    HW238103   2.898   3.497  10.948 -1.5289 -0.8763  0.5064
 8824SOL     OW38104   3.513   0.078  12.362  0.5673 -0.4448  0.2483
 8824SOL    HW138105   3.536   0.005  12.420  0.0212  0.0526  1.0893
 8824SOL    HW238106   3.586   0.138  12.375 -0.1477  0.4605  0.1194
 8825SOL     OW38107   0.702   3.044   9.464 -0.2135 -0.0155 -0.2237
 8825SOL    HW138108   0.773   2.985   9.438  1.0630  1.0651  0.8258
 8825SOL    HW238109   0.761   3.119   9.467  2.1223 -1.8523 -0.0440
 8826SOL     OW38110   2.718   3.178   7.416  0.1981  0.4545 -0.4353
 8826SOL    HW138111   2.699   3.220   7.500 -1.3654 -0.5104 -0.3150
 8826SOL    HW238112   2.752   3.092   7.443 -0.5734  0.3103  0.0718
 8827SOL     OW38113   0.726   2.625   4.383 -0.8197 -0.3816  0.0548
 8827SOL    HW138114   0.797   2.680   4.416 -1.7940 -0.1274  1.7380
 8827SOL    HW238115   0.725   2.646   4.290  1.0541  0.3834  0.2007
 8828SOL     OW38116   0.168   4.709   3.819  0.2930  0.2365  0.0064
 8828SOL    HW138117   0.089   4.715   3.873 -0.1721 -0.2535 -0.6134
 8828SOL    HW238118   0.236   4.687   3.882  0.0850 -1.5950 -0.4221
 8829SOL     OW38119   0.325   2.300   4.421 -0.2547 -0.4411 -0.5323
 8829SOL    HW138120   0.289   2.382   4.456  1.1371 -0.0112 -0.0864
 8829SOL    HW238121   0.421   2.305   4.421 -0.3017  0.4883  2.9045
 8830SOL     OW38122   3.869   2.404  10.902 -0.1565  0.1389 -0.1072
 8830SOL    HW138123   3.794   2.462  10.887 -0.2963 -0.0569 -0.1550
 8830SOL    HW238124   3.838   2.347  10.972 -0.4174  0.6651  0.2049
 8831SOL     OW38125   2.047   4.161   7.446 -0.1388  0.0147 -0.0243
 8831SOL    HW138126   1.959   4.143   7.414  0.4392 -1.6415 -0.6902
 8831SOL    HW238127   2.068   4.229   7.381  0.5285 -1.1266 -1.0108
 8832SOL     OW38128   1.534   0.770  10.164 -0.2108 -1.0752 -0.2133
 8832SOL    HW138129   1.586   0.785  10.085 -1.4106 -0.0616 -0.8204
 8832SOL    HW238130   1.505   0.682  10.141 -1.4978 -0.3141 -1.5247
 8833SOL     OW38131   0.609   4.216   1.710 -0.1077  0.0996 -0.3551
 8833SOL    HW138132   0.605   4.128   1.672  1.7309 -0.1286 -0.0121
 8833SOL    HW238133   0.607   4.271   1.632  1.3145 -0.7760 -1.0190
 8834SOL     OW38134   1.275   0.293   0.644  0.3900  0.8030  0.1288
 8834SOL    HW138135   1.274   0.384   0.673  1.8642  0.9323 -0.2227
 8834SOL    HW238136   1.300   0.302   0.552  1.4345  1.7597  0.5144
 8835SOL     OW38137   0.845   3.241  12.785 -0.5474 -0.4750 -0.0844
 8835SOL    HW138138   0.792   3.163  12.772 -1.2054  0.0878 -0.7943
 8835SOL    HW238139   0.926   3.194  12.802 -0.2796 -0.0657 -0.2178
 8836SOL     OW38140   2.318   3.546   6.276 -0.9012 -0.3145  0.3679
 8836SOL    HW138141   2.307   3.536   6.371  1.1617 -1.0314  0.5191
 8836SOL    HW238142   2.401   3.594   6.281 -0.5539 -1.1190  2.2859
 8837SOL     OW38143   3.979   2.508   9.652  0.6789 -0.4899  0.5794
 8837SOL    HW138144   4.039   2.467   9.715  0.3202 -0.5581  0.8726
 8837SOL    HW238145   3.894   2.484   9.689 -0.3331  0.5435 -1.0930
 8838SOL     OW38146   2.082   2.046   3.711  0.2560 -0.5245  0.3889
 8838SOL    HW138147   1.991   2.048   3.742  0.1089  1.6830 -0.2123
 8838SOL    HW238148   2.077   2.086   3.624  0.1193 -0.8785  0.2299
 8839SOL     OW38149   2.503   2.365   3.864 -0.5712  0.0262 -0.1163
 8839SOL    HW138150   2.522   2.383   3.772 -1.7690  2.2174  0.0886
 8839SOL    HW238151   2.426   2.310   3.849 -1.1643  0.4154  1.5100
 8840SOL     OW38152   1.475   3.729   1.802  0.1712 -0.1550  0.0283
 8840SOL    HW138153   1.464   3.801   1.863 -1.8957  0.5174 -1.1022
 8840SOL    HW238154   1.491   3.655   1.861  0.3758 -2.2154 -2.5596
 8841SOL     OW38155   2.832   2.528   0.991  0.1739  0.4379  0.4936
 8841SOL    HW138156   2.889   2.454   0.977  0.1256  0.2617  1.2063
 8841SOL    HW238157   2.880   2.572   1.062  2.3432 -0.6019 -0.3489
 8842SOL     OW38158   1.395   0.608   2.675  0.2309 -0.4616 -0.2103
 8842SOL    HW138159   1.410   0.543   2.606  2.6520  0.9747 -1.0159
 8842SOL    HW238160   1.477   0.608   2.725  0.3858  1.6795 -0.4762
 8843SOL     OW38161   3.142   0.558   3.962 -0.5531  0.0618  0.3239
 8843SOL    HW138162   3.088   0.618   4.014 -0.2419  0.6633 -0.0374
 8843SOL    HW238163   3.227   0.576   4.000  0.7263 -1.4148 -1.8418
 8844SOL     OW38164   3.157   4.103   6.462 -0.1387 -0.0585 -0.0111
 8844SOL    HW138165   3.108   4.034   6.417  1.5348 -0.9488 -0.4460
 8844SOL    HW238166   3.190   4.042   6.528  0.4624 -2.1576 -2.2720
 8845SOL     OW38167   1.163   0.085   8.819  0.5723 -0.3889 -0.0415
 8845SOL    HW138168   1.176   0.018   8.753 -1.0244 -1.6352  0.9127
 8845SOL    HW238169   1.215   0.156   8.781  2.9773 -1.1388  1.8574
 8846SOL     OW38170   4.158   3.786   8.816  0.1538  0.1377  0.0294
 8846SOL    HW138171   4.214   3.717   8.850  0.2071  1.8636  3.4029
 8846SOL    HW238172   4.085   3.794   8.877  0.9489 -1.2848  1.1663
 8847SOL     OW38173   0.136   2.294   5.689 -0.0791 -0.3831 -0.5776
 8847SOL    HW138174   0.189   2.280   5.611 -0.0345  0.8663 -0.7617
 8847SOL    HW238175   0.202   2.293   5.758 -0.1947  1.6513 -0.4375
 8848SOL     OW38176   4.279   2.153   7.629 -0.1050 -0.3334  0.5724
 8848SOL    HW138177   4.277   2.062   7.599 -2.5976 -0.1570  0.1264
 8848SOL    HW238178   4.184   2.171   7.625 -0.4037 -1.5459  2.4814
 8849SOL     OW38179   3.953   3.897  14.809 -0.2153 -0.4391 -0.2858
 8849SOL    HW138180   4.037   3.942  14.800 -0.1021 -0.2386  1.6295
 8849SOL    HW238181   3.957   3.847  14.728  1.2191  0.9530 -1.0661
 8850SOL     OW38182   4.030   4.470  13.814  0.3992 -0.3770 -0.4428
 8850SOL    HW138183   4.038   4.555  13.858 -2.2990 -0.2475 -0.1904
 8850SOL    HW238184   4.119   4.459  13.780  0.7516  1.9319 -0.2463
 8851SOL     OW38185   4.485   1.412   3.942  0.5681  0.0413 -0.0239
 8851SOL    HW138186   4.522   1.323   3.942 -1.8440 -0.9682  0.8789
 8851SOL    HW238187   4.460   1.418   3.850  0.4985 -2.0611 -0.1521
 8852SOL     OW38188   0.802   1.905   5.018  0.6432 -0.3008  0.1001
 8852SOL    HW138189   0.868   1.975   5.020 -0.7363  0.9992  0.6006
 8852SOL    HW238190   0.836   1.833   4.966 -3.7652 -2.1302 -0.2077
 8853SOL     OW38191   3.903   2.385   5.646  0.0528 -0.3849 -0.0313
 8853SOL    HW138192   3.812   2.390   5.615  0.3276  1.2913 -0.5743
 8853SOL    HW238193   3.912   2.291   5.628 -0.6700 -0.2572 -1.1263
 8854SOL     OW38194   1.427   2.695  10.947  0.2397 -0.0503 -0.7787
 8854SOL    HW138195   1.442   2.705  11.042  0.0867 -0.2204 -0.7373
 8854SOL    HW238196   1.510   2.731  10.917  1.3861 -3.8968 -2.1005
 8855SOL     OW38197   0.613   3.788   5.411 -0.3574  0.6458  0.1165
 8855SOL    HW138198   0.622   3.821   5.500 -1.0869  1.1749 -0.0096
 8855SOL    HW238199   0.545   3.842   5.371 -0.9587  0.9419  1.5485
 8856SOL     OW38200   1.055   1.383   1.031  0.5895  0.5753  0.5784
 8856SOL    HW138201   1.124   1.414   0.972 -0.1848  0.3782 -0.4212
 8856SOL    HW238202   0.991   1.454   1.019  1.1818  0.9871 -0.1573
 8857SOL     OW38203   2.554   1.723   3.276 -0.6958 -0.4557 -0.1421
 8857SOL    HW138204   2.586   1.782   3.344  0.4557  0.4180 -1.4403
 8857SOL    HW238205   2.603   1.647   3.305 -1.3648 -0.4049  1.1456
 8858SOL     OW38206   3.113   2.295   5.159  0.4751  0.4056  0.9730
 8858SOL    HW138207   3.156   2.345   5.229  1.9310  0.3306  0.1398
 8858SOL    HW238208   3.128   2.355   5.086  1.9294  0.4709  1.3107
 8859SOL     OW38209   2.441   2.185  16.898 -0.1053  0.3424 -0.3550
 8859SOL    HW138210   2.508   2.206  16.832  0.5976  0.8361  0.5072
 8859SOL    HW238211   2.358   2.210  16.859  0.8880  1.8718 -1.4952
 8860SOL     OW38212   2.858   3.010   6.500 -0.4211 -0.0217 -0.6301
 8860SOL    HW138213   2.886   2.971   6.583 -0.7746 -1.0719 -1.0058
 8860SOL    HW238214   2.893   2.949   6.435  0.4767  1.6121 -1.6819
 8861SOL     OW38215   4.388   3.009   7.290 -0.2251  0.3821 -1.1172
 8861SOL    HW138216   4.477   3.030   7.262 -0.8407  3.1914 -0.9313
 8861SOL    HW238217   4.338   3.050   7.220 -1.2969 -1.4012 -1.4156
 8862SOL     OW38218   0.948   4.658   5.019 -0.1560 -0.1060 -0.1713
 8862SOL    HW138219   0.962   4.565   5.039  1.7645  0.3320  0.5433
 8862SOL    HW238220   1.032   4.702   5.008  1.5530 -3.1280  0.6644
 8863SOL     OW38221   4.034   3.118  12.478 -0.0202 -0.0933 -1.2235
 8863SOL    HW138222   4.034   3.193  12.537 -0.8253 -0.2051 -1.0815
 8863SOL    HW238223   3.946   3.118  12.441 -0.5488  2.2604  0.0913
 8864SOL     OW38224   2.321   2.109   5.875 -0.1465 -0.5473  0.4175
 8864SOL    HW138225   2.321   2.025   5.920 -2.4975 -1.4895 -1.3447
 8864SOL    HW238226   2.258   2.083   5.808  1.1042  0.4122 -1.1398
 8865SOL     OW38227   0.894   2.132   8.352 -0.7029  0.3839  0.0231
 8865SOL    HW138228   0.913   2.221   8.382  1.1649 -0.0921  0.2608
 8865SOL    HW238229   0.983   2.111   8.325 -0.7445  2.8346 -1.9989
 8866SOL     OW38230   1.694   3.581   6.608  0.4179  1.2731 -0.1279
 8866SOL    HW138231   1.647   3.540   6.680  0.6017 -0.1291 -0.7982
 8866SOL    HW238232   1.692   3.501   6.555 -1.8610  0.4752  1.1537
 8867SOL     OW38233   4.446   0.622  14.982  0.2547  0.5056  0.0325
 8867SOL    HW138234   4.458   0.564  14.907  1.8119  0.8460  0.0278
 8867SOL    HW238235   4.516   0.589  15.038 -0.6956  0.1930  1.0495
 8868SOL     OW38236   0.440   3.169   5.989 -0.1452 -0.3881 -0.0879
 8868SOL    HW138237   0.429   3.109   5.915 -2.5783 -0.1248  0.0582
 8868SOL    HW238238   0.469   3.113   6.062 -0.8576 -1.0296 -0.3015
 8869SOL     OW38239   0.585   3.410   5.524  0.6748 -0.2422 -0.5434
 8869SOL    HW138240   0.624   3.450   5.446  2.2353 -1.9101 -0.6056
 8869SOL    HW238241   0.615   3.468   5.595 -1.3877  1.1140 -0.7814
 8870SOL     OW38242   0.115   3.386   0.669  0.2882  0.3056  0.0210
 8870SOL    HW138243   0.082   3.298   0.651  0.5167  0.6369 -1.9813
 8870SOL    HW238244   0.036   3.422   0.710 -0.6890 -2.3633  0.4670
 8871SOL     OW38245   0.207   4.467   7.970  0.7459  0.6491  0.0076
 8871SOL    HW138246   0.171   4.536   7.914 -1.6673  0.7559  1.7086
 8871SOL    HW238247   0.178   4.385   7.929  1.7536  0.3223 -0.0639
 8872SOL     OW38248   1.893   2.699   4.813  0.4190 -0.4981 -0.0273
 8872SOL    HW138249   1.830   2.766   4.838  0.6928 -0.8539  1.6160
 8872SOL    HW238250   1.960   2.718   4.879  0.7601 -0.3034 -0.4251
 8873SOL     OW38251   2.606   0.913  16.285 -0.2612 -0.3595 -0.0356
 8873SOL    HW138252   2.624   1.001  16.318  0.4172 -0.9459  1.1908
 8873SOL    HW238253   2.573   0.870  16.364 -0.3996  0.7105  0.4848
 8874SOL     OW38254   4.572   3.924   3.294 -0.7275 -0.6386 -0.1933
 8874SOL    HW138255   4.521   3.957   3.221  0.5913  2.1827  0.1322
 8874SOL    HW238256   4.603   4.007   3.332 -1.0224 -1.3824  1.6734
 8875SOL     OW38257   0.635   4.339   6.806 -0.1200 -0.6444 -0.3832
 8875SOL    HW138258   0.570   4.319   6.874 -1.0519 -1.5726 -1.5420
 8875SOL    HW238259   0.593   4.284   6.739 -0.2806 -1.5070  0.4183
 8876SOL     OW38260   4.103   2.818   3.042 -0.0038  0.3790  0.5210
 8876SOL    HW138261   4.146   2.758   3.104  0.2832 -1.4036 -1.4188
 8876SOL    HW238262   4.144   2.903   3.060  0.0565  0.2497  1.0171
 8877SOL     OW38263   4.113   1.538  10.027 -0.2850  0.2058  0.3712
 8877SOL    HW138264   4.135   1.618   9.979  2.3052 -0.5450  0.3139
 8877SOL    HW238265   4.182   1.554  10.092  0.3093 -2.0593  0.2912
 8878SOL     OW38266   4.444   4.238  10.100 -0.4932  0.1007 -0.6005
 8878SOL    HW138267   4.509   4.169  10.113  0.0905  0.6673 -0.4329
 8878SOL    HW238268   4.490   4.317  10.131  1.4474 -1.5302  0.6644
 8879SOL     OW38269   4.426   2.734  11.072 -0.3048  0.2541 -0.5117
 8879SOL    HW138270   4.498   2.769  11.123  0.9072 -2.1418 -0.5709
 8879SOL    HW238271   4.419   2.644  11.104  1.0527 -0.6200 -2.7139
 8880SOL     OW38272   0.711   3.182  12.325  0.0276 -0.2109 -0.3482
 8880SOL    HW138273   0.678   3.268  12.352 -0.4206 -1.0367  1.7257
 8880SOL    HW238274   0.719   3.129  12.404 -1.2984  1.9468  1.2485
 8881SOL     OW38275   0.819   4.108   7.227  0.1979 -0.2815 -0.2741
 8881SOL    HW138276   0.877   4.173   7.188 -1.3611  0.0623 -2.0384
 8881SOL    HW238277   0.734   4.150   7.221  1.0837  1.5274 -0.1031
 8882SOL     OW38278   0.403   4.670   3.483 -0.3218 -0.1196  0.6869
 8882SOL    HW138279   0.444   4.610   3.422 -1.3492  0.4438 -0.5551
 8882SOL    HW238280   0.442   0.018   3.449  0.2672 -0.4684  0.5491
 8883SOL     OW38281   2.181   3.307   6.155  0.6113 -0.1976 -0.0181
 8883SOL    HW138282   2.216   3.377   6.211 -0.9686  1.0533 -0.5909
 8883SOL    HW238283   2.214   3.324   6.067 -1.3423 -0.6023 -0.8095
 8884SOL     OW38284   3.958   3.410   4.397 -0.3345 -0.4589 -0.0102
 8884SOL    HW138285   3.893   3.479   4.412  1.8112  1.4809  0.4041
 8884SOL    HW238286   3.982   3.421   4.305 -2.4264 -1.9892 -0.7452
 8885SOL     OW38287   1.377   4.240  17.512 -0.4192 -0.4183  0.6001
 8885SOL    HW138288   1.295   4.284  17.490 -0.2438 -0.0304  0.7242
 8885SOL    HW238289   1.411   4.236  17.423  0.1825  1.3766  0.7605
 8886SOL     OW38290   3.681   4.332   5.295  0.1026  0.2331 -0.0063
 8886SOL    HW138291   3.587   4.341   5.315 -0.1277 -1.7389 -0.2474
 8886SOL    HW238292   3.711   4.395   5.230 -2.1963  1.8925  0.4974
 8887SOL     OW38293   1.230   4.440   2.043 -1.0335  0.1972 -0.1130
 8887SOL    HW138294   1.215   4.534   2.031  0.3772  0.6674  1.7306
 8887SOL    HW238295   1.325   4.433   2.048 -1.0127  1.6476  1.7237
 8888SOL     OW38296   0.027   3.726  10.433  0.2059  0.2203 -0.3000
 8888SOL    HW138297   0.027   3.819  10.410  0.5707  0.6557  1.4718
 8888SOL    HW238298   4.731   3.687  10.350 -0.1289  0.3870 -0.2673
 8889SOL     OW38299   0.746   0.749   5.495 -0.0578 -0.6393 -0.0597
 8889SOL    HW138300   0.691   0.795   5.558  3.2706  0.8787  1.7755
 8889SOL    HW238301   0.828   0.772   5.539 -0.1527 -0.6163  0.1048
 8890SOL     OW38302   3.578   2.132   8.539  0.3365 -0.2057 -0.5000
 8890SOL    HW138303   3.660   2.083   8.531  1.2613  1.4068 -0.7231
 8890SOL    HW238304   3.531   2.097   8.463  1.1135  1.3314 -1.6663
 8891SOL     OW38305   1.384   1.478   7.390 -0.2308 -0.5846  0.3593
 8891SOL    HW138306   1.470   1.511   7.366 -1.3569  0.5342 -2.1612
 8891SOL    HW238307   1.350   1.546   7.448 -1.9486  1.6187 -3.2516
 8892SOL     OW38308   3.409   0.854   5.233 -0.1766  0.2107  0.1220
 8892SOL    HW138309   3.430   0.864   5.326 -1.7017  2.2442  0.2505
 8892SOL    HW238310   3.324   0.811   5.244  0.2657 -0.2567  1.6832
 8893SOL     OW38311   4.530   0.935   5.842  0.0342  0.2233  0.0114
 8893SOL    HW138312   4.566   0.887   5.767  0.0456  1.0251 -0.4923
 8893SOL    HW238313   4.600   0.995   5.867  0.1654  1.5170 -3.5500
 8894SOL     OW38314   3.664   3.693   2.965  0.3429 -0.2347 -0.3191
 8894SOL    HW138315   3.619   3.609   2.964  0.5545 -0.3377 -1.0652
 8894SOL    HW238316   3.741   3.667   3.015  0.0492 -2.7614 -1.1585
 8895SOL     OW38317   2.342   0.375   3.593  0.2575 -0.0844  0.0723
 8895SOL    HW138318   2.426   0.336   3.616 -0.6614 -1.9094  0.3547
 8895SOL    HW238319   2.358   0.468   3.609 -2.5787  0.5164 -0.5618
 8896SOL     OW38320   1.626   1.004   4.739  0.1647  0.3694 -0.0929
 8896SOL    HW138321   1.602   0.993   4.647  1.1943 -0.4189 -0.2635
 8896SOL    HW238322   1.585   1.089   4.754  2.7721  1.1970  2.2774
 8897SOL     OW38323   0.430   3.307  14.734  0.1767  0.2198 -0.3497
 8897SOL    HW138324   0.444   3.276  14.644  0.4646 -1.2774  0.2242
 8897SOL    HW238325   0.410   3.401  14.734 -0.1850  0.1380 -1.7324
 8898SOL     OW38326   1.527   1.959   5.104 -0.5147 -0.2989 -0.6203
 8898SOL    HW138327   1.581   1.932   5.178 -0.2439  0.6012 -0.4848
 8898SOL    HW238328   1.516   1.878   5.055 -2.6188 -0.8292  0.6872
 8899SOL     OW38329   0.908   1.337   7.148 -0.5706 -0.6132 -0.5107
 8899SOL    HW138330   0.991   1.357   7.192 -0.1326 -0.5848 -1.3514
 8899SOL    HW238331   0.858   1.413   7.180 -1.0990 -1.1835  0.0183
 8900SOL     OW38332   1.059   2.259   3.658 -0.2126 -0.0378 -0.0864
 8900SOL    HW138333   1.113   2.233   3.583 -0.8185 -3.8678  0.7839
 8900SOL    HW238334   1.098   2.208   3.729  0.9673  2.4987  1.0743
 8901SOL     OW38335   4.083   0.662  12.788  0.0069  0.0085  0.0253
 8901SOL    HW138336   4.110   0.622  12.705  0.8697  0.1865  0.2164
 8901SOL    HW238337   3.999   0.624  12.812  1.2472 -2.2390  0.7775
 8902SOL     OW38338   1.521   0.967   5.751 -0.0073 -0.0801 -0.8172
 8902SOL    HW138339   1.527   0.921   5.667  1.6271 -0.7586 -0.3294
 8902SOL    HW238340   1.470   0.898   5.794 -0.0259  1.1742  1.1515
 8903SOL     OW38341   4.021   0.644   0.757  0.3366 -0.0685 -0.0215
 8903SOL    HW138342   3.994   0.565   0.805  2.3417 -0.1305  1.0254
 8903SOL    HW238343   3.979   0.706   0.817  0.5318  1.2261 -1.2171
 8904SOL     OW38344   1.682   2.075   8.680 -0.1777 -0.2231  0.2195
 8904SOL    HW138345   1.615   2.118   8.734 -0.1481  0.3900 -0.2282
 8904SOL    HW238346   1.764   2.121   8.696  1.6413 -3.5741  0.5398
 8905SOL     OW38347   1.258   2.271   6.148 -0.2372 -0.3010  0.1001
 8905SOL    HW138348   1.291   2.243   6.233 -0.1843  0.5178  0.3445
 8905SOL    HW238349   1.168   2.291   6.175 -1.1572  0.6343 -3.6354
 8906SOL     OW38350   0.366   3.915   9.817 -0.2057  0.4629  0.0936
 8906SOL    HW138351   0.347   3.927   9.910  0.2526  2.5431 -0.0777
 8906SOL    HW238352   0.333   3.828   9.794 -0.3323  0.6076 -0.2862
 8907SOL     OW38353   2.517   2.844   8.345 -0.4032 -0.1302  0.3180
 8907SOL    HW138354   2.541   2.754   8.368 -0.7252 -0.1434  0.6088
 8907SOL    HW238355   2.540   2.899   8.419 -1.7777  0.0018  0.6565
 8908SOL     OW38356   3.881   3.327   9.139 -0.9563 -0.9573 -0.0345
 8908SOL    HW138357   3.806   3.382   9.117 -2.2818 -2.1256  1.6216
 8908SOL    HW238358   3.847   3.292   9.221 -1.2377 -1.0397 -0.1852
 8909SOL     OW38359   1.129   0.115   7.816 -0.2888  0.2132  0.2671
 8909SOL    HW138360   1.060   0.171   7.853 -1.2134  0.4827 -1.8539
 8909SOL    HW238361   1.093   0.108   7.727 -0.9091 -0.5855  0.5842
 8910SOL     OW38362   4.090   3.037   8.499  0.1353 -0.0889  0.0692
 8910SOL    HW138363   4.109   3.057   8.591  3.0093 -1.4014 -0.2526
 8910SOL    HW238364   4.110   2.944   8.499  1.1096  0.1461 -4.3206
 8911SOL     OW38365   4.071   4.391   9.634  0.6339  0.2917 -0.4553
 8911SOL    HW138366   4.042   4.466   9.686 -0.3424 -0.6856  0.3993
 8911SOL    HW238367   4.009   4.405   9.564 -0.5097 -1.8852  0.1116
 8912SOL     OW38368   1.982   1.708   3.971  0.2266 -0.1651 -0.3005
 8912SOL    HW138369   2.060   1.763   3.962 -1.1487  1.3632 -2.9352
 8912SOL    HW238370   1.972   1.693   4.065 -0.2549 -1.0976 -0.4984
 8913SOL     OW38371   4.206   1.560  10.344 -0.0083 -0.2637  0.6376
 8913SOL    HW138372   4.142   1.539  10.412 -1.3456 -0.6451 -0.7314
 8913SOL    HW238373   4.178   1.648  10.320 -1.8020 -1.0498 -0.1469
 8914SOL     OW38374   0.560   4.295   7.837 -0.4818  0.0744 -0.1285
 8914SOL    HW138375   0.528   4.378   7.872  1.5732 -0.3464  2.6933
 8914SOL    HW238376   0.654   4.309   7.845 -0.1243 -0.7782 -2.7811
 8915SOL     OW38377   4.714   1.898  10.316  0.2335 -0.7245  0.0929
 8915SOL    HW138378   4.728   1.830  10.382  0.6482  1.5240  2.3306
 8915SOL    HW238379   0.045   1.867  10.252  0.6755  0.6871 -0.1577
 8916SOL     OW38380   4.187   1.085  12.056  0.0368  0.1942 -0.1899
 8916SOL    HW138381   4.258   1.030  12.023  0.1882  0.1072  0.2951
 8916SOL    HW238382   4.155   1.119  11.972  2.3393  1.3629 -0.6247
 8917SOL     OW38383   3.881   3.895   8.865 -0.0134 -0.3591 -0.1357
 8917SOL    HW138384   3.844   3.909   8.777  0.4526 -2.5477 -0.6851
 8917SOL    HW238385   3.870   3.800   8.874  0.2235 -0.3972 -0.2384
 8918SOL     OW38386   2.120   1.757   9.672 -0.3042 -0.4550  0.4498
 8918SOL    HW138387   2.181   1.814   9.719 -1.9271  0.5406  1.3574
 8918SOL    HW238388   2.143   1.673   9.711 -0.2239 -0.1414  1.0817
 8919SOL     OW38389   0.456   4.163  10.367  0.1416 -0.0170  0.0428
 8919SOL    HW138390   0.533   4.158  10.311  1.5043  0.7911  1.8235
 8919SOL    HW238391   0.494   4.146  10.453  2.4252  0.2623 -0.9042
 8920SOL     OW38392   2.181   1.946   9.144  0.1657  0.2773 -0.1636
 8920SOL    HW138393   2.138   1.931   9.228  0.8428 -3.2769 -0.4614
 8920SOL    HW238394   2.253   1.884   9.144  1.4031  1.7102 -0.9816
 8921SOL     OW38395   4.173   4.613  11.843 -0.9257 -0.7018  0.1287
 8921SOL    HW138396   4.129   4.590  11.925 -1.2086 -0.3324  0.0836
 8921SOL    HW238397   4.118   4.573  11.775  0.4978 -1.6279 -0.4669
 8922SOL     OW38398   4.441   3.798   4.664 -0.3633 -0.2111  0.4435
 8922SOL    HW138399   4.360   3.762   4.702  0.3460 -1.0609  1.1746
 8922SOL    HW238400   4.425   3.785   4.571 -1.5439  1.3611  0.4332
 8923SOL     OW38401   1.630   1.033   2.249  0.2992  0.1780  0.8617
 8923SOL    HW138402   1.620   1.100   2.317 -2.0666 -0.3657  1.0662
 8923SOL    HW238403   1.722   1.039   2.222 -0.0006  1.0929  0.0326
 8924SOL     OW38404   4.637   3.890  13.851 -0.0387  0.2175  0.4304
 8924SOL    HW138405   4.708   3.943  13.815 -0.2720 -1.3206 -2.2395
 8924SOL    HW238406   4.677   3.803  13.852  0.3619  0.3808 -2.8744
 8925SOL     OW38407   1.363   1.115   6.363  0.5464  0.4555  0.2861
 8925SOL    HW138408   1.347   1.127   6.269 -1.7036 -2.7940  0.2212
 8925SOL    HW238409   1.336   1.196   6.405 -0.4328  0.2975 -0.0300
 8926SOL     OW38410   4.664   0.068   8.250  0.7949  0.6856  0.3926
 8926SOL    HW138411   4.632   0.003   8.313  1.6803 -0.0860  0.0478
 8926SOL    HW238412   0.020   0.036   8.233  0.2566  1.4702 -3.7595
 8927SOL     OW38413   3.665   3.191   2.680 -0.5728  0.0499 -1.0259
 8927SOL    HW138414   3.676   3.238   2.598 -2.3699 -1.8037 -2.3274
 8927SOL    HW238415   3.610   3.250   2.732 -0.9674  1.0067 -2.5273
 8928SOL     OW38416   0.239   4.259   2.418  0.5057  0.0177  0.4918
 8928SOL    HW138417   0.239   4.254   2.513  0.7683 -3.6621  0.2818
 8928SOL    HW238418   0.205   4.173   2.393 -1.4989  0.2529  2.4582
 8929SOL     OW38419   2.730   4.594   5.458  0.2475 -0.3577  0.1272
 8929SOL    HW138420   2.752   4.543   5.380 -0.3355 -0.8249  0.2752
 8929SOL    HW238421   2.701   4.527   5.519 -1.3033  0.6997  0.5429
 8930SOL     OW38422   3.262   0.381   0.305  0.0669  0.7347 -0.3352
 8930SOL    HW138423   3.267   0.354   0.213 -1.9580  2.2778 -0.8965
 8930SOL    HW238424   3.215   0.464   0.294 -3.9744 -1.5490 -0.4838
 8931SOL     OW38425   3.232   1.776   5.166  0.4406  0.5206  0.0850
 8931SOL    HW138426   3.230   1.831   5.088  0.0970 -2.6420 -2.1242
 8931SOL    HW238427   3.317   1.804   5.200  0.2609  0.3323  0.6979
 8932SOL     OW38428   2.277   0.435  15.940 -0.0828  0.7165  0.4807
 8932SOL    HW138429   2.242   0.426  16.029  0.1077  0.5120  0.5346
 8932SOL    HW238430   2.359   0.387  15.946 -0.6430 -0.4520 -0.9796
 8933SOL     OW38431   2.183   1.419  15.373  0.2370  0.3166  0.2925
 8933SOL    HW138432   2.108   1.454  15.420 -2.4487 -0.7710 -3.1618
 8933SOL    HW238433   2.260   1.444  15.424  1.4733 -2.5961 -0.1261
 8934SOL     OW38434   4.621   3.843   5.500  0.3326  0.3309  0.0522
 8934SOL    HW138435   4.550   3.831   5.437  0.1529  1.2992  0.0805
 8934SOL    HW238436   4.698   3.835   5.444 -0.2453  1.6223 -0.9322
 8935SOL     OW38437   4.613   2.445  12.408  0.2885 -0.9746 -1.0679
 8935SOL    HW138438   4.689   2.455  12.466 -0.3882  0.4053 -0.4215
 8935SOL    HW238439   4.568   2.378  12.461  3.2240 -0.7296  1.7738
 8936SOL     OW38440   0.603   0.739  13.629 -0.1454  0.2351 -0.2537
 8936SOL    HW138441   0.599   0.799  13.703 -1.4318 -0.0965 -0.0441
 8936SOL    HW238442   0.631   0.781  13.548 -0.8077 -0.5729 -0.9093
 8937SOL     OW38443   3.003   0.946   2.845 -0.6590 -0.3950 -0.1138
 8937SOL    HW138444   2.962   1.000   2.913 -0.7679 -0.5585 -0.0488
 8937SOL    HW238445   2.942   0.872   2.851 -1.7295  0.5361  0.6582
 8938SOL     OW38446   4.408   2.294   5.274  0.1954 -0.5866 -0.1338
 8938SOL    HW138447   4.429   2.382   5.242 -3.7319 -0.0537 -1.1710
 8938SOL    HW238448   4.461   2.287   5.353  0.6942 -1.4272 -0.5446
 8939SOL     OW38449   0.091   3.868  17.423 -0.2604  0.6143  0.1554
 8939SOL    HW138450   0.028   3.922  17.376 -0.5348  1.6256  1.6715
 8939SOL    HW238451   0.154   3.939  17.431  1.3031 -0.7314 -0.3372
 8940SOL     OW38452   1.320   3.907  15.720 -0.1940 -0.1837  0.0160
 8940SOL    HW138453   1.311   3.888  15.814 -2.6042 -0.4423 -0.2658
 8940SOL    HW238454   1.303   3.818  15.692  0.3737 -1.3202  3.2978
 8941SOL     OW38455   1.266   3.582   6.135 -0.1983 -0.5184 -1.0333
 8941SOL    HW138456   1.257   3.539   6.220  0.8741 -0.0890 -0.6996
 8941SOL    HW238457   1.234   3.668   6.162 -0.8341 -1.0541 -0.0836
 8942SOL     OW38458   0.445   2.635   5.168  0.2615 -0.2044 -0.3630
 8942SOL    HW138459   0.534   2.614   5.141  0.2810 -1.0052  0.3125
 8942SOL    HW238460   0.432   2.567   5.234 -1.1057 -1.2969 -1.7320
 8943SOL     OW38461   0.197   0.007   0.403  0.2800  0.4274 -0.2747
 8943SOL    HW138462   0.233   0.062   0.473  1.0825  0.5739 -0.7988
 8943SOL    HW238463   0.240   4.656   0.420  1.1203  0.8171 -0.4371
 8944SOL     OW38464   3.571   1.945   3.103  0.5134  0.9654 -0.2685
 8944SOL    HW138465   3.597   1.915   3.189 -1.8110 -2.0766 -0.6349
 8944SOL    HW238466   3.658   1.956   3.064  0.1316 -1.0479 -1.6715
 8945SOL     OW38467   1.742   2.324   8.230  0.0903  0.1941  0.0822
 8945SOL    HW138468   1.751   2.246   8.176  1.0448  0.6440 -0.4013
 8945SOL    HW238469   1.819   2.374   8.204  0.2511  0.0767  0.3341
 8946SOL     OW38470   1.811   2.624  11.586 -0.0739 -0.2539 -0.1647
 8946SOL    HW138471   1.761   2.702  11.609 -1.4934 -0.6662 -1.8942
 8946SOL    HW238472   1.900   2.658  11.578 -0.2387  0.1379 -0.3060
 8947SOL     OW38473   1.178   4.458   9.129  0.3339 -0.5367  0.3039
 8947SOL    HW138474   1.230   4.521   9.080 -0.7043  1.5924  1.9537
 8947SOL    HW238475   1.129   4.427   9.053  2.7459 -0.0453 -1.4447
 8948SOL     OW38476   1.646   0.316   5.047  0.0277 -0.7338  0.3360
 8948SOL    HW138477   1.660   0.382   5.115  1.3918 -1.0684  0.3678
 8948SOL    HW238478   1.673   0.367   4.970  0.9832 -3.2322 -0.9685
 8949SOL     OW38479   4.194   4.598   8.693  0.4169 -0.5963  0.3877
 8949SOL    HW138480   4.215   4.650   8.615  0.0528 -0.3642  0.4400
 8949SOL    HW238481   4.285   4.589   8.720 -0.0740  0.9136  2.5982
 8950SOL     OW38482   0.275   4.140   1.832  0.1638  0.7426  0.6114
 8950SOL    HW138483   0.244   4.077   1.897  2.8122 -0.4843  0.6603
 8950SOL    HW238484   0.199   4.142   1.774  0.9759  0.3441 -0.4696
 8951SOL     OW38485   0.793   1.608   7.593  0.0940 -0.3310  0.0495
 8951SOL    HW138486   0.735   1.581   7.664  1.1371 -2.6770 -0.0044
 8951SOL    HW238487   0.751   1.558   7.523  1.3093  1.3332 -1.8730
 8952SOL     OW38488   0.493   0.221  13.412  0.5190  0.3883  0.1136
 8952SOL    HW138489   0.420   0.279  13.391 -0.3107  1.1321  5.0203
 8952SOL    HW238490   0.480   0.163  13.338 -1.5035 -1.9436  2.2872
 8953SOL     OW38491   1.487   3.781   7.755 -0.0163 -0.4656 -0.7340
 8953SOL    HW138492   1.571   3.749   7.722  0.2738  2.7740 -3.1951
 8953SOL    HW238493   1.430   3.730   7.698  0.0193  1.6144 -2.6404
 8954SOL     OW38494   3.015   1.250   5.145  0.1764 -0.3897 -0.0019
 8954SOL    HW138495   3.084   1.312   5.122  0.2417 -0.7466 -0.7883
 8954SOL    HW238496   3.005   1.279   5.236  0.7070 -0.3791  0.0537
 8955SOL     OW38497   0.938   0.422  10.108 -0.3222 -0.1050 -0.1202
 8955SOL    HW138498   0.976   0.392  10.190  0.7982 -3.0457 -1.7106
 8955SOL    HW238499   1.009   0.465  10.061 -0.4988 -0.4839 -0.7328
 8956SOL     OW38500   2.530   4.696   8.242  0.2340 -0.5649 -0.1632
 8956SOL    HW138501   2.589   4.625   8.218 -1.4074 -1.9056 -0.2128
 8956SOL    HW238502   2.485   4.687   8.158  1.2911 -2.6137 -0.5100
 8957SOL     OW38503   2.597   3.896   6.654 -0.2892 -0.0131 -0.3643
 8957SOL    HW138504   2.610   3.879   6.748 -1.8985  1.5132  0.1279
 8957SOL    HW238505   2.518   3.844   6.636  0.0234 -0.3064 -0.8933
 8958SOL     OW38506   1.780   1.277  17.596  0.6152  0.2640 -0.2965
 8958SOL    HW138507   1.795   1.253  17.688  1.0950 -0.7631 -0.6437
 8958SOL    HW238508   1.862   1.321  17.575  1.2418 -1.0894 -0.7001
 8959SOL     OW38509   4.590   3.333   7.547  0.1460 -0.5925 -0.7509
 8959SOL    HW138510   4.633   3.410   7.586  0.5886 -2.2744  2.0498
 8959SOL    HW238511   4.502   3.357   7.574  0.3284  0.4971 -1.1019
 8960SOL     OW38512   2.661   3.505   7.896  0.1786 -0.2130  0.5991
 8960SOL    HW138513   2.739   3.553   7.870 -0.0856 -0.3390 -0.4253
 8960SOL    HW238514   2.656   3.542   7.984 -0.0816 -0.7710  0.8237
 8961SOL     OW38515   2.696   1.583  14.440  0.4786 -0.7448 -0.1022
 8961SOL    HW138516   2.767   1.540  14.489  0.5436 -0.3840  0.1162
 8961SOL    HW238517   2.742   1.608  14.360 -0.6956  0.6843 -0.3145
 8962SOL     OW38518   0.382   0.642   7.226 -0.5528 -0.4007 -0.3189
 8962SOL    HW138519   0.384   0.550   7.254  0.2459  0.2415  1.7528
 8962SOL    HW238520   0.438   0.630   7.150 -0.4982 -1.4615 -0.1132
 8963SOL     OW38521   3.496   3.825   3.841 -0.2198  0.7800 -0.2074
 8963SOL    HW138522   3.543   3.857   3.764  0.3688  1.1424  0.3000
 8963SOL    HW238523   3.441   3.902   3.860 -1.6383  0.0033 -1.2176
 8964SOL     OW38524   1.570   3.585  11.986  0.3764 -0.4477  0.2564
 8964SOL    HW138525   1.531   3.547  12.064  0.1999  1.7007  1.2061
 8964SOL    HW238526   1.550   3.517  11.922 -1.0699 -0.5272  0.8033
 8965SOL     OW38527   3.053   0.006   9.019  0.5133  0.7659  0.0904
 8965SOL    HW138528   3.027   4.684   9.092  0.5403  2.4091  1.3303
 8965SOL    HW238529   3.122   0.054   9.065  0.2806  1.0124  0.1799
 8966SOL     OW38530   0.510   3.921   9.126 -0.4544  0.3207 -0.4062
 8966SOL    HW138531   0.592   3.878   9.105 -0.9084 -0.3798 -0.7202
 8966SOL    HW238532   0.477   3.853   9.186 -1.2079  2.6525  1.8478
 8967SOL     OW38533   2.481   1.148   4.573 -0.4603 -0.1045  0.2290
 8967SOL    HW138534   2.493   1.056   4.550  0.1611 -0.1375  0.6788
 8967SOL    HW238535   2.503   1.145   4.666 -0.5626 -0.1510  0.2522
 8968SOL     OW38536   1.042   4.148   4.340 -0.0495 -0.2335 -0.0724
 8968SOL    HW138537   0.946   4.152   4.338  0.0118  1.0008 -0.6573
 8968SOL    HW238538   1.051   4.136   4.434  0.7505 -1.8409 -0.3532
 8969SOL     OW38539   2.003   3.460   7.912 -0.4467 -0.1939  0.4462
 8969SOL    HW138540   2.037   3.466   8.001 -1.0027 -1.4983  0.7393
 8969SOL    HW238541   2.050   3.390   7.868 -0.2625  0.7536 -0.8881
 8970SOL     OW38542   3.428   1.488   8.450 -0.2772 -0.9889  0.1670
 8970SOL    HW138543   3.353   1.544   8.468 -1.7481 -2.6303 -0.8664
 8970SOL    HW238544   3.448   1.497   8.357  0.8736  1.4620  0.6654
 8971SOL     OW38545   3.210   3.063  11.735 -0.1556 -1.0365  0.1972
 8971SOL    HW138546   3.120   3.096  11.724  0.7305  1.3857  0.2272
 8971SOL    HW238547   3.208   3.014  11.652  0.0421 -1.1287  0.2495
 8972SOL     OW38548   0.321   1.713  14.701  0.3216  0.5780  0.4493
 8972SOL    HW138549   0.297   1.802  14.674 -0.4106  0.0192 -0.7178
 8972SOL    HW238550   0.370   1.732  14.782  0.8707 -2.7290  0.8738
 8973SOL     OW38551   1.334   1.516   1.706 -0.0896  0.1314  0.4402
 8973SOL    HW138552   1.404   1.453   1.721 -2.2239 -2.7067 -1.5386
 8973SOL    HW238553   1.313   1.488   1.617 -0.1136  0.5383  0.3144
 8974SOL     OW38554   1.572   2.476   4.059 -0.1985  0.3488  0.7694
 8974SOL    HW138555   1.504   2.483   3.992  0.6168  0.7933 -0.0151
 8974SOL    HW238556   1.602   2.567   4.060  1.2220 -0.0947 -1.7371
 8975SOL     OW38557   3.549   3.526   8.488  0.0119 -0.0010  0.2578
 8975SOL    HW138558   3.626   3.473   8.468 -0.3478 -0.7173  0.7705
 8975SOL    HW238559   3.489   3.464   8.528 -2.3082  1.6068 -0.7412
 8976SOL     OW38560   0.842   0.052   8.626 -0.2969 -0.2541  0.4275
 8976SOL    HW138561   0.821   4.703   8.581 -4.1185  2.6780 -3.0675
 8976SOL    HW238562   0.937   0.043   8.619 -0.3866 -1.9202  1.4343
 8977SOL     OW38563   2.687   1.382  11.497 -0.5884  0.0714  0.5643
 8977SOL    HW138564   2.777   1.370  11.528 -1.0696 -1.1183  1.4986
 8977SOL    HW238565   2.641   1.367  11.580 -3.1984 -0.9587 -1.0819
 8978SOL     OW38566   2.255   3.134   8.879 -0.8144  0.3954  0.2202
 8978SOL    HW138567   2.286   3.048   8.909  0.0956  0.8887  0.6945
 8978SOL    HW238568   2.272   3.127   8.785  0.9035 -0.2374  0.5665
 8979SOL     OW38569   2.138   4.675   2.430 -0.4754  0.1620  0.8139
 8979SOL    HW138570   2.072   4.694   2.497 -0.3656  2.1568  0.3583
 8979SOL    HW238571   2.211   4.713   2.480  0.3786  0.4493 -0.6390
 8980SOL     OW38572   4.707   1.998   3.630 -0.0530  0.4000  0.5072
 8980SOL    HW138573   4.692   2.031   3.719 -1.6863  0.6014  0.1502
 8980SOL    HW238574   4.621   1.971   3.598 -0.0429  1.0502 -0.0586
 8981SOL     OW38575   4.001   4.653   2.234 -0.0329  0.5310  0.2100
 8981SOL    HW138576   4.022   0.010   2.211 -0.6829  0.8147  0.7373
 8981SOL    HW238577   4.042   4.612   2.157 -2.3746  0.0339 -0.7754
 8982SOL     OW38578   3.330   1.675   5.474 -0.3061  0.1766  0.2257
 8982SOL    HW138579   3.368   1.745   5.421  1.9170  0.1767  1.8160
 8982SOL    HW238580   3.394   1.652   5.542  0.0146  0.1508 -0.0878
 8983SOL     OW38581   4.360   2.443   4.653 -0.7618 -0.0952 -0.2573
 8983SOL    HW138582   4.396   2.442   4.742 -0.2004 -1.5129 -0.5045
 8983SOL    HW238583   4.294   2.374   4.658  0.5138 -1.4459 -1.8743
 8984SOL     OW38584   1.141   3.661   4.024  0.2035  0.4198  0.1731
 8984SOL    HW138585   1.104   3.586   3.976  1.0536  0.9208 -1.2662
 8984SOL    HW238586   1.075   3.691   4.086 -1.3052  2.5247 -2.4472
 8985SOL     OW38587   4.120   0.683   9.101 -0.1310 -0.1089 -0.7169
 8985SOL    HW138588   4.113   0.622   9.174 -0.5472  1.2614  0.3995
 8985SOL    HW238589   4.047   0.744   9.112  0.7426  0.5299  1.5462
 8986SOL     OW38590   3.038   2.539   8.165 -0.1484 -0.2172  0.3589
 8986SOL    HW138591   2.965   2.601   8.165  1.3298  1.5234 -0.9033
 8986SOL    HW238592   3.000   2.469   8.219  0.3949 -1.0456 -0.3287
 8987SOL     OW38593   4.725   3.933  17.691  0.1079  0.4326 -0.0453
 8987SOL    HW138594   0.027   3.939  17.602 -0.2979  0.3178 -0.2141
 8987SOL    HW238595   0.001   3.839  17.707  0.1778  0.2395 -1.2440
 8988SOL     OW38596   0.551   4.117   2.506  0.1153  0.0700 -1.2201
 8988SOL    HW138597   0.635   4.073   2.519 -0.3973 -0.0290  1.8199
 8988SOL    HW238598   0.587   4.203   2.485  0.6544 -0.2946 -1.7831
 8989SOL     OW38599   1.812   0.713   4.259  0.2094 -0.8555 -0.0109
 8989SOL    HW138600   1.875   0.646   4.235  2.0538 -0.0021  2.3954
 8989SOL    HW238601   1.781   0.743   4.174  0.1899 -0.6835  0.0560
 8990SOL     OW38602   3.509   2.632  16.145 -0.3978 -0.4339 -0.3420
 8990SOL    HW138603   3.597   2.597  16.137 -0.6569 -1.1969  0.1072
 8990SOL    HW238604   3.520   2.721  16.178 -1.3726  0.4698 -2.4173
 8991SOL     OW38605   4.707   3.967   4.486 -0.0463 -0.3071 -0.2357
 8991SOL    HW138606   4.732   4.017   4.563 -1.5777  0.5518 -0.2891
 8991SOL    HW238607   4.611   3.971   4.489  0.0497  1.2450  0.4878
 8992SOL     OW38608   1.239   0.189  10.205 -0.2877 -0.0711  0.6061
 8992SOL    HW138609   1.205   0.121  10.262 -0.5736 -1.6685 -1.4675
 8992SOL    HW238610   1.193   0.263  10.245 -0.2614 -0.7074  1.8108
 8993SOL     OW38611   4.301   3.350   6.863  0.7041 -0.3877 -0.5314
 8993SOL    HW138612   4.372   3.411   6.846 -1.0567  1.1846 -2.3160
 8993SOL    HW238613   4.336   3.275   6.816  2.5689  1.4031 -2.0067
 8994SOL     OW38614   3.677   1.515   6.078  0.1614  0.8440  0.4421
 8994SOL    HW138615   3.738   1.538   6.008  0.4597 -3.3126 -0.7068
 8994SOL    HW238616   3.746   1.481   6.135 -1.7633 -1.1333  1.6236
 8995SOL     OW38617   2.626   4.592   6.706 -0.1906  0.2115 -0.3345
 8995SOL    HW138618   2.544   4.545   6.687  0.4378 -0.6047 -1.0395
 8995SOL    HW238619   2.682   4.536   6.652 -0.8773 -0.1741 -0.6530
 8996SOL     OW38620   3.605   2.765   1.055  1.0919 -0.0487 -0.2738
 8996SOL    HW138621   3.695   2.738   1.077  1.0616 -0.3588 -0.5366
 8996SOL    HW238622   3.563   2.694   1.105  0.0305  1.6180  1.2089
 8997SOL     OW38623   2.625   0.909   6.584  0.0936  0.0879 -0.5779
 8997SOL    HW138624   2.677   0.833   6.610 -0.5044 -0.2610 -0.4014
 8997SOL    HW238625   2.546   0.888   6.633  1.2629 -0.6727  0.9709
 8998SOL     OW38626   2.897   0.628  16.879 -0.2514  0.1937 -0.4938
 8998SOL    HW138627   2.946   0.701  16.915  0.8254 -0.2282 -1.1075
 8998SOL    HW238628   2.824   0.641  16.940  1.0595  2.1491  0.6127
 8999SOL     OW38629   1.044   3.647   9.941  0.2372  0.1954 -0.7180
 8999SOL    HW138630   1.021   3.612  10.027  0.8620  0.6070 -0.3792
 8999SOL    HW238631   0.960   3.684   9.915 -0.3025 -0.6824 -0.1955
 9000SOL     OW38632   1.778   4.478   5.779  0.2591  0.3129  0.0240
 9000SOL    HW138633   1.694   4.443   5.809 -0.6445 -0.7491 -3.7162
 9000SOL    HW238634   1.789   4.430   5.697 -0.0912 -0.0627  0.1976
 9001SOL     OW38635   4.142   0.066  14.639 -0.6486  0.0549  0.5947
 9001SOL    HW138636   4.075   0.014  14.595  0.8970 -0.0415 -1.6552
 9001SOL    HW238637   4.091   0.092  14.715  0.0162  0.0300  1.0490
 9002SOL     OW38638   3.086   3.044   3.904 -0.1921  0.2964 -0.3602
 9002SOL    HW138639   3.014   3.005   3.953 -0.4214  0.5073 -0.5317
 9002SOL    HW238640   3.133   2.973   3.860 -0.5974  0.0236 -0.3491
 9003SOL     OW38641   3.844   2.288   6.160  0.4211  0.2119  0.1174
 9003SOL    HW138642   3.890   2.312   6.079  2.0590  2.7385  1.8176
 9003SOL    HW238643   3.788   2.365   6.158  2.6099  1.8279  0.5693
 9004SOL     OW38644   4.592   2.492  10.872 -0.8338 -0.3664 -0.2036
 9004SOL    HW138645   4.555   2.500  10.960 -0.2472  0.4719 -0.0388
 9004SOL    HW238646   4.579   2.398  10.857  1.6384 -1.0174  1.7044
 9005SOL     OW38647   2.069   3.582  14.866 -0.9002 -0.2022  0.3075
 9005SOL    HW138648   2.139   3.550  14.924  0.4031 -0.0462 -1.1854
 9005SOL    HW238649   2.000   3.578  14.932 -1.8084  5.1055 -0.3652
 9006SOL     OW38650   0.109   0.955  10.304  0.5420 -0.0487 -0.1098
 9006SOL    HW138651   0.080   0.997  10.223 -0.3626  0.0815  0.2904
 9006SOL    HW238652   0.086   0.866  10.279  0.9121  0.2317 -1.4558
 9007SOL     OW38653   0.258   2.578   3.719 -0.0892 -0.1402 -0.4046
 9007SOL    HW138654   0.182   2.525   3.742 -0.5773  0.2799 -1.0645
 9007SOL    HW238655   0.326   2.512   3.708  0.1205  0.1771 -0.9847
 9008SOL     OW38656   3.977   0.822   5.925 -0.0523  0.3675 -0.4467
 9008SOL    HW138657   3.990   0.891   5.859 -0.7504  0.3803 -0.5729
 9008SOL    HW238658   4.040   0.758   5.893 -1.5020 -1.8953  1.1876
 9009SOL     OW38659   3.456   3.778   4.801  0.3890  0.1540  0.3793
 9009SOL    HW138660   3.419   3.863   4.822 -0.7390 -1.3367  4.4878
 9009SOL    HW238661   3.549   3.796   4.790 -0.1736  1.9643 -1.4116
 9010SOL     OW38662   3.063   4.043  17.358  0.1830 -0.1068 -0.1175
 9010SOL    HW138663   3.021   4.038  17.273 -0.4869 -2.4865  0.3572
 9010SOL    HW238664   3.066   4.137  17.379 -1.2371  0.3602 -2.0892
 9011SOL     OW38665   2.337   3.774   2.612  0.2131 -0.2823 -0.0631
 9011SOL    HW138666   2.257   3.746   2.569 -0.3473 -0.5503  1.1510
 9011SOL    HW238667   2.370   3.814   2.532 -0.6774  1.3208  0.3696
 9012SOL     OW38668   2.132   3.487   3.938 -0.4740  0.5774  0.0849
 9012SOL    HW138669   2.046   3.450   3.918  0.3014 -1.1483 -0.0868
 9012SOL    HW238670   2.116   3.580   3.957 -0.6967  0.0883  2.2876
 9013SOL     OW38671   4.147   3.412   3.428 -0.8214  0.2978  0.2221
 9013SOL    HW138672   4.242   3.411   3.426 -0.8182  1.0334 -0.4234
 9013SOL    HW238673   4.122   3.399   3.336 -0.4982  0.4070  0.1202
 9014SOL     OW38674   4.581   1.995   9.923 -0.1780 -0.8068 -0.7370
 9014SOL    HW138675   4.538   1.920   9.882 -0.8911 -0.9024  0.1707
 9014SOL    HW238676   4.671   1.969   9.942 -0.1265  1.2128  1.7718
 9015SOL     OW38677   3.992   2.472  14.629 -0.1844 -0.4566 -0.4551
 9015SOL    HW138678   3.912   2.522  14.648  1.3646  2.1788 -0.8740
 9015SOL    HW238679   4.010   2.448  14.720 -0.1159  0.3644 -0.2462
 9016SOL     OW38680   3.777   1.530  11.925 -0.0747 -0.0547  0.3047
 9016SOL    HW138681   3.849   1.491  11.975  2.1187  1.7864 -1.4131
 9016SOL    HW238682   3.740   1.590  11.990 -0.8184  1.0661 -1.1521
 9017SOL     OW38683   0.097   4.697  13.714 -0.1627 -0.3156 -0.0322
 9017SOL    HW138684   0.039   4.623  13.733  0.3668 -0.8309 -0.4216
 9017SOL    HW238685   0.068   4.712  13.624 -1.2310 -0.5048  0.2817
 9018SOL     OW38686   3.973   4.287   3.365  0.7455 -0.6140  0.1769
 9018SOL    HW138687   3.930   4.329   3.440 -1.0552 -1.1662 -0.5481
 9018SOL    HW238688   3.900   4.293   3.302  0.7302 -2.1867  0.0470
 9019SOL     OW38689   3.705   4.601   6.929  0.3516 -0.2733 -0.0832
 9019SOL    HW138690   3.780   4.629   6.982  0.0666  0.4712 -0.0853
 9019SOL    HW238691   3.656   4.557   6.999  1.7362 -0.4775  0.7803
 9020SOL     OW38692   0.760   0.049   5.537 -0.2381 -0.6826 -0.0478
 9020SOL    HW138693   0.826   0.118   5.538 -1.6243  0.6963 -1.3849
 9020SOL    HW238694   0.795   4.728   5.607  0.0486 -0.5676 -0.1060
 9021SOL     OW38695   2.822   0.466   7.722  0.1143 -0.2173 -0.1161
 9021SOL    HW138696   2.804   0.500   7.809  2.3420  3.4241 -1.0969
 9021SOL    HW238697   2.752   0.517   7.682 -0.6950  0.2310  1.8961
 9022SOL     OW38698   0.654   0.634  15.906  0.0159 -0.2930  0.0896
 9022SOL    HW138699   0.581   0.686  15.872 -1.7008 -1.4623  2.0189
 9022SOL    HW238700   0.718   0.700  15.935  0.4633 -1.0449  0.8011
 9023SOL     OW38701   1.905   2.684   8.611  0.2947 -0.3697  0.0698
 9023SOL    HW138702   1.852   2.607   8.588  1.2426 -0.6493 -1.1140
 9023SOL    HW238703   1.928   2.716   8.524 -0.7161  0.0371 -0.0499
 9024SOL     OW38704   0.634   3.247  17.331  0.3119 -0.3353  0.3402
 9024SOL    HW138705   0.552   3.297  17.323  0.0577 -0.8653 -0.3248
 9024SOL    HW238706   0.661   3.261  17.241  1.8785 -0.6187  0.7749
 9025SOL     OW38707   2.316   0.232   8.876 -0.1645 -0.4422 -0.1176
 9025SOL    HW138708   2.354   0.151   8.841  0.2370 -0.3165  0.0250
 9025SOL    HW238709   2.297   0.271   8.791  1.0686 -1.3543 -0.8233
 9026SOL     OW38710   2.374   3.040   8.580  0.5333 -0.7364  0.4374
 9026SOL    HW138711   2.451   3.087   8.613 -0.4044  1.3667 -0.4041
 9026SOL    HW238712   2.378   3.055   8.486  0.2311  1.8873  0.8522
 9027SOL     OW38713   0.380   4.131  13.261 -0.2444 -0.0664 -0.3006
 9027SOL    HW138714   0.380   4.037  13.241 -1.6502  0.1623 -1.3751
 9027SOL    HW238715   0.317   4.138  13.332 -1.1418 -2.4321 -0.8547
 9028SOL     OW38716   0.847   0.621   1.496  0.1297 -0.1877 -0.2690
 9028SOL    HW138717   0.916   0.585   1.439  0.1819  0.5809 -0.6861
 9028SOL    HW238718   0.896   0.666   1.565  1.3183 -1.6137 -0.1622
 9029SOL     OW38719   3.843   0.690  11.837  0.7558  0.1793  0.1674
 9029SOL    HW138720   3.854   0.630  11.763 -0.0049  1.8334 -1.2721
 9029SOL    HW238721   3.748   0.700  11.836  0.8626  1.1281 -0.5182
 9030SOL     OW38722   3.536   1.242   4.637 -0.1031 -0.1341  0.0362
 9030SOL    HW138723   3.537   1.333   4.666 -1.0700 -0.2805  0.5052
 9030SOL    HW238724   3.516   1.213   4.725  0.5133  2.2520  0.9591
 9031SOL     OW38725   0.627   3.990  11.976  0.5533  0.0706  0.3272
 9031SOL    HW138726   0.693   3.998  12.045 -1.3067 -0.9252  2.2395
 9031SOL    HW238727   0.656   4.071  11.935  0.9353 -0.2011  0.0622
 9032SOL     OW38728   2.786   4.299   3.443  0.0372  0.1753  0.1330
 9032SOL    HW138729   2.763   4.304   3.351 -0.6274 -0.4750  0.2635
 9032SOL    HW238730   2.711   4.249   3.476 -0.8900  0.6664 -1.2639
 9033SOL     OW38731   0.643   0.501   9.103  0.0485 -0.4879  0.5993
 9033SOL    HW138732   0.671   0.551   9.179  0.4903 -1.6027  1.1675
 9033SOL    HW238733   0.559   0.461   9.126 -1.5332  0.8663 -2.7346
 9034SOL     OW38734   3.930   3.622   6.136 -0.4468  0.3019 -0.2842
 9034SOL    HW138735   3.902   3.707   6.170  1.0232 -0.2301  2.2862
 9034SOL    HW238736   3.889   3.614   6.050 -2.1975 -3.5844  0.9315
 9035SOL     OW38737   3.860   0.210   6.494 -0.1046 -0.0004  0.0086
 9035SOL    HW138738   3.788   0.150   6.514  0.4587 -0.4130  0.8010
 9035SOL    HW238739   3.803   0.286   6.484 -0.7190 -0.7466 -2.0134
 9036SOL     OW38740   4.030   0.033  13.861  0.3394  0.1213  0.7587
 9036SOL    HW138741   4.068   0.054  13.775 -0.0776  1.4619  0.8949
 9036SOL    HW238742   3.960   0.099  13.866  0.4766  0.3074  0.2402
 9037SOL     OW38743   4.463   3.943   6.071  0.2966  0.0375 -0.0678
 9037SOL    HW138744   4.444   3.987   5.988  0.9833 -1.0045 -0.7773
 9037SOL    HW238745   4.387   3.971   6.121 -1.8081 -0.8625 -2.8088
 9038SOL     OW38746   1.516   0.750  16.853 -0.3900 -0.5230  0.2137
 9038SOL    HW138747   1.607   0.777  16.870 -0.2505 -0.2211 -1.0473
 9038SOL    HW238748   1.528   0.698  16.774  2.7672  0.1879  0.2272
 9039SOL     OW38749   3.061   3.984  12.916  0.0045  0.1964  0.5531
 9039SOL    HW138750   3.026   3.955  13.000 -2.9584 -1.1928 -1.1739
 9039SOL    HW238751   3.113   4.061  12.938 -1.0053  1.1329 -0.3754
 9040SOL     OW38752   2.211   2.126  12.183  0.1473  0.2653 -0.6443
 9040SOL    HW138753   2.249   2.070  12.250 -1.0714 -2.4677 -2.2261
 9040SOL    HW238754   2.196   2.062  12.113  1.9462 -0.3314 -0.4719
 9041SOL     OW38755   3.077   3.620   7.287 -0.1507 -0.3621  0.2318
 9041SOL    HW138756   3.056   3.675   7.212  2.4276 -0.2057 -0.3804
 9041SOL    HW238757   3.008   3.553   7.282  0.3093 -0.7967 -0.3345
 9042SOL     OW38758   2.514   1.214  12.525 -0.2821 -0.4617  0.3353
 9042SOL    HW138759   2.528   1.220  12.431 -3.2964 -1.7409 -0.2027
 9042SOL    HW238760   2.574   1.146  12.557  0.9263 -0.0160 -0.9981
 9043SOL     OW38761   4.249   2.001   2.588  0.3059 -0.0586 -0.7652
 9043SOL    HW138762   4.316   1.934   2.575  1.3099  0.3584  2.0901
 9043SOL    HW238763   4.275   2.039   2.673  0.8882 -0.5151 -0.7353
 9044SOL     OW38764   4.178   2.783   1.819  0.1238 -0.3534 -0.2835
 9044SOL    HW138765   4.177   2.750   1.729 -0.5964 -0.7199 -0.1421
 9044SOL    HW238766   4.254   2.841   1.826  1.1404 -1.3727 -2.8432
 9045SOL     OW38767   1.887   2.556   2.787 -0.4841 -0.8718  0.2510
 9045SOL    HW138768   1.970   2.596   2.761 -1.9308  1.8016 -0.2971
 9045SOL    HW238769   1.848   2.538   2.702 -2.9506  1.9672  0.7746
 9046SOL     OW38770   4.334   2.298  17.654 -0.0101  0.2307 -0.3830
 9046SOL    HW138771   4.262   2.346  17.614  0.5359  0.9755 -0.4691
 9046SOL    HW238772   4.314   2.204  17.648 -0.4076  0.4075 -1.8018
 9047SOL     OW38773   4.286   1.441   4.373  0.4097 -0.1474  0.1670
 9047SOL    HW138774   4.365   1.494   4.378  1.1601 -1.3800  1.2636
 9047SOL    HW238775   4.249   1.458   4.286  0.4293  1.1458  0.4112
 9048SOL     OW38776   2.654   0.187   2.356 -0.1010  0.0657  0.1018
 9048SOL    HW138777   2.713   0.111   2.355  0.3467  0.4177 -0.2409
 9048SOL    HW238778   2.585   0.149   2.301  2.1434 -1.0846 -1.9178
 9049SOL     OW38779   0.659   4.356  12.859  0.2697  0.0844  0.1552
 9049SOL    HW138780   0.657   4.354  12.763 -0.1944 -0.4086  0.1758
 9049SOL    HW238781   0.682   4.446  12.882 -1.7920  0.7927 -0.5713
 9050SOL     OW38782   3.293   1.936   4.124 -0.2714  0.1591 -0.2719
 9050SOL    HW138783   3.240   2.015   4.109  2.1752  2.1210  1.3861
 9050SOL    HW238784   3.232   1.883   4.175 -0.4079 -1.8736 -2.5725
 9051SOL     OW38785   2.328   3.712   7.563  0.2238 -0.8444  0.2551
 9051SOL    HW138786   2.324   3.793   7.613 -2.3872 -1.5100  1.1493
 9051SOL    HW238787   2.243   3.674   7.588 -0.7092  1.1502  0.0979
 9052SOL     OW38788   4.401   2.295   2.660  0.0746  0.7585  0.3595
 9052SOL    HW138789   4.470   2.349   2.699 -0.3454  1.2069  0.4723
 9052SOL    HW238790   4.387   2.233   2.731  0.7632 -0.0789 -0.2235
 9053SOL     OW38791   0.793   2.881   8.246 -0.3656 -0.5130  0.5257
 9053SOL    HW138792   0.794   2.955   8.306  1.9670  0.2565 -0.4408
 9053SOL    HW238793   0.867   2.849   8.297  0.5579 -0.3880 -0.7430
 9054SOL     OW38794   1.380   1.809   2.711 -0.4773 -0.0515  0.1144
 9054SOL    HW138795   1.434   1.743   2.753  0.1820  1.1422  1.1626
 9054SOL    HW238796   1.331   1.754   2.651 -1.0501  0.1321  0.4102
 9055SOL     OW38797   1.956   2.359   0.202  0.1271  0.1594  0.1300
 9055SOL    HW138798   2.046   2.359   0.236  0.2790 -0.0841 -0.2634
 9055SOL    HW238799   1.981   2.394   0.117 -1.9850  1.2336 -0.0266
 9056SOL     OW38800   0.492   1.128  10.561  0.6765  0.1856 -0.0201
 9056SOL    HW138801   0.434   1.133  10.485 -1.0850 -0.8589  1.2615
 9056SOL    HW238802   0.435   1.112  10.637  0.7760  0.1954  0.0566
 9057SOL     OW38803   0.298   3.662   9.754 -0.0562  0.2578  0.4752
 9057SOL    HW138804   0.326   3.625   9.671 -2.9587 -1.3640  0.2023
 9057SOL    HW238805   0.207   3.632   9.752 -0.4278  1.2796  1.7274
 9058SOL     OW38806   4.041   2.366   4.118  0.8145 -0.2700 -0.4386
 9058SOL    HW138807   4.116   2.341   4.064 -0.0210 -0.1580 -1.6666
 9058SOL    HW238808   3.985   2.403   4.050 -1.8680 -0.3565  1.7402
 9059SOL     OW38809   0.570   2.189   2.407 -0.4376 -0.1161  0.4340
 9059SOL    HW138810   0.625   2.233   2.342  0.6325 -1.2925  0.5415
 9059SOL    HW238811   0.491   2.179   2.354 -0.0779  1.0934 -0.3303
 9060SOL     OW38812   4.060   3.225   9.602  0.4117  0.0260  0.2175
 9060SOL    HW138813   4.075   3.150   9.545  1.8170 -0.4513  1.2163
 9060SOL    HW238814   4.133   3.229   9.664  1.5818 -2.6274 -0.9980
 9061SOL     OW38815   1.080   1.207  13.884 -0.0978  0.2860 -0.2082
 9061SOL    HW138816   1.021   1.143  13.924  1.9018  0.2643  2.7556
 9061SOL    HW238817   1.135   1.148  13.833  0.5537  0.1649  0.6206
 9062SOL     OW38818   0.196   0.589   5.901  0.4344 -0.5429  0.2312
 9062SOL    HW138819   0.256   0.581   5.975  1.2274 -0.1982 -0.3640
 9062SOL    HW238820   0.190   0.685   5.900 -1.5508 -0.6475  1.5728
 9063SOL     OW38821   4.487   3.547   6.805 -0.5009  0.5904 -0.0416
 9063SOL    HW138822   4.497   3.588   6.719 -1.2586  1.1224  0.1180
 9063SOL    HW238823   4.576   3.521   6.827 -0.7823  0.1985  0.6167
 9064SOL     OW38824   3.848   2.291   9.499 -0.1279  0.2990 -0.0371
 9064SOL    HW138825   3.800   2.343   9.564  1.4878  1.0691  0.5222
 9064SOL    HW238826   3.918   2.246   9.544  0.6283  1.3360 -0.1875
 9065SOL     OW38827   3.654   2.271  15.488 -0.1677  0.3448 -0.0892
 9065SOL    HW138828   3.600   2.310  15.420 -0.9095 -0.1051  0.2429
 9065SOL    HW238829   3.589   2.222  15.539 -0.3763  2.1981  1.4381
 9066SOL     OW38830   1.227   2.176  16.211  0.2905 -0.0769  0.2399
 9066SOL    HW138831   1.304   2.199  16.160  0.9743 -1.1707  0.7837
 9066SOL    HW238832   1.154   2.222  16.170  0.2908 -0.5926 -0.3344
 9067SOL     OW38833   1.888   0.660   7.679  0.1861  0.5332  0.0660
 9067SOL    HW138834   1.960   0.596   7.686  0.2968  0.4726 -1.5496
 9067SOL    HW238835   1.813   0.603   7.663 -1.2031  3.0839 -2.3929
 9068SOL     OW38836   1.111   3.756   2.118  0.6247 -0.2342  0.4693
 9068SOL    HW138837   1.053   3.807   2.062  1.3797  1.3378  1.0980
 9068SOL    HW238838   1.051   3.745   2.191 -1.2925  2.2998 -0.7481
 9069SOL     OW38839   0.179   0.678  10.278  0.2667  0.2081 -0.1240
 9069SOL    HW138840   0.224   0.686  10.362 -1.2132 -2.4193  0.9341
 9069SOL    HW238841   0.139   0.591  10.282 -4.2919  2.3284  1.0396
 9070SOL     OW38842   0.964   2.566   6.531  0.0238  0.3874  0.0007
 9070SOL    HW138843   0.999   2.599   6.613 -0.7298  0.0833  0.4469
 9070SOL    HW238844   0.875   2.600   6.537  0.8598  2.7528 -1.0535
 9071SOL     OW38845   0.049   3.770   3.061 -0.2656  0.3845 -0.5122
 9071SOL    HW138846   4.719   3.811   3.121  1.3680  3.2395 -0.8135
 9071SOL    HW238847   0.018   3.790   2.973 -0.0068  2.1003 -0.1971
 9072SOL     OW38848   0.063   4.085   8.318 -0.0388 -0.3456  0.0441
 9072SOL    HW138849   0.049   4.171   8.359 -0.7229 -0.7605  0.6896
 9072SOL    HW238850   4.711   4.049   8.344 -0.9892  1.2908 -0.7769
 9073SOL     OW38851   0.734   0.621   3.608 -0.6508  0.1101 -0.6630
 9073SOL    HW138852   0.733   0.711   3.578  1.1444  0.9959  1.9750
 9073SOL    HW238853   0.804   0.589   3.551  0.2855  0.2425  0.4216
 9074SOL     OW38854   4.669   1.532   6.535 -0.3491 -0.1687  0.0411
 9074SOL    HW138855   4.608   1.472   6.492 -0.4428  0.6640 -0.9837
 9074SOL    HW238856   0.014   1.516   6.480 -1.0435  0.7846 -1.2001
 9075SOL     OW38857   1.390   2.913   1.171 -0.4092 -0.1353  0.4385
 9075SOL    HW138858   1.463   2.852   1.156 -0.0527  0.3880  0.0716
 9075SOL    HW238859   1.349   2.895   1.086  0.4642 -1.8710  0.3775
 9076SOL     OW38860   1.099   2.280   2.983  0.5007  0.2207 -0.5866
 9076SOL    HW138861   1.146   2.334   2.920  0.9085 -1.1906 -1.4892
 9076SOL    HW238862   1.008   2.300   2.962  0.5605  0.7837 -0.2999
 9077SOL     OW38863   2.842   4.329   5.355 -0.2008 -0.0510  0.1739
 9077SOL    HW138864   2.809   4.272   5.285  1.1298  0.3319 -0.7730
 9077SOL    HW238865   2.933   4.337   5.324  0.1466  0.3101  1.2826
 9078SOL     OW38866   3.491   4.230   1.785 -0.4089  0.6044 -0.3840
 9078SOL    HW138867   3.468   4.204   1.874  3.2022  0.2811  0.4494
 9078SOL    HW238868   3.586   4.221   1.797 -0.4098 -1.9428 -2.3257
 9079SOL     OW38869   1.393   3.946   7.412 -0.2235  0.4876 -0.5452
 9079SOL    HW138870   1.345   3.885   7.468  1.3235  1.1746  1.5459
 9079SOL    HW238871   1.315   3.986   7.371 -0.1588  0.5495 -0.6078
 9080SOL     OW38872   4.436   3.212   2.881 -0.0820 -0.4723 -0.4231
 9080SOL    HW138873   4.395   3.182   2.962  1.0731  0.7290  0.6044
 9080SOL    HW238874   4.524   3.174   2.881  0.7143  1.3935 -1.3876
 9081SOL     OW38875   1.448   1.703   5.024  0.0669  0.7272 -0.3600
 9081SOL    HW138876   1.498   1.632   5.062  1.5392  1.8955 -0.0844
 9081SOL    HW238877   1.441   1.686   4.930  1.8531 -0.2486 -0.3191
 9082SOL     OW38878   1.564   0.771   9.226  0.1520  0.2062  0.3651
 9082SOL    HW138879   1.601   0.858   9.243  2.2910 -0.6691  0.1739
 9082SOL    HW238880   1.549   0.742   9.316 -1.2576  3.5565  1.2465
 9083SOL     OW38881   0.537   1.133   7.704 -0.1649 -0.4667 -0.6137
 9083SOL    HW138882   0.560   1.199   7.639  0.3198  0.4799  0.5282
 9083SOL    HW238883   0.453   1.092   7.683 -0.8133  0.5733 -0.0284
 9084SOL     OW38884   4.089   1.938   2.908  0.1736  0.0430  0.3137
 9084SOL    HW138885   4.019   1.887   2.948  1.8443 -0.9526  1.9787
 9084SOL    HW238886   4.157   1.939   2.976  1.2040 -1.3428 -0.6867
 9085SOL     OW38887   4.028   1.510   7.793 -0.2291  0.3097 -0.5336
 9085SOL    HW138888   3.957   1.547   7.845 -0.2926 -0.2421 -0.2272
 9085SOL    HW238889   4.028   1.414   7.801  1.5283  0.3321 -0.2755
 9086SOL     OW38890   0.511   2.628   4.581  0.0736 -0.4266  0.4046
 9086SOL    HW138891   0.427   2.625   4.535 -0.4084 -1.4494  1.3441
 9086SOL    HW238892   0.575   2.621   4.511  0.1935 -0.4659  0.5190
 9087SOL     OW38893   0.979   3.462   2.349  0.3373 -0.5422 -0.4204
 9087SOL    HW138894   1.068   3.441   2.321  0.5388 -0.6421  0.3052
 9087SOL    HW238895   0.975   3.557   2.337  1.4550 -0.3221  0.9797
 9088SOL     OW38896   1.071   0.322   6.278  0.1265 -0.2116 -0.0465
 9088SOL    HW138897   1.026   0.276   6.349  0.1492 -2.0006 -1.2121
 9088SOL    HW238898   0.996   0.319   6.219 -0.7297  1.0398  0.9600
 9089SOL     OW38899   1.239   1.562  14.675 -0.0052 -0.2933  0.2369
 9089SOL    HW138900   1.307   1.627  14.688  0.4535 -0.5403 -0.9008
 9089SOL    HW238901   1.226   1.523  14.762 -1.0832 -0.4073  0.0260
 9090SOL     OW38902   4.295   2.971  12.553 -0.3842  0.1953 -0.6685
 9090SOL    HW138903   4.325   2.910  12.621 -0.9319 -0.7421 -1.2725
 9090SOL    HW238904   4.201   2.957  12.557 -0.6118  2.0019  0.5244
 9091SOL     OW38905   0.520   2.911  10.291  0.0996  0.9776  0.6565
 9091SOL    HW138906   0.449   2.968  10.319 -0.2712  0.5910  0.5060
 9091SOL    HW238907   0.538   2.948  10.205  0.1013  1.8416  1.0322
 9092SOL     OW38908   3.738   4.035   4.490  0.1805  0.6233 -0.1651
 9092SOL    HW138909   3.710   4.126   4.496 -0.9219  0.3717 -1.7101
 9092SOL    HW238910   3.663   3.992   4.531  2.2438 -0.8890  2.0064
 9093SOL     OW38911   2.481   2.294   5.427 -0.1231 -0.0680  0.4574
 9093SOL    HW138912   2.400   2.335   5.397 -0.6701 -1.7663 -0.3704
 9093SOL    HW238913   2.516   2.361   5.486  0.8842  1.8339 -2.2726
 9094SOL     OW38914   2.298   4.335  12.908  0.7295 -0.4255  0.3914
 9094SOL    HW138915   2.269   4.246  12.887  1.7285 -1.2810  2.6128
 9094SOL    HW238916   2.305   4.331  13.003 -0.2542  2.2968  0.5978
 9095SOL     OW38917   4.659   0.190   3.371 -0.2289 -0.0042  0.0259
 9095SOL    HW138918   4.701   0.206   3.456  2.1693 -1.3669 -0.9120
 9095SOL    HW238919   4.593   0.258   3.362 -0.2799 -0.4060 -2.4972
 9096SOL     OW38920   1.044   0.224  15.489  0.4951 -0.2618 -0.3594
 9096SOL    HW138921   0.997   0.144  15.464 -0.6492  0.3989 -0.3061
 9096SOL    HW238922   0.991   0.289  15.442  1.3332  1.1619  0.6674
 9097SOL     OW38923   2.030   3.566   9.835  0.3816  0.1314  0.2176
 9097SOL    HW138924   2.098   3.569   9.769 -1.2492 -1.5199 -1.5292
 9097SOL    HW238925   1.949   3.563   9.784  2.1030 -0.6638 -2.4629
 9098SOL     OW38926   0.587   3.520   8.061  0.5382  0.4924  0.8296
 9098SOL    HW138927   0.581   3.573   8.140 -1.2365 -0.1598  1.1287
 9098SOL    HW238928   0.500   3.484   8.043  1.2034 -0.1699 -0.9681
 9099SOL     OW38929   2.526   2.838   4.677  0.6782  0.4094 -0.2682
 9099SOL    HW138930   2.452   2.812   4.622 -2.8781  3.5102  3.1451
 9099SOL    HW238931   2.498   2.813   4.765 -1.2192 -0.2973 -1.0815
 9100SOL     OW38932   3.569   4.520   2.676  0.3839  0.2561 -0.3506
 9100SOL    HW138933   3.653   4.482   2.651 -0.0331 -0.2317 -1.0146
 9100SOL    HW238934   3.553   4.470   2.756 -0.3478  2.3807  0.8244
 9101SOL     OW38935   1.268   3.773   7.568 -0.1571 -0.1126  0.2851
 9101SOL    HW138936   1.220   3.792   7.648  1.9621  2.0584  1.0462
 9101SOL    HW238937   1.262   3.678   7.577  0.6148  0.0431  2.5492
 9102SOL     OW38938   4.244   2.384   8.919  0.1215  0.2957 -0.1949
 9102SOL    HW138939   4.225   2.415   9.007 -1.2253  1.9453 -1.0746
 9102SOL    HW238940   4.179   2.315   8.914  0.2308  0.1495  0.4059
 9103SOL     OW38941   4.425   0.801   4.877  0.4342 -0.1093 -0.0927
 9103SOL    HW138942   4.353   0.749   4.841  3.5469 -2.0440 -3.5079
 9103SOL    HW238943   4.434   0.875   4.817  2.5570 -0.5211 -0.2651
 9104SOL     OW38944   0.162   1.702   1.340  0.4595  0.0161 -0.0785
 9104SOL    HW138945   0.222   1.631   1.363  0.4341  0.5323  1.5925
 9104SOL    HW238946   0.155   1.682   1.247  0.8097  0.5580 -0.2208
 9105SOL     OW38947   2.848   4.223  11.493  0.0473 -0.1016  0.1544
 9105SOL    HW138948   2.929   4.252  11.449 -1.6378 -0.1388 -2.9668
 9105SOL    HW238949   2.869   4.130  11.501  1.9474  0.3352  0.4261
 9106SOL     OW38950   0.411   3.762   7.920  0.2146  0.1478 -0.5699
 9106SOL    HW138951   0.400   3.849   7.881  1.3391  1.2151  1.4813
 9106SOL    HW238952   0.408   3.792   8.011 -1.7853 -1.6564 -0.0563
 9107SOL     OW38953   4.509   4.444   6.459 -0.5944  0.2507 -0.1057
 9107SOL    HW138954   4.462   4.442   6.375  0.0222 -1.7190 -0.3940
 9107SOL    HW238955   4.437   4.442   6.522 -0.3512  0.7074  0.1888
 9108SOL     OW38956   3.834   0.197   4.022  0.0099  0.2519 -0.6896
 9108SOL    HW138957   3.765   0.253   3.985  1.6820  1.3654 -2.1103
 9108SOL    HW238958   3.854   0.249   4.099 -2.3080 -0.5063  0.4141
 9109SOL     OW38959   3.218   4.036   5.981 -0.4847  0.0413  0.0230
 9109SOL    HW138960   3.263   4.048   6.064  1.6026  0.5873 -1.1763
 9109SOL    HW238961   3.271   4.102   5.936  1.9815  0.2246  3.1655
 9110SOL     OW38962   2.782   2.772   0.872 -0.4897  0.3735  0.3174
 9110SOL    HW138963   2.698   2.781   0.917  0.1722 -0.5720  1.7435
 9110SOL    HW238964   2.790   2.677   0.887 -1.1081  0.3873  0.7424
 9111SOL     OW38965   0.272   2.017   2.339 -0.8303 -0.0714  0.0815
 9111SOL    HW138966   0.252   2.054   2.425  0.5958  0.1394  0.3314
 9111SOL    HW238967   0.339   1.957   2.373  0.0842  1.2467  0.6098
 9112SOL     OW38968   4.204   4.307  15.214  0.4754  0.3897 -0.1228
 9112SOL    HW138969   4.168   4.273  15.296  0.6710  0.2984 -0.0734
 9112SOL    HW238970   4.122   4.311  15.165 -0.8157 -1.3079  1.8627
 9113SOL     OW38971   2.731   1.691   7.329 -0.4504  0.1665 -0.3447
 9113SOL    HW138972   2.781   1.610   7.333  0.4855  0.8310  1.1547
 9113SOL    HW238973   2.791   1.757   7.362  0.2955 -2.4966  3.5907
 9114SOL     OW38974   0.979   0.337   8.023 -0.0717  0.0647  0.1588
 9114SOL    HW138975   0.962   0.414   7.970 -0.8728 -0.2009  0.0365
 9114SOL    HW238976   0.892   0.327   8.063  0.1143  1.3492  0.8698
 9115SOL     OW38977   1.383   4.160   5.894  0.8381 -0.1233 -0.4595
 9115SOL    HW138978   1.394   4.075   5.851 -1.3479 -0.5175 -0.1928
 9115SOL    HW238979   1.357   4.211   5.817 -1.0673 -0.2964  0.0924
 9116SOL     OW38980   4.669   0.220  11.369  0.7019 -0.3603  0.0186
 9116SOL    HW138981   4.697   0.229  11.460 -0.2953 -1.6746  0.4642
 9116SOL    HW238982   4.714   0.288  11.319 -0.1188  1.2014  1.4144
 9117SOL     OW38983   4.288   4.723   0.427  0.1526 -0.3186 -0.1430
 9117SOL    HW138984   4.351   0.048   0.470  0.2645  0.8696 -1.9257
 9117SOL    HW238985   4.344   4.663   0.378 -1.6016 -1.2551 -1.0244
 9118SOL     OW38986   2.186   2.133   5.107  0.0681  0.1462  0.3994
 9118SOL    HW138987   2.156   2.063   5.049  2.6797 -1.6652  1.1911
 9118SOL    HW238988   2.119   2.201   5.098  0.8031  0.7384 -0.6493
 9119SOL     OW38989   4.573   1.754   4.200 -0.4856 -0.0161 -0.5893
 9119SOL    HW138990   4.483   1.764   4.170  0.4494  2.1406 -2.6641
 9119SOL    HW238991   4.623   1.809   4.139 -0.4777  1.2273  0.5365
 9120SOL     OW38992   4.137   3.828   8.360 -0.1450 -0.2610  0.2425
 9120SOL    HW138993   4.050   3.808   8.395 -0.6557 -1.8891 -1.9268
 9120SOL    HW238994   4.130   3.788   8.274  2.3482 -0.0744 -0.0424
 9121SOL     OW38995   3.450   3.035  12.155  0.1030 -0.6274  0.1007
 9121SOL    HW138996   3.538   3.064  12.131  0.2534 -0.0923  1.2967
 9121SOL    HW238997   3.468   2.959  12.210 -0.8298  0.2879  1.6604
 9122SOL     OW38998   3.392   4.330   8.490  0.6963  0.6051 -0.2517
 9122SOL    HW138999   3.446   4.301   8.563  0.7711 -2.5083 -1.5462
 9122SOL    HW239000   3.348   4.249   8.465  0.8320 -0.3875  2.8312
 9123SOL     OW39001   3.834   1.700   2.094 -0.6002 -0.8354 -0.2000
 9123SOL    HW139002   3.805   1.685   2.004 -2.8731 -1.0075  0.5553
 9123SOL    HW239003   3.785   1.776   2.125 -0.5884 -0.9435  0.0839
 9124SOL     OW39004   2.353   2.857  16.316  0.2946 -0.3493  0.3363
 9124SOL    HW139005   2.299   2.894  16.386  0.6744 -0.1204  0.5062
 9124SOL    HW239006   2.382   2.774  16.355  0.2422 -1.0073 -1.0045
 9125SOL     OW39007   1.065   1.626   7.021  0.4556  0.9656  0.3917
 9125SOL    HW139008   0.983   1.674   7.024 -0.7550 -0.9868 -1.4753
 9125SOL    HW239009   1.122   1.684   7.071 -0.3283  2.6106 -0.6355
 9126SOL     OW39010   0.522   3.131   9.037  0.0299  0.1349 -0.4509
 9126SOL    HW139011   0.580   3.182   8.981  0.2222 -0.8402 -1.1499
 9126SOL    HW239012   0.461   3.197   9.071 -1.0909 -1.0026 -0.2465
 9127SOL     OW39013   3.347   4.688   7.232 -0.2228 -0.2470  0.3994
 9127SOL    HW139014   3.432   4.725   7.253 -0.0351  0.5686 -1.8367
 9127SOL    HW239015   3.294   0.031   7.209 -0.0226 -0.7805 -1.8866
 9128SOL     OW39016   1.289   3.569   0.178  0.0316  0.0018  0.0422
 9128SOL    HW139017   1.379   3.575   0.210 -0.8553  1.0071  2.3823
 9128SOL    HW239018   1.269   3.484   0.218 -1.0164  0.0039 -0.4846
 9129SOL     OW39019   1.249   0.470   9.893  0.4941  0.1934 -0.9417
 9129SOL    HW139020   1.282   0.478   9.804  0.9441 -0.6835 -0.8542
 9129SOL    HW239021   1.214   0.381   9.896 -0.6403  0.6298 -1.4720
 9130SOL     OW39022   3.141   2.018   6.462 -0.4884 -0.5239 -0.1542
 9130SOL    HW139023   3.105   2.003   6.375  1.9202 -0.5562 -1.1457
 9130SOL    HW239024   3.095   1.944   6.502  0.8175 -1.4138 -0.2773
 9131SOL     OW39025   3.343   1.840  12.268 -0.0935 -0.3202 -0.4628
 9131SOL    HW139026   3.352   1.932  12.246  0.3675 -0.3605 -0.4568
 9131SOL    HW239027   3.375   1.798  12.188  1.1745  0.4807 -0.3686
 9132SOL     OW39028   3.661   2.100   0.819 -0.4268  0.3031  0.0012
 9132SOL    HW139029   3.681   2.193   0.825 -0.0664  0.1747  0.7831
 9132SOL    HW239030   3.586   2.088   0.878 -0.0159  3.0746  1.0637
 9133SOL     OW39031   2.625   2.679   3.343 -0.3778  0.0264 -0.6625
 9133SOL    HW139032   2.541   2.690   3.299 -0.8780  1.5388  0.6705
 9133SOL    HW239033   2.641   2.770   3.368  0.6175  0.2570 -2.1420
 9134SOL     OW39034   3.766   2.496   3.325 -0.3252  0.3342 -0.4449
 9134SOL    HW139035   3.696   2.516   3.388 -2.3594 -1.2878 -2.1854
 9134SOL    HW239036   3.735   2.540   3.246 -2.7382  1.8094  1.3348
 9135SOL     OW39037   0.447   2.231  14.597 -0.2100  0.2918 -0.2730
 9135SOL    HW139038   0.532   2.203  14.563 -0.6242 -2.5853  1.0666
 9135SOL    HW239039   0.384   2.217  14.526  0.9383 -0.7760 -1.0766
 9136SOL     OW39040   3.049   0.370   0.861 -0.2488  0.9982  0.5507
 9136SOL    HW139041   2.972   0.317   0.838 -0.3383  0.9279  1.0087
 9136SOL    HW239042   3.084   0.383   0.774  1.9756  1.1005  1.4685
 9137SOL     OW39043   2.153   2.978  12.018 -0.2810 -0.0565 -0.2265
 9137SOL    HW139044   2.225   2.917  12.007  1.8653  2.5489 -0.5525
 9137SOL    HW239045   2.100   2.928  12.080  0.9530 -0.1271  0.7510
 9138SOL     OW39046   1.241   2.173   4.439  0.1179 -0.2382 -0.1935
 9138SOL    HW139047   1.224   2.129   4.356  0.8332  1.4546 -1.2403
 9138SOL    HW239048   1.336   2.171   4.435  0.1991  0.5267  1.3838
 9139SOL     OW39049   2.602   2.926   3.470 -0.3894  0.2010  0.0498
 9139SOL    HW139050   2.644   3.008   3.444  0.3893  0.1063  1.0130
 9139SOL    HW239051   2.513   2.953   3.493 -0.1568  0.8893  0.1520
 9140SOL     OW39052   0.603   0.002   4.208 -0.3362  0.0684  0.9609
 9140SOL    HW139053   0.578   4.706   4.121 -0.3912 -0.1473  1.0471
 9140SOL    HW239054   0.620   0.095   4.195  0.2872 -0.4215 -1.6753
 9141SOL     OW39055   4.252   3.040   7.695 -0.2431  0.4752 -0.1540
 9141SOL    HW139056   4.190   3.054   7.623 -1.2449 -2.3094  0.1794
 9141SOL    HW239057   4.195   2.989   7.753  0.5027 -0.2759 -0.0877
 9142SOL     OW39058   2.105   3.073   5.435 -0.3181 -0.0849 -0.1482
 9142SOL    HW139059   2.019   3.061   5.474 -0.1872  0.0493  0.1892
 9142SOL    HW239060   2.090   3.066   5.341  1.2291  2.5461 -0.5998
 9143SOL     OW39061   1.946   3.718   8.897  0.0604 -0.2688 -0.1307
 9143SOL    HW139062   1.986   3.740   8.981  0.4304 -0.5801 -0.2196
 9143SOL    HW239063   1.902   3.797   8.869  0.8441  0.8269  1.7347
 9144SOL     OW39064   0.003   2.820  10.451  0.6804  0.5507 -0.3388
 9144SOL    HW139065   4.718   2.913  10.464  1.2477  0.7135 -0.7589
 9144SOL    HW239066   0.011   2.815  10.356 -1.6866 -0.4171 -0.4940
 9145SOL     OW39067   1.830   0.324   8.419 -0.7355 -0.5531 -0.1108
 9145SOL    HW139068   1.784   0.363   8.494 -2.9737 -1.6789 -0.9101
 9145SOL    HW239069   1.754   0.290   8.372  0.0749 -2.0375 -0.3482
 9146SOL     OW39070   1.159   1.507  10.962 -0.5320  0.2067 -0.3158
 9146SOL    HW139071   1.171   1.424  10.917 -1.2779  0.0404 -0.2015
 9146SOL    HW239072   1.156   1.481  11.054 -1.2346 -1.9399 -0.9598
 9147SOL     OW39073   1.567   3.721   7.457  0.0560  0.1555 -0.5462
 9147SOL    HW139074   1.654   3.759   7.442  1.3915 -3.1822 -1.2381
 9147SOL    HW239075   1.517   3.802   7.464  2.0358  1.4450 -1.2849
 9148SOL     OW39076   0.806   1.963  12.291 -0.6405  0.2505 -0.2115
 9148SOL    HW139077   0.719   1.927  12.274 -0.0341 -2.0495  1.6498
 9148SOL    HW239078   0.811   2.051  12.254 -0.9235 -0.5215 -2.0777
 9149SOL     OW39079   2.093   4.572   3.030 -0.2172 -0.0341  0.1834
 9149SOL    HW139080   2.017   4.537   3.078 -1.0693  1.5986  0.0264
 9149SOL    HW239081   2.144   4.504   2.987  2.1797  0.8577  1.6342
 9150SOL     OW39082   0.611   0.986   0.558 -0.5404  0.6946 -0.6449
 9150SOL    HW139083   0.522   0.983   0.593  0.1291  0.0484  0.9737
 9150SOL    HW239084   0.587   0.970   0.466  3.4801  1.3628 -1.8191
 9151SOL     OW39085   2.446   1.577   3.592 -0.2889 -0.1459 -0.1783
 9151SOL    HW139086   2.538   1.594   3.570  0.0146  0.0163  1.2616
 9151SOL    HW239087   2.437   1.482   3.583 -0.2654 -0.2063  0.4914
 9152SOL     OW39088   3.491   0.133   3.408 -0.0566 -0.0572 -0.2961
 9152SOL    HW139089   3.492   0.068   3.478 -1.5337 -0.2395 -0.4448
 9152SOL    HW239090   3.566   0.186   3.435 -0.6377  0.6561 -0.0540
 9153SOL     OW39091   1.241   3.367   2.282  0.2446  0.2567 -0.1298
 9153SOL    HW139092   1.231   3.280   2.244  2.4022 -0.5820  1.1642
 9153SOL    HW239093   1.291   3.340   2.360 -0.7014  1.5059  0.9034
 9154SOL     OW39094   0.591   4.141   3.909 -0.1241  0.2646 -0.0293
 9154SOL    HW139095   0.514   4.197   3.894 -0.2894  0.1913  0.5480
 9154SOL    HW239096   0.558   4.095   3.986 -1.1384 -1.1548 -1.3268
 9155SOL     OW39097   3.547   0.367   5.840 -0.3531 -0.1616  0.3299
 9155SOL    HW139098   3.538   0.425   5.765  0.9342 -1.0246 -0.4937
 9155SOL    HW239099   3.457   0.365   5.873 -0.2837  0.3663  0.5528
 9156SOL     OW39100   3.788   2.516  15.157  0.0384  0.4739  0.6431
 9156SOL    HW139101   3.872   2.539  15.118 -0.5213  2.4617  0.5964
 9156SOL    HW239102   3.759   2.465  15.082 -0.1395  0.5438  0.6640
 9157SOL     OW39103   1.760   3.979   2.814 -0.3795  0.6445 -0.6863
 9157SOL    HW139104   1.815   4.044   2.858  0.4967 -1.1468  0.8888
 9157SOL    HW239105   1.824   3.908   2.800 -0.1056  0.2648  2.5250
 9158SOL     OW39106   1.658   4.732   3.234 -0.1348  0.3644 -0.3319
 9158SOL    HW139107   1.719   4.718   3.307 -0.7774  0.4328  0.2127
 9158SOL    HW239108   1.574   0.001   3.280 -0.6781  1.5785 -1.3746
 9159SOL     OW39109   3.214   4.193  12.270 -0.1661  0.4845  0.0102
 9159SOL    HW139110   3.155   4.166  12.199 -0.8815 -1.7282  1.4606
 9159SOL    HW239111   3.230   4.116  12.324  1.1397 -0.0887 -1.1964
 9160SOL     OW39112   1.288   1.483   0.620 -0.1580 -0.0249 -0.4964
 9160SOL    HW139113   1.261   1.412   0.561  0.3682  0.3204 -1.1529
 9160SOL    HW239114   1.201   1.520   0.605  0.5698  1.4736 -0.9858
 9161SOL     OW39115   0.669   0.518   4.963 -0.6706 -0.2526 -0.1011
 9161SOL    HW139116   0.695   0.491   5.052 -1.4526  0.1622  0.2570
 9161SOL    HW239117   0.672   0.614   4.970  1.0873 -0.2938 -0.3505
 9162SOL     OW39118   3.668   2.633   1.526 -0.3207  0.5004 -0.3366
 9162SOL    HW139119   3.689   2.724   1.545 -0.9166  0.4662  0.4741
 9162SOL    HW239120   3.621   2.621   1.608  0.6862  0.2883  0.2041
 9163SOL     OW39121   0.356   1.670   6.808 -0.3107  0.6088 -0.1495
 9163SOL    HW139122   0.349   1.705   6.719  0.6338  2.5575  0.5476
 9163SOL    HW239123   0.267   1.662   6.840 -0.5266  0.1953 -0.8385
 9164SOL     OW39124   1.951   3.143   8.866 -0.3265  0.1556 -0.8711
 9164SOL    HW139125   2.027   3.182   8.823  0.5652 -0.3342  0.2600
 9164SOL    HW239126   1.979   3.063   8.910  1.4093  1.6480  0.7146
 9165SOL     OW39127   4.620   2.025  12.700 -0.0342  0.1593 -0.2477
 9165SOL    HW139128   4.553   1.967  12.664  1.0198 -0.4329 -1.2315
 9165SOL    HW239129   4.579   2.103  12.663 -0.9745  0.6874  1.8722
 9166SOL     OW39130   1.116   0.029  10.453 -0.0418 -0.7151 -0.0886
 9166SOL    HW139131   1.177   4.715  10.395 -0.6476 -1.3066 -0.2501
 9166SOL    HW239132   1.048   0.069  10.398 -0.1656  2.2923  2.2543
 9167SOL     OW39133   3.457   2.397   6.881  0.5278  0.1369 -0.0438
 9167SOL    HW139134   3.398   2.406   6.956 -2.3617 -0.6368 -2.1985
 9167SOL    HW239135   3.544   2.390   6.919 -0.2920 -2.3616  1.4100
 9168SOL     OW39136   3.794   1.546   9.776  0.5002  0.3873  0.1233
 9168SOL    HW139137   3.784   1.548   9.681  0.8282 -0.9616  0.0624
 9168SOL    HW239138   3.835   1.460   9.784 -0.8751 -0.2564  0.3418
 9169SOL     OW39139   0.519   0.860   5.679  0.0292 -0.1895 -0.0784
 9169SOL    HW139140   0.527   0.799   5.752  1.2865 -0.8509 -0.7673
 9169SOL    HW239141   0.475   0.932   5.724  0.3994  0.4680 -0.7645
 9170SOL     OW39142   1.430   4.458   8.788 -0.0923  0.4773  0.2875
 9170SOL    HW139143   1.402   4.522   8.853 -2.3702 -0.6816  0.4200
 9170SOL    HW239144   1.410   4.377   8.834 -0.1179  0.0663 -0.4469
 9171SOL     OW39145   0.735   4.391  12.586 -0.3574 -0.0116 -0.1075
 9171SOL    HW139146   0.770   4.479  12.572 -1.8297  0.4871 -0.5792
 9171SOL    HW239147   0.815   4.342  12.567 -1.1119 -1.8619  1.4123
 9172SOL     OW39148   4.140   1.605   2.976 -0.6061 -0.4419 -0.1986
 9172SOL    HW139149   4.213   1.623   2.917  0.3259 -1.0007  0.7977
 9172SOL    HW239150   4.118   1.689   3.017 -1.4520 -2.0714  2.6522
 9173SOL     OW39151   1.853   0.895  13.118  0.0758  0.1788 -0.8552
 9173SOL    HW139152   1.936   0.866  13.157 -0.7405  1.5838  1.9023
 9173SOL    HW239153   1.823   0.830  13.054  1.0272  0.6059 -1.7503
 9174SOL     OW39154   0.423   2.186   8.571 -0.3256 -0.6951  0.0043
 9174SOL    HW139155   0.488   2.226   8.629 -1.5354  0.3994  0.5991
 9174SOL    HW239156   0.344   2.199   8.623  0.1646 -1.3125  0.8923
 9175SOL     OW39157   3.204   4.421   1.810  0.2876  0.1637 -0.5983
 9175SOL    HW139158   3.226   4.372   1.731  0.4880  2.5668 -2.0330
 9175SOL    HW239159   3.123   4.384   1.843 -0.4672  0.9297 -1.6208
 9176SOL     OW39160   1.081   1.077   3.527 -0.3474  0.3552 -0.0082
 9176SOL    HW139161   1.022   1.076   3.602 -0.8831 -1.4937 -0.4566
 9176SOL    HW239162   1.164   1.057   3.570  0.1954  1.6493 -0.4557
 9177SOL     OW39163   4.610   0.607  13.103 -0.0164 -0.0201  0.2878
 9177SOL    HW139164   4.658   0.659  13.168  2.7678  1.5984 -3.0267
 9177SOL    HW239165   4.620   0.517  13.135  2.9657  0.2972  0.3281
 9178SOL     OW39166   3.335   0.803   3.902 -0.1162 -0.2108  0.3661
 9178SOL    HW139167   3.411   0.852   3.871 -0.1505  0.9827  2.1570
 9178SOL    HW239168   3.271   0.835   3.838  1.0848  1.6178  0.0851
 9179SOL     OW39169   0.745   2.013   7.350  0.0910  0.5537  0.3872
 9179SOL    HW139170   0.827   2.039   7.307  0.3019 -0.4026  0.2165
 9179SOL    HW239171   0.772   1.967   7.429 -0.5157  1.0062  0.8628
 9180SOL     OW39172   0.548   4.273  15.961  0.3665  0.4620  0.1756
 9180SOL    HW139173   0.462   4.262  15.921 -1.4489 -1.5078  4.5249
 9180SOL    HW239174   0.567   4.367  15.967  0.9065  0.4382 -1.2073
 9181SOL     OW39175   4.519   4.689   1.601 -0.6727 -0.6991 -0.6122
 9181SOL    HW139176   4.518   0.052   1.596 -1.2647 -0.7017 -0.4554
 9181SOL    HW239177   4.439   4.666   1.648  0.5682 -0.3223  1.6739
 9182SOL     OW39178   1.910   0.317   7.565  0.4578  0.0467 -0.1358
 9182SOL    HW139179   1.835   0.373   7.586 -0.0353 -0.5890 -0.1955
 9182SOL    HW239180   1.932   0.355   7.480  0.2007 -0.5684 -0.4827
 9183SOL     OW39181   4.596   2.517   6.174 -0.2534 -0.5748 -0.3233
 9183SOL    HW139182   4.633   2.494   6.088 -0.4541  0.1481 -0.6027
 9183SOL    HW239183   4.506   2.495   6.149 -0.6546 -0.0273  0.6328
 9184SOL     OW39184   1.385   1.471   4.247  0.1945  0.0053 -0.3450
 9184SOL    HW139185   1.425   1.532   4.185 -0.5640  0.5193 -0.3369
 9184SOL    HW239186   1.297   1.450   4.215 -0.2613  0.2030  0.7537
 9185SOL     OW39187   2.882   4.100  13.501  0.0465  0.3760 -0.0976
 9185SOL    HW139188   2.830   4.162  13.551  0.3231 -1.4795  2.4980
 9185SOL    HW239189   2.970   4.095  13.538  0.4990 -0.3478 -1.2553
 9186SOL     OW39190   4.258   3.585   0.128  0.1031 -0.7448 -0.2937
 9186SOL    HW139191   4.251   3.637   0.048  2.5533 -1.2607 -0.8441
 9186SOL    HW239192   4.189   3.619   0.185  0.7936 -1.3352  0.8882
 9187SOL     OW39193   4.361   0.077   0.052 -0.7101  0.4599 -0.0980
 9187SOL    HW139194   4.325   4.721   0.059 -0.7653  0.3523 -1.7922
 9187SOL    HW239195   4.336   0.092  17.691  0.7533 -3.1966 -1.1107
 9188SOL     OW39196   2.385   4.135   6.491 -0.5175 -0.5603  0.5034
 9188SOL    HW139197   2.380   4.041   6.475  1.9771 -0.7833  1.0046
 9188SOL    HW239198   2.293   4.157   6.504  0.2373  2.9322 -0.0571
 9189SOL     OW39199   2.698   0.518   7.094 -0.0080 -0.0886  0.1000
 9189SOL    HW139200   2.735   0.547   7.177 -1.6919  0.7720  0.5541
 9189SOL    HW239201   2.610   0.491   7.119  0.1784 -1.1710 -0.3875
 9190SOL     OW39202   0.658   2.105  16.936 -0.0323 -0.3878  0.1133
 9190SOL    HW139203   0.587   2.148  16.985  0.5069 -0.9294  1.3848
 9190SOL    HW239204   0.672   2.029  16.993 -2.1724 -0.6545  0.2975
 9191SOL     OW39205   2.639   2.437  15.980 -0.3967 -0.4005 -0.2021
 9191SOL    HW139206   2.608   2.393  15.901  1.6707 -0.9765 -0.7117
 9191SOL    HW239207   2.725   2.467  15.950 -0.1207 -0.9774  0.0186
 9192SOL     OW39208   2.231   0.547   6.128  0.4136  0.3190 -0.2930
 9192SOL    HW139209   2.306   0.522   6.074  0.6064 -1.9089  1.0161
 9192SOL    HW239210   2.219   0.638   6.100 -1.5298  1.1008  3.1508
 9193SOL     OW39211   2.882   0.291   1.451 -0.1316  0.5577  0.0445
 9193SOL    HW139212   2.962   0.340   1.432 -0.3664  0.3516 -1.5114
 9193SOL    HW239213   2.900   0.251   1.536  0.3204 -2.0251 -1.2627
 9194SOL     OW39214   1.062   1.977   2.320 -0.0500 -0.1587  0.2779
 9194SOL    HW139215   1.045   1.981   2.226  1.2038 -0.0762  0.0560
 9194SOL    HW239216   1.068   2.070   2.343 -1.8959 -0.1098  0.5224
 9195SOL     OW39217   3.983   0.250  16.725  0.1423 -0.5081  0.1844
 9195SOL    HW139218   3.900   0.220  16.763  0.2614 -0.6690  0.3155
 9195SOL    HW239219   3.950   0.317  16.665 -1.2247 -2.6265 -1.4098
 9196SOL     OW39220   1.538   2.843   4.598  0.0606 -0.1250  0.1159
 9196SOL    HW139221   1.480   2.919   4.594  3.4469  2.4866 -0.0430
 9196SOL    HW239222   1.524   2.802   4.513  0.2851  1.1070 -0.5211
 9197SOL     OW39223   2.376   3.012   7.640  0.5541 -0.3844  0.1663
 9197SOL    HW139224   2.371   2.920   7.666 -0.9227 -0.0450  1.0523
 9197SOL    HW239225   2.363   3.008   7.545  0.6204  0.0852  0.1398
 9198SOL     OW39226   2.735   0.125  10.379  0.2439 -0.0710 -0.2596
 9198SOL    HW139227   2.704   0.084  10.298  0.6062 -0.5493 -0.1572
 9198SOL    HW239228   2.706   0.067  10.450 -0.4495  0.6195  0.0092
 9199SOL     OW39229   3.020   1.321   5.802  0.2782  0.1551  0.3825
 9199SOL    HW139230   3.090   1.299   5.863 -0.4767  1.1832  1.6052
 9199SOL    HW239231   2.953   1.259   5.831  0.0329 -0.1670 -0.8743
 9200SOL     OW39232   4.238   3.008   9.534 -0.1687 -0.3051  0.0196
 9200SOL    HW139233   4.293   2.964   9.470 -2.1917 -4.8974  1.4506
 9200SOL    HW239234   4.207   2.933   9.584  1.5384  0.8234  2.7753
 9201SOL     OW39235   0.033   4.182   1.673 -0.1365 -0.1792 -0.4994
 9201SOL    HW139236   0.078   4.176   1.589  0.0911 -0.3876 -0.3643
 9201SOL    HW239237   4.724   4.268   1.669  1.7348  0.7031 -0.8669
 9202SOL     OW39238   1.835   0.945  11.808  0.6290 -0.5061 -0.5359
 9202SOL    HW139239   1.820   1.039  11.816  1.7211 -0.3888  0.2084
 9202SOL    HW239240   1.834   0.911  11.898  3.6043  0.4676 -0.1501
 9203SOL     OW39241   0.721   2.625   5.091 -0.0437  0.4139 -0.6290
 9203SOL    HW139242   0.799   2.680   5.081  0.7141 -0.1114  2.5344
 9203SOL    HW239243   0.698   2.601   5.001 -0.7347 -2.6591  0.3575
 9204SOL     OW39244   0.433   0.042   1.348 -0.1938 -0.0873 -0.0800
 9204SOL    HW139245   0.346   0.048   1.309  0.3961 -1.1754 -1.5440
 9204SOL    HW239246   0.422   4.692   1.396 -3.1669  0.2640 -0.1956
 9205SOL     OW39247   3.153   0.141   3.451  0.1190 -0.0038 -0.0708
 9205SOL    HW139248   3.100   0.220   3.441  1.0875  0.3647 -2.2559
 9205SOL    HW239249   3.239   0.166   3.417  0.1712 -1.4994 -1.0226
 9206SOL     OW39250   0.600   3.888   5.897 -0.0234 -0.6083 -0.0186
 9206SOL    HW139251   0.558   3.972   5.917 -0.4377 -0.8764  0.2452
 9206SOL    HW239252   0.521   3.843   5.866  0.1096  0.1935 -1.5509
 9207SOL     OW39253   4.359   3.494   8.082 -0.1437  0.6700 -0.2361
 9207SOL    HW139254   4.314   3.541   8.012  0.4610 -0.9150 -1.6885
 9207SOL    HW239255   4.292   3.492   8.149  0.5796 -2.3139  0.3944
 9208SOL     OW39256   2.016   2.422   1.939  0.6971  0.1927  0.4472
 9208SOL    HW139257   2.031   2.360   1.868  0.9680  0.1890  0.5085
 9208SOL    HW239258   2.101   2.431   1.982  0.8278  1.7049 -0.0933
 9209SOL     OW39259   0.827   3.923  13.176 -0.4752  0.6512 -0.0367
 9209SOL    HW139260   0.854   3.842  13.220 -3.0112 -0.0805  0.1262
 9209SOL    HW239261   0.799   3.975  13.250 -0.2128  0.4169  0.2296
 9210SOL     OW39262   4.173   2.592   4.873 -0.4257  0.1117  0.4828
 9210SOL    HW139263   4.260   2.554   4.859 -0.1517  1.5961 -1.8031
 9210SOL    HW239264   4.168   2.579   4.968  0.9285 -0.3375  0.4992
 9211SOL     OW39265   0.284   3.364   8.195  0.3092  0.5307  0.1186
 9211SOL    HW139266   0.202   3.318   8.177  1.0962 -0.6766 -0.3365
 9211SOL    HW239267   0.271   3.433   8.260 -2.4964  1.4901 -1.4496
 9212SOL     OW39268   4.214   4.248  17.664  0.3516  0.3013 -0.5070
 9212SOL    HW139269   4.177   4.160  17.656  0.5220  0.2225 -0.4383
 9212SOL    HW239270   4.265   4.262  17.585 -0.2319  3.3286 -0.3589
 9213SOL     OW39271   4.149   3.116   8.747  0.3692 -0.2641 -0.4395
 9213SOL    HW139272   4.199   3.194   8.771  0.6383  0.4989 -3.5037
 9213SOL    HW239273   4.146   3.067   8.829  1.9266 -1.2264 -0.9629
 9214SOL     OW39274   1.640   2.995   7.705 -0.0455 -0.3929 -0.0778
 9214SOL    HW139275   1.670   3.076   7.747  3.2476 -1.3815 -0.5295
 9214SOL    HW239276   1.636   3.024   7.613  1.5021  3.0742  0.9308
 9215SOL     OW39277   0.737   4.104  11.716  0.5184 -1.0172 -0.2585
 9215SOL    HW139278   0.795   4.120  11.642 -0.8581  2.8088 -0.5219
 9215SOL    HW239279   0.794   4.067  11.783 -1.0915 -1.9010  0.6217
 9216SOL     OW39280   2.708   0.485   2.749 -0.2389 -0.2473  0.6736
 9216SOL    HW139281   2.712   0.415   2.683 -2.7001  0.6626 -0.4392
 9216SOL    HW239282   2.761   0.449   2.820 -0.1170 -0.5551  0.4252
 9217SOL     OW39283   3.362   4.209   2.703 -0.5467  0.1011  0.1746
 9217SOL    HW139284   3.437   4.192   2.647 -0.2240 -1.2939  1.0280
 9217SOL    HW239285   3.300   4.142   2.672  0.7158 -1.0355  0.1210
 9218SOL     OW39286   1.860   0.264   4.433  0.1127  0.3416 -0.5956
 9218SOL    HW139287   1.832   0.356   4.424 -0.1898  0.5674  2.6592
 9218SOL    HW239288   1.781   0.213   4.451 -0.0142 -0.3884 -3.1779
 9219SOL     OW39289   3.142   2.541   6.256  0.0663  0.1499 -0.0151
 9219SOL    HW139290   3.227   2.558   6.296 -0.1852 -1.0870  1.0475
 9219SOL    HW239291   3.136   2.624   6.208 -0.3697  0.5089  0.6551
 9220SOL     OW39292   2.773   4.486   7.863 -0.1730 -0.5945 -0.2137
 9220SOL    HW139293   2.863   4.463   7.838  0.4028  1.2836  0.1712
 9220SOL    HW239294   2.773   4.472   7.958 -1.4680 -0.3948 -0.1909
 9221SOL     OW39295   1.157   4.310   3.991 -0.6013 -0.1286  0.7290
 9221SOL    HW139296   1.152   4.333   3.899  0.6875 -1.6875  0.2710
 9221SOL    HW239297   1.206   4.384   4.029  0.6538 -0.0800 -0.9835
 9222SOL     OW39298   1.109   1.868  13.416  0.0637  0.0974 -0.3456
 9222SOL    HW139299   1.204   1.861  13.431 -0.0156 -0.1195  0.0571
 9222SOL    HW239300   1.110   1.909  13.330  0.1384  0.0816 -0.3525
 9223SOL     OW39301   3.206   1.793   5.994  0.3884  0.2908 -0.7026
 9223SOL    HW139302   3.181   1.726   5.930 -0.7460  0.5091 -0.4834
 9223SOL    HW239303   3.289   1.748   6.012  0.3745  0.4052 -0.3590
 9224SOL     OW39304   1.573   0.844   2.841 -0.0468  0.0293  0.6809
 9224SOL    HW139305   1.548   0.880   2.756  1.0807  0.2098  0.4340
 9224SOL    HW239306   1.637   0.914   2.854 -2.0227  1.8975  0.4471
 9225SOL     OW39307   3.563   1.856  16.657 -0.2927 -0.7228 -0.0147
 9225SOL    HW139308   3.577   1.829  16.566  0.7300 -0.6684  0.1249
 9225SOL    HW239309   3.586   1.772  16.698  0.3563 -1.0044 -0.9673
 9226SOL     OW39310   2.986   2.809  12.853  0.6899  0.0795  0.2686
 9226SOL    HW139311   3.006   2.856  12.772 -0.7259 -0.1405 -0.1971
 9226SOL    HW239312   2.958   2.724  12.819 -0.7520  1.1251 -1.1491
 9227SOL     OW39313   0.438   2.825   8.414  0.2698 -0.3984  0.1523
 9227SOL    HW139314   0.369   2.882   8.449  0.1764 -1.5413  1.8144
 9227SOL    HW239315   0.489   2.879   8.353  0.7271 -0.5861  0.3668
 9228SOL     OW39316   0.941   1.609   3.176 -0.6361  0.2695 -0.3071
 9228SOL    HW139317   0.984   1.633   3.258  1.9989  0.0983 -1.6302
 9228SOL    HW239318   1.021   1.579   3.133  0.8582  0.9962  1.9645
 9229SOL     OW39319   0.565   3.731   3.720  0.1246  0.0610  0.2218
 9229SOL    HW139320   0.546   3.639   3.704 -0.9588 -0.1650  2.7613
 9229SOL    HW239321   0.509   3.762   3.649  1.3279  0.7455 -0.4324
 9230SOL     OW39322   1.053   1.739   9.743 -0.2452 -0.1489 -0.8405
 9230SOL    HW139323   1.122   1.765   9.682  1.5231  0.3529  1.3609
 9230SOL    HW239324   1.048   1.820   9.794  0.9317 -0.0488 -0.8865
 9231SOL     OW39325   2.942   3.908  14.905  0.0879  0.6329 -0.2483
 9231SOL    HW139326   2.940   3.829  14.851  2.0190  0.2741  0.1748
 9231SOL    HW239327   2.899   3.881  14.986 -0.5633  1.2563 -0.3893
 9232SOL     OW39328   1.382   0.925   7.360 -0.2126  0.6094 -0.6502
 9232SOL    HW139329   1.319   0.983   7.403  0.9530  0.2133  1.5986
 9232SOL    HW239330   1.333   0.900   7.282 -0.9405  0.4015 -0.1264
 9233SOL     OW39331   2.751   3.491   6.375  0.2173 -0.0271 -0.2243
 9233SOL    HW139332   2.733   3.404   6.410 -2.2481  0.6726  0.3023
 9233SOL    HW239333   2.679   3.495   6.312  0.5742  0.2321 -0.6092
 9234SOL     OW39334   0.634   3.305  15.198 -0.2892 -0.1522 -0.0064
 9234SOL    HW139335   0.712   3.307  15.254 -0.4265 -0.6716  0.2006
 9234SOL    HW239336   0.590   3.381  15.236 -0.4994 -0.6031  0.6567
 9235SOL     OW39337   0.459   2.866   5.971  0.4892  0.0157  0.1231
 9235SOL    HW139338   0.408   2.853   6.051  0.0058 -1.0307 -0.3476
 9235SOL    HW239339   0.386   2.894   5.915 -1.9345 -1.7551  2.3851
 9236SOL     OW39340   2.598   1.285   8.213 -0.5119  0.2974  0.5292
 9236SOL    HW139341   2.651   1.236   8.150  0.4829  0.2356  1.4082
 9236SOL    HW239342   2.509   1.264   8.184  0.2262 -0.6549 -1.0621
 9237SOL     OW39343   2.481   0.870  16.015  0.9689 -0.0829 -0.4353
 9237SOL    HW139344   2.431   0.951  16.015  2.4703  0.8541  2.2829
 9237SOL    HW239345   2.517   0.879  16.103  1.1058  1.6343 -0.6711
 9238SOL     OW39346   1.109   1.946  16.355 -0.1310 -0.4316  0.2494
 9238SOL    HW139347   1.033   1.997  16.384  0.0026  1.6649 -3.0498
 9238SOL    HW239348   1.144   2.009  16.291 -2.9037  0.4350 -0.4211
 9239SOL     OW39349   1.695   0.479   7.620  0.5183 -0.0471 -0.0332
 9239SOL    HW139350   1.637   0.454   7.692 -1.4627 -0.0849 -1.6391
 9239SOL    HW239351   1.639   0.527   7.559  2.1857  1.3764 -0.4351
 9240SOL     OW39352   0.202   0.714   3.018 -0.3488  0.1188  0.2991
 9240SOL    HW139353   0.280   0.745   3.064  0.0312  1.6621 -1.3692
 9240SOL    HW239354   0.248   0.662   2.953 -0.3035 -0.9916  1.2091
 9241SOL     OW39355   0.407   0.289   0.756 -0.3690 -0.7411 -0.1276
 9241SOL    HW139356   0.380   0.210   0.709 -0.3153 -1.1062  0.4504
 9241SOL    HW239357   0.376   0.276   0.846  1.4350  3.8802  1.1517
 9242SOL     OW39358   4.434   1.353  12.219 -0.1641  0.7069 -0.5073
 9242SOL    HW139359   4.476   1.439  12.223  1.6532 -0.1757 -0.6697
 9242SOL    HW239360   4.399   1.352  12.130 -2.0776 -0.9123  0.2924
 9243SOL     OW39361   0.080   0.967   4.063 -0.7688 -0.3173 -0.5797
 9243SOL    HW139362   0.083   0.893   4.124  1.0494  0.9464  0.8548
 9243SOL    HW239363   0.145   0.941   3.998 -0.2142  1.1900 -0.6375
 9244SOL     OW39364   0.189   1.317   3.134  0.3331  1.1457  0.1190
 9244SOL    HW139365   0.247   1.306   3.059  0.7777 -1.2488  0.8129
 9244SOL    HW239366   0.242   1.387   3.174  1.4901 -0.1574  0.8621
 9245SOL     OW39367   0.446   4.726   5.378  0.4236  0.0332 -0.2545
 9245SOL    HW139368   0.522   0.029   5.331 -0.1472  1.2998 -0.2036
 9245SOL    HW239369   0.464   0.015   5.469 -0.9353 -1.0934  0.2745
 9246SOL     OW39370   2.173   4.106   6.085 -0.7077  0.0977  0.1875
 9246SOL    HW139371   2.218   4.160   6.021 -0.2089 -2.2640 -1.4263
 9246SOL    HW239372   2.081   4.118   6.059 -0.1984  0.0137 -1.5984
 9247SOL     OW39373   1.398   1.401  14.876 -0.4358 -0.0802 -0.2663
 9247SOL    HW139374   1.453   1.323  14.879  0.0803  0.2493 -1.1369
 9247SOL    HW239375   1.321   1.371  14.924 -0.7038 -0.6608 -1.0777
 9248SOL     OW39376   4.018   3.130   6.706 -0.2211 -0.1330  0.4617
 9248SOL    HW139377   4.084   3.093   6.648 -0.2353  0.2834  0.1873
 9248SOL    HW239378   3.990   3.197   6.645  2.1431 -0.7075 -1.2508
 9249SOL     OW39379   0.877   0.998   4.249 -0.0269 -0.0381 -0.0272
 9249SOL    HW139380   0.861   1.024   4.340 -0.6312 -2.0725  0.4413
 9249SOL    HW239381   0.801   1.041   4.209  0.7634 -0.5594 -2.0421
 9250SOL     OW39382   4.184   2.608  10.349 -0.4088 -0.1291 -0.0627
 9250SOL    HW139383   4.180   2.625  10.443 -2.9482  0.2788 -0.2561
 9250SOL    HW239384   4.226   2.686  10.315  1.9699 -0.6957  1.5380
 9251SOL     OW39385   4.707   3.050   5.442 -0.0445  1.1109 -0.1016
 9251SOL    HW139386   4.642   2.980   5.446 -0.7546  1.8945  2.0269
 9251SOL    HW239387   4.660   3.118   5.393 -0.5752  1.0894  0.3730
 9252SOL     OW39388   1.208   2.798   6.881 -0.2057 -0.0446 -0.7712
 9252SOL    HW139389   1.249   2.796   6.794 -0.9084 -0.2584 -1.0934
 9252SOL    HW239390   1.153   2.877   6.877  0.8808  0.8114  1.4105
 9253SOL     OW39391   3.183   2.813   4.086 -0.0106  0.3432 -0.3285
 9253SOL    HW139392   3.099   2.777   4.115  0.6343  1.0915  2.5439
 9253SOL    HW239393   3.188   2.806   3.991 -0.6065  1.6335 -0.4430
 9254SOL     OW39394   1.522   1.576   8.871 -0.0507  0.4647 -0.2044
 9254SOL    HW139395   1.554   1.601   8.958  2.9379 -0.9986 -0.8767
 9254SOL    HW239396   1.454   1.643   8.863  0.3896  0.7944 -1.2175
 9255SOL     OW39397   1.466   1.242   1.679 -0.1929  0.2232 -0.0810
 9255SOL    HW139398   1.444   1.200   1.595  1.3662  1.1055 -0.9148
 9255SOL    HW239399   1.420   1.187   1.744 -0.9847 -0.1259 -0.9262
 9256SOL     OW39400   1.606   3.503   5.532  0.2840  0.6530 -0.6382
 9256SOL    HW139401   1.595   3.554   5.452  1.3393  2.3051  0.2749
 9256SOL    HW239402   1.522   3.459   5.542  0.4307  0.7973  1.2084
 9257SOL     OW39403   1.813   3.464   3.907  0.5445  0.5424  0.2930
 9257SOL    HW139404   1.810   3.553   3.942 -1.2049  0.8740 -0.6939
 9257SOL    HW239405   1.750   3.473   3.836  0.6325 -0.0017  0.1512
 9258SOL     OW39406   3.324   1.713   3.628  0.4617 -0.1946  0.6146
 9258SOL    HW139407   3.345   1.804   3.608  0.8808 -0.3727  0.2199
 9258SOL    HW239408   3.252   1.731   3.688  1.1703 -0.1099  1.4486
 9259SOL     OW39409   0.697   3.048  12.092  0.5408 -0.1744 -0.4339
 9259SOL    HW139410   0.783   3.065  12.053 -0.0017  0.2446 -1.4484
 9259SOL    HW239411   0.700   3.112  12.163 -2.3333  0.8084 -1.2094
 9260SOL     OW39412   2.574   2.217  16.666  0.3759  0.2614 -0.4841
 9260SOL    HW139413   2.617   2.136  16.640  1.2772 -0.0028  1.8476
 9260SOL    HW239414   2.647   2.272  16.695 -1.8702  3.2792 -0.4899
 9261SOL     OW39415   1.405   4.732   3.356 -0.0375 -0.0798  0.5063
 9261SOL    HW139416   1.432   4.699   3.442 -0.8862  1.6760  1.4371
 9261SOL    HW239417   1.400   0.091   3.380  0.0754 -0.3111  1.3967
 9262SOL     OW39418   2.983   4.705   1.620 -0.1764 -0.6045 -0.3159
 9262SOL    HW139419   2.928   4.628   1.608 -0.6578  0.1737 -3.1145
 9262SOL    HW239420   3.074   4.675   1.632  0.0508 -0.2816 -1.2068
 9263SOL     OW39421   0.507   3.319  12.781 -0.2375 -0.3583  0.0310
 9263SOL    HW139422   0.583   3.301  12.836  0.1864 -1.5919 -0.9717
 9263SOL    HW239423   0.496   3.411  12.806  0.7688 -0.9884  2.8337
 9264SOL     OW39424   1.236   0.879   2.488 -0.0491 -0.4922  0.3455
 9264SOL    HW139425   1.142   0.863   2.482  0.1932 -0.9040 -2.2135
 9264SOL    HW239426   1.253   0.937   2.414 -1.6471  0.6496  0.8705
 9265SOL     OW39427   2.288   2.821   4.077  0.4021  0.0582  0.2666
 9265SOL    HW139428   2.345   2.897   4.089  0.1662  0.1584  0.7389
 9265SOL    HW239429   2.359   2.767   4.042 -0.0133 -0.4617  0.2306
 9266SOL     OW39430   1.095   3.652   8.284  0.3439 -0.4919  0.0276
 9266SOL    HW139431   1.102   3.692   8.370  2.0884  1.1415 -0.8720
 9266SOL    HW239432   1.147   3.708   8.227 -0.8064 -0.6025 -1.1350
 9267SOL     OW39433   0.243   3.234   9.644  0.0863  0.5368  0.4498
 9267SOL    HW139434   0.225   3.266   9.733 -2.0139  1.3279 -0.2738
 9267SOL    HW239435   0.166   3.183   9.620  0.0710  0.0743  1.4809
 9268SOL     OW39436   3.204   1.601   7.312 -0.1719  0.0812 -0.0680
 9268SOL    HW139437   3.253   1.561   7.385  1.9168 -0.0403 -1.5380
 9268SOL    HW239438   3.269   1.654   7.265 -0.1027  0.7019  0.7203
 9269SOL     OW39439   3.180   3.877   3.421  0.0099 -0.4085  0.4303
 9269SOL    HW139440   3.267   3.855   3.388 -0.2891  1.7822 -1.7996
 9269SOL    HW239441   3.169   3.798   3.475  1.1406  0.0081  1.2727
 9270SOL     OW39442   1.402   1.253  10.943 -0.5680  0.2650 -0.4066
 9270SOL    HW139443   1.428   1.239  11.034 -0.7524 -0.8880 -0.5277
 9270SOL    HW239444   1.312   1.222  10.951 -1.8049  3.9592 -0.0904
 9271SOL     OW39445   2.924   2.399   6.347 -0.3608 -0.1653 -0.6694
 9271SOL    HW139446   2.987   2.459   6.307  0.7058 -0.1923  0.9921
 9271SOL    HW239447   2.989   2.350   6.398  0.2022  1.4289  0.1270
 9272SOL     OW39448   4.313   0.759   1.414  0.2896 -0.0111 -0.2421
 9272SOL    HW139449   4.269   0.798   1.339  4.8370 -1.1445 -3.5075
 9272SOL    HW239450   4.379   0.695   1.386  0.3072 -0.0172 -0.1871
 9273SOL     OW39451   2.948   2.002   7.560  0.1003  0.4135 -0.1869
 9273SOL    HW139452   2.948   1.930   7.497 -0.5447 -0.0988  0.3945
 9273SOL    HW239453   2.957   1.952   7.641 -1.5715 -1.0246 -0.9093
 9274SOL     OW39454   0.921   3.903   2.000  0.0865 -0.1033 -0.0968
 9274SOL    HW139455   0.911   3.947   1.915  2.5371 -0.7070 -0.6964
 9274SOL    HW239456   0.950   3.973   2.059 -1.4762  0.3171  0.1703
 9275SOL     OW39457   4.649   4.487   8.152  0.7705 -0.2922  0.0479
 9275SOL    HW139458   4.643   4.562   8.094 -2.7577 -1.1472 -0.7432
 9275SOL    HW239459   4.567   4.451   8.117 -0.7235  3.6030 -0.4870
 9276SOL     OW39460   3.661   3.786  11.789 -0.1220 -0.2611  0.1953
 9276SOL    HW139461   3.670   3.710  11.846  1.2714  2.1464  3.1707
 9276SOL    HW239462   3.651   3.758  11.698  0.5332 -0.6013  0.2254
 9277SOL     OW39463   3.544   4.540  15.096 -0.0768 -0.2371  0.1248
 9277SOL    HW139464   3.450   4.526  15.089 -0.3724  1.5903  0.6067
 9277SOL    HW239465   3.553   4.507  15.186  0.5617  1.4002  0.6688
 9278SOL     OW39466   0.605   2.633   6.376 -0.1201 -0.1434  0.2850
 9278SOL    HW139467   0.575   2.713   6.333 -0.7351 -0.7595 -0.4423
 9278SOL    HW239468   0.660   2.608   6.302  1.5947  0.6500  1.2929
 9279SOL     OW39469   0.974   0.216   5.542  0.4470 -0.4153  0.3018
 9279SOL    HW139470   1.002   0.241   5.454  0.6388 -2.3442 -0.1719
 9279SOL    HW239471   1.042   0.153   5.564  0.9414 -0.4196 -1.2065
 9280SOL     OW39472   0.152   3.019   0.386 -0.0644 -0.6445 -0.5224
 9280SOL    HW139473   0.179   2.955   0.452 -1.4927 -1.1140 -0.3727
 9280SOL    HW239474   0.119   2.958   0.319  0.8000 -3.4762  1.6528
 9281SOL     OW39475   1.409   1.767  10.468 -0.5172  0.9617 -0.3441
 9281SOL    HW139476   1.378   1.677  10.474  0.6414  0.4400 -2.0408
 9281SOL    HW239477   1.448   1.770  10.555  1.2550 -0.4052 -1.1087
 9282SOL     OW39478   3.849   2.827   1.817  0.2128  0.7402 -0.5813
 9282SOL    HW139479   3.943   2.815   1.818  0.4473  2.6619  0.6163
 9282SOL    HW239480   3.833   2.833   1.722 -0.3033  0.7268 -0.4995
 9283SOL     OW39481   4.013   3.857  16.068  0.5042 -0.0370 -0.2725
 9283SOL    HW139482   3.953   3.928  16.092  1.1836  0.6902 -0.7208
 9283SOL    HW239483   4.100   3.897  16.074  0.2801  0.0103  2.4322
 9284SOL     OW39484   1.703   4.277   4.550  0.0606  1.0682  0.3129
 9284SOL    HW139485   1.739   4.206   4.603 -2.3429  1.5372  2.5295
 9284SOL    HW239486   1.678   4.228   4.472 -0.2871  0.3852  0.8542
 9285SOL     OW39487   3.399   0.481   7.657  0.7461 -0.6514 -0.3057
 9285SOL    HW139488   3.348   0.407   7.690  0.2060  0.7704  2.0414
 9285SOL    HW239489   3.491   0.464   7.679  0.8750  0.3198 -0.1046
 9286SOL     OW39490   3.632   0.534   3.532 -0.0478  0.0263  0.3146
 9286SOL    HW139491   3.655   0.478   3.458 -2.0719  1.3672 -1.3132
 9286SOL    HW239492   3.705   0.595   3.518  0.9989 -1.2823  0.0409
 9287SOL     OW39493   2.881   2.370  12.771 -0.4907  0.6244  0.1037
 9287SOL    HW139494   2.926   2.455  12.766  1.6189 -0.5272 -0.4171
 9287SOL    HW239495   2.892   2.324  12.688  2.0909 -0.5744  1.1168
 9288SOL     OW39496   0.193   1.345  10.086  0.4047  0.4338 -0.3084
 9288SOL    HW139497   0.266   1.282  10.088  0.6109  0.7395  1.4574
 9288SOL    HW239498   0.230   1.418  10.135  1.2124 -0.2967  0.1787
 9289SOL     OW39499   3.921   4.135  16.857 -0.1676  0.4550 -0.2427
 9289SOL    HW139500   3.864   4.058  16.857 -0.9365  1.0217 -0.7427
 9289SOL    HW239501   4.003   4.099  16.891  0.0158 -0.3868 -1.5657
 9290SOL     OW39502   2.398   2.030   2.646 -0.0059 -0.4996 -0.1463
 9290SOL    HW139503   2.419   2.036   2.739  1.2039  0.7303 -0.4978
 9290SOL    HW239504   2.438   1.946   2.624  3.2936  1.7076 -2.7269
 9291SOL     OW39505   0.309   1.563   5.173  0.4127  0.2870 -0.2230
 9291SOL    HW139506   0.225   1.578   5.217  1.4889  2.2820  1.0890
 9291SOL    HW239507   0.341   1.491   5.227  1.9900  1.0864 -0.1196
 9292SOL     OW39508   4.011   3.108  11.576  0.0066  0.3744  0.8375
 9292SOL    HW139509   4.027   3.126  11.484 -0.4729  2.2336  1.1089
 9292SOL    HW239510   3.920   3.080  11.566  0.1628  1.3037 -3.0424
 9293SOL     OW39511   0.623   0.137   8.311  0.3126  0.0336  0.3892
 9293SOL    HW139512   0.602   0.168   8.399 -0.5196 -0.6165  0.4229
 9293SOL    HW239513   0.590   0.048   8.329  1.1984 -0.4268 -0.2521
 9294SOL     OW39514   2.169   2.443  10.278 -0.0452  0.0666  0.4284
 9294SOL    HW139515   2.183   2.485  10.363  0.3651 -0.3247  0.5506
 9294SOL    HW239516   2.255   2.406  10.261  0.2519 -0.3315  2.8485
 9295SOL     OW39517   0.979   0.764  17.453  0.4835 -0.0113 -0.3799
 9295SOL    HW139518   0.895   0.760  17.499  2.3522 -0.4018  2.9912
 9295SOL    HW239519   0.970   0.683  17.404 -0.3533 -0.5309  0.6156
 9296SOL     OW39520   4.427   3.594   0.650 -0.0307  0.1179 -0.4024
 9296SOL    HW139521   4.496   3.552   0.702 -1.2882 -0.8267  0.4816
 9296SOL    HW239522   4.462   3.568   0.565  0.6404  0.8048 -0.3469
 9297SOL     OW39523   1.834   1.764   1.194  0.3884 -0.2857  0.5354
 9297SOL    HW139524   1.860   1.848   1.157  0.6773 -0.1684  1.0010
 9297SOL    HW239525   1.749   1.784   1.233  0.7977  0.0739  1.2508
 9298SOL     OW39526   0.572   4.120  17.448  0.0161  0.3481 -0.2351
 9298SOL    HW139527   0.563   4.187  17.516 -0.4804 -2.3610  2.3308
 9298SOL    HW239528   0.664   4.126  17.421  0.4026 -0.1684  0.9533
 9299SOL     OW39529   4.587   0.239   5.074 -0.0614  0.2305 -0.0664
 9299SOL    HW139530   4.531   0.162   5.075  1.6952 -1.0804 -1.3235
 9299SOL    HW239531   4.548   0.292   5.004 -0.6963 -0.1743 -0.0149
 9300SOL     OW39532   0.617   0.164  11.695  0.0707  0.9520 -0.4068
 9300SOL    HW139533   0.605   0.251  11.657 -0.0666  0.0964 -2.3479
 9300SOL    HW239534   0.694   0.176  11.751  0.6697  1.5234 -1.3367
 9301SOL     OW39535   0.349   1.813   5.061 -0.4716  0.0226  0.3770
 9301SOL    HW139536   0.356   1.877   5.132  0.0825 -0.0690  0.4047
 9301SOL    HW239537   0.346   1.729   5.107  1.0372  1.1099  2.4565
 9302SOL     OW39538   2.860   3.211   9.964  0.5993 -0.1328 -0.4013
 9302SOL    HW139539   2.785   3.217   9.904  1.2819  1.0387 -1.1300
 9302SOL    HW239540   2.844   3.272  10.035 -0.1910 -1.3798  0.4844
 9303SOL     OW39541   3.059   1.815  13.709 -0.2102 -0.1212  0.3286
 9303SOL    HW139542   3.144   1.859  13.716 -1.9122  2.5104  4.5368
 9303SOL    HW239543   3.081   1.722  13.719 -2.1289 -0.4907  1.2234
 9304SOL     OW39544   1.314   3.544   2.097  0.1003 -0.1096  0.0667
 9304SOL    HW139545   1.298   3.494   2.177  0.9483 -0.2553  0.1421
 9304SOL    HW239546   1.263   3.622   2.116 -0.6934 -1.2767  2.6602
 9305SOL     OW39547   0.752   3.457   4.484 -0.4740  0.5358  0.0116
 9305SOL    HW139548   0.695   3.509   4.541  1.2349  1.5433  0.8236
 9305SOL    HW239549   0.756   3.379   4.539 -0.7235 -0.2813 -1.1275
 9306SOL     OW39550   2.366   2.247   7.548 -0.1612 -0.3606 -0.2490
 9306SOL    HW139551   2.349   2.153   7.545 -0.7744 -0.2603  0.0887
 9306SOL    HW239552   2.460   2.247   7.527 -0.5380 -0.5697 -1.9061
 9307SOL     OW39553   1.522   3.402   4.192  0.3029 -0.1442 -0.0121
 9307SOL    HW139554   1.496   3.431   4.104 -0.3867  0.2620  0.3244
 9307SOL    HW239555   1.453   3.450   4.238  0.7986 -0.4846  1.0802
 9308SOL     OW39556   3.481   2.352  15.297 -0.0420  0.2852  0.8145
 9308SOL    HW139557   3.386   2.348  15.287  0.1447  0.4211 -1.0580
 9308SOL    HW239558   3.481   2.435  15.344  0.8438  1.5614 -1.4046
 9309SOL     OW39559   4.280   0.911   3.247 -0.4521 -0.1931 -0.2767
 9309SOL    HW139560   4.335   0.872   3.316  0.7368  0.4429 -0.8655
 9309SOL    HW239561   4.342   0.932   3.177  0.8290  0.7086  1.1086
 9310SOL     OW39562   2.083   1.698   7.484  0.3010  0.1082 -0.8898
 9310SOL    HW139563   2.153   1.649   7.528  1.0786  1.1216 -1.0222
 9310SOL    HW239564   2.015   1.697   7.552  0.2162  0.5267 -0.9697
 9311SOL     OW39565   2.571   1.751   2.597  0.0654 -0.0156 -0.9326
 9311SOL    HW139566   2.655   1.722   2.563  0.5644 -0.8536  1.0718
 9311SOL    HW239567   2.581   1.756   2.692  0.3454 -0.0276 -0.9614
 9312SOL     OW39568   4.064   2.343   7.159  1.1067  0.0515 -0.3534
 9312SOL    HW139569   3.972   2.368   7.166  1.9981  2.5998  2.3381
 9312SOL    HW239570   4.103   2.418   7.115  0.8460  1.2341  1.4033
 9313SOL     OW39571   1.627   2.046   6.729  0.4152  0.2718 -0.6168
 9313SOL    HW139572   1.579   1.971   6.694  1.6196 -1.1074  0.6822
 9313SOL    HW239573   1.617   2.104   6.654  4.2089  0.7867 -0.7012
 9314SOL     OW39574   0.817   0.709   7.693 -0.4684 -0.1496 -0.3154
 9314SOL    HW139575   0.870   0.643   7.738 -2.2335  0.3384  2.4688
 9314SOL    HW239576   0.729   0.681   7.719 -0.6111 -0.9180 -1.5990
 9315SOL     OW39577   4.704   4.573   2.546  0.2739  0.3101  0.5221
 9315SOL    HW139578   0.024   4.653   2.546  0.2842  0.3055 -0.6247
 9315SOL    HW239579   4.677   4.568   2.637 -1.6486  0.6036 -0.0346
 9316SOL     OW39580   3.533   3.497   7.045 -0.3739 -0.7857 -0.0864
 9316SOL    HW139581   3.561   3.407   7.028  1.3867 -0.5824  1.6789
 9316SOL    HW239582   3.496   3.520   6.960 -1.1278 -0.3390  0.3618
 9317SOL     OW39583   2.520   2.378   8.612 -0.4556  0.5337 -0.0734
 9317SOL    HW139584   2.511   2.320   8.687 -1.2793  0.7809  0.0157
 9317SOL    HW239585   2.489   2.462   8.645 -1.6957  0.2013 -0.3777
 9318SOL     OW39586   3.237   2.482   4.463 -0.0738 -0.1480 -0.2690
 9318SOL    HW139587   3.257   2.447   4.376  0.7216  0.0753 -0.1799
 9318SOL    HW239588   3.205   2.569   4.440 -0.8168 -0.3955 -0.1715
 9319SOL     OW39589   2.223   0.253   8.595  0.2041  0.0797 -0.6871
 9319SOL    HW139590   2.314   0.235   8.568  0.2296 -1.0639  0.1938
 9319SOL    HW239591   2.228   0.348   8.607 -0.5905  0.2064 -1.3950
 9320SOL     OW39592   0.108   2.177  13.681  0.3331  0.4241 -0.0835
 9320SOL    HW139593   0.111   2.203  13.773  0.0961 -1.0118  0.3222
 9320SOL    HW239594   0.131   2.086  13.697 -0.0988  0.1317 -1.1173
 9321SOL     OW39595   4.684   1.396   8.372 -0.2200 -0.8043  0.0963
 9321SOL    HW139596   0.037   1.358   8.352  0.3782  1.4152 -1.5037
 9321SOL    HW239597   4.709   1.445   8.450 -1.0512 -0.5782  0.2108
 9322SOL     OW39598   2.914   0.293   6.560 -0.0311 -0.1660  0.5556
 9322SOL    HW139599   2.833   0.264   6.518  1.1021 -1.6006 -0.6299
 9322SOL    HW239600   2.879   0.295   6.650  0.4075  0.4412  0.7111
 9323SOL     OW39601   4.570   4.721   1.964  0.1256  0.2190  0.4356
 9323SOL    HW139602   4.488   4.693   1.923 -0.0869 -1.3424  1.9527
 9323SOL    HW239603   4.560   4.703   2.057  1.6121 -3.7179 -0.1853
 9324SOL     OW39604   4.619   4.352   1.383 -0.1740 -0.3103  0.4676
 9324SOL    HW139605   4.528   4.364   1.357  0.1407 -1.8892 -1.4357
 9324SOL    HW239606   4.646   4.442   1.402  0.9339 -0.8980  1.6792
 9325SOL     OW39607   3.329   0.372  15.293  0.0889  0.2865 -0.0671
 9325SOL    HW139608   3.321   0.285  15.255 -1.3153  0.4709 -0.1957
 9325SOL    HW239609   3.393   0.410  15.234  0.4685 -0.5803 -0.2127
 9326SOL     OW39610   4.486   4.028   3.060  1.0001 -0.2214 -0.7805
 9326SOL    HW139611   4.519   3.950   3.015 -0.2856 -2.2833  1.8572
 9326SOL    HW239612   4.515   4.104   3.008  1.5727  0.0679 -0.0308
 9327SOL     OW39613   1.815   3.992   9.249  0.4905  0.0862  0.6211
 9327SOL    HW139614   1.749   3.996   9.318  0.5220 -2.3485  0.7902
 9327SOL    HW239615   1.843   4.083   9.240 -0.5597  0.2175 -1.4762
 9328SOL     OW39616   3.721   0.642   8.970  0.4834 -0.0116  0.1169
 9328SOL    HW139617   3.682   0.646   9.057  0.1446  1.7850 -0.1184
 9328SOL    HW239618   3.785   0.575   8.995  0.0936 -0.1445  0.7639
 9329SOL     OW39619   0.416   0.228   4.492  0.2615 -0.0617 -0.0072
 9329SOL    HW139620   0.480   0.159   4.504 -0.9532 -1.0228  0.9828
 9329SOL    HW239621   0.334   0.178   4.495  0.8447 -1.0188 -0.4778
 9330SOL     OW39622   2.430   0.325   6.208  0.4155  1.0922 -0.0937
 9330SOL    HW139623   2.526   0.323   6.203  0.4567 -1.2155  1.8093
 9330SOL    HW239624   2.403   0.370   6.128 -1.0810 -1.1820 -0.8725
 9331SOL     OW39625   3.136   2.617   2.970 -0.6331 -0.7037 -0.1754
 9331SOL    HW139626   3.107   2.659   2.889  1.0475 -0.1338 -0.4938
 9331SOL    HW239627   3.225   2.588   2.948  0.4930  2.0887  0.7304
 9332SOL     OW39628   2.018   1.044   9.985 -0.4012 -0.0626  0.0557
 9332SOL    HW139629   1.924   1.058   9.975  0.3716  3.7753 -1.7598
 9332SOL    HW239630   2.058   1.074   9.903 -0.6982 -1.3162 -0.5497
 9333SOL     OW39631   4.316   1.379  10.740  0.1013 -0.2614 -0.8721
 9333SOL    HW139632   4.222   1.370  10.728  0.1733 -0.1622 -1.5107
 9333SOL    HW239633   4.337   1.290  10.768  0.6552  0.2189  0.2181
 9334SOL     OW39634   4.647   2.130   4.729  0.3826 -0.0984  0.5093
 9334SOL    HW139635   4.690   2.215   4.741  0.8842 -0.1769 -0.7915
 9334SOL    HW239636   4.709   2.071   4.685 -0.5569  0.4567 -1.5275
 9335SOL     OW39637   1.076   0.625   9.471 -0.3129  0.5426 -0.9398
 9335SOL    HW139638   1.120   0.661   9.394  2.1592 -2.2600 -0.8335
 9335SOL    HW239639   1.030   0.554   9.426 -1.8806  1.2987 -0.5266
 9336SOL     OW39640   4.372   4.036   7.594 -0.0817  0.1205  0.6228
 9336SOL    HW139641   4.303   4.102   7.606  1.1298  1.0251  2.7631
 9336SOL    HW239642   4.325   3.953   7.589  1.1796 -0.4911 -1.1497
 9337SOL     OW39643   4.644   1.057   2.420  0.1553 -0.3230 -0.3169
 9337SOL    HW139644   4.589   1.071   2.343 -0.5064 -2.4329 -0.2469
 9337SOL    HW239645   4.700   0.983   2.398  1.3044  0.1632  1.0184
 9338SOL     OW39646   0.037   1.068   7.615  0.1253 -0.0842  0.6011
 9338SOL    HW139647   0.090   1.132   7.567 -0.4316 -0.6890 -0.8406
 9338SOL    HW239648   0.089   1.049   7.693 -3.2296 -0.1309  2.8210
 9339SOL     OW39649   0.161   2.982  14.968  0.5121 -0.4131  0.0643
 9339SOL    HW139650   0.124   2.894  14.981  0.9071 -0.6211 -0.2384
 9339SOL    HW239651   0.195   3.006  15.055  0.3896 -3.2836  0.9033
 9340SOL     OW39652   1.666   1.222   8.716 -0.0080 -0.2237  0.1567
 9340SOL    HW139653   1.697   1.312   8.707  0.9508 -0.8147 -2.7824
 9340SOL    HW239654   1.615   1.224   8.796  1.2462  0.9072  0.9288
 9341SOL     OW39655   4.563   4.385   3.083 -0.0443 -0.1219  0.1266
 9341SOL    HW139656   4.626   4.457   3.088 -1.5822  1.1778  0.7736
 9341SOL    HW239657   4.542   4.388   2.990  0.6342 -0.8580 -0.0561
 9342SOL     OW39658   1.063   0.987   6.678  0.3032  0.3206  0.2338
 9342SOL    HW139659   0.995   0.919   6.683  0.0184  0.5623 -0.2644
 9342SOL    HW239660   1.006   1.060   6.654  1.0793  0.3322 -1.5702
 9343SOL     OW39661   4.473   3.466  14.564 -0.2184 -0.3653 -0.3335
 9343SOL    HW139662   4.498   3.519  14.488  2.1470 -0.7128  0.2114
 9343SOL    HW239663   4.377   3.469  14.564 -0.1971  0.2857  0.0738
 9344SOL     OW39664   1.631   2.123  17.361  0.3640 -0.4294  0.1495
 9344SOL    HW139665   1.724   2.134  17.341 -0.1265  2.7113 -0.4914
 9344SOL    HW239666   1.605   2.076  17.282 -1.4505  1.1956 -0.2163
 9345SOL     OW39667   1.554   1.223   2.457  0.0889 -0.1431 -0.4940
 9345SOL    HW139668   1.498   1.299   2.473 -1.4281 -1.2631 -0.5586
 9345SOL    HW239669   1.613   1.245   2.529  0.2076  2.7905 -1.4772
 9346SOL     OW39670   2.773   0.908  12.384  0.4880  0.2021 -0.5583
 9346SOL    HW139671   2.755   0.816  12.403 -2.2900  0.0410 -3.9816
 9346SOL    HW239672   2.764   0.936  12.475 -0.6626  1.3259 -1.0234
 9347SOL     OW39673   2.621   2.115   4.507 -0.1950  0.3969 -0.4063
 9347SOL    HW139674   2.587   2.025   4.498  0.2434  0.4503 -2.6748
 9347SOL    HW239675   2.619   2.131   4.601  1.4275  1.0112 -0.4799
 9348SOL     OW39676   1.042   2.430  16.096  0.0154  0.6863  0.2153
 9348SOL    HW139677   1.122   2.471  16.061 -0.6594  1.0093 -0.9247
 9348SOL    HW239678   0.982   2.430  16.023 -0.4401 -1.5898  0.6054
 9349SOL     OW39679   4.290   0.206   3.555  0.3151 -0.3841  0.0412
 9349SOL    HW139680   4.371   0.238   3.514 -0.2295  0.1703 -0.6273
 9349SOL    HW239681   4.244   0.164   3.482  3.6197 -1.3009 -1.5366
 9350SOL     OW39682   3.795   1.392   0.159 -0.0266 -0.3561  0.1251
 9350SOL    HW139683   3.775   1.484   0.178 -1.0348 -0.5704  0.0786
 9350SOL    HW239684   3.716   1.369   0.111 -0.6403  0.3542  0.7852
 9351SOL     OW39685   3.987   4.679   5.171  0.6151 -0.1244  0.2507
 9351SOL    HW139686   3.995   4.671   5.266 -0.2063  0.0991  0.3380
 9351SOL    HW239687   4.011   0.039   5.157  0.7643 -0.4114 -1.3983
 9352SOL     OW39688   3.204   3.881  12.707 -0.0394  0.2572 -0.5389
 9352SOL    HW139689   3.260   3.815  12.746 -0.2963  1.2172  1.4618
 9352SOL    HW239690   3.148   3.908  12.780 -1.3300 -2.8168 -0.4184
 9353SOL     OW39691   3.078   0.505   1.767  0.4273  0.1946 -0.0128
 9353SOL    HW139692   3.054   0.427   1.718 -0.1956  1.5531 -1.8438
 9353SOL    HW239693   3.167   0.528   1.740  0.2623  0.9339  0.0544
 9354SOL     OW39694   1.463   3.838   6.274 -0.0402 -0.4161 -0.1209
 9354SOL    HW139695   1.397   3.833   6.342  0.9696  2.1686  1.0502
 9354SOL    HW239696   1.445   3.922   6.231  0.0455 -0.2817  0.1018
 9355SOL     OW39697   1.670   0.019   8.459 -0.1399 -0.0412 -0.3043
 9355SOL    HW139698   1.649   4.661   8.484  1.4892 -0.3685 -0.1574
 9355SOL    HW239699   1.670   0.013   8.364  1.7701 -0.6331 -0.2767
 9356SOL     OW39700   1.760   1.935   3.151  0.4241  0.1687  0.0407
 9356SOL    HW139701   1.719   1.857   3.189  0.0491 -0.0457 -0.8011
 9356SOL    HW239702   1.692   2.003   3.150 -0.1129 -0.3413  1.2982
 9357SOL     OW39703   2.358   2.700   3.271  0.3078  0.4069 -0.1105
 9357SOL    HW139704   2.361   2.795   3.262 -0.5432  0.4381 -0.0171
 9357SOL    HW239705   2.308   2.689   3.352  2.3309 -0.3150  1.0548
 9358SOL     OW39706   0.114   4.185   9.060 -0.0628  0.0160  0.1079
 9358SOL    HW139707   0.095   4.099   9.098  0.5154  0.3441  1.1482
 9358SOL    HW239708   0.113   4.237   9.140  3.8761 -1.3203  1.0212
 9359SOL     OW39709   2.888   3.379   8.692  0.1557 -0.2490  0.1816
 9359SOL    HW139710   2.918   3.377   8.783  2.8033  0.2205 -0.6944
 9359SOL    HW239711   2.875   3.473   8.684  0.4661 -0.1040  1.4158
 9360SOL     OW39712   2.679   0.208   6.469  0.2856 -0.2680  0.4608
 9360SOL    HW139713   2.611   0.273   6.487  0.0693 -0.8326  1.6662
 9360SOL    HW239714   2.636   0.170   6.393 -1.3209 -0.3001  1.3814
 9361SOL     OW39715   2.484   0.599   8.500 -0.3364  0.2419 -0.1636
 9361SOL    HW139716   2.506   0.571   8.589  3.2398  1.6450 -0.6255
 9361SOL    HW239717   2.403   0.548   8.493  0.8586 -1.4247 -1.8222
 9362SOL     OW39718   3.935   2.548  12.097 -0.4391  0.1425 -0.0521
 9362SOL    HW139719   3.958   2.565  12.189 -0.6821  0.5237 -0.0610
 9362SOL    HW239720   3.990   2.608  12.046  0.6575  0.1504  1.1515
 9363SOL     OW39721   3.156   1.406   0.631 -0.3054  0.2485 -0.0100
 9363SOL    HW139722   3.220   1.362   0.687 -1.4474 -0.8325  0.4378
 9363SOL    HW239723   3.206   1.466   0.576 -0.1850  2.1157  2.1537
 9364SOL     OW39724   3.295   3.830   2.210  0.3852 -0.7645  0.3916
 9364SOL    HW139725   3.243   3.751   2.227 -3.2149  0.9480 -2.5264
 9364SOL    HW239726   3.353   3.840   2.284 -2.0019 -1.4298  2.3567
 9365SOL     OW39727   1.277   3.152   1.580 -0.0442  0.3729 -0.1640
 9365SOL    HW139728   1.345   3.140   1.514  0.9944  0.4416  0.8831
 9365SOL    HW239729   1.210   3.091   1.549 -0.6484  0.9536 -0.0223
 9366SOL     OW39730   1.086   3.894   2.806 -0.1049  0.1042  0.1362
 9366SOL    HW139731   1.093   3.981   2.766  2.5421  0.0066  0.3697
 9366SOL    HW239732   1.028   3.908   2.880 -1.1607  2.4274 -1.1260
 9367SOL     OW39733   2.531   4.641   9.745 -0.0002 -0.4403 -0.1231
 9367SOL    HW139734   2.435   4.635   9.749  0.0161 -0.2419  0.6674
 9367SOL    HW239735   2.561   4.621   9.834 -0.0365  1.1375  0.2620
 9368SOL     OW39736   4.668   2.446   3.507  0.5382  0.0125  0.1141
 9368SOL    HW139737   4.717   2.365   3.521 -0.8318 -0.8761 -0.1107
 9368SOL    HW239738   0.005   2.504   3.478  0.4583 -0.8386 -1.7979
 9369SOL     OW39739   1.854   1.484   7.842  0.5197 -0.1936  0.5127
 9369SOL    HW139740   1.819   1.425   7.909  0.6992  1.7330  2.2864
 9369SOL    HW239741   1.782   1.545   7.827  0.4398 -0.1080  1.2416
 9370SOL     OW39742   2.273   2.734   7.262  0.2540 -0.0035 -0.2164
 9370SOL    HW139743   2.307   2.816   7.299  0.9884 -0.7250  0.7243
 9370SOL    HW239744   2.188   2.756   7.224  0.8350  0.7967 -1.0572
 9371SOL     OW39745   0.306   4.643  14.447  0.4116  0.0540  0.2297
 9371SOL    HW139746   0.268   4.660  14.361 -3.2321  0.4826  1.9352
 9371SOL    HW239747   0.264   4.564  14.480  1.1243 -0.3459  0.1958
 9372SOL     OW39748   3.037   4.717   5.375  0.1932  0.0115  0.1259
 9372SOL    HW139749   3.036   4.632   5.332 -1.1233 -0.3045  0.7902
 9372SOL    HW239750   2.980   0.039   5.322 -0.8349 -2.2438 -1.0692
 9373SOL     OW39751   2.909   4.210   1.848 -0.7096  0.5990  0.0911
 9373SOL    HW139752   2.933   4.118   1.863  0.7621  1.0116  0.2877
 9373SOL    HW239753   2.905   4.197   1.753  2.3500  3.2237 -0.3832
 9374SOL     OW39754   4.340   2.775   3.458 -0.2535 -0.4120 -0.2895
 9374SOL    HW139755   4.361   2.866   3.440 -1.0781 -0.1962 -0.1681
 9374SOL    HW239756   4.431   2.749   3.472 -0.0089  1.2177  1.1527
 9375SOL     OW39757   0.885   2.938  17.352 -0.1625 -0.5114  0.6064
 9375SOL    HW139758   0.805   2.987  17.331 -0.5018 -2.4159 -2.5590
 9375SOL    HW239759   0.875   2.850  17.316  1.7881 -0.5181  0.0701
 9376SOL     OW39760   4.054   0.223   5.227 -0.1185 -0.3352 -0.0194
 9376SOL    HW139761   4.109   0.301   5.231 -1.0670  0.3421 -0.3739
 9376SOL    HW239762   4.025   0.232   5.318  0.1592  1.0002 -0.0649
 9377SOL     OW39763   1.451   2.373   6.016 -0.7178 -0.3530  0.1740
 9377SOL    HW139764   1.366   2.363   6.059  0.3558 -1.4146  2.0633
 9377SOL    HW239765   1.503   2.326   6.081  1.9066  0.6065 -1.2053
 9378SOL     OW39766   2.729   2.148  14.121 -0.1728  0.2182 -0.6066
 9378SOL    HW139767   2.808   2.106  14.155  0.4733  1.9896  0.0182
 9378SOL    HW239768   2.732   2.234  14.162 -0.3928  0.7374 -1.6997
 9379SOL     OW39769   1.300   4.263   7.407  0.3631  0.1548 -0.0389
 9379SOL    HW139770   1.230   4.323   7.431  0.1486 -0.6238  1.2590
 9379SOL    HW239771   1.250   4.221   7.336  0.3913 -0.5376  0.3513
 9380SOL     OW39772   0.580   3.333   5.164 -0.1345  0.1419  0.3345
 9380SOL    HW139773   0.511   3.267   5.159 -0.3747  0.4412 -0.3554
 9380SOL    HW239774   0.551   3.393   5.095  1.6593 -0.0100 -0.5330
 9381SOL     OW39775   0.119   2.790   9.062  0.1967 -0.8275 -0.2176
 9381SOL    HW139776   0.137   2.697   9.074  0.4295 -0.7395  0.1362
 9381SOL    HW239777   0.208   2.812   9.033  0.8340 -1.1536  1.4534
 9382SOL     OW39778   0.267   0.883  13.268 -0.2248 -0.6709  0.1268
 9382SOL    HW139779   0.227   0.800  13.294  2.0828 -2.3371 -1.6485
 9382SOL    HW239780   0.188   0.927  13.239  0.7016 -0.1258 -1.6007
 9383SOL     OW39781   0.386   2.976   8.721 -0.3704  0.6841  0.3701
 9383SOL    HW139782   0.480   2.975   8.705 -0.6435  0.6392 -1.2185
 9383SOL    HW239783   0.348   2.994   8.635 -2.3136 -2.1105  0.6159
 9384SOL     OW39784   4.248   3.690   5.929 -0.4417  0.6048 -0.0156
 9384SOL    HW139785   4.161   3.730   5.939 -0.7362  0.0952 -0.5219
 9384SOL    HW239786   4.252   3.665   5.837 -0.9812  1.2923 -0.2357
 9385SOL     OW39787   3.211   3.100   7.015  0.5453  0.1899 -0.5210
 9385SOL    HW139788   3.216   3.154   7.093 -0.7696 -0.4446  0.0147
 9385SOL    HW239789   3.302   3.080   6.997  0.9431  0.7812  0.8542
 9386SOL     OW39790   4.490   1.902   2.916  0.5730 -0.1862 -0.0531
 9386SOL    HW139791   4.460   1.813   2.896  1.5868 -0.6980  0.6744
 9386SOL    HW239792   4.575   1.896   2.961  0.0657  0.4162  0.9894
 9387SOL     OW39793   4.506   1.149   7.132  0.2899  0.3801 -0.5818
 9387SOL    HW139794   4.520   1.181   7.043  0.8641  2.6089  0.2950
 9387SOL    HW239795   4.542   1.212   7.194  0.7556 -0.0352 -0.4315
 9388SOL     OW39796   3.971   4.187  12.789  0.7064  0.6224  0.2354
 9388SOL    HW139797   3.974   4.146  12.703  1.1828 -0.0210  0.5523
 9388SOL    HW239798   3.944   4.114  12.845 -1.0901  0.6069 -0.6384
 9389SOL     OW39799   2.050   2.329  12.588  0.4750  0.1466 -0.2690
 9389SOL    HW139800   2.117   2.386  12.625 -1.9590  0.8494  3.0461
 9389SOL    HW239801   2.052   2.251  12.643  1.4318  0.8480  0.6996
 9390SOL     OW39802   0.003   3.158   2.412  0.0309 -0.5987 -0.1282
 9390SOL    HW139803   0.057   3.200   2.345  1.0550 -3.7126 -1.2799
 9390SOL    HW239804   0.004   3.216   2.488  0.4420  2.2342 -2.3176
 9391SOL     OW39805   3.590   1.260  17.476 -0.0957 -0.1091 -0.0412
 9391SOL    HW139806   3.579   1.338  17.531 -0.6079  0.3977 -0.8566
 9391SOL    HW239807   3.679   1.236  17.501 -0.2954 -0.4793  0.3130
 9392SOL     OW39808   4.556   4.420  11.131  0.2301 -0.8032  0.0738
 9392SOL    HW139809   4.536   4.373  11.212 -0.4415 -0.0480  0.3511
 9392SOL    HW239810   4.481   4.480  11.120  0.7714  0.0382  0.9496
 9393SOL     OW39811   2.670   2.331   6.975  0.3807 -0.0971  0.6226
 9393SOL    HW139812   2.617   2.405   6.945  0.0038 -0.7029 -0.2183
 9393SOL    HW239813   2.613   2.255   6.969 -2.1822  1.8996 -0.3424
 9394SOL     OW39814   0.489   3.732  11.301 -0.7491 -0.3074  0.2207
 9394SOL    HW139815   0.415   3.751  11.242 -0.0633  0.2569 -0.4620
 9394SOL    HW239816   0.491   3.806  11.361 -0.6147  0.3859 -0.6302
 9395SOL     OW39817   3.038   0.529   2.858  0.1714  0.2837 -0.3636
 9395SOL    HW139818   2.974   0.459   2.869  1.3581 -0.8006 -0.3535
 9395SOL    HW239819   2.984   0.608   2.866 -1.1981 -0.7361  0.5116
 9396SOL     OW39820   1.541   1.142   2.810 -0.5655 -0.2786  0.0660
 9396SOL    HW139821   1.597   1.206   2.764 -0.8651  0.0066  0.0970
 9396SOL    HW239822   1.460   1.176   2.772  0.5772  1.9858 -0.3899
 9397SOL     OW39823   4.239   2.973  12.925 -0.0663 -0.1866  0.4225
 9397SOL    HW139824   4.180   2.922  12.981  0.4838 -0.8288  0.4173
 9397SOL    HW239825   4.268   2.912  12.857  1.2104  0.0581  0.7498
 9398SOL     OW39826   1.371   0.288  11.457  0.3860  0.5190  0.2442
 9398SOL    HW139827   1.397   0.203  11.421 -0.3285 -0.3864  1.8845
 9398SOL    HW239828   1.452   0.331  11.430  0.0540  0.7455 -0.4073
 9399SOL     OW39829   1.670   1.965   6.364 -0.4862 -0.0467  0.3380
 9399SOL    HW139830   1.635   2.030   6.424 -1.2185  0.3466 -0.5140
 9399SOL    HW239831   1.618   1.888   6.387  0.4664 -1.0668 -0.9440
 9400SOL     OW39832   0.748   1.811   1.031 -0.3478  0.5828  0.1696
 9400SOL    HW139833   0.666   1.840   1.070 -0.4163 -0.8407  1.1136
 9400SOL    HW239834   0.796   1.893   1.024  1.1279 -0.3350 -0.5110
 9401SOL     OW39835   0.456   4.420   8.713  0.1447 -0.8166  0.1011
 9401SOL    HW139836   0.545   4.401   8.742  0.0091 -0.2133  0.9173
 9401SOL    HW239837   0.450   4.386   8.624  0.9965  0.1853 -0.3257
 9402SOL     OW39838   1.333   4.142   3.799  0.3489 -0.1648  0.3575
 9402SOL    HW139839   1.329   4.060   3.848  1.0036  0.8348  2.0973
 9402SOL    HW239840   1.374   4.203   3.860  0.0366  0.3238  0.0800
 9403SOL     OW39841   0.223   4.470  13.608  0.3891 -0.0202  0.7951
 9403SOL    HW139842   0.150   4.413  13.634  2.3756 -2.8139  0.2614
 9403SOL    HW239843   0.191   4.553  13.643  0.7141  0.1722  0.6301
 9404SOL     OW39844   4.720   0.922   6.149 -0.0672  0.2838 -0.1258
 9404SOL    HW139845   4.674   0.843   6.177  0.1390  0.0628 -0.4112
 9404SOL    HW239846   4.722   0.966   6.234 -2.1755  1.0005 -0.4461
 9405SOL     OW39847   1.118   4.444   8.838 -0.5942 -0.4334 -0.0139
 9405SOL    HW139848   1.023   4.444   8.853 -0.5782 -1.1711  0.1140
 9405SOL    HW239849   1.130   4.349   8.847 -0.4604 -0.2878  1.2756
 9406SOL     OW39850   0.480   3.837  12.642  0.3604 -0.7253  0.1597
 9406SOL    HW139851   0.522   3.895  12.705 -0.6175 -0.7293  0.8190
 9406SOL    HW239852   0.547   3.824  12.575  0.5985  3.1081 -0.3296
 9407SOL     OW39853   2.414   3.296   8.066 -0.6738  0.0212  0.2202
 9407SOL    HW139854   2.412   3.374   8.010 -0.6232 -1.3453 -1.6981
 9407SOL    HW239855   2.445   3.233   8.001 -0.5079 -1.6792  1.9638
 9408SOL     OW39856   0.622   3.176   4.644  0.5704 -0.3162 -0.0660
 9408SOL    HW139857   0.679   3.225   4.704  0.4308  1.4347 -1.3764
 9408SOL    HW239858   0.621   3.086   4.677 -2.5201 -0.3258 -0.2181
 9409SOL     OW39859   1.815   0.596   1.741  0.1826  0.1884  0.3337
 9409SOL    HW139860   1.785   0.506   1.753  0.1463  0.2450  0.6686
 9409SOL    HW239861   1.785   0.628   1.827 -1.3254 -0.1627 -0.0771
 9410SOL     OW39862   1.207   3.298   7.491  0.2773 -0.0751  0.1153
 9410SOL    HW139863   1.284   3.331   7.445 -1.1708  1.1868 -1.4104
 9410SOL    HW239864   1.141   3.360   7.460  1.3950 -0.4345 -3.0100
 9411SOL     OW39865   3.029   2.072   5.013  0.1341 -0.3796  0.5333
 9411SOL    HW139866   3.056   2.136   5.078 -1.2506  1.7809 -0.9950
 9411SOL    HW239867   2.943   2.056   5.051  0.0413  0.2395  0.5844
 9412SOL     OW39868   2.805   3.543   4.775  0.1413  0.7806 -0.1612
 9412SOL    HW139869   2.719   3.587   4.773 -1.2050 -1.7930  1.5303
 9412SOL    HW239870   2.780   3.459   4.813 -1.5186  1.7497  0.9058
 9413SOL     OW39871   3.597   4.474   7.200  0.2478  0.6768 -0.3588
 9413SOL    HW139872   3.525   4.489   7.262  0.4965 -1.5636  0.4961
 9413SOL    HW239873   3.671   4.478   7.260  1.2510 -2.3271 -1.3766
 9414SOL     OW39874   1.305   2.715  16.554  0.2129 -0.1708 -0.2778
 9414SOL    HW139875   1.374   2.653  16.578 -0.7249 -0.3689  1.9187
 9414SOL    HW239876   1.288   2.682  16.466  1.8677 -1.1664 -0.2127
 9415SOL     OW39877   2.489   3.799   0.439 -0.4559 -0.0927 -0.1553
 9415SOL    HW139878   2.451   3.739   0.374  1.3054 -2.9112  1.4122
 9415SOL    HW239879   2.402   3.831   0.464 -0.6671  0.0244 -1.0230
 9416SOL     OW39880   1.510   4.308   0.840 -0.2108 -0.1457 -0.3764
 9416SOL    HW139881   1.592   4.338   0.880 -1.3688  0.0881  1.8503
 9416SOL    HW239882   1.475   4.254   0.910  1.4354  0.2392  0.7584
 9417SOL     OW39883   0.891   1.857   4.441  0.6449  0.0017  0.2887
 9417SOL    HW139884   0.966   1.798   4.443 -2.3033 -3.7894 -1.2823
 9417SOL    HW239885   0.826   1.813   4.495  0.6145  1.8484  1.7545
 9418SOL     OW39886   1.036   1.119   6.942 -0.2505 -0.7227  0.1108
 9418SOL    HW139887   1.071   1.079   6.863  1.3370  1.7360 -0.4310
 9418SOL    HW239888   1.061   1.210   6.926 -2.4573  0.1317  1.6110
 9419SOL     OW39889   2.052   2.749   9.066  0.0150 -0.4362  0.3160
 9419SOL    HW139890   2.110   2.748   9.142 -0.5005 -2.1803  0.6790
 9419SOL    HW239891   2.121   2.716   9.009 -0.6871 -2.2475  0.5142
 9420SOL     OW39892   4.155   2.710   4.251 -0.1796 -0.2454 -0.1571
 9420SOL    HW139893   4.106   2.673   4.324  1.0459  0.3144  0.9538
 9420SOL    HW239894   4.190   2.635   4.203  0.3014  0.0648 -0.2965
 9421SOL     OW39895   3.830   1.580  13.332  0.2297 -0.3395 -0.7371
 9421SOL    HW139896   3.835   1.505  13.272 -1.8816 -1.0586 -0.0003
 9421SOL    HW239897   3.868   1.648  13.277  1.7944  2.4401  3.7947
 9422SOL     OW39898   3.249   1.129  16.563  0.2112  0.3457  0.7882
 9422SOL    HW139899   3.274   1.037  16.549 -0.1758  0.4762 -0.7992
 9422SOL    HW239900   3.225   1.122  16.655  0.7342  1.4358  1.0006
 9423SOL     OW39901   0.789   4.199   1.941 -0.8489 -0.5034 -0.0868
 9423SOL    HW139902   0.851   4.201   1.868  0.3418  0.9152  0.9451
 9423SOL    HW239903   0.713   4.225   1.889 -1.4576  0.7412  1.3913
 9424SOL     OW39904   1.792   0.613   4.911  0.3100  0.2948 -0.5398
 9424SOL    HW139905   1.729   0.671   4.868  0.4869  0.5805 -0.4160
 9424SOL    HW239906   1.784   0.545   4.844  1.3613  0.0556 -0.4236
 9425SOL     OW39907   1.413   1.052   8.461 -0.2640  0.6423 -0.1175
 9425SOL    HW139908   1.420   1.008   8.377  0.1175 -0.1136  0.3088
 9425SOL    HW239909   1.402   1.144   8.438  3.9282  0.5051 -2.8380
 9426SOL     OW39910   0.021   2.283   8.068 -0.2057 -0.4401  0.3938
 9426SOL    HW139911   0.047   2.317   7.983 -0.5925  5.2507  2.5396
 9426SOL    HW239912   0.068   2.345   8.124 -0.5247  0.5591 -0.4436
 9427SOL     OW39913   0.479   4.047  11.658 -0.6189 -0.0423 -0.3998
 9427SOL    HW139914   0.427   4.101  11.718 -0.3448  2.2010 -2.1757
 9427SOL    HW239915   0.567   4.077  11.682 -1.2316  1.5512 -0.1388
 9428SOL     OW39916   3.140   1.943  12.048  0.2300 -0.1466 -0.6745
 9428SOL    HW139917   3.151   1.991  11.966 -2.5591  0.3067 -0.7679
 9428SOL    HW239918   3.199   1.868  12.038  2.7539  1.6332  0.5975
 9429SOL     OW39919   0.552   4.343   3.046 -0.0817  0.4268  0.0431
 9429SOL    HW139920   0.644   4.368   3.061  0.6260 -0.2525 -3.0914
 9429SOL    HW239921   0.542   4.268   3.104 -0.8771 -0.1906 -0.8953
 9430SOL     OW39922   1.025   3.568   2.773 -0.7054  0.3449 -0.4870
 9430SOL    HW139923   1.117   3.550   2.754 -0.6670 -0.0842  0.1102
 9430SOL    HW239924   1.031   3.593   2.865  2.9799 -1.9276 -0.1175
 9431SOL     OW39925   0.229   3.387   5.428  1.0721 -0.2094 -0.1041
 9431SOL    HW139926   0.289   3.455   5.457  0.4485  0.4926 -0.4802
 9431SOL    HW239927   0.164   3.395   5.498 -1.2316  1.4950 -2.4384
 9432SOL     OW39928   4.272   3.148   9.288  0.0737  0.1484  0.1006
 9432SOL    HW139929   4.274   3.111   9.376 -0.6000 -0.0173  0.0453
 9432SOL    HW239930   4.346   3.105   9.244  0.0614 -0.7964  1.0197
 9433SOL     OW39931   3.646   3.122   0.108 -0.4682 -0.4361  0.0358
 9433SOL    HW139932   3.564   3.091   0.146  0.6393 -3.4218 -0.0454
 9433SOL    HW239933   3.632   3.216   0.094  0.1168 -0.1695  1.2559
 9434SOL     OW39934   0.292   2.976  16.252  0.2599 -0.3705  0.1247
 9434SOL    HW139935   0.333   3.032  16.187  0.7950 -1.8105 -0.7940
 9434SOL    HW239936   0.275   3.036  16.324 -0.1235 -0.0294 -0.2486
 9435SOL     OW39937   2.002   0.280   2.743 -0.9266 -0.2105 -0.2828
 9435SOL    HW139938   1.923   0.329   2.765  0.7914  1.8880  1.2170
 9435SOL    HW239939   2.019   0.253   2.834 -2.1677  1.9791  0.5812
 9436SOL     OW39940   3.709   0.599   3.186  0.0607 -0.0584 -0.3569
 9436SOL    HW139941   3.695   0.625   3.095 -1.4164 -0.6591 -0.3140
 9436SOL    HW239942   3.690   0.686   3.221 -0.2519 -0.9317  1.6529
 9437SOL     OW39943   4.361   1.719   4.766  0.4526  0.0766 -0.5617
 9437SOL    HW139944   4.369   1.763   4.850  2.1884 -0.4896 -0.4398
 9437SOL    HW239945   4.406   1.780   4.708 -0.4826  0.2133 -1.1410
 9438SOL     OW39946   2.849   2.584   5.235 -0.4036  0.0310  0.0706
 9438SOL    HW139947   2.935   2.625   5.220 -0.2718 -1.5537 -3.5602
 9438SOL    HW239948   2.795   2.614   5.162 -0.1917  0.9269  0.2866
 9439SOL     OW39949   0.731   4.181  13.058  0.1212 -0.0023 -0.2414
 9439SOL    HW139950   0.665   4.222  13.114  2.3760  1.5193  1.3149
 9439SOL    HW239951   0.718   4.237  12.982  3.7197 -1.3448 -1.8367
 9440SOL     OW39952   1.592   3.248   9.337 -0.2033  0.4860 -0.2039
 9440SOL    HW139953   1.685   3.272   9.334  0.0114 -0.7146 -2.9707
 9440SOL    HW239954   1.590   3.200   9.254 -0.5951  0.5929 -0.2540
 9441SOL     OW39955   2.142   2.419   8.522 -0.8531  0.3133 -0.7017
 9441SOL    HW139956   2.143   2.370   8.605  0.1043 -1.1556 -1.5838
 9441SOL    HW239957   2.050   2.409   8.496 -1.3166  0.5563  0.8509
 9442SOL     OW39958   0.417   2.556   8.510  0.2734 -0.3340  0.1473
 9442SOL    HW139959   0.483   2.513   8.455  1.6802  0.8099  0.9335
 9442SOL    HW239960   0.425   2.649   8.488 -0.2520 -0.0379  1.2249
 9443SOL     OW39961   1.970   1.976   2.340 -0.3801  0.6568  0.0407
 9443SOL    HW139962   1.931   2.019   2.416 -0.5881 -0.2719  0.4595
 9443SOL    HW239963   1.993   2.044   2.276  0.3874  1.2096  0.8951
 9444SOL     OW39964   2.039   1.988   3.157 -0.1279  0.4942  0.5109
 9444SOL    HW139965   2.039   2.082   3.139 -0.4523  0.0219 -1.9872
 9444SOL    HW239966   1.944   1.980   3.161 -0.0040 -0.8599  0.6786
 9445SOL     OW39967   1.289   4.524   4.073 -0.0616  0.0808  0.4484
 9445SOL    HW139968   1.369   4.541   4.124  0.1163  1.8979 -0.4373
 9445SOL    HW239969   1.234   4.577   4.130 -1.7907 -1.3072  0.0773
 9446SOL     OW39970   3.654   4.613  15.691 -0.2061  0.3942  0.3331
 9446SOL    HW139971   3.709   4.676  15.643  0.0477 -0.0265  0.0740
 9446SOL    HW239972   3.588   4.669  15.731  0.2530  0.1547  1.4196
 9447SOL     OW39973   2.456   1.280   8.600 -0.3944  0.2952  0.4313
 9447SOL    HW139974   2.504   1.356   8.635  0.8939 -1.1241  1.7354
 9447SOL    HW239975   2.403   1.321   8.531 -1.0690  1.2134  1.4863
 9448SOL     OW39976   0.725   3.994   5.151  0.0416  0.4068 -0.0129
 9448SOL    HW139977   0.674   4.068   5.118  1.3924  1.2008 -0.3058
 9448SOL    HW239978   0.733   4.026   5.241  0.6797 -1.4690  0.5792
 9449SOL     OW39979   1.631   2.032   4.727  0.0884  0.2283  0.0352
 9449SOL    HW139980   1.537   2.033   4.747  0.1203  3.5750 -0.0260
 9449SOL    HW239981   1.648   1.938   4.720  1.2870  0.4761 -0.3503
 9450SOL     OW39982   3.091   4.415   0.903  0.3877 -0.9019 -0.0734
 9450SOL    HW139983   3.099   4.467   0.823  0.8984 -0.3821  0.3104
 9450SOL    HW239984   3.101   4.329   0.862  1.3375 -0.8978  0.1525
 9451SOL     OW39985   0.568   4.023  16.026  0.1275 -0.0972 -0.1441
 9451SOL    HW139986   0.481   3.992  16.003  0.5766 -2.6412  1.5186
 9451SOL    HW239987   0.568   4.117  16.009  0.2449 -0.0737 -0.0197
 9452SOL     OW39988   0.037   2.322   9.130 -0.0494  0.5603  0.4675
 9452SOL    HW139989   4.680   2.340   9.102 -0.0107 -0.5300 -0.3687
 9452SOL    HW239990   0.044   2.229   9.107 -2.2680  0.1086  1.6104
 9453SOL     OW39991   3.883   4.248   5.890 -0.2206 -0.1057  0.6131
 9453SOL    HW139992   3.934   4.329   5.887 -2.7834  1.3876 -1.9676
 9453SOL    HW239993   3.960   4.192   5.891  0.3727  0.6479 -2.7705
 9454SOL     OW39994   0.107   4.403   9.615  0.4341  0.5371 -0.0509
 9454SOL    HW139995   0.013   4.413   9.632  0.3707  0.8609 -0.5607
 9454SOL    HW239996   0.120   4.323   9.665  0.5688  1.3995  1.2885
 9455SOL     OW39997   4.712   1.162  10.086  0.0080 -0.5250 -0.3451
 9455SOL    HW139998   4.639   1.217  10.058 -0.8230 -0.2353  2.3805
 9455SOL    HW239999   0.051   1.223  10.105  1.5114 -1.9444 -1.4735
 9456SOL     OW40000   2.156   3.843   7.009 -0.5652 -0.3040 -0.3010
 9456SOL    HW140001   2.060   3.843   7.015 -0.3579  1.1793  2.4876
 9456SOL    HW240002   2.181   3.903   6.939 -1.7330  1.5175  0.8609
 9457SOL     OW40003   0.329   0.775   8.849  0.9668 -0.4897  0.1475
 9457SOL    HW140004   0.284   0.840   8.903  0.6911 -0.7710  0.2573
 9457SOL    HW240005   0.261   0.752   8.785  0.8303 -0.0138  0.1251
 9458SOL     OW40006   2.821   1.938   4.107  0.0258 -0.0539 -0.3928
 9458SOL    HW140007   2.838   2.028   4.135 -1.5771  0.5621 -1.4507
 9458SOL    HW240008   2.815   1.883   4.185  1.5762  2.4831  1.5334
 9459SOL     OW40009   3.078   4.593   0.691  0.5450  0.1300  0.1170
 9459SOL    HW140010   3.169   4.617   0.675  0.6309 -0.5932 -0.4866
 9459SOL    HW240011   3.045   4.667   0.742  0.8156  0.9016 -0.8233
 9460SOL     OW40012   1.878   0.486  10.488 -0.1629  0.2970 -0.3790
 9460SOL    HW140013   1.796   0.536  10.483  1.0131  2.1047 -1.6363
 9460SOL    HW240014   1.845   0.425  10.554 -0.4375 -0.7374 -1.4684
 9461SOL     OW40015   3.115   0.210  16.889 -0.0240  0.3602  0.5916
 9461SOL    HW140016   3.134   0.304  16.884 -0.9004  0.4581 -0.7406
 9461SOL    HW240017   3.023   0.210  16.866 -0.0421  2.7025  0.6713
 9462SOL     OW40018   2.214   3.708   1.979  0.0783 -0.6381 -0.4076
 9462SOL    HW140019   2.277   3.776   2.004  0.1886 -1.1229  0.6341
 9462SOL    HW240020   2.232   3.702   1.885 -0.4123  1.2795 -0.6219
 9463SOL     OW40021   0.088   3.090  12.647 -0.1806  0.1020  0.2768
 9463SOL    HW140022   0.145   3.092  12.571  2.5425  1.8213  2.3912
 9463SOL    HW240023   0.126   3.154  12.706  0.5128 -0.8449  0.8518
 9464SOL     OW40024   3.567   4.267   4.448  0.1569  0.0889 -0.0048
 9464SOL    HW140025   3.630   4.316   4.394 -0.5956  0.5040 -0.5106
 9464SOL    HW240026   3.534   4.213   4.376  2.0907 -1.1395  0.0609
 9465SOL     OW40027   4.010   3.133  14.264 -0.9627  0.2255  0.3174
 9465SOL    HW140028   4.051   3.076  14.330 -1.6208  0.2507  0.7516
 9465SOL    HW240029   3.950   3.066  14.229  1.4983 -1.2669 -1.0339
 9466SOL     OW40030   0.299   3.207   0.255 -0.0012 -0.4907  0.0341
 9466SOL    HW140031   0.314   3.260   0.334 -1.6945  0.1376 -0.0556
 9466SOL    HW240032   0.253   3.132   0.293  0.0276 -0.4581  0.1351
 9467SOL     OW40033   0.528   0.633   6.984 -0.0566  0.0341  0.1488
 9467SOL    HW140034   0.550   0.570   6.916 -0.9035 -1.2922  1.1116
 9467SOL    HW240035   0.507   0.705   6.924  0.4569 -0.3463 -0.4761
 9468SOL     OW40036   3.620   4.588   7.511 -0.0356 -0.3275  0.1320
 9468SOL    HW140037   3.579   4.562   7.593 -0.2527 -0.2644  0.0422
 9468SOL    HW240038   3.584   4.674   7.489 -1.5960 -1.4812 -1.8548
 9469SOL     OW40039   0.277   3.358  15.057 -0.2399  0.7834 -0.8615
 9469SOL    HW140040   0.260   3.450  15.080 -0.2300  1.1389 -2.2665
 9469SOL    HW240041   0.205   3.350  14.993 -1.3025 -0.1589  0.4567
 9470SOL     OW40042   2.308   1.661   1.271 -0.3991  0.3627 -0.3823
 9470SOL    HW140043   2.312   1.566   1.255  0.0158  0.1536  0.9744
 9470SOL    HW240044   2.250   1.682   1.198  1.4493  1.3776 -1.5308
 9471SOL     OW40045   2.772   0.649  12.516  0.1239 -0.4725  0.1855
 9471SOL    HW140046   2.840   0.583  12.501  2.6970  2.8132 -2.4601
 9471SOL    HW240047   2.786   0.696  12.599  0.1251  1.0183 -0.6656
 9472SOL     OW40048   0.848   1.846   6.450  0.4163 -0.2683  0.1209
 9472SOL    HW140049   0.927   1.792   6.447 -0.9211 -2.2013 -0.4787
 9472SOL    HW240050   0.881   1.916   6.506 -2.2809  1.5764 -0.5754
 9473SOL     OW40051   1.302   4.165   4.827 -0.7515 -0.1918  0.4574
 9473SOL    HW140052   1.331   4.175   4.917  0.0969 -0.2523  0.1831
 9473SOL    HW240053   1.368   4.224   4.790 -1.1560  1.5424  2.5023
 9474SOL     OW40054   3.588   2.245   3.004  0.1300  0.1516 -0.0062
 9474SOL    HW140055   3.510   2.236   2.950  0.0443  0.1093  0.1248
 9474SOL    HW240056   3.656   2.211   2.945  0.5065  2.4821 -0.9221
 9475SOL     OW40057   2.484   1.996  15.700  0.0843  0.3107 -0.4375
 9475SOL    HW140058   2.419   1.927  15.710  2.0809 -1.5040  0.0811
 9475SOL    HW240059   2.460   2.038  15.618 -0.9541 -0.0708 -0.3303
 9476SOL     OW40060   0.185   3.879   1.361  0.3954 -0.4970 -0.0724
 9476SOL    HW140061   0.252   3.928   1.314  2.7158  0.3134  4.0409
 9476SOL    HW240062   0.113   3.941   1.355  0.4174 -0.3627  0.9988
 9477SOL     OW40063   1.739   2.816   9.808  0.4319 -0.0343  0.4899
 9477SOL    HW140064   1.745   2.912   9.811 -0.0416 -0.0095  0.6361
 9477SOL    HW240065   1.814   2.777   9.852  0.4656 -3.1116 -2.3025
 9478SOL     OW40066   2.154   1.868   2.514 -0.7030  0.2334  0.2193
 9478SOL    HW140067   2.161   1.955   2.554 -2.0176  0.4441 -0.0082
 9478SOL    HW240068   2.069   1.876   2.471  1.2573  3.6667 -2.9133
 9479SOL     OW40069   2.777   4.075   2.988  0.5904  0.0870  0.2169
 9479SOL    HW140070   2.746   3.985   2.994 -0.5357  0.4442 -0.1952
 9479SOL    HW240071   2.832   4.077   2.909  1.7320 -0.1985  1.0058
 9480SOL     OW40072   0.943   2.272   4.140 -0.2264  0.7538 -0.0602
 9480SOL    HW140073   0.993   2.301   4.215 -0.4595 -0.6042  0.6119
 9480SOL    HW240074   0.940   2.346   4.079 -1.4146  0.4452 -0.3847
 9481SOL     OW40075   4.130   0.478   4.547  0.2848 -0.3974 -0.1491
 9481SOL    HW140076   4.144   0.570   4.522 -0.3972  0.1352  1.4367
 9481SOL    HW240077   4.133   0.436   4.461  2.5684  3.1001 -1.7744
 9482SOL     OW40078   0.252   4.325   0.759 -0.1411 -0.6709 -0.6055
 9482SOL    HW140079   0.325   4.356   0.813 -0.1475 -0.7690 -0.5404
 9482SOL    HW240080   0.247   4.237   0.797 -2.1999 -1.4263 -2.5811
 9483SOL     OW40081   0.627   0.413  11.589  0.1094 -0.7759  0.5233
 9483SOL    HW140082   0.675   0.438  11.667 -1.6827  0.0046  1.3740
 9483SOL    HW240083   0.690   0.455  11.530 -0.8057  0.0767  0.1394
 9484SOL     OW40084   0.919   0.382   8.400  0.1593 -0.0827 -0.0257
 9484SOL    HW140085   0.958   0.432   8.472  0.4860 -2.9522  1.8148
 9484SOL    HW240086   0.843   0.347   8.446  1.5125 -1.5975  1.0609
 9485SOL     OW40087   1.081   3.383   8.902  0.2624 -0.4321  0.0137
 9485SOL    HW140088   1.164   3.430   8.904  0.5897 -1.0242  0.3854
 9485SOL    HW240089   1.098   3.315   8.968 -0.5715  2.0312  2.7653
 9486SOL     OW40090   3.067   0.648   0.006 -0.5613  0.7881 -0.4346
 9486SOL    HW140091   3.100   0.655   0.096  3.4134  0.1123 -1.8478
 9486SOL    HW240092   2.984   0.608   0.033 -0.1689  1.6381  2.0834
 9487SOL     OW40093   2.833   1.948   6.411  0.3470  0.6548 -0.3002
 9487SOL    HW140094   2.743   1.940   6.443  0.1964 -2.7003 -1.6030
 9487SOL    HW240095   2.824   2.032   6.365  1.1552  0.8206 -0.1493
 9488SOL     OW40096   0.681   1.676  10.363 -0.8002  0.3097  0.2788
 9488SOL    HW140097   0.647   1.752  10.314 -1.1510  0.9734  1.5546
 9488SOL    HW240098   0.644   1.688  10.450  0.4285 -0.0397  0.8401
 9489SOL     OW40099   0.362   4.292   3.923 -0.5540  0.3636 -0.0101
 9489SOL    HW140100   0.373   4.355   3.852 -0.3706 -0.4448 -0.7059
 9489SOL    HW240101   0.274   4.263   3.895  0.1387  3.3742 -5.4013
 9490SOL     OW40102   2.619   2.306   2.789  0.5698 -0.4966  0.2456
 9490SOL    HW140103   2.532   2.344   2.804  0.8984  0.9910 -1.4965
 9490SOL    HW240104   2.627   2.240   2.857 -1.9988 -1.8758 -0.7797
 9491SOL     OW40105   3.985   0.109   3.818 -0.1458 -0.4718 -0.4304
 9491SOL    HW140106   3.942   0.138   3.898 -1.2794 -2.8412 -0.1640
 9491SOL    HW240107   3.955   0.174   3.756  2.9469  2.6636  1.3530
 9492SOL     OW40108   3.800   1.554   7.926  0.0408  0.4036 -0.0411
 9492SOL    HW140109   3.752   1.566   7.844  1.7811 -0.2755 -1.1806
 9492SOL    HW240110   3.739   1.554   7.999  1.3616 -1.7153  1.0866
 9493SOL     OW40111   0.004   4.141   3.048  0.3614 -0.7984  0.0356
 9493SOL    HW140112   4.696   4.227   3.056  0.2193 -0.9740  1.1739
 9493SOL    HW240113   4.693   4.088   3.114 -1.0281  0.3554  0.0437
 9494SOL     OW40114   1.372   3.753   5.480  0.2463 -0.7933  0.3322
 9494SOL    HW140115   1.423   3.831   5.503  1.0233 -1.0519 -0.4789
 9494SOL    HW240116   1.318   3.749   5.558 -0.8851 -1.3233 -0.4747
 9495SOL     OW40117   1.288   2.977   6.382  0.2025 -0.0368 -0.7165
 9495SOL    HW140118   1.359   3.041   6.392  0.0588 -0.1937  1.2044
 9495SOL    HW240119   1.322   2.928   6.306  1.2448  0.9064 -0.8634
 9496SOL     OW40120   0.434   1.413   2.481 -0.3611  0.0448 -0.2125
 9496SOL    HW140121   0.395   1.491   2.522  0.1480 -0.0035  0.3605
 9496SOL    HW240122   0.355   1.385   2.435 -0.4202  0.7961 -0.5728
 9497SOL     OW40123   4.575   2.406   6.421 -0.4792 -0.2829 -0.0395
 9497SOL    HW140124   4.612   2.453   6.347  1.4856  0.8028  1.6421
 9497SOL    HW240125   4.645   2.409   6.487 -1.8526  1.5623  1.3289
 9498SOL     OW40126   2.254   0.511   7.493 -0.2089  0.6557  0.3406
 9498SOL    HW140127   2.254   0.475   7.581 -2.2491  0.7223  0.3771
 9498SOL    HW240128   2.290   0.597   7.513 -0.2624  1.0062 -1.0544
 9499SOL     OW40129   1.687   0.344   3.530 -0.2248  0.4695  0.4790
 9499SOL    HW140130   1.750   0.412   3.556  0.9264 -1.0270  1.5564
 9499SOL    HW240131   1.730   0.291   3.463 -0.9436  1.8502 -1.0922
 9500SOL     OW40132   0.699   0.264   4.220 -0.0703 -0.3234  0.0979
 9500SOL    HW140133   0.772   0.273   4.159 -0.2940  2.5494  0.2296
 9500SOL    HW240134   0.632   0.319   4.178 -0.7756 -0.9938  0.3574
 9501SOL     OW40135   4.579   3.742   9.439 -0.4745 -0.0434 -0.0529
 9501SOL    HW140136   4.500   3.794   9.457  0.2987  0.4975  1.7410
 9501SOL    HW240137   4.546   3.670   9.385  0.5445 -1.6864  1.5550
 9502SOL     OW40138   2.687   1.993  16.510  0.5948 -0.2507  0.3681
 9502SOL    HW140139   2.767   1.963  16.466  0.3737  0.2783 -0.3837
 9502SOL    HW240140   2.626   2.000  16.437  2.2843 -0.6244 -1.0834
 9503SOL     OW40141   1.343   3.752   3.404  0.3941  0.1727  0.5842
 9503SOL    HW140142   1.375   3.819   3.465  2.1965 -0.0855 -0.0590
 9503SOL    HW240143   1.319   3.806   3.328 -2.2015 -0.5611  0.9023
 9504SOL     OW40144   4.449   4.489   2.471  0.3557 -0.5403  0.2397
 9504SOL    HW140145   4.409   4.494   2.558  2.2897  0.9363  1.0528
 9504SOL    HW240146   4.534   4.529   2.491  0.4347 -0.0133 -1.1826
 9505SOL     OW40147   4.434   0.913   4.059 -0.3336 -0.1245 -0.7568
 9505SOL    HW140148   4.356   0.968   4.061  0.8413  1.4414  1.3642
 9505SOL    HW240149   4.473   0.919   4.146  1.6936 -0.1629 -1.6469
 9506SOL     OW40150   0.141   2.316   2.324  0.1517  0.6664 -0.2803
 9506SOL    HW140151   0.117   2.275   2.407  2.3899 -0.2424 -0.0821
 9506SOL    HW240152   0.051   2.346   2.314  0.3529  0.6622 -2.1478
 9507SOL     OW40153   0.960   1.821   8.992  0.1687 -0.3009  0.4343
 9507SOL    HW140154   1.049   1.856   8.998  0.7156 -1.2185 -2.1887
 9507SOL    HW240155   0.917   1.820   9.077 -1.2509  1.5942 -0.2562
 9508SOL     OW40156   0.876   2.285   7.947 -0.2739  0.2603  0.5484
 9508SOL    HW140157   0.835   2.227   8.012  0.4706  1.2885  1.9502
 9508SOL    HW240158   0.817   2.361   7.951  1.9585  2.0479 -0.4514
 9509SOL     OW40159   1.016   3.118  15.220  0.0434 -0.1631 -0.1034
 9509SOL    HW140160   1.098   3.103  15.173 -0.7213  1.1702 -1.8945
 9509SOL    HW240161   0.986   3.202  15.185  0.4362 -0.6808 -1.6983
 9510SOL     OW40162   4.602   1.095   6.330 -0.0106 -0.1919 -0.2539
 9510SOL    HW140163   4.589   1.159   6.259 -0.9503 -0.8237 -0.6394
 9510SOL    HW240164   4.579   1.139   6.412 -2.5006 -0.6735 -0.7156
 9511SOL     OW40165   1.396   3.890   1.204  0.0544  0.8732 -0.1340
 9511SOL    HW140166   1.420   3.906   1.296 -0.9135  1.8618 -0.0615
 9511SOL    HW240167   1.449   3.811   1.194 -0.2879  0.6265 -0.0136
 9512SOL     OW40168   2.504   2.773   2.108  0.2504  0.5940  0.0655
 9512SOL    HW140169   2.585   2.748   2.153  0.0893  0.2845  0.1874
 9512SOL    HW240170   2.437   2.733   2.164 -1.3544  1.3042 -1.3451
 9513SOL     OW40171   2.995   1.472  13.256  0.5992 -0.1201  0.2842
 9513SOL    HW140172   2.906   1.439  13.266 -0.8314  3.7998  0.3817
 9513SOL    HW240173   2.990   1.481  13.160  0.8076 -0.3675  0.2491
 9514SOL     OW40174   4.127   2.939  15.082  0.1813  0.1205 -0.5115
 9514SOL    HW140175   4.185   2.885  15.136 -0.7390  3.4990  3.8413
 9514SOL    HW240176   4.168   2.948  14.995  0.3483  2.3121 -0.2001
 9515SOL     OW40177   3.874   1.491   2.805 -1.0974 -0.1845 -0.2313
 9515SOL    HW140178   3.872   1.395   2.804  1.2671 -0.2028 -1.9738
 9515SOL    HW240179   3.956   1.515   2.848 -0.8075 -0.1860 -0.7960
 9516SOL     OW40180   0.608   1.010  17.639 -0.1365 -0.2330 -0.8479
 9516SOL    HW140181   0.608   1.105  17.644 -1.1388 -0.4433  3.4706
 9516SOL    HW240182   0.601   0.993  17.545  0.3693 -0.8592 -0.7741
 9517SOL     OW40183   0.171   2.113   8.332  0.4707  0.0835 -0.1818
 9517SOL    HW140184   0.086   2.128   8.291 -1.2337 -0.3911  3.1654
 9517SOL    HW240185   0.219   2.183   8.289  0.4887  0.4265  0.3984
 9518SOL     OW40186   4.410   1.649   2.862 -0.0201  0.1485  0.1006
 9518SOL    HW140187   4.367   1.582   2.808 -1.3233 -0.5204  1.9726
 9518SOL    HW240188   4.503   1.633   2.842 -0.3297  2.8422 -3.5355
 9519SOL     OW40189   1.255   4.577   2.371 -0.0965 -0.0358  0.3148
 9519SOL    HW140190   1.190   4.640   2.401  0.0899  0.8695 -1.2374
 9519SOL    HW240191   1.336   4.628   2.375  0.0042 -0.2064  0.4838
 9520SOL     OW40192   2.547   3.268   7.214 -0.4156  0.4447 -0.2274
 9520SOL    HW140193   2.572   3.205   7.147 -2.6079 -0.7508  0.0922
 9520SOL    HW240194   2.598   3.236   7.288  0.2210  0.5969 -0.6037
 9521SOL     OW40195   1.072   2.997   2.942  0.1500 -0.2185  0.0958
 9521SOL    HW140196   1.117   3.061   2.998  0.5580  1.6533 -2.3548
 9521SOL    HW240197   1.019   3.052   2.884  2.0870  1.3231 -0.2311
 9522SOL     OW40198   4.064   4.455   6.930  0.1483  0.2861 -0.0972
 9522SOL    HW140199   3.991   4.443   6.870  0.4381 -1.6923 -0.0786
 9522SOL    HW240200   4.017   4.489   7.006 -1.1490 -0.2197 -0.6597
 9523SOL     OW40201   2.477   2.747  16.623  0.6824  0.2963 -0.0468
 9523SOL    HW140202   2.454   2.671  16.571 -0.1920  0.9641 -0.6292
 9523SOL    HW240203   2.537   2.800  16.570  2.0114 -1.1874 -0.0136
 9524SOL     OW40204   0.439   3.388   6.688  0.0434  0.4449 -0.3717
 9524SOL    HW140205   0.371   3.329   6.723  0.2037  1.0438  0.9432
 9524SOL    HW240206   0.382   3.432   6.624 -0.8551 -0.0666  0.0643
 9525SOL     OW40207   0.494   1.991   0.257  0.2157 -0.1376 -0.3623
 9525SOL    HW140208   0.566   1.974   0.197  0.3959 -0.9824  0.0829
 9525SOL    HW240209   0.521   2.081   0.277  1.0689 -0.4159 -0.2360
 9526SOL     OW40210   3.339   0.224   1.709  0.1286  0.2056 -0.2664
 9526SOL    HW140211   3.307   0.134   1.707  0.4586  0.1648 -4.3057
 9526SOL    HW240212   3.360   0.235   1.616  3.3027  1.3763  0.5995
 9527SOL     OW40213   4.678   1.278   8.860  0.2775 -0.8756  0.3753
 9527SOL    HW140214   4.719   1.223   8.927  0.0100 -3.1149 -1.3053
 9527SOL    HW240215   4.733   1.356   8.866  0.6351 -1.2200  1.5715
 9528SOL     OW40216   1.099   1.706   0.238 -0.2023  0.1350 -0.2618
 9528SOL    HW140217   1.031   1.772   0.252  0.5570  0.6920  0.8219
 9528SOL    HW240218   1.163   1.745   0.297  1.6505  2.5311 -3.8499
 9529SOL     OW40219   1.958   2.420   2.343  0.1338 -0.1422 -0.3087
 9529SOL    HW140220   1.908   2.422   2.262  0.3646 -0.0582 -0.4494
 9529SOL    HW240221   2.041   2.379   2.317 -0.0216 -1.1284  0.7225
 9530SOL     OW40222   3.033   0.605  14.259 -0.3307 -0.1725 -0.1814
 9530SOL    HW140223   3.064   0.693  14.280 -0.5401  0.3296 -1.9879
 9530SOL    HW240224   3.110   0.551  14.276 -1.1782 -1.2143  0.3604
 9531SOL     OW40225   3.538   0.778   6.514  0.0156  0.2804  0.4081
 9531SOL    HW140226   3.448   0.745   6.522  0.0275  0.4047  1.0920
 9531SOL    HW240227   3.591   0.727   6.576  0.6061  0.4170  0.0169
 9532SOL     OW40228   4.483   3.564   9.270  0.1278 -0.3319  0.1563
 9532SOL    HW140229   4.533   3.485   9.253  3.1950  2.6494 -4.4443
 9532SOL    HW240230   4.396   3.531   9.293  1.1306 -2.1129  1.3978
 9533SOL     OW40231   0.631   1.747  16.958  0.7081 -0.1385 -0.5682
 9533SOL    HW140232   0.681   1.781  16.883  0.1718  0.1432 -0.8014
 9533SOL    HW240233   0.563   1.690  16.922 -1.6179  1.6528  1.0121
 9534SOL     OW40234   3.387   1.252   9.028 -0.0722 -0.6354 -0.0574
 9534SOL    HW140235   3.335   1.172   9.017  0.5786 -1.5129  3.2667
 9534SOL    HW240236   3.390   1.280   8.936 -1.1625  0.6931  0.3210
 9535SOL     OW40237   0.866   2.121   4.461  0.0347  0.1433 -0.0387
 9535SOL    HW140238   0.881   2.028   4.444  0.3527  0.3081 -0.6471
 9535SOL    HW240239   0.843   2.163   4.379 -0.4997 -0.6580 -0.3025
 9536SOL     OW40240   0.543   1.438  15.061  0.2858  0.1007 -0.1950
 9536SOL    HW140241   0.539   1.389  14.979 -0.3305  2.7030 -1.7091
 9536SOL    HW240242   0.476   1.392  15.112  0.7653  1.6193  1.8316
 9537SOL     OW40243   1.960   4.583   4.808 -0.0057  0.2231 -0.5147
 9537SOL    HW140244   2.029   4.645   4.834 -0.5477 -0.1655  1.8725
 9537SOL    HW240245   1.924   4.632   4.735  0.8182 -1.4139 -2.0330
 9538SOL     OW40246   2.138   4.509  13.215  0.0279 -0.3315  0.6569
 9538SOL    HW140247   2.187   4.592  13.211 -0.9823  0.3599  3.3007
 9538SOL    HW240248   2.127   4.505  13.310 -2.6000  0.9296  0.3814
 9539SOL     OW40249   2.395   4.322  13.385 -0.3887  0.0556 -0.4922
 9539SOL    HW140250   2.321   4.275  13.423 -2.1822  0.9069 -2.9741
 9539SOL    HW240251   2.435   4.373  13.456 -0.2325 -0.6399 -0.0796
 9540SOL     OW40252   3.525   1.530   3.114  0.6184 -0.2873 -0.2485
 9540SOL    HW140253   3.617   1.558   3.111  0.8628 -1.2841 -1.8014
 9540SOL    HW240254   3.511   1.542   3.208 -0.2794 -1.6115 -0.2146
 9541SOL     OW40255   2.301   0.480  17.479 -0.1329 -0.1207 -0.2966
 9541SOL    HW140256   2.304   0.394  17.519  0.6809  0.5641  1.0925
 9541SOL    HW240257   2.237   0.519  17.538  0.1187 -1.5240  0.8897
 9542SOL     OW40258   3.312   4.244   5.839  0.2131  0.1042  0.9151
 9542SOL    HW140259   3.257   4.316   5.808  0.1703  0.6567  2.3025
 9542SOL    HW240260   3.360   4.229   5.757 -1.4988 -0.7507  0.0496
 9543SOL     OW40261   2.454   0.532   0.822 -0.1116  0.3232 -0.1078
 9543SOL    HW140262   2.548   0.532   0.839  0.3149 -0.4712 -2.4081
 9543SOL    HW240263   2.417   0.487   0.897  1.0268 -0.6461 -0.1262
 9544SOL     OW40264   0.407   0.998   8.182 -0.1368  0.2210  0.3465
 9544SOL    HW140265   0.432   0.918   8.136 -0.6337  0.6338 -0.6391
 9544SOL    HW240266   0.363   0.959   8.257 -1.3769  1.0307  0.0433
 9545SOL     OW40267   2.322   1.724   7.906 -0.0328 -0.0854 -0.5106
 9545SOL    HW140268   2.281   1.782   7.843  1.7463  0.0186 -1.5760
 9545SOL    HW240269   2.344   1.643   7.860 -0.6669  0.2515 -1.3930
 9546SOL     OW40270   3.666   0.985   4.156  0.5594 -0.2309 -0.5286
 9546SOL    HW140271   3.687   1.077   4.141 -0.9615 -0.0728 -1.6798
 9546SOL    HW240272   3.572   0.977   4.143  0.3738 -0.3448  0.9012
 9547SOL     OW40273   4.252   1.847  12.206  0.5855  0.1107 -0.2025
 9547SOL    HW140274   4.251   1.942  12.208  0.4021  0.0800  1.0754
 9547SOL    HW240275   4.279   1.831  12.297 -3.3027  0.5802  1.0275
 9548SOL     OW40276   3.798   2.730   4.405  0.3334  0.3208 -0.5289
 9548SOL    HW140277   3.796   2.635   4.409  1.0378  0.2639 -1.4549
 9548SOL    HW240278   3.713   2.756   4.440  0.7070  1.2327 -0.3037
 9549SOL     OW40279   2.510   2.488   7.647  0.4629  0.2236 -0.3247
 9549SOL    HW140280   2.453   2.483   7.724  0.7634  0.2685 -0.1004
 9549SOL    HW240281   2.480   2.420   7.587 -0.0189 -0.2734  0.4724
 9550SOL     OW40282   3.127   1.313   2.141 -0.0398 -0.1278  0.2858
 9550SOL    HW140283   3.124   1.259   2.220 -1.5097  0.1341  0.3969
 9550SOL    HW240284   3.183   1.386   2.170 -0.6104  0.2668  0.4026
 9551SOL     OW40285   2.514   2.951   5.530  0.2290  0.3232  0.1639
 9551SOL    HW140286   2.527   2.962   5.435  1.8047 -1.3328  0.1970
 9551SOL    HW240287   2.499   2.857   5.536  0.7757  0.1460 -1.1374
 9552SOL     OW40288   0.893   2.694   9.012  0.8091  0.2567  0.3072
 9552SOL    HW140289   0.878   2.624   9.076 -0.5803 -1.5226 -1.9392
 9552SOL    HW240290   0.813   2.746   9.022  0.3251 -0.3424 -0.4122
 9553SOL     OW40291   3.459   2.795   0.137  0.9854  0.2342 -0.2676
 9553SOL    HW140292   3.423   2.806   0.049 -0.4708  1.0149  0.4327
 9553SOL    HW240293   3.442   2.881   0.176  1.9031 -0.1021  0.8749
 9554SOL     OW40294   1.476   1.428   1.061  0.3291 -0.6838 -0.1793
 9554SOL    HW140295   1.541   1.443   0.992 -0.3768  0.7199 -0.5450
 9554SOL    HW240296   1.392   1.450   1.021  0.0200 -0.4271  0.6149
 9555SOL     OW40297   3.276   0.278   5.872  0.1270  0.2899  0.0736
 9555SOL    HW140298   3.191   0.236   5.885  1.6687 -2.3543  1.6622
 9555SOL    HW240299   3.292   0.319   5.957  0.0665 -0.5413  0.4910
 9556SOL     OW40300   3.480   0.801   8.276 -0.1166 -0.2721 -0.1578
 9556SOL    HW140301   3.410   0.862   8.297 -0.4197 -0.6494 -0.0693
 9556SOL    HW240302   3.445   0.794   8.187  2.3471  1.8932 -1.3097
 9557SOL     OW40303   0.817   1.087   4.902  0.2249  0.6918  0.0192
 9557SOL    HW140304   0.739   1.072   4.848  0.0406 -2.1385  1.0719
 9557SOL    HW240305   0.878   1.041   4.845 -1.1088 -1.0161 -0.0266
 9558SOL     OW40306   2.398   1.579  15.217 -0.2072  0.1236 -0.2005
 9558SOL    HW140307   2.343   1.657  15.207 -1.2523 -0.7205 -1.0334
 9558SOL    HW240308   2.327   1.514  15.221 -0.1416  0.0450 -0.3417
 9559SOL     OW40309   4.403   2.260   8.512  0.6251  0.7004 -0.3318
 9559SOL    HW140310   4.321   2.211   8.511  0.5378  0.8506 -0.6736
 9559SOL    HW240311   4.371   2.344   8.544 -0.0982  0.5023 -0.5362
 9560SOL     OW40312   3.107   4.270  11.446  0.1189  0.1817  0.1974
 9560SOL    HW140313   3.125   4.177  11.459  0.4064  0.4160  1.4766
 9560SOL    HW240314   3.185   4.286  11.393  0.2177  0.1085  0.3247
 9561SOL     OW40315   3.179   0.348   0.605  0.1363  0.5548 -0.5666
 9561SOL    HW140316   3.184   0.416   0.538  1.6050 -2.6730 -3.7301
 9561SOL    HW240317   3.270   0.321   0.600 -1.0768 -3.8264  0.6901
 9562SOL     OW40318   0.568   4.152   4.981 -0.3913  0.0477  0.1452
 9562SOL    HW140319   0.603   4.241   4.981 -0.4587  0.0692 -0.7874
 9562SOL    HW240320   0.475   4.174   4.985 -0.6133 -0.9337  0.4684
 9563SOL     OW40321   1.769   4.501   5.353 -0.4630 -0.0754  0.1699
 9563SOL    HW140322   1.833   4.507   5.282 -2.5469  0.2736 -1.6678
 9563SOL    HW240323   1.710   4.568   5.319  0.0416  0.2774 -0.0079
 9564SOL     OW40324   3.109   1.967  15.997  0.3993  0.1855 -0.4252
 9564SOL    HW140325   3.196   1.998  15.970  0.0889 -0.6259 -2.3816
 9564SOL    HW240326   3.072   2.055  15.998 -3.0746 -1.2983  0.7723
 9565SOL     OW40327   0.110   3.316   5.172  0.5344 -0.0978 -0.3608
 9565SOL    HW140328   0.148   3.320   5.260 -0.8587 -1.0942  0.2891
 9565SOL    HW240329   0.178   3.347   5.112 -0.8446 -0.0191 -1.8737
 9566SOL     OW40330   0.518   3.038   3.561 -0.2132  0.4504 -0.1607
 9566SOL    HW140331   0.520   2.966   3.498  0.1952 -0.2835  0.6949
 9566SOL    HW240332   0.576   2.994   3.622 -0.7783  0.0709  0.1033
 9567SOL     OW40333   4.599   4.534   7.825 -0.5025  0.1444  0.5041
 9567SOL    HW140334   4.609   4.497   7.738 -1.4512  0.2453  0.3575
 9567SOL    HW240335   4.684   4.578   7.828 -0.6608  0.5374 -1.1291
 9568SOL     OW40336   3.715   1.123   4.416 -0.0948 -0.5958 -0.4091
 9568SOL    HW140337   3.682   1.159   4.333  3.0850  0.3179 -1.2557
 9568SOL    HW240338   3.649   1.163   4.473 -0.0313 -1.3273  0.1842
 9569SOL     OW40339   0.874   0.273   5.261 -0.4657  0.0054 -0.1798
 9569SOL    HW140340   0.939   0.293   5.194 -0.1905 -1.9510 -0.5127
 9569SOL    HW240341   0.844   0.358   5.291  2.6175  1.1322 -0.2609
 9570SOL     OW40342   0.514   0.175   3.431 -0.1547 -0.2786 -0.0403
 9570SOL    HW140343   0.458   0.241   3.473  0.1751 -0.3653  0.5400
 9570SOL    HW240344   0.604   0.200   3.451 -0.2035 -0.0102 -0.1618
 9571SOL     OW40345   3.103   1.971   2.555  0.4308  0.3876  0.5086
 9571SOL    HW140346   3.015   1.993   2.523  0.6903  0.8215  0.0887
 9571SOL    HW240347   3.138   1.907   2.494  1.6489  0.9631  0.6117
   4.73262   4.73262  17.72997
