Membrane in water
40347
    1TMC1    C1    1   2.220   0.125  11.913  1.2524  0.0722  0.3699
    1TMC1    C2    2   2.351   0.098  11.941  0.0014  0.0872 -0.2957
    1TMC1    C3    3   2.449   0.191  11.907  0.5320 -0.1356  0.5401
    1TMC1    C4    4   2.181   0.239  11.848 -0.3009  0.0181  0.0719
    1TMC1    C5    5   2.274   0.335  11.824 -0.0306 -0.7662 -0.1846
    1TMC1    C6    6   2.405   0.306  11.855  0.3818  0.4477 -0.5909
    1TMC1     C    7   2.122   0.047  11.970  0.6155  0.1180 -0.5281
    1TMC1     O    8   2.018   0.099  12.002 -0.0299 -0.0840 -0.1545
    1TMC1     H    9   2.373   0.008  11.996 -1.3939 -0.6384 -0.9230
    1TMC1    H1   10   2.074   0.254  11.838 -0.5314 -1.1895  0.7327
    1TMC1    H2   11   2.488   0.376  11.850 -0.4634  1.3606 -1.8017
    1TMC1    C7   12   2.228   0.473  11.811  0.1178  0.4004 -0.1161
    1TMC1    C8   13   2.589   0.152  11.881  0.3808  0.4504  0.8500
    1TMC1    O1   14   2.113   0.509  11.829 -0.0572  0.3612  0.2611
    1TMC1    O2   15   2.663   0.225  11.821  0.1025  0.0198  0.7598
    1TMC1    O3   16   2.329   0.547  11.770 -0.6287 -0.4654 -0.3802
    1TMC1    H3   17   2.404   0.494  11.736 -0.1897 -1.5427  2.2765
    1TMC1    O5   18   2.614   0.031  11.934  0.2061  0.2398  0.0917
    1TMC1    H5   19   2.548   4.733  11.998 -0.5912  0.9023 -0.3588
    2MPD2     C   20   1.924   4.336  12.126 -0.5282 -0.1781 -0.0769
    2MPD2    C1   21   1.885   4.472  12.141 -0.7767 -0.4161 -0.0850
    2MPD2    C2   22   1.962   4.575  12.097  0.0050  0.2598 -0.6224
    2MPD2    C3   23   2.083   4.549  12.030  0.5678 -0.6979  0.1328
    2MPD2    C4   24   2.135   4.418  12.018  0.3877 -0.0376  0.0014
    2MPD2    C5   25   2.054   4.314  12.072  0.2862 -0.2073  0.6358
    2MPD2     H   26   1.934   4.677  12.121  1.5111  1.1563 -2.6658
    2MPD2    H1   27   2.229   4.391  11.972  0.2386  0.1445 -0.4133
    2MPD2    H2   28   1.867   4.246  12.146 -1.8766  0.5762 -0.4742
    2MPD2    H3   29   2.090   4.213  12.061  1.5407  0.3869 -0.7162
    2MPD2     N   30   2.160   4.658  11.976  0.1050 -0.7155 -0.1864
    2MPD2    H5   31   2.243   4.634  11.923 -0.0079 -2.4135  0.3982
    2MPD2    N1   32   1.755   4.503  12.195 -0.2927 -0.0971  0.3097
    2MPD2    H7   33   1.736   4.602  12.203  0.1193  0.0246 -0.2091
    3TMC1    C1   34   1.761   1.607  10.638  0.1298  0.0633 -0.3599
    3TMC1    C2   35   1.742   1.669  10.517 -0.8611 -0.0745 -0.6877
    3TMC1    C3   36   1.816   1.632  10.408 -0.8368  0.3585 -0.0821
    3TMC1    C4   37   1.842   1.497  10.649  0.5883 -0.3932 -0.0067
    3TMC1    C5   38   1.913   1.460  10.538 -0.1302 -0.0774 -0.2852
    3TMC1    C6   39   1.910   1.531  10.425  0.3390 -0.3603  0.6715
    3TMC1     C   40   1.669   1.615  10.755  0.0795 -0.1343  0.1437
    3TMC1     O   41   1.671   1.524  10.830  0.2893  0.7274  0.0319
    3TMC1     H   42   1.683   1.760  10.515  0.0027  0.4801 -0.7168
    3TMC1    H1   43   1.855   1.447  10.744  1.2614  0.6613  0.4588
    3TMC1    H2   44   1.966   1.499  10.338 -0.4555 -1.6776  0.6415
    3TMC1    C7   45   2.022   1.375  10.567 -0.4656 -0.2995 -0.0138
    3TMC1    C8   46   1.823   1.712  10.286 -0.0779 -0.2830  0.4858
    3TMC1    O1   47   2.128   1.389  10.507  1.1380 -0.3271  0.3432
    3TMC1    O2   48   1.907   1.689  10.199  0.2820  0.4282  0.2813
    3TMC1    O3   49   1.984   1.272  10.640 -0.1875  0.5169  0.4727
    3TMC1    H3   50   1.893   1.261  10.674 -0.8398  0.1766 -1.4140
    3TMC1    O5   51   1.689   1.726  10.247 -0.3148  0.1883  0.3324
    3TMC1    H5   52   1.633   1.745  10.326 -1.3551  0.4205 -0.4592
    4MPD2     C   53   1.176   1.699  10.842 -0.3093 -0.2621  0.7097
    4MPD2    C1   54   1.233   1.814  10.789  0.4831  0.1670  0.1627
    4MPD2    C2   55   1.366   1.819  10.755  0.0320 -0.2156  0.2199
    4MPD2    C3   56   1.443   1.709  10.776  0.0383  0.0611  0.0876
    4MPD2    C4   57   1.388   1.590  10.813 -0.4006 -0.3099 -0.0089
    4MPD2    C5   58   1.256   1.584  10.848  0.1800  0.4568  0.0465
    4MPD2     H   59   1.418   1.909  10.726 -0.8863  0.0546 -0.6154
    4MPD2    H1   60   1.452   1.503  10.824  0.5011  0.5575  1.6008
    4MPD2    H2   61   1.072   1.698  10.871  0.0952  2.1894  2.2672
    4MPD2    H3   62   1.222   1.487  10.883  1.9300 -0.0607  0.2849
    4MPD2     N   63   1.580   1.717  10.740 -0.6100 -0.7225  0.6645
    4MPD2    H5   64   1.610   1.804  10.696  1.7190 -1.0227  1.6869
    4MPD2    N1   65   1.153   1.925  10.755 -0.2402 -0.2016  0.9186
    4MPD2    H7   66   1.207   2.009  10.737 -0.2805  0.2228  2.7581
    5TCq1    O1   67   2.129   3.017  12.264 -0.3736  0.5627 -1.0068
    5TCq1    C1   68   2.054   3.118  12.225 -0.3969 -0.1331 -0.3444
    5TCq1    O2   69   1.940   3.145  12.262  0.1105 -0.5612 -0.2611
    5TCq1    C2   70   2.118   3.177  12.110  0.0348 -0.3631  0.2745
    5TCq1    C3   71   2.254   3.190  12.100  0.0510  0.3219 -0.1156
    5TCq1    C4   72   2.303   3.241  11.983 -0.4635 -0.3742 -0.1324
    5TCq1    C5   73   2.226   3.290  11.888  0.1671  0.2830  0.7901
    5TCq1    C6   74   2.090   3.293  11.903 -0.1841  0.0498  0.0744
    5TCq1    C7   75   2.028   3.236  12.016  0.1684  0.3475 -0.0709
    5TCq1    C8   76   2.006   3.342  11.786 -0.3693 -0.4650 -0.6253
    5TCq1    O4   77   2.058   3.347  11.675 -0.0140  0.0139 -0.7654
    5TCq1    C9   78   2.449   3.258  11.972  0.0854 -0.9395  0.4284
    5TCq1    O5   79   2.481   3.251  11.850 -0.7943  0.8895  0.0831
    5TCq1    O6   80   2.525   3.248  12.069  0.3234 -0.1851 -0.0328
    5TCq1    H1   81   2.201   2.999  12.199 -0.0461 -1.7247  0.0148
    5TCq1    H2   82   2.326   3.161  12.175 -0.3546 -0.3789  0.0093
    5TCq1    H3   83   2.262   3.338  11.797 -0.3481  0.7012  0.8040
    5TCq1    H4   84   1.923   3.216  12.031  0.4842 -0.6119  0.8248
    6MPD2     C   85   1.649   3.431  11.789  0.1339 -0.7291 -0.8341
    6MPD2    C1   86   1.771   3.383  11.737  0.3705  0.1860  0.1261
    6MPD2    C2   87   1.786   3.356  11.602  0.2310  0.2082  0.0574
    6MPD2    C3   88   1.670   3.365  11.524 -0.9164 -0.2361  0.5010
    6MPD2    C4   89   1.545   3.402  11.579 -0.5575 -0.0449 -0.5748
    6MPD2    C5   90   1.537   3.437  11.713  0.1973 -0.8497  0.5655
    6MPD2     H   91   1.876   3.321  11.553  1.2459  2.5213  0.2596
    6MPD2    H1   92   1.451   3.395  11.526 -1.0109  0.2672  0.1838
    6MPD2    H2   93   1.634   3.453  11.894 -2.4951 -2.0181 -0.9411
    6MPD2    H3   94   1.446   3.448  11.770 -1.3172 -0.5604 -1.9136
    6MPD2     N   95   1.681   3.332  11.381  0.5561  0.2361 -0.8747
    6MPD2    H5   96   1.768   3.285  11.357  0.4056 -1.3797  1.6943
    6MPD2    N1   97   1.885   3.369  11.824  0.0273  0.0405  0.0430
    6MPD2    H7   98   1.869   3.381  11.924 -2.1041  0.9875 -0.4139
    7TCq1    O1   99   3.254   2.622  13.483 -0.3216  0.1926 -0.3344
    7TCq1    C1  100   3.289   2.525  13.561  0.6263  0.4864 -0.2047
    7TCq1    O2  101   3.313   2.533  13.680 -0.6156 -0.1020 -0.1310
    7TCq1    C2  102   3.352   2.427  13.475  0.1501 -0.3167 -0.1311
    7TCq1    C3  103   3.290   2.393  13.360 -0.0000 -0.1610  0.2484
    7TCq1    C4  104   3.341   2.287  13.287 -0.0525 -0.0192 -0.1270
    7TCq1    C5  105   3.448   2.213  13.337  0.0936 -0.2995  0.0075
    7TCq1    C6  106   3.499   2.245  13.456  0.2662  0.8870  0.2750
    7TCq1    C7  107   3.454   2.352  13.530  0.3908  0.4501  0.8244
    7TCq1    C8  108   3.599   2.151  13.506 -0.3449 -0.6967 -0.1402
    7TCq1    O4  109   3.637   2.074  13.422 -0.5505 -0.5627  0.0414
    7TCq1    C9  110   3.285   2.255  13.156  0.1183  0.1732 -0.2292
    7TCq1    O5  111   3.239   2.353  13.090 -0.1696 -0.8060  0.0729
    7TCq1    O6  112   3.303   2.139  13.116 -0.7393 -0.6391 -0.0031
    7TCq1    H1  113   3.317   2.611  13.408 -1.9428  0.9226 -1.7752
    7TCq1    H2  114   3.199   2.439  13.323 -0.4569 -0.4394  1.0070
    7TCq1    H3  115   3.479   2.126  13.281  0.3958 -1.2473  1.6566
    7TCq1    H4  116   3.475   2.378  13.634 -0.0942  1.1620  0.7409
    8MPD2     C  117   3.861   1.886  13.858 -0.6574 -0.5819  0.5175
    8MPD2    C1  118   3.837   1.854  13.726 -0.5829 -0.1763  0.5528
    8MPD2    C2  119   3.771   1.947  13.647  0.0846 -0.1438  0.0022
    8MPD2    C3  120   3.730   2.073  13.699 -0.7658 -0.5963 -0.3990
    8MPD2    C4  121   3.753   2.097  13.831  0.4937 -0.2146  0.0670
    8MPD2    C5  122   3.825   2.007  13.905 -0.1193  0.2767  0.0839
    8MPD2     H  123   3.753   1.924  13.543 -0.9405  0.9301 -0.0727
    8MPD2    H1  124   3.705   2.183  13.877 -0.8836  0.6205 -2.9303
    8MPD2    H2  125   3.915   1.823  13.928  2.3077  1.1759 -0.1933
    8MPD2    H3  126   3.827   2.017  14.013 -0.0443  2.2226 -0.0968
    8MPD2     N  127   3.645   2.167  13.632 -0.2545 -0.0161 -0.3168
    8MPD2    H5  128   3.616   2.253  13.678  1.5666  1.4536 -1.9031
    8MPD2    N1  129   3.890   1.732  13.679  0.5547  0.8739 -0.9565
    8MPD2    H7  130   3.956   1.681  13.736 -0.8566 -1.7601 -1.6560
    9TMC1    C1  131   1.427   1.741  11.607  0.3789  0.5773  0.7603
    9TMC1    C2  132   1.509   1.740  11.718  0.5049  0.2953  0.2533
    9TMC1    C3  133   1.584   1.855  11.747  0.3798  0.0672 -0.0615
    9TMC1    C4  134   1.423   1.847  11.521  0.4632  0.2293  0.2914
    9TMC1    C5  135   1.503   1.959  11.555  0.4466  0.4690  0.3686
    9TMC1    C6  136   1.580   1.964  11.661 -0.2796  0.1947 -0.2918
    9TMC1     C  137   1.332   1.636  11.573  0.2949 -0.6812 -0.2000
    9TMC1     O  138   1.267   1.650  11.471  0.0540 -0.3181 -0.3656
    9TMC1     H  139   1.515   1.659  11.789 -1.6008  0.0882  0.1782
    9TMC1    H1  140   1.363   1.849  11.431  0.5109  0.1408  0.2577
    9TMC1    H2  141   1.641   2.051  11.682  1.9685 -1.1341 -1.2415
    9TMC1    C7  142   1.522   2.061  11.459 -0.0621  0.1875  0.1952
    9TMC1    C8  143   1.682   1.836  11.847 -1.4639 -0.1697  0.2655
    9TMC1    O1  144   1.433   2.088  11.378  0.4864  0.2641  0.7854
    9TMC1    O2  145   1.646   1.774  11.948  0.0506  0.0351 -0.8233
    9TMC1    O3  146   1.659   2.090  11.442  0.7858  0.4465  0.5739
    9TMC1    H3  147   1.724   2.038  11.492  0.7258 -0.4892 -0.3220
    9TMC1    O5  148   1.775   1.935  11.835 -0.4044 -0.3654 -0.6070
    9TMC1    H5  149   1.805   1.952  11.743 -1.1308  1.0311 -0.5878
   10MPD2     C  150   1.134   1.404  11.575  0.3444  0.1337  0.1117
   10MPD2    C1  151   1.239   1.425  11.662 -0.0168 -0.4198 -0.4197
   10MPD2    C2  152   1.256   1.329  11.761  0.6842  0.9234  0.0108
   10MPD2    C3  153   1.171   1.220  11.776  0.3849 -0.6963  0.1079
   10MPD2    C4  154   1.056   1.216  11.706 -0.7529 -0.5546 -0.0673
   10MPD2    C5  155   1.039   1.304  11.598  0.5571  0.2819 -0.4949
   10MPD2     H  156   1.350   1.334  11.815  0.6613 -2.3511  0.3231
   10MPD2    H1  157   0.981   1.138  11.717  0.6122 -1.8497  0.0693
   10MPD2    H2  158   1.110   1.479  11.501  2.5261 -0.7655 -1.4858
   10MPD2    H3  159   0.948   1.303  11.540  0.9045  0.0959 -1.0383
   10MPD2     N  160   1.214   1.109  11.856  0.1283 -0.0879  0.5912
   10MPD2    H5  161   1.307   1.120  11.896  1.0775  1.3637 -1.9487
   10MPD2    N1  162   1.330   1.526  11.666 -0.3374 -0.4563 -0.2584
   10MPD2    H7  163   1.399   1.525  11.741 -1.4487 -2.6166  0.7156
   11TCq1    O1  164   1.977   0.739  14.421 -0.0168 -0.3812 -0.3167
   11TCq1    C1  165   1.974   0.817  14.533 -0.7608  0.0885 -0.1962
   11TCq1    O2  166   2.015   0.933  14.524  0.5561  0.1084  0.6234
   11TCq1    C2  167   1.853   0.778  14.602 -0.1352 -0.3736  0.1747
   11TCq1    C3  168   1.760   0.880  14.626  0.1703  0.4907  0.5667
   11TCq1    C4  169   1.649   0.851  14.697  0.4444  0.0616  0.1295
   11TCq1    C5  170   1.624   0.720  14.723 -0.1649  0.6207 -0.2898
   11TCq1    C6  171   1.715   0.625  14.689 -0.4298  0.2951 -0.6582
   11TCq1    C7  172   1.833   0.652  14.627 -0.1350 -0.2930 -0.5742
   11TCq1    C8  173   1.666   0.486  14.702 -0.2976 -0.1671  0.0700
   11TCq1    O4  174   1.575   0.473  14.787  0.0238  0.5443 -0.0930
   11TCq1    C9  175   1.548   0.949  14.723 -0.3443  0.1264 -0.3669
   11TCq1    O5  176   1.438   0.906  14.766  0.5346 -0.3382  0.2132
   11TCq1    O6  177   1.560   1.064  14.672 -0.2316  0.2984  0.5263
   11TCq1    H1  178   1.958   0.643  14.419 -0.3100 -0.2945 -1.9828
   11TCq1    H2  179   1.774   0.986  14.606 -0.6279  0.5074  0.0911
   11TCq1    H3  180   1.531   0.695  14.774  1.4212 -2.5115  1.1021
   11TCq1    H4  181   1.914   0.581  14.618  1.5262  1.5289 -0.1351
   12MPD2     C  182   1.521   0.266  14.568  0.0276 -0.0921 -0.8506
   12MPD2    C1  183   1.660   0.278  14.565 -0.1911 -0.6159  0.0975
   12MPD2    C2  184   1.739   0.184  14.493 -0.4368 -0.4831  0.0114
   12MPD2    C3  185   1.670   0.075  14.436 -0.6383 -0.3116  0.2823
   12MPD2    C4  186   1.530   0.059  14.453  0.1263  0.3367  0.1664
   12MPD2    C5  187   1.457   0.156  14.510 -0.7358 -0.1725  0.1549
   12MPD2     H  188   1.847   0.193  14.493 -0.5971  1.5906 -0.0452
   12MPD2    H1  189   1.480   4.712  14.407 -1.7454  2.3238 -1.4710
   12MPD2    H2  190   1.453   0.337  14.614  0.8354  1.0035 -1.3508
   12MPD2    H3  191   1.350   0.156  14.492 -0.5821  0.7386 -0.7263
   12MPD2     N  192   1.738   4.709  14.367 -0.2396  0.1948  0.1958
   12MPD2    H5  193   1.670   4.652  14.318  1.6141  0.3166 -2.5285
   12MPD2    N1  194   1.727   0.388  14.620  0.4471 -0.1632 -0.0808
   12MPD2    H7  195   1.819   0.407  14.581 -1.4536  0.3836 -4.3100
   13TCq1    O1  196   2.267   1.448  11.466  0.2104 -0.1888  0.0656
   13TCq1    C1  197   2.260   1.582  11.455  0.2492  0.1648  0.0484
   13TCq1    O2  198   2.349   1.658  11.421 -0.3598 -0.0051  0.0818
   13TCq1    C2  199   2.131   1.626  11.501  0.0178  0.2093 -0.5309
   13TCq1    C3  200   2.116   1.760  11.515 -0.3084  0.7919  0.3232
   13TCq1    C4  201   1.995   1.805  11.550 -0.2660 -0.1349  0.6791
   13TCq1    C5  202   1.880   1.732  11.531  0.4677 -0.8313  0.5768
   13TCq1    C6  203   1.898   1.603  11.485 -0.4877  0.2553  0.2137
   13TCq1    C7  204   2.022   1.549  11.472  0.1491  0.6961 -0.3368
   13TCq1    C8  205   1.781   1.528  11.467 -0.7726  1.2615  0.6300
   13TCq1    O4  206   1.669   1.580  11.459 -0.1625 -0.2502  0.0852
   13TCq1    C9  207   1.971   1.947  11.577  0.1699 -0.6542 -0.1837
   13TCq1    O5  208   1.853   1.979  11.600 -0.3074 -0.6139 -0.1363
   13TCq1    O6  209   2.072   2.022  11.592  0.1111 -0.0851 -0.2247
   13TCq1    H1  210   2.193   1.407  11.515 -0.2681 -1.8919 -2.1055
   13TCq1    H2  211   2.196   1.832  11.529  1.0594 -0.5490 -0.6321
   13TCq1    H3  212   1.780   1.773  11.535  0.6530 -0.3245 -0.2087
   13TCq1    H4  213   2.038   1.457  11.418  0.4360 -0.1136  1.1367
   14MPD2     C  214   1.774   1.158  11.499  0.0062  0.1427 -0.3373
   14MPD2    C1  215   1.719   1.282  11.475  0.2350 -0.0103 -0.3814
   14MPD2    C2  216   1.587   1.285  11.436 -0.4491 -0.0559 -0.5057
   14MPD2    C3  217   1.509   1.173  11.428  0.0105  0.2846  0.1171
   14MPD2    C4  218   1.559   1.052  11.460  0.3450  0.5189 -0.5662
   14MPD2    C5  219   1.691   1.046  11.492 -0.5416  0.3055  0.1709
   14MPD2     H  220   1.551   1.385  11.414 -1.2286  0.6072  3.6790
   14MPD2    H1  221   1.504   0.959  11.463  0.3752  0.4907 -0.9036
   14MPD2    H2  222   1.877   1.138  11.529  0.4006 -0.4129 -2.0292
   14MPD2    H3  223   1.740   0.951  11.512  1.2016  1.2870  0.5530
   14MPD2     N  224   1.375   1.188  11.386  0.2815  0.1009  0.2618
   14MPD2    H5  225   1.332   1.278  11.367  1.1220  0.8795  2.1087
   14MPD2    N1  226   1.810   1.392  11.482  0.2420  0.6262 -0.6933
   14MPD2    H7  227   1.906   1.364  11.499 -0.5323 -1.3510  0.3904
   15TCq1    O1  228   3.304   4.577   1.781  0.2053  0.2484  0.4321
   15TCq1    C1  229   3.391   4.682   1.781  0.4891  0.0059  0.3687
   15TCq1    O2  230   3.374   0.052   1.841 -0.1013 -0.2735  0.0259
   15TCq1    C2  231   3.458   4.670   1.651 -0.0797  0.5128  0.5391
   15TCq1    C3  232   3.439   0.031   1.562  0.2696 -0.2291  0.1988
   15TCq1    C4  233   3.507   0.032   1.443  0.3909 -0.4946 -0.9805
   15TCq1    C5  234   3.586   4.661   1.400  0.2408 -0.0245  0.0103
   15TCq1    C6  235   3.609   4.566   1.493 -0.3872  0.2771  0.2795
   15TCq1    C7  236   3.544   4.565   1.617  0.0584 -0.5157 -0.5044
   15TCq1    C8  237   3.665   4.441   1.446  0.1934 -0.0070 -0.6620
   15TCq1    O4  238   3.742   4.378   1.522 -0.1772 -0.2818 -0.1353
   15TCq1    C9  239   3.464   0.131   1.348  0.2800 -0.4645  0.3220
   15TCq1    O5  240   3.540   0.146   1.250  0.3008  0.5598  0.2630
   15TCq1    O6  241   3.403   0.222   1.400  0.0743 -0.3389 -0.3068
   15TCq1    H1  242   3.320   4.503   1.719  0.1701  0.2984  0.3631
   15TCq1    H2  243   3.376   0.116   1.586  0.3948  0.0108 -0.3216
   15TCq1    H3  244   3.622   4.651   1.298  0.9100 -1.0871  0.3508
   15TCq1    H4  245   3.557   4.479   1.682  1.3559  1.0869  1.3540
   16MPD2     C  246   3.593   4.302   1.119  0.0006  0.0768 -0.4230
   16MPD2    C1  247   3.664   4.318   1.237  0.2361 -0.3594 -0.7879
   16MPD2    C2  248   3.768   4.230   1.270 -0.2833  0.1693  0.6751
   16MPD2    C3  249   3.802   4.129   1.181  0.2309  0.2836 -0.0407
   16MPD2    C4  250   3.719   4.110   1.066 -0.0601 -0.1093  0.4410
   16MPD2    C5  251   3.618   4.192   1.036  0.3387 -1.3753  0.4655
   16MPD2     H  252   3.839   4.254   1.348 -1.0919  0.7059  1.2362
   16MPD2    H1  253   3.732   4.031   0.993 -2.4193 -0.2937  0.2353
   16MPD2    H2  254   3.511   4.370   1.095 -0.3940 -0.5274 -0.7928
   16MPD2    H3  255   3.553   4.166   0.954 -0.2468  4.2718 -0.9095
   16MPD2     N  256   3.886   4.026   1.227  0.1715  0.1133  0.2631
   16MPD2    H5  257   3.929   4.033   1.319  1.3859 -1.5614 -0.1564
   16MPD2    N1  258   3.628   4.418   1.321  0.6124  0.2460  0.3109
   16MPD2    H7  259   3.569   4.490   1.282  1.5232 -0.1118 -1.7258
   17TMC1    C1  260   1.460   4.595  11.644 -0.1376 -0.2441  0.0734
   17TMC1    C2  261   1.366   4.499  11.624 -0.1455 -0.1722 -0.6376
   17TMC1    C3  262   1.241   4.545  11.632  0.1004  0.2097 -0.1680
   17TMC1    C4  263   1.427   4.731  11.658  0.2645 -0.4786  0.1128
   17TMC1    C5  264   1.294   0.024  11.671  0.3291 -0.0934  0.2533
   17TMC1    C6  265   1.197   4.668  11.651 -0.4058  0.0326 -0.6480
   17TMC1     C  266   1.597   4.556  11.667  1.0174 -0.3337 -0.0393
   17TMC1     O  267   1.611   4.445  11.714 -0.2098 -0.0571 -0.0204
   17TMC1     H  268   1.388   4.400  11.587  1.1972 -0.0813 -0.0863
   17TMC1    H1  269   1.493   0.074  11.688  0.7322  0.0526 -2.3349
   17TMC1    H2  270   1.090   4.680  11.655 -0.3133  0.3971  0.7707
   17TMC1    C7  271   1.280   0.168  11.671  0.4225  1.1929  0.1178
   17TMC1    C8  272   1.148   4.445  11.609 -0.6400 -0.2734  0.5380
   17TMC1    O1  273   1.348   0.248  11.611  0.5834 -0.5888  0.0766
   17TMC1    O2  274   1.040   4.441  11.662  0.3770 -0.6455  0.2292
   17TMC1    O3  275   1.146   0.207  11.673 -0.0778 -0.0658  0.5264
   17TMC1    H3  276   1.086   0.157  11.733  0.2890 -1.9985 -0.6934
   17TMC1    O5  277   1.176   4.390  11.488 -0.2556 -0.0891 -0.2568
   17TMC1    H5  278   1.255   4.432  11.446 -0.6833 -0.9692 -1.9198
   18MPD2     C  279   1.890   4.529  11.681  0.8293 -0.3419 -0.2275
   18MPD2    C1  280   1.824   4.632  11.620 -0.1459 -0.3536 -0.1299
   18MPD2    C2  281   1.892   0.007  11.576  0.0922 -0.3077 -0.6577
   18MPD2    C3  282   2.027   0.012  11.575 -0.6579 -0.0606  0.3015
   18MPD2    C4  283   2.100   4.640  11.634  0.0949 -0.2229  0.3046
   18MPD2    C5  284   2.025   4.532  11.687 -0.3076 -1.1612 -0.7348
   18MPD2     H  285   1.827   0.083  11.533 -0.6127 -0.0390  0.8958
   18MPD2    H1  286   2.208   4.642  11.647  0.0120 -0.3549  1.0310
   18MPD2    H2  287   1.837   4.450  11.734 -0.6078  0.0260 -1.1089
   18MPD2    H3  288   2.077   4.445  11.725 -0.1929 -0.3225  1.0291
   18MPD2     N  289   2.112   0.112  11.523 -0.5446 -0.2168 -0.0381
   18MPD2    H5  290   2.210   0.090  11.509  0.2856  1.3172  3.3076
   18MPD2    N1  291   1.685   4.643  11.613  1.0931 -0.3754  0.6824
   18MPD2    H7  292   1.649   4.726  11.567  2.1343  0.1621  0.8271
   19TMC2    C1  293   3.304   0.394  14.041  0.0555 -0.5156 -0.0284
   19TMC2    C2  294   3.242   0.493  13.969 -0.3910  0.4185 -0.5605
   19TMC2    C3  295   3.105   0.488  13.959  0.0043 -0.9214 -0.2460
   19TMC2    C4  296   3.235   0.293  14.096 -0.0735  0.0348 -0.9462
   19TMC2    C5  297   3.100   0.291  14.078 -0.5551 -0.4682 -0.8202
   19TMC2    C6  298   3.025   0.390  14.009  1.0021 -0.4361  0.3464
   19TMC2     C  299   3.443   0.420  14.098  0.1131  0.4813 -0.3053
   19TMC2     O  300   3.500   0.523  14.067 -0.1348 -0.4970  0.5548
   19TMC2     H  301   3.297   0.578  13.930  2.2195 -1.2774 -0.5395
   19TMC2    H1  302   3.294   0.212  14.138  0.0779  0.7554  0.2357
   19TMC2    H2  303   2.920   0.383  13.983  0.9189 -1.7133  1.0348
   19TMC2    C7  304   3.037   0.170  14.117  0.2112  0.6064 -0.0398
   19TMC2    C8  305   3.018   0.586  13.894 -0.8906 -0.4658 -0.7135
   19TMC2    O1  306   3.107   0.072  14.147 -0.1825  0.1729  0.4816
   19TMC2    O2  307   2.894   0.600  13.916 -0.6351 -0.2422 -0.5069
   19TMC2    O5  308   3.059   0.581  13.766 -0.1940  0.0570 -0.2322
   19TMC2    H5  309   3.150   0.545  13.757  0.2835  0.5611  2.5439
   20MPD2     C  310   3.702   0.423  14.253  1.1406  0.3162 -0.1568
   20MPD2    C1  311   3.599   0.331  14.277 -0.7227 -0.6188  0.3051
   20MPD2    C2  312   3.603   0.244  14.384 -0.4394  0.3012 -0.4767
   20MPD2    C3  313   3.716   0.240  14.465 -0.5166 -0.0581 -0.4015
   20MPD2    C4  314   3.815   0.330  14.449  0.6053 -0.0062  0.4172
   20MPD2    C5  315   3.810   0.419  14.340 -0.0394  0.5403 -0.2403
   20MPD2     H  316   3.528   0.167  14.394 -0.4659  0.4807  0.6428
   20MPD2    H1  317   3.907   0.315  14.504  1.8674 -1.4849 -2.0777
   20MPD2    H2  318   3.708   0.490  14.168 -0.6378  0.9860  0.2493
   20MPD2    H3  319   3.890   0.492  14.332 -0.1845  0.6921 -0.2890
   20MPD2     N  320   3.717   0.161  14.582  0.2139 -0.4308  0.8459
   20MPD2    H5  321   3.804   0.162  14.634 -0.1536 -2.4270  1.5173
   20MPD2    N1  322   3.481   0.335  14.202 -0.4553  0.4867 -0.1223
   20MPD2    H7  323   3.408   0.267  14.220  1.6211 -1.7531 -0.1762
   21TMC2    C1  324   0.976   0.709  14.448 -0.3077 -0.5716  0.4656
   21TMC2    C2  325   1.069   0.608  14.460 -0.0372  0.8129  0.2090
   21TMC2    C3  326   1.032   0.494  14.526 -0.0508  0.1334  0.1287
   21TMC2    C4  327   0.845   0.689  14.492 -0.8058  0.0491  0.7339
   21TMC2    C5  328   0.817   0.576  14.565 -0.0021  0.2017  0.3697
   21TMC2    C6  329   0.905   0.471  14.573  0.2491  0.3745  0.7997
   21TMC2     C  330   1.009   0.836  14.389 -0.3596  0.0328  0.0064
   21TMC2     O  331   1.077   0.828  14.285  0.3299  0.1601  0.4202
   21TMC2     H  332   1.173   0.626  14.433 -0.3517 -0.6400 -1.9059
   21TMC2    H1  333   0.769   0.765  14.476 -0.5550  0.7225  2.6939
   21TMC2    H2  334   0.878   0.394  14.644  0.3475 -0.1566  0.2633
   21TMC2    C7  335   0.750   0.594  14.691  0.1710 -0.1790  1.0354
   21TMC2    C8  336   1.135   0.394  14.550 -0.4389 -0.1038 -0.2795
   21TMC2    O1  337   0.781   0.536  14.791 -0.1464  0.4509  0.3623
   21TMC2    O2  338   1.252   0.406  14.517 -0.0325  0.5941  0.0108
   21TMC2    O5  339   1.073   0.278  14.539  0.0480 -0.1391 -0.0043
   21TMC2    H5  340   0.976   0.274  14.552 -0.1178 -1.3334 -1.5895
   22MPD2     C  341   0.928   1.039  14.843  0.4719 -0.1832 -0.6007
   22MPD2    C1  342   1.006   0.939  14.794  0.3043  0.1322 -1.0412
   22MPD2    C2  343   1.005   0.899  14.666 -0.4700 -0.7246 -0.8382
   22MPD2    C3  344   0.927   0.967  14.575 -0.9902 -0.4845 -0.2784
   22MPD2    C4  345   0.833   1.054  14.616 -0.8450 -0.1605 -0.0272
   22MPD2    C5  346   0.832   1.085  14.752  0.4885  0.4480 -0.4383
   22MPD2     H  347   1.075   0.820  14.641  0.5019 -0.0900 -0.1115
   22MPD2    H1  348   0.764   1.114  14.557  0.4790  0.0580 -1.3300
   22MPD2    H2  349   0.923   1.079  14.944 -0.3403  0.1953 -0.7947
   22MPD2    H3  350   0.754   1.147  14.794 -0.3827  0.5259 -2.1969
   22MPD2     N  351   0.935   0.943  14.436 -0.0154 -0.4420 -0.6891
   22MPD2    H5  352   0.917   1.025  14.380  0.2341  0.1382  0.0846
   22MPD2    N1  353   1.099   0.871  14.869  0.2174 -0.1570  0.1838
   22MPD2    H7  354   1.147   0.797  14.819  0.0596 -0.2269  0.1367
   23TMC2    C1  355   2.492   1.794  14.724 -0.1344  0.3830  0.1814
   23TMC2    C2  356   2.438   1.921  14.710  0.3907  0.2337 -0.1493
   23TMC2    C3  357   2.323   1.928  14.642  0.4075 -0.1881 -0.3110
   23TMC2    C4  358   2.437   1.687  14.670 -0.6946  0.1600 -0.6571
   23TMC2    C5  359   2.325   1.704  14.597 -0.0311 -0.3405 -1.2094
   23TMC2    C6  360   2.264   1.822  14.584  0.4937 -0.0303 -0.9525
   23TMC2     C  361   2.591   1.773  14.829  0.4608 -0.2224  0.0542
   23TMC2     O  362   2.614   1.658  14.877 -0.2502  0.2984  0.2591
   23TMC2     H  363   2.477   2.008  14.763  4.2676 -0.3173 -2.0845
   23TMC2    H1  364   2.466   1.584  14.681 -1.4424 -0.3118 -3.0310
   23TMC2    H2  365   2.190   1.830  14.505  0.0195 -1.2610 -0.6384
   23TMC2    C7  366   2.253   1.585  14.560  0.4325 -0.3284  0.2150
   23TMC2    C8  367   2.267   2.064  14.627 -0.1032  0.1643  0.3075
   23TMC2    O1  368   2.313   1.480  14.540 -0.2222  0.0978  0.3802
   23TMC2    O2  369   2.345   2.162  14.624  0.0619 -0.0118 -0.2852
   23TMC2    O5  370   2.147   2.068  14.578  0.1066 -0.1920 -0.0396
   23TMC2    H5  371   2.093   1.990  14.601 -1.1646  0.3126 -1.3143
   24MPD2     C  372   3.018   1.938  15.068  0.4746  0.1664  0.2017
   24MPD2    C1  373   2.949   1.822  15.074 -1.1343  0.2420  0.2115
   24MPD2    C2  374   2.838   1.804  14.999 -0.3489  0.0992 -0.1709
   24MPD2    C3  375   2.794   1.903  14.911 -0.0270  0.2410  0.4256
   24MPD2    C4  376   2.860   2.027  14.911  0.1689  0.8355  0.4841
   24MPD2    C5  377   2.972   2.036  14.986 -0.3913  0.3593 -0.3000
   24MPD2     H  378   2.800   1.703  14.988 -4.2767  1.6396 -0.7474
   24MPD2    H1  379   2.833   2.112  14.850  2.7082  1.3643  0.1287
   24MPD2    H2  380   3.116   1.952  15.111  0.6312  1.1783 -0.4826
   24MPD2    H3  381   3.037   2.123  14.983  0.4036 -0.1987  1.0661
   24MPD2     N  382   2.679   1.884  14.836  0.0775 -0.4450 -0.3519
   24MPD2    H5  383   2.648   1.964  14.782 -0.1184 -1.0464 -1.1420
   24MPD2    N1  384   3.004   1.720  15.154 -0.1348  0.6507 -0.5232
   24MPD2    H7  385   3.091   1.729  15.205 -1.4973 -1.3752  2.1840
   25TMC2    C1  386   1.788   4.171  11.600  0.3411 -0.3195 -0.1338
   25TMC2    C2  387   1.920   4.157  11.613 -0.4505 -0.1009  0.1839
   25TMC2    C3  388   1.975   4.133  11.738 -0.0773 -0.3842 -0.2650
   25TMC2    C4  389   1.703   4.155  11.703 -0.2387  0.2985 -0.2627
   25TMC2    C5  390   1.755   4.134  11.830  0.9395  0.2683 -0.2791
   25TMC2    C6  391   1.890   4.116  11.844  0.7488 -0.2592  0.7379
   25TMC2     C  392   1.734   4.233  11.485 -0.0378 -0.3665  0.5545
   25TMC2     O  393   1.809   4.301  11.418 -0.7161 -0.2670  0.2854
   25TMC2     H  394   1.981   4.188  11.528 -2.4905  1.7069 -0.5960
   25TMC2    H1  395   1.598   4.182  11.692 -0.3047  0.1823  0.0721
   25TMC2    H2  396   1.922   4.090  11.944 -1.5765 -2.2017  0.9767
   25TMC2    C7  397   1.684   4.151  11.952 -0.1256 -0.2195 -0.4647
   25TMC2    C8  398   2.089   4.054  11.762  0.2573  0.2596 -0.2800
   25TMC2    O1  399   1.706   4.075  12.046  0.6709  0.0093 -0.3944
   25TMC2    O2  400   2.158   4.045  11.860 -0.4418 -0.4638  0.1148
   25TMC2    O5  401   2.074   3.962  11.669 -0.1386  0.2349  0.0094
   25TMC2    H5  402   1.984   3.964  11.630 -0.5158 -1.4691  0.8140
   26MPD2     C  403   1.371   4.253  11.117 -0.0510  0.0959  0.0573
   26MPD2    C1  404   1.326   4.169  11.215 -0.3347 -1.0113 -0.6026
   26MPD2    C2  405   1.408   4.143  11.329  0.1187  0.4810 -0.8380
   26MPD2    C3  406   1.527   4.219  11.348 -0.4626  0.0499  0.2743
   26MPD2    C4  407   1.559   4.316  11.253 -0.2047 -0.3803  0.6258
   26MPD2    C5  408   1.483   4.331  11.141 -0.2652  0.4423  0.4554
   26MPD2     H  409   1.391   4.065  11.402  1.2427  0.8676 -0.1566
   26MPD2    H1  410   1.644   4.383  11.259  0.1487 -0.8607  1.0580
   26MPD2    H2  411   1.334   4.266  11.016 -0.3650  2.2971  0.4600
   26MPD2    H3  412   1.522   4.389  11.058 -0.4576 -0.7999 -0.5012
   26MPD2     N  413   1.604   4.196  11.463 -0.4386 -0.1519 -0.3637
   26MPD2    H5  414   1.562   4.135  11.532 -1.5442 -0.1405 -1.0327
   26MPD2    N1  415   1.209   4.101  11.189 -0.2249  0.1454  0.3470
   26MPD2    H7  416   1.177   4.110  11.093  0.1705 -0.0962  0.1973
   27TMC2    C1  417   0.109   1.856  12.306 -0.0799  0.5305 -0.5763
   27TMC2    C2  418   0.145   1.986  12.279  0.3552  0.3068  0.5705
   27TMC2    C3  419   0.246   2.036  12.365  0.7622  0.0328 -0.8300
   27TMC2    C4  420   0.165   1.779  12.400  0.3249  0.0143  0.3367
   27TMC2    C5  421   0.266   1.831  12.472  0.6954  0.8444 -0.1356
   27TMC2    C6  422   0.300   1.965  12.469 -0.3126  0.0103  0.0136
   27TMC2     C  423   4.719   1.817  12.247  0.0799  0.1981  0.1712
   27TMC2     O  424   4.697   1.881  12.146  0.1163 -0.2458  0.4459
   27TMC2     H  425   0.093   2.043  12.203  0.6935 -1.7395 -1.2086
   27TMC2    H1  426   0.145   1.673  12.409  1.1464 -0.1717  0.0517
   27TMC2    H2  427   0.359   2.016  12.544  1.8599 -0.5887 -1.2791
   27TMC2    C7  428   0.314   1.755  12.592  0.8335 -0.3490  0.6970
   27TMC2    C8  429   0.270   2.181  12.359 -0.2153 -0.0359 -0.9176
   27TMC2    O1  430   0.251   1.660  12.627 -0.5033 -0.3276  0.2216
   27TMC2    O2  431   0.203   2.250  12.284  0.2545  0.6453  0.0686
   27TMC2    O5  432   0.403   2.199  12.376  0.1392 -0.0668  0.0406
   27TMC2    H5  433   0.436   2.144  12.451  1.7114  1.6923  0.6498
   28MPD2     C  434   4.243   1.631  12.278  0.2747 -0.2160 -0.6151
   28MPD2    C1  435   4.288   1.662  12.402 -0.8030  0.5982  0.0327
   28MPD2    C2  436   4.424   1.688  12.420 -0.7377  0.2156  0.2636
   28MPD2    C3  437   4.509   1.695  12.311 -0.4148 -0.4963  1.0747
   28MPD2    C4  438   4.461   1.668  12.185  0.2737 -0.2117  0.7244
   28MPD2    C5  439   4.328   1.648  12.167  0.4046  0.6619  0.2237
   28MPD2     H  440   4.467   1.724  12.513 -1.2438 -2.1238  1.4148
   28MPD2    H1  441   4.526   1.678  12.098  0.9678 -0.7955  1.1796
   28MPD2    H2  442   4.138   1.612  12.258 -0.7127  3.3051  1.2596
   28MPD2    H3  443   4.282   1.634  12.069  0.6289  0.6653  0.1190
   28MPD2     N  444   4.643   1.738  12.334  0.7310 -0.4055  0.7326
   28MPD2    H5  445   4.669   1.715  12.430  2.0780 -1.4734  0.1095
   28MPD2    N1  446   4.199   1.670  12.506 -0.2479  0.2780  0.0570
   28MPD2    H7  447   4.102   1.665  12.477 -0.1901  2.3845 -0.4964
   29TMC2    C1  448   4.384   3.631  14.356 -0.4602 -0.3028  0.1448
   29TMC2    C2  449   4.396   3.589  14.487  0.2767  0.4619 -0.4319
   29TMC2    C3  450   4.436   3.687  14.582 -0.0298 -0.2169 -0.0867
   29TMC2    C4  451   4.392   3.766  14.321 -0.2842 -0.8230  0.7541
   29TMC2    C5  452   4.404   3.853  14.430 -0.3843  0.3444  0.2814
   29TMC2    C6  453   4.431   3.820  14.558  0.3330  0.4136 -0.0813
   29TMC2     C  454   4.360   3.529  14.250 -0.5656 -0.0491 -0.1901
   29TMC2     O  455   4.347   3.410  14.283  0.1378  0.8397 -0.0248
   29TMC2     H  456   4.399   3.485  14.518  3.3435  0.7634  0.3475
   29TMC2    H1  457   4.395   3.802  14.218  0.1742 -1.1597  0.6472
   29TMC2    H2  458   4.428   3.886  14.644 -0.4009  0.4786 -0.1606
   29TMC2    C7  459   4.409   3.995  14.397  0.5908 -0.1608 -0.1466
   29TMC2    C8  460   4.408   3.641  14.715 -0.3540  0.5694  0.6474
   29TMC2    O1  461   4.353   4.024  14.290  0.4335 -0.3947 -0.7266
   29TMC2    O2  462   4.344   3.540  14.726  0.0367 -0.7884 -0.6005
   29TMC2    O5  463   4.466   3.716  14.815 -0.3950 -0.2809  0.8094
   29TMC2    H5  464   4.537   3.780  14.792 -0.6900  0.0248  0.7402
   30MPD2     C  465   4.308   3.365  13.764  0.2784 -0.0731 -0.1068
   30MPD2    C1  466   4.317   3.300  13.884  0.0441 -0.4114 -0.1826
   30MPD2    C2  467   4.336   3.367  14.000 -0.1107 -0.1958  0.0367
   30MPD2    C3  468   4.343   3.506  14.009 -0.4063 -0.3230 -0.6489
   30MPD2    C4  469   4.329   3.571  13.890 -0.1774 -0.0479 -0.0330
   30MPD2    C5  470   4.303   3.506  13.775  0.4601  0.5161 -0.4698
   30MPD2     H  471   4.360   3.306  14.087 -1.0159 -3.2753 -1.8445
   30MPD2    H1  472   4.336   3.679  13.898 -2.6127  0.0781  0.2664
   30MPD2    H2  473   4.296   3.318  13.667  1.0593  0.8215 -0.6352
   30MPD2    H3  474   4.291   3.564  13.684  0.5085  1.0506 -0.1340
   30MPD2     N  475   4.362   3.585  14.126  0.1505  0.2514 -0.2682
   30MPD2    H5  476   4.374   3.686  14.120  0.0417  0.3394  1.1668
   30MPD2    N1  477   4.325   3.158  13.892 -0.0247  0.4398  0.2147
   30MPD2    H7  478   4.333   3.114  13.983  1.8720 -1.2700 -0.7871
   31TMC2    C1  479   1.967   2.490  15.612 -0.0213 -0.1834 -0.1337
   31TMC2    C2  480   1.859   2.556  15.657 -0.0160 -0.3924  0.0641
   31TMC2    C3  481   1.842   2.565  15.797 -0.1311  0.0081 -0.7662
   31TMC2    C4  482   2.057   2.431  15.693 -0.4341  0.3668 -0.9667
   31TMC2    C5  483   2.033   2.434  15.821  0.0739 -0.9626  0.0402
   31TMC2    C6  484   1.930   2.504  15.882  0.2237 -0.2577  0.0476
   31TMC2     C  485   1.992   2.492  15.469  0.4268  0.2631  0.1820
   31TMC2     O  486   1.932   2.574  15.405  0.6722 -0.5386 -0.0818
   31TMC2     H  487   1.790   2.607  15.591  0.3540 -1.1062 -0.8670
   31TMC2    H1  488   2.159   2.403  15.665 -0.9188 -0.0584 -2.3444
   31TMC2    H2  489   1.903   2.494  15.987  1.9031  0.8223  0.5706
   31TMC2    C7  490   2.125   2.372  15.913 -0.3018  0.5837  0.6648
   31TMC2    C8  491   1.705   2.562  15.837 -0.6570  0.0461  0.3974
   31TMC2    O1  492   2.200   2.290  15.867  0.2319 -0.1990  0.0690
   31TMC2    O2  493   1.652   2.464  15.883  0.3887 -0.3370  0.1231
   31TMC2    O5  494   1.642   2.663  15.780  0.2641 -0.7875 -0.1773
   31TMC2    H5  495   1.693   2.734  15.736  2.8018 -1.2041  2.1471
   32MPD2     C  496   2.305   2.432  15.061  0.0340  0.0842 -0.1535
   32MPD2    C1  497   2.188   2.499  15.074  0.7525  0.7935 -0.0853
   32MPD2    C2  498   2.118   2.498  15.190  0.1206 -0.6298 -0.1972
   32MPD2    C3  499   2.162   2.420  15.305 -0.0437  0.5427 -0.2316
   32MPD2    C4  500   2.287   2.365  15.287  0.5013 -0.7197  0.2349
   32MPD2    C5  501   2.349   2.356  15.168  0.0578  0.0319 -0.5378
   32MPD2     H  502   2.030   2.560  15.201  0.9174  0.3031  1.0137
   32MPD2    H1  503   2.333   2.298  15.358  0.6061 -1.2153 -0.2981
   32MPD2    H2  504   2.362   2.436  14.968 -1.1203 -1.9651 -0.9542
   32MPD2    H3  505   2.438   2.294  15.166 -0.7642 -1.0959 -1.6505
   32MPD2     N  506   2.102   2.417  15.436 -0.2057  0.2474  0.0583
   32MPD2    H5  507   2.137   2.352  15.505  0.3564  0.2916 -0.1869
   32MPD2    N1  508   2.149   2.577  14.959  0.3076 -0.7536  0.3374
   32MPD2    H7  509   2.218   2.575  14.885  3.0119 -0.3925  2.8955
   33TMC2    C1  510   2.073   1.216  11.200  0.8627  0.6546 -0.2559
   33TMC2    C2  511   1.938   1.203  11.215 -0.9402 -0.5032 -0.0065
   33TMC2    C3  512   1.851   1.281  11.144  0.6453 -0.1200 -0.0374
   33TMC2    C4  513   2.118   1.325  11.130  0.0604  0.3633  0.3911
   33TMC2    C5  514   2.029   1.398  11.059  0.1021 -0.2787  0.2153
   33TMC2    C6  515   1.893   1.384  11.066 -0.2625  0.2396 -0.0541
   33TMC2     C  516   2.164   1.129  11.283 -0.0049  0.2842  0.1538
   33TMC2     O  517   2.098   1.054  11.347 -0.0084 -0.2698 -0.5194
   33TMC2     H  518   1.899   1.114  11.262  0.7679 -2.0300 -1.4680
   33TMC2    H1  519   2.224   1.343  11.117 -0.0202  0.8988  0.4930
   33TMC2    H2  520   1.823   1.444  11.010  0.9893 -0.3681 -2.2468
   33TMC2    C7  521   2.089   1.488  10.962  0.0165 -0.5262 -0.1886
   33TMC2    C8  522   1.724   1.211  11.120  0.5274 -0.7897 -0.6779
   33TMC2    O1  523   2.181   1.446  10.901  0.1820  0.0151 -0.0184
   33TMC2    O2  524   1.734   1.089  11.118 -0.2455  0.2107 -0.3671
   33TMC2    O5  525   1.646   1.283  11.036  0.5470  0.4090  0.1830
   33TMC2    H5  526   1.637   1.379  11.056  0.5635  0.9897 -2.4693
   34MPD2     C  527   2.593   0.860  11.375 -0.0491  0.5657 -0.0347
   34MPD2    C1  528   2.465   0.828  11.388 -0.0512  0.0053 -1.0323
   34MPD2    C2  529   2.363   0.922  11.368  0.1130 -0.6395  0.4289
   34MPD2    C3  530   2.398   1.050  11.329 -0.2508 -0.4305  0.2775
   34MPD2    C4  531   2.533   1.075  11.318 -0.3178 -0.5806  0.5763
   34MPD2    C5  532   2.629   0.984  11.345 -0.0873 -0.3918 -0.3569
   34MPD2     H  533   2.259   0.895  11.353  0.3592  0.1399 -2.7424
   34MPD2    H1  534   2.579   1.169  11.292 -0.5612 -0.3801  0.8769
   34MPD2    H2  535   2.672   0.789  11.398 -0.7260 -0.5426 -1.1724
   34MPD2    H3  536   2.733   1.013  11.333 -0.0473  0.5014  2.2292
   34MPD2     N  537   2.307   1.138  11.271 -0.0766  0.3484  0.1772
   34MPD2    H5  538   2.346   1.221  11.229 -0.0752  0.0816 -0.3532
   34MPD2    N1  539   2.432   0.692  11.409 -0.5190 -0.2802 -0.5995
   34MPD2    H7  540   2.507   0.624  11.401  0.2484  0.2178  2.2364
   35TMC2    C1  541   2.834   2.020  11.585 -0.1073  0.3214 -0.5793
   35TMC2    C2  542   2.727   2.100  11.566 -0.1557  0.0170 -0.1648
   35TMC2    C3  543   2.604   2.051  11.562  0.2723 -0.9012  0.6324
   35TMC2    C4  544   2.817   1.891  11.605 -0.1450  1.3150  0.1316
   35TMC2    C5  545   2.687   1.839  11.587  0.3659 -0.5229  0.4220
   35TMC2    C6  546   2.576   1.920  11.568  0.8645 -0.3278 -0.0096
   35TMC2     C  547   2.967   2.088  11.587  0.5728 -0.0915 -0.8256
   35TMC2     O  548   2.968   2.196  11.530  0.2092 -0.4900 -0.0370
   35TMC2     H  549   2.733   2.208  11.557 -0.2397  0.2095  2.1610
   35TMC2    H1  550   2.902   1.825  11.613 -2.6308 -1.9436 -0.2328
   35TMC2    H2  551   2.481   1.879  11.535  0.1915  0.3576  1.0829
   35TMC2    C7  552   2.659   1.694  11.612 -0.4196  0.1549 -0.6472
   35TMC2    C8  553   2.504   2.153  11.530  0.2845 -0.5921  0.2394
   35TMC2    O1  554   2.752   1.610  11.592  0.1612  0.0133 -0.1819
   35TMC2    O2  555   2.527   2.250  11.457 -0.3492 -0.6245  0.0240
   35TMC2    O5  556   2.388   2.081  11.526 -0.1126 -0.5528  0.1614
   35TMC2    H5  557   2.378   2.022  11.604 -3.0293  3.0058  2.4699
   36MPD2     C  558   3.419   2.177  11.804  0.1909  0.3749  1.3458
   36MPD2    C1  559   3.383   2.052  11.837  0.3068  0.5554  0.1325
   36MPD2    C2  560   3.270   1.996  11.779  0.5538  0.2235 -0.0973
   36MPD2    C3  561   3.184   2.072  11.695 -0.1871  0.0156 -0.1737
   36MPD2    C4  562   3.235   2.188  11.649 -0.3373 -0.0495  0.7093
   36MPD2    C5  563   3.346   2.240  11.706  0.2362  0.4136 -0.0162
   36MPD2     H  564   3.235   1.899  11.813  1.9767 -1.0823 -2.3340
   36MPD2    H1  565   3.174   2.249  11.584  1.8535 -0.4959 -1.7444
   36MPD2    H2  566   3.503   2.225  11.853  1.7885 -0.9584 -0.0770
   36MPD2    H3  567   3.377   2.341  11.682  0.6177 -0.1810 -2.0627
   36MPD2     N  568   3.061   2.019  11.656  0.2979  0.3918 -0.4893
   36MPD2    H5  569   3.033   1.933  11.702 -1.6802  0.3540 -1.7561
   36MPD2    N1  570   3.474   1.979  11.922 -0.6193 -0.1443  0.1347
   36MPD2    H7  571   3.552   2.036  11.954  0.2679 -1.3541  0.1348
   37TMC2    C1  572   1.085   1.620  11.909  0.3953 -0.5086  0.5937
   37TMC2    C2  573   0.995   1.616  11.809 -0.1429 -0.0859  1.0701
   37TMC2    C3  574   0.996   1.713  11.713  0.5644  0.0945  0.2333
   37TMC2    C4  575   1.159   1.734  11.928  0.4839  0.3156  0.2738
   37TMC2    C5  576   1.142   1.841  11.837  0.0206  0.0431 -1.0012
   37TMC2    C6  577   1.065   1.829  11.719 -0.1837 -0.5934  0.3421
   37TMC2     C  578   1.071   1.519  12.021 -0.1183  0.8279  0.0492
   37TMC2     O  579   0.968   1.451  12.018 -0.1129 -0.2105  0.1024
   37TMC2     H  580   0.948   1.521  11.787 -0.6650  0.4473 -0.1220
   37TMC2    H1  581   1.230   1.742  12.010  1.3556 -1.0210 -0.3382
   37TMC2    H2  582   1.073   1.904  11.642 -1.0626  2.1575  2.9218
   37TMC2    C7  583   1.239   1.950  11.855 -0.7181 -0.4603 -0.2487
   37TMC2    C8  584   0.907   1.689  11.603  0.7532  1.0454 -0.6762
   37TMC2    O1  585   1.339   1.918  11.916 -0.0869  0.3790 -0.2680
   37TMC2    O2  586   0.826   1.599  11.622  0.1789  0.1025  0.2430
   37TMC2    O5  587   0.871   1.811  11.549  0.6096 -0.0522 -0.2761
   37TMC2    H5  588   0.916   1.884  11.596 -0.2808  1.0165 -1.0758
   38MPD2     C  589   1.200   1.321  12.476 -0.2499 -0.3058  0.0601
   38MPD2    C1  590   1.304   1.400  12.436  0.2120  1.2674 -0.0185
   38MPD2    C2  591   1.298   1.463  12.315  0.5583  0.3400  0.3089
   38MPD2    C3  592   1.184   1.459  12.234  0.0522 -0.3683 -0.1767
   38MPD2    C4  593   1.076   1.394  12.290 -0.2019 -0.0729 -0.4144
   38MPD2    C5  594   1.081   1.328  12.407 -0.1453 -1.0103 -0.1016
   38MPD2     H  595   1.389   1.509  12.278 -0.3563  2.8820  1.2080
   38MPD2    H1  596   0.988   1.373  12.231 -1.4152  1.8641  0.7248
   38MPD2    H2  597   1.202   1.270  12.572  0.7290  1.8932  1.2225
   38MPD2    H3  598   0.998   1.271  12.446 -0.4534 -0.1579  0.4888
   38MPD2     N  599   1.183   1.519  12.105  0.4066 -0.4492 -0.1474
   38MPD2    H5  600   1.271   1.563  12.084  0.6023 -0.7346  0.0751
   38MPD2    N1  601   1.430   1.398  12.501  0.3044  0.4927 -0.2262
   38MPD2    H7  602   1.510   1.448  12.463  0.2361  1.2167  0.5945
   39TMC2    C1  603   4.617   3.712   1.668  0.1650 -0.8461  0.3637
   39TMC2    C2  604   4.627   3.814   1.762 -0.0258  0.7908 -0.3894
   39TMC2    C3  605   0.013   3.875   1.788  0.3700  0.3265 -0.6187
   39TMC2    C4  606   4.729   3.670   1.607  0.2934 -0.9015  0.0792
   39TMC2    C5  607   0.112   3.724   1.641 -0.4257 -0.1087  0.5462
   39TMC2    C6  608   0.125   3.827   1.729 -0.1888 -0.1304  0.0290
   39TMC2     C  609   4.488   3.636   1.650  0.8053  0.8398  0.2505
   39TMC2     O  610   4.389   3.690   1.689  0.0915  0.7639 -0.6668
   39TMC2     H  611   4.534   3.855   1.800 -0.9284 -1.2480 -0.4287
   39TMC2    H1  612   4.724   3.593   1.530 -2.3019  0.6471 -1.2731
   39TMC2    H2  613   0.218   3.871   1.765 -1.1365  1.6123  0.3542
   39TMC2    C7  614   0.226   3.644   1.602  0.8771  0.4369 -0.1100
   39TMC2    C8  615   0.028   3.955   1.909  0.1595 -0.6885  0.2936
   39TMC2    O1  616   0.203   3.556   1.521 -0.0860  0.4529 -0.1592
   39TMC2    O2  617   4.713   4.066   1.905  0.1110  0.2255 -0.7910
   39TMC2    O5  618   4.725   3.860   1.994 -0.4222 -0.2471  0.5236
   39TMC2    H5  619   0.025   3.771   1.974  0.8489  0.0605  1.5868
   40MPD2     C  620   4.450   3.293   1.527 -0.8531  0.3528  0.2493
   40MPD2    C1  621   4.406   3.421   1.565  1.0561  0.0065  0.4456
   40MPD2    C2  622   4.270   3.451   1.558  0.0675  0.2630 -0.0857
   40MPD2    C3  623   4.184   3.358   1.499 -0.2340  0.0283 -0.0272
   40MPD2    C4  624   4.235   3.235   1.461  0.3591  0.1148 -0.4269
   40MPD2    C5  625   4.365   3.198   1.489 -0.2986 -0.1417  0.3487
   40MPD2     H  626   4.229   3.547   1.588  0.5604 -0.0640  1.6057
   40MPD2    H1  627   4.167   3.156   1.432 -0.4884  0.3463  0.9214
   40MPD2    H2  628   4.553   3.267   1.548  0.1269  3.6220 -0.5736
   40MPD2    H3  629   4.394   3.095   1.470  0.0231 -0.0069  0.1061
   40MPD2     N  630   4.055   3.378   1.458 -0.1810  0.7898 -0.5518
   40MPD2    H5  631   4.003   3.301   1.417 -1.0270 -0.9356  3.7623
   40MPD2    N1  632   4.507   3.508   1.603  0.0087 -0.2141 -0.4019
   40MPD2    H7  633   4.601   3.470   1.599 -0.7961 -2.2710  0.2042
   41TMC2    C1  634   3.343   1.305  13.972  0.5770 -0.0996 -0.0553
   41TMC2    C2  635   3.298   1.429  14.007  0.1666 -0.0551  0.3282
   41TMC2    C3  636   3.261   1.511  13.904  0.3169 -0.4861  0.3674
   41TMC2    C4  637   3.351   1.262  13.845  0.4044 -0.4433 -1.0442
   41TMC2    C5  638   3.294   1.339  13.747  0.0551 -0.0959  0.0312
   41TMC2    C6  639   3.255   1.469  13.773  0.0482 -0.3834  0.5012
   41TMC2     C  640   3.420   1.231  14.069  0.3726 -0.3445  0.5990
   41TMC2     O  641   3.489   1.150  14.019 -0.3732  0.4152  0.1913
   41TMC2     H  642   3.299   1.461  14.111 -0.2719  1.0869 -0.0210
   41TMC2    H1  643   3.384   1.161  13.823  0.2478 -0.8364  0.5375
   41TMC2    H2  644   3.205   1.518  13.690  0.2224  1.9123  1.7334
   41TMC2    C7  645   3.236   1.266  13.640  0.2475  0.4117 -0.1504
   41TMC2    C8  646   3.243   1.651  13.946 -0.8072  0.1258  0.0847
   41TMC2    O1  647   3.197   1.156  13.662  0.4855 -0.0906  0.1607
   41TMC2    O2  648   3.306   1.699  14.037  0.0923  0.5537  0.6459
   41TMC2    O5  649   3.182   1.724  13.848  0.3991  0.5052 -1.1838
   41TMC2    H5  650   3.145   1.677  13.770 -0.5428 -0.9479  0.1492
   42MPD2     C  651   3.595   1.156  14.293  0.1362  0.7708  0.1184
   42MPD2    C1  652   3.475   1.215  14.313 -0.3145 -0.5475 -0.3070
   42MPD2    C2  653   3.424   1.237  14.443 -0.5285  0.3573  0.3175
   42MPD2    C3  654   3.496   1.196  14.552 -0.2747 -0.0500  0.4783
   42MPD2    C4  655   3.616   1.136  14.533  0.6560 -0.2492 -0.6002
   42MPD2    C5  656   3.662   1.118  14.403 -0.6348  0.3272  0.1567
   42MPD2     H  657   3.330   1.289  14.454 -1.7552 -1.6402 -0.6003
   42MPD2    H1  658   3.667   1.092  14.618  0.7172 -0.4329 -0.7321
   42MPD2    H2  659   3.641   1.144  14.196 -1.2011 -3.6137  0.0255
   42MPD2    H3  660   3.756   1.065  14.399 -0.4265  0.7477 -0.5403
   42MPD2     N  661   3.471   1.231  14.684  0.6466 -0.0781 -0.3038
   42MPD2    H5  662   3.537   1.196  14.752 -1.0207 -0.7605  0.9836
   42MPD2    N1  663   3.406   1.265  14.203 -0.0237  0.4114  0.1878
   42MPD2    H7  664   3.323   1.318  14.227 -0.1254  1.0727 -1.6375
   43TMC2    C1  665   0.172   0.083   0.730 -0.4399 -0.6406  0.2297
   43TMC2    C2  666   0.088   0.145   0.637 -0.7876 -0.4310 -0.1410
   43TMC2    C3  667   0.013   0.242   0.690  0.1251  0.3502 -0.1025
   43TMC2    C4  668   0.179   0.116   0.865  0.3878  0.1460  0.5965
   43TMC2    C5  669   0.108   0.223   0.907  0.5667  0.9626 -0.1772
   43TMC2    C6  670   0.023   0.288   0.818 -0.6615 -0.2031  0.1021
   43TMC2     C  671   0.249   4.709   0.686  0.7141  0.1275 -0.0654
   43TMC2     O  672   0.356   4.684   0.742 -0.3807  0.1188  0.1514
   43TMC2     H  673   0.083   0.134   0.529 -1.5915 -2.4556  0.1125
   43TMC2    H1  674   0.229   0.049   0.934  1.3535  2.1945  1.8870
   43TMC2    H2  675   4.718   0.383   0.846 -0.9499 -1.1547  2.9655
   43TMC2    C7  676   0.141   0.288   1.033  0.3298 -0.1875  0.0451
   43TMC2    C8  677   4.669   0.326   0.604  0.2105 -0.4600  0.0419
   43TMC2    O1  678   0.243   0.253   1.090  1.0368  0.2462  0.4332
   43TMC2    O2  679   4.671   0.311   0.484  0.1489  0.1308 -0.0957
   43TMC2    O5  680   4.559   0.356   0.682  0.3298 -0.1838 -0.2753
   43TMC2    H5  681   4.567   0.338   0.778  1.8133 -0.6712 -0.4771
   44MPD2     C  682   0.330   4.343   0.341 -0.0308 -0.4388 -0.6483
   44MPD2    C1  683   0.421   4.403   0.421 -0.4333  0.9252 -0.0350
   44MPD2    C2  684   0.370   4.503   0.504  0.1186  0.3734  0.0026
   44MPD2    C3  685   0.237   4.543   0.503 -0.0478  0.1815  0.2166
   44MPD2    C4  686   0.148   4.483   0.419 -0.7179 -0.0642 -0.0257
   44MPD2    C5  687   0.200   4.383   0.336  0.4395 -0.7702  0.1698
   44MPD2     H  688   0.438   4.548   0.576  0.5861  0.9938 -0.8358
   44MPD2    H1  689   0.048   4.521   0.404 -0.7385  0.4375  1.3805
   44MPD2    H2  690   0.357   4.260   0.275  1.0126  1.0284 -2.0657
   44MPD2    H3  691   0.147   4.337   0.253 -2.3921  1.5890  0.6740
   44MPD2     N  692   0.185   4.641   0.587  0.1077 -0.4731  0.5378
   44MPD2    H5  693   0.087   4.668   0.577  0.1257 -0.5685  0.0888
   44MPD2    N1  694   0.564   4.375   0.435 -0.1360  0.4968 -0.0937
   44MPD2    H7  695   0.623   4.424   0.502  0.0765 -0.6236  0.5394
   45TMC2    C1  696   0.422   2.289   9.661 -0.0395  0.2081  0.0683
   45TMC2    C2  697   0.529   2.249   9.578  0.0182  0.2416 -0.2826
   45TMC2    C3  698   0.624   2.346   9.538 -0.1960  0.0441  0.1511
   45TMC2    C4  699   0.425   2.418   9.719  0.5580 -0.2359 -0.0460
   45TMC2    C5  700   0.519   2.508   9.671  0.6390  0.3987  0.8258
   45TMC2    C6  701   0.620   2.471   9.584  0.4021  0.5272  0.0946
   45TMC2     C  702   0.317   2.185   9.676 -0.0236 -0.4765  0.1760
   45TMC2     O  703   0.345   2.083   9.612 -0.4961 -0.5122  0.2001
   45TMC2     H  704   0.549   2.150   9.538 -1.8232  0.6798 -2.2454
   45TMC2    H1  705   0.350   2.452   9.790 -0.1278 -1.2950 -0.2603
   45TMC2    H2  706   0.701   2.541   9.568  1.7888 -1.9434 -3.7187
   45TMC2    C7  707   0.499   2.642   9.722 -0.4249 -0.6505 -0.2036
   45TMC2    C8  708   0.720   2.304   9.441  1.0211 -0.7645 -0.3886
   45TMC2    O1  709   0.426   2.650   9.817 -1.0807 -0.0064 -0.0900
   45TMC2    O2  710   0.782   2.199   9.448  0.8171 -0.5698 -0.2393
   45TMC2    O5  711   0.759   2.418   9.375 -0.6353 -0.0395 -0.7173
   45TMC2    H5  712   0.683   2.477   9.353  0.9615  2.0188 -0.6590
   46MPD2     C  713   0.061   2.026   9.665 -0.4055 -0.1503 -0.2648
   46MPD2    C1  714   0.064   2.162   9.689  0.5184 -0.3463 -0.8716
   46MPD2    C2  715   4.686   2.235   9.697  0.3514  0.0200 -0.0289
   46MPD2    C3  716   4.562   2.175   9.686  0.0065  0.2093  0.2047
   46MPD2    C4  717   4.555   2.040   9.676  0.1492  0.2274  0.2015
   46MPD2    C5  718   4.673   1.967   9.666 -0.4251  0.1080  0.2970
   46MPD2     H  719   4.685   2.342   9.709 -0.8799  0.0944 -0.7431
   46MPD2    H1  720   4.463   1.983   9.675  0.1605  0.2079  0.2889
   46MPD2    H2  721   0.148   1.961   9.664 -1.5715 -1.7470  1.2251
   46MPD2    H3  722   4.680   1.861   9.647 -0.4364 -0.4622  3.5022
   46MPD2     N  723   4.442   2.258   9.697 -0.1758  0.4298  0.3268
   46MPD2    H5  724   4.447   2.359   9.706  1.3273  0.5756 -1.9970
   46MPD2    N1  725   0.187   2.239   9.690 -0.1713 -0.9346 -0.0987
   46MPD2    H7  726   0.171   2.338   9.704  1.1785 -0.8685  0.9768
   47TMC2    C1  727   2.016   3.155   9.547 -0.1465 -1.4880  0.4018
   47TMC2    C2  728   2.013   3.051   9.643 -0.2789 -1.2450 -0.3116
   47TMC2    C3  729   1.951   3.069   9.762 -0.6042 -0.0358  0.1099
   47TMC2    C4  730   1.950   3.271   9.568 -0.1427 -0.1324  0.7799
   47TMC2    C5  731   1.887   3.283   9.688  0.4022  0.7720 -0.7238
   47TMC2    C6  732   1.889   3.192   9.788 -0.5036 -0.8929 -0.7945
   47TMC2     C  733   2.056   3.121   9.409 -0.4921  0.1453 -0.4879
   47TMC2     O  734   2.002   3.177   9.314 -0.6451  0.2283  0.0672
   47TMC2     H  735   2.080   2.967   9.631 -1.3220 -1.7787 -2.3273
   47TMC2    H1  736   1.942   3.338   9.483 -3.3410 -0.4150  0.8782
   47TMC2    H2  737   1.854   3.219   9.886  1.7188 -0.0525 -0.2257
   47TMC2    C7  738   1.811   3.408   9.703 -0.1665 -0.4973  0.8878
   47TMC2    C8  739   2.000   2.980   9.869 -0.0742 -0.0003 -0.1011
   47TMC2    O1  740   1.845   3.503   9.631 -0.3280 -0.3214 -0.3115
   47TMC2    O2  741   2.113   2.931   9.867  0.4793 -0.4109 -0.7124
   47TMC2    O5  742   1.925   2.996   9.979  0.9231 -0.0665 -0.2030
   47TMC2    H5  743   1.848   3.052   9.955  0.1920 -0.0013  2.2020
   48MPD2     C  744   2.154   2.965   9.174  0.3522 -0.1282 -0.2889
   48MPD2    C1  745   2.212   2.958   9.297  0.1581 -0.6400  0.0962
   48MPD2    C2  746   2.310   2.867   9.321 -0.2097  0.4236  0.7206
   48MPD2    C3  747   2.353   2.780   9.222  0.1690 -0.0100 -0.2296
   48MPD2    C4  748   2.293   2.785   9.100 -0.1166 -1.0375 -0.2936
   48MPD2    C5  749   2.201   2.884   9.072  0.6147  0.4810 -0.0874
   48MPD2     H  750   2.357   2.867   9.418 -1.5646  0.3103  1.3836
   48MPD2    H1  751   2.324   2.712   9.026  0.0159 -0.5702 -0.7018
   48MPD2    H2  752   2.085   3.037   9.132 -1.4163 -1.5427  0.2092
   48MPD2    H3  753   2.167   2.895   8.969 -0.4059  2.9855  0.5016
   48MPD2     N  754   2.436   2.682   9.273 -0.1863  0.1087 -0.1285
   48MPD2    H5  755   2.473   2.704   9.365  0.2321  0.0673 -0.2898
   48MPD2    N1  756   2.157   3.030   9.407  0.6187  0.0918 -0.1595
   48MPD2    H7  757   2.211   3.015   9.492  1.0529 -2.8149 -0.9384
   49TMC2    C1  758   0.148   0.473  10.025  0.1978 -0.0218  0.1326
   49TMC2    C2  759   0.122   0.579   9.940  0.0476  0.7665 -0.2228
   49TMC2    C3  760   0.013   0.555   9.863  0.2686 -0.2102  0.4291
   49TMC2    C4  761   0.077   0.356  10.032  0.4218 -0.2220 -0.2114
   49TMC2    C5  762   4.704   0.344   9.949 -0.1206  0.0958 -0.1126
   49TMC2    C6  763   4.679   0.439   9.860 -0.4258  1.1093  0.4770
   49TMC2     C  764   0.254   0.503  10.125  0.2817  0.4186 -0.0066
   49TMC2     O  765   0.279   0.621  10.150 -0.7590 -0.3262  0.5586
   49TMC2     H  766   0.177   0.673   9.944  0.1638  0.6603  0.6717
   49TMC2    H1  767   0.098   0.272  10.098 -2.3704 -1.3080 -0.6894
   49TMC2    H2  768   4.584   0.435   9.808 -0.2179 -0.3213  0.2112
   49TMC2    C7  769   4.637   0.221   9.923 -0.2526 -0.1262  0.2890
   49TMC2    C8  770   4.719   0.648   9.756 -0.5653 -0.0429 -0.8620
   49TMC2    O1  771   4.587   0.186   9.816 -0.0492 -0.2196  0.4442
   49TMC2    O2  772   4.605   0.669   9.708  0.2490 -0.2573  0.1091
   49TMC2    O5  773   0.083   0.729   9.729 -0.0507 -0.3365 -0.0964
   49TMC2    H5  774   0.169   0.684   9.740 -0.8874 -1.4829  1.6163
   50MPD2     C  775   0.456   0.487  10.324  0.2091 -0.1248 -0.2903
   50MPD2    C1  776   0.390   0.379  10.278 -0.8761  0.5205 -0.2582
   50MPD2    C2  777   0.426   0.256  10.331 -0.0188  0.2965  0.9328
   50MPD2    C3  778   0.517   0.243  10.437 -0.2258  0.3908  1.0482
   50MPD2    C4  779   0.558   0.361  10.502  0.1378 -0.2753  0.1953
   50MPD2    C5  780   0.530   0.476  10.441  0.3005  0.4038  0.4498
   50MPD2     H  781   0.390   0.166  10.282  0.6608  0.5998 -0.1266
   50MPD2    H1  782   0.633   0.362  10.581  0.6700 -0.1706 -0.3094
   50MPD2    H2  783   0.448   0.587  10.284 -1.4541 -0.3149 -0.4373
   50MPD2    H3  784   0.591   0.556  10.482 -0.3227  0.5980  1.0024
   50MPD2     N  785   0.548   0.120  10.489 -0.2998  0.3543 -0.5330
   50MPD2    H5  786   0.609   0.119  10.570  0.1502 -0.9631 -0.8908
   50MPD2    N1  787   0.303   0.389  10.169 -0.1501 -0.4138 -0.4045
   50MPD2    H7  788   0.265   0.306  10.125  0.1390 -1.2604  0.9551
   51TMC2    C1  789   1.240   4.136   1.781  0.9805  0.4047  0.6669
   51TMC2    C2  790   1.187   4.188   1.901  0.0529  0.1263  0.5837
   51TMC2    C3  791   1.218   4.316   1.938 -0.4056 -0.1601  0.2388
   51TMC2    C4  792   1.326   4.209   1.703  0.6012  1.0359  0.3361
   51TMC2    C5  793   1.354   4.340   1.748  0.0079  0.8829 -0.0601
   51TMC2    C6  794   1.302   4.400   1.862  0.4529 -0.3529  0.4746
   51TMC2     C  795   1.205   3.996   1.745  0.2267  0.5067 -0.6826
   51TMC2     O  796   1.261   3.938   1.652  0.0847  0.1995 -0.1581
   51TMC2     H  797   1.109   4.138   1.957 -0.0741  0.5723  0.8090
   51TMC2    H1  798   1.356   4.163   1.610 -0.3029  1.0561  0.0285
   51TMC2    H2  799   1.309   4.505   1.885 -0.4594 -0.2242  0.1775
   51TMC2    C7  800   1.439   4.422   1.654 -0.5765 -0.2124  0.2380
   51TMC2    C8  801   1.162   4.383   2.051  0.2031  0.4084 -0.1917
   51TMC2    O1  802   1.456   4.378   1.544 -0.0569 -0.3110  0.5530
   51TMC2    O2  803   1.140   4.501   2.066 -0.4071 -0.3176  0.1613
   51TMC2    O5  804   1.160   4.289   2.149  0.2838  0.1500  0.1036
   51TMC2    H5  805   1.218   4.211   2.133  0.7936  0.8012 -1.2332
   52MPD2     C  806   0.867   3.611   1.779 -0.5598 -0.2161  0.0502
   52MPD2    C1  807   0.982   3.612   1.705 -0.5776 -0.3777 -1.0076
   52MPD2    C2  808   1.060   3.724   1.715  0.0082  0.1954 -0.2599
   52MPD2    C3  809   1.019   3.831   1.789  0.0437 -0.4494 -0.0645
   52MPD2    C4  810   0.895   3.827   1.855 -0.8715  0.0442 -0.4957
   52MPD2    C5  811   0.814   3.720   1.835  0.0515  0.1869 -0.3893
   52MPD2     H  812   1.160   3.723   1.675  0.1668  2.0281  0.0726
   52MPD2    H1  813   0.850   3.911   1.905 -1.3570 -1.0865  0.9494
   52MPD2    H2  814   0.796   3.529   1.768 -1.7993  0.9215 -0.4260
   52MPD2    H3  815   0.716   3.718   1.881 -0.1766  0.9915 -0.8360
   52MPD2     N  816   1.086   3.959   1.795  0.4317  0.0016  0.0081
   52MPD2    H5  817   1.044   4.026   1.859 -0.1606  0.5333 -0.9509
   52MPD2    N1  818   1.022   3.500   1.628 -0.0631  0.0288 -0.3934
   52MPD2    H7  819   1.099   3.514   1.563 -1.2370  0.3409 -1.7139
   53TMC2    C1  820   1.847   2.314  11.848 -0.4684  0.5733  0.3920
   53TMC2    C2  821   1.961   2.264  11.800 -0.3916  0.2665 -0.0140
   53TMC2    C3  822   2.052   2.214  11.890  0.1314 -0.0951 -0.8178
   53TMC2    C4  823   1.819   2.319  11.983 -0.0449 -0.3048  0.0946
   53TMC2    C5  824   1.913   2.269  12.063 -0.2455  0.5788  0.1271
   53TMC2    C6  825   2.031   2.211  12.021 -0.3195 -0.1170 -0.8649
   53TMC2     C  826   1.738   2.336  11.762 -0.0692 -0.0543  0.3136
   53TMC2     O  827   1.760   2.381  11.649 -0.0687  0.2732  0.0609
   53TMC2     H  828   1.972   2.259  11.693 -2.2123  0.2996 -0.2090
   53TMC2    H1  829   1.733   2.374  12.020 -1.8185 -2.4044 -0.9126
   53TMC2    H2  830   2.102   2.164  12.089 -2.1921 -1.2922  0.2948
   53TMC2    C7  831   1.842   2.200  12.171  0.2579 -0.1464  0.3025
   53TMC2    C8  832   2.189   2.201  11.856 -0.1538 -0.9886 -0.2175
   53TMC2    O1  833   1.718   2.200  12.169 -0.2155  0.2892 -0.0756
   53TMC2    O2  834   2.272   2.241  11.934 -0.0284  0.5079  0.0768
   53TMC2    O5  835   2.198   2.194  11.723 -0.2317  0.0939  0.2924
   53TMC2    H5  836   2.142   2.132  11.672  0.0873  0.8674 -1.0078
   54MPD2     C  837   1.456   2.372  11.669  0.6015  0.2040 -0.1927
   54MPD2    C1  838   1.493   2.289  11.778  0.1348 -0.3473 -0.7045
   54MPD2    C2  839   1.400   2.203  11.830  0.4249  0.0484 -0.1911
   54MPD2    C3  840   1.289   2.175  11.755 -0.4167 -1.2550  0.3128
   54MPD2    C4  841   1.239   2.275  11.663  0.9171  0.2094  0.2093
   54MPD2    C5  842   1.326   2.371  11.619 -0.0202  0.6736  0.8303
   54MPD2     H  843   1.433   2.144  11.915 -1.6389  1.3322  1.5123
   54MPD2    H1  844   1.140   2.272  11.620  1.5335 -1.1749 -1.1385
   54MPD2    H2  845   1.524   2.437  11.615  0.5586  0.8577  0.5307
   54MPD2    H3  846   1.304   2.430  11.531  1.7559 -1.4539 -1.0619
   54MPD2     N  847   1.206   2.053  11.778 -0.0438  0.0283 -0.5623
   54MPD2    H5  848   1.113   2.048  11.737  0.5257 -1.5950 -1.6674
   54MPD2    N1  849   1.631   2.275  11.824 -0.3990 -0.4401 -0.2423
   54MPD2    H7  850   1.644   2.228  11.913 -1.9148  0.5403  0.5030
   55TMC2    C1  851   3.006   4.419  17.675 -0.6382  0.2107 -0.6079
   55TMC2    C2  852   2.959   4.389  17.549 -0.3570 -0.4998 -0.5358
   55TMC2    C3  853   2.918   4.256  17.529  0.6061 -0.1106  0.1184
   55TMC2    C4  854   3.026   4.329   0.023  0.7645 -0.5901 -0.9323
   55TMC2    C5  855   2.994   4.201  17.739 -0.0110  0.4024  0.0688
   55TMC2    C6  856   2.948   4.159  17.617  0.3330  0.3095 -0.4490
   55TMC2     C  857   3.018   4.555  17.730  0.0917  0.5695 -0.3578
   55TMC2     O  858   3.015   4.562   0.107 -0.5325 -0.6389 -0.3150
   55TMC2     H  859   2.930   4.467  17.480 -0.1052 -0.3106 -0.4253
   55TMC2    H1  860   3.076   4.348   0.118 -0.9608 -0.8944  0.0398
   55TMC2    H2  861   2.915   4.058  17.594  0.9350 -0.0540  0.3049
   55TMC2    C7  862   2.999   4.102   0.097  0.4457  0.0449  0.0577
   55TMC2    C8  863   2.856   4.217  17.396  0.5350 -0.7432  0.2514
   55TMC2    O1  864   2.970   3.992   0.056 -0.6032 -0.5036  0.1388
   55TMC2    O2  865   2.883   4.113  17.330  0.5536  0.3678  0.0065
   55TMC2    O5  866   2.771   4.312  17.355  0.0180  0.1881 -0.0691
   55TMC2    H5  867   2.750   4.373  17.429 -3.7267  0.2021 -1.1070
   56MPD2     C  868   2.998   0.141  17.557 -0.4619 -0.5502  0.5869
   56MPD2    C1  869   2.973   0.054  17.659 -0.2498 -0.2171 -0.2417
   56MPD2    C2  870   2.893   0.087   0.016 -0.6671 -0.2592  0.3461
   56MPD2    C3  871   2.854   0.218   0.021 -0.5841  0.8230 -0.0432
   56MPD2    C4  872   2.904   0.315  17.682  0.0322  0.2687 -0.3436
   56MPD2    C5  873   2.974   0.276  17.574 -0.1765  0.2616  0.3487
   56MPD2     H  874   2.877   0.014   0.095 -1.7002 -0.7016 -0.2830
   56MPD2    H1  875   2.889   0.421  17.697  0.0259  0.2626 -0.3071
   56MPD2    H2  876   3.062   0.105  17.476  0.0924  2.3168 -0.2346
   56MPD2    H3  877   2.994   0.349  17.497  0.1413 -0.2533 -0.0517
   56MPD2     N  878   2.783   0.256   0.134 -0.3879 -0.3805 -0.8693
   56MPD2    H5  879   2.754   0.190   0.205 -0.5109 -0.9068 -1.4163
   56MPD2    N1  880   3.005   4.657  17.638 -0.2171  0.2588  0.3437
   56MPD2    H7  881   3.055   4.637  17.552  0.5464 -1.8891  1.2840
   57TMC2    C1  882   1.505   0.063  13.715 -1.2032 -0.5698  0.1535
   57TMC2    C2  883   1.622   0.021  13.781  0.2436  0.3479 -0.7902
   57TMC2    C3  884   1.742   0.022  13.711  0.6261  0.4862 -0.5725
   57TMC2    C4  885   1.517   0.098  13.584 -0.4481 -0.2312 -0.3126
   57TMC2    C5  886   1.635   0.082  13.512  0.3718 -0.9453 -0.2635
   57TMC2    C6  887   1.752   0.039  13.573  0.0209 -0.3236  0.1138
   57TMC2     C  888   1.389   0.105  13.784  0.3493  0.5203 -0.0931
   57TMC2     O  889   1.312   0.175  13.720 -0.0075  0.1645  0.3140
   57TMC2     H  890   1.617   4.724  13.883  0.3272  1.9596 -0.2393
   57TMC2    H1  891   1.430   0.137  13.533 -0.2361 -0.1693 -0.6286
   57TMC2    H2  892   1.849   0.038  13.523 -0.3481  0.6384 -0.6424
   57TMC2    C7  893   1.637   0.143  13.373 -0.2352  0.3437  0.2966
   57TMC2    C8  894   1.872   0.007  13.782  0.3021 -0.1056 -0.5454
   57TMC2    O1  895   1.532   0.161  13.316  0.1086  0.3093 -0.3789
   57TMC2    O2  896   1.974   0.025  13.723  0.1975  0.2117 -0.5322
   57TMC2    O5  897   1.853   0.009  13.913  0.5285  0.1360  0.3316
   57TMC2    H5  898   1.767   0.038  13.950  0.2567  0.4643 -0.5526
   58MPD2     C  899   1.132   0.221  14.208  0.1038  0.4204  0.5105
   58MPD2    C1  900   1.150   0.287  14.090  0.1704 -0.3582  0.4055
   58MPD2    C2  901   1.237   0.231  13.996  0.8029 -0.5286  0.3838
   58MPD2    C3  902   1.301   0.113  14.014  0.4082  0.5048  1.1735
   58MPD2    C4  903   1.297   0.053  14.140 -0.1202 -0.1540 -0.5917
   58MPD2    C5  904   1.207   0.106  14.232  0.2019 -0.2004 -0.0708
   58MPD2     H  905   1.248   0.289  13.905 -0.7054 -2.6302 -1.1253
   58MPD2    H1  906   1.342   4.696  14.167  0.1645 -0.4729 -2.2267
   58MPD2    H2  907   1.057   0.249  14.281 -1.2413  0.5328 -0.9158
   58MPD2    H3  908   1.190   0.047  14.321 -0.6716  0.0385 -0.0788
   58MPD2     N  909   1.378   0.057  13.911 -0.2342  0.4485  0.6310
   58MPD2    H5  910   1.428   4.707  13.928  2.5884  1.9013 -0.1683
   58MPD2    N1  911   1.086   0.410  14.045  0.6086  0.0685 -0.1867
   58MPD2    H7  912   1.080   0.431  13.946 -1.2163 -0.6790 -0.2452
   59TMC2    C1  913   4.035   1.213  12.974 -0.2239 -0.4889  0.4077
   59TMC2    C2  914   4.059   1.089  13.019 -0.1056 -0.3662 -0.4400
   59TMC2    C3  915   4.047   0.993  12.922 -0.3608 -0.4937  0.5575
   59TMC2    C4  916   4.016   1.243  12.842  0.0360  0.1684  0.0187
   59TMC2    C5  917   4.013   1.145  12.751 -0.7476  0.1635  0.1862
   59TMC2    C6  918   4.024   1.020  12.790  0.2598  0.0339 -0.3993
   59TMC2     C  919   4.062   1.326  13.059 -0.0182  0.2906  0.4337
   59TMC2     O  920   4.006   1.429  13.028  0.1243 -0.4121  0.3148
   59TMC2     H  921   4.076   1.077  13.125  1.9323 -0.3495 -0.7473
   59TMC2    H1  922   4.026   1.346  12.810  0.9215 -0.0351 -0.3442
   59TMC2    H2  923   4.034   0.940  12.718  0.3164 -1.5804  1.3948
   59TMC2    C7  924   4.086   1.175  12.629  0.6158  0.6006 -0.5128
   59TMC2    C8  925   4.064   0.857  12.962  0.2615 -0.1315 -0.3552
   59TMC2    O1  926   4.180   1.099  12.603  0.5549  0.4782 -0.2957
   59TMC2    O2  927   4.022   0.762  12.900  0.0672 -0.5564 -0.5435
   59TMC2    O5  928   4.171   0.853  13.040  0.0627  0.0478  0.2754
   59TMC2    H5  929   4.212   0.939  13.062 -0.7809  0.6796 -0.6070
   60MPD2     C  930   4.169   1.528  13.250  1.1738  0.4595 -0.1749
   60MPD2    C1  931   4.188   1.390  13.266 -0.3163  0.5259  0.0392
   60MPD2    C2  932   4.242   1.341  13.386 -0.6783 -0.2935  0.9163
   60MPD2    C3  933   4.296   1.428  13.485  0.1597 -0.4720  0.2429
   60MPD2    C4  934   4.280   1.562  13.469 -0.2968 -0.1672  0.2036
   60MPD2    C5  935   4.224   1.604  13.352  0.1151  0.0630  0.6376
   60MPD2     H  936   4.265   1.235  13.395 -2.7466 -0.8127 -0.0256
   60MPD2    H1  937   4.317   1.639  13.536 -0.7051  1.3039 -1.2452
   60MPD2    H2  938   4.133   1.573  13.159  4.3743  0.9703 -1.1969
   60MPD2    H3  939   4.232   1.711  13.337  0.9476 -0.0386  0.4093
   60MPD2     N  940   4.365   1.369  13.597  0.7055 -0.6030 -0.1949
   60MPD2    H5  941   4.367   1.268  13.593 -3.3570 -0.7212  0.2656
   60MPD2    N1  942   4.138   1.299  13.171  0.1192 -0.4964  0.0080
   60MPD2    H7  943   4.157   1.201  13.189 -0.8633 -0.8409 -0.7879
   61TMC2    C1  944   3.736   1.550  15.030  0.0983 -0.1558 -0.5410
   61TMC2    C2  945   3.754   1.443  15.115  0.3430 -0.2329  0.4301
   61TMC2    C3  946   3.758   1.461  15.249  0.0353 -0.6008 -0.4686
   61TMC2    C4  947   3.727   1.677  15.083 -0.6027 -0.2301  0.5058
   61TMC2    C5  948   3.725   1.691  15.220 -0.7765  0.9621 -0.1682
   61TMC2    C6  949   3.748   1.590  15.301 -0.3763  0.5238 -0.5729
   61TMC2     C  950   3.716   1.522  14.887  0.0992  0.3519 -0.3692
   61TMC2     O  951   3.678   1.409  14.862 -0.1055  0.5842 -0.3282
   61TMC2     H  952   3.753   1.340  15.082 -2.2425 -0.3987  1.0457
   61TMC2    H1  953   3.702   1.765  15.023 -1.1035 -0.9494 -0.3452
   61TMC2    H2  954   3.767   1.603  15.407  1.5978 -1.9899 -0.6252
   61TMC2    C7  955   3.694   1.821  15.271  0.1651 -0.4160 -0.2480
   61TMC2    C8  956   3.812   1.350  15.320  0.8467  0.0741 -0.1993
   61TMC2    O1  957   3.722   1.919  15.204 -0.8066  0.3795 -0.0871
   61TMC2    O2  958   3.796   1.238  15.286  0.0679  0.4821  0.0971
   61TMC2    O5  959   3.937   1.395  15.343  0.0179 -0.0569  0.5392
   61TMC2    H5  960   3.942   1.493  15.345 -1.7357  0.0064  2.2609
   62MPD2     C  961   3.618   1.552  14.606 -0.2818 -0.5397 -0.2528
   62MPD2    C1  962   3.681   1.650  14.676 -0.4147 -0.4070 -0.5484
   62MPD2    C2  963   3.699   1.778  14.623 -0.5334  0.4912 -0.1588
   62MPD2    C3  964   3.635   1.815  14.502 -0.0955  0.9677 -0.3094
   62MPD2    C4  965   3.571   1.714  14.434  0.0048 -0.1719  0.7764
   62MPD2    C5  966   3.567   1.584  14.483 -0.0254 -0.9990  0.3958
   62MPD2     H  967   3.766   1.849  14.670 -0.3227 -1.9854  3.3244
   62MPD2    H1  968   3.524   1.731  14.338  1.8317  0.3822 -0.0261
   62MPD2    H2  969   3.600   1.452  14.643 -1.9354 -0.4202 -0.7207
   62MPD2    H3  970   3.515   1.514  14.419 -0.3734 -0.2861 -0.0976
   62MPD2     N  971   3.634   1.947  14.455 -0.0354  0.4127 -0.6900
   62MPD2    H5  972   3.580   1.973  14.373 -0.3801  1.6856 -0.0606
   62MPD2    N1  973   3.728   1.639  14.812 -0.2758  0.5228 -0.2335
   62MPD2    H7  974   3.779   1.717  14.852  1.2473 -0.5763 -0.0206
   63TMC2    C1  975   2.562   3.410  10.433 -0.0413 -0.7019 -0.5097
   63TMC2    C2  976   2.524   3.542  10.439 -0.0328 -0.1921 -0.7390
   63TMC2    C3  977   2.540   3.616  10.328  0.1544  0.6877 -0.1063
   63TMC2    C4  978   2.609   3.357  10.310  0.1237 -0.7190 -0.5447
   63TMC2    C5  979   2.618   3.433  10.200 -0.0720  0.3054 -0.0207
   63TMC2    C6  980   2.590   3.566  10.213  0.4386  0.3073 -0.6352
   63TMC2     C  981   2.465   3.330  10.495 -0.0429  0.4783  0.4913
   63TMC2     O  982   2.350   3.377  10.506  0.5382  0.0450 -0.0140
   63TMC2     H  983   2.500   3.585  10.536  1.4018  1.4416 -1.1030
   63TMC2    H1  984   2.598   3.250  10.304  0.5387 -0.7078 -1.4389
   63TMC2    H2  985   2.608   3.640  10.136 -1.6574  1.1643 -0.3011
   63TMC2    C7  986   2.636   3.376  10.070  0.3941  0.9937  0.3989
   63TMC2    C8  987   2.528   3.759  10.342  0.0787  0.0865 -0.3095
   63TMC2    O1  988   2.673   3.260  10.068  0.3682  0.6805 -1.0109
   63TMC2    O2  989   2.505   3.823  10.240  0.2742  0.1390  0.4081
   63TMC2    O5  990   2.610   3.799  10.445 -0.1473  0.2799 -0.3715
   63TMC2    H5  991   2.651   3.725  10.495 -4.1805 -0.7153  1.4777
   64MPD2     C  992   2.311   2.882  10.653  0.2296 -0.7326 -0.0340
   64MPD2    C1  993   2.446   2.886  10.691  0.1053  0.4009 -0.3373
   64MPD2    C2  994   2.509   3.003  10.661  0.3368 -0.7440  0.0412
   64MPD2    C3  995   2.447   3.104  10.591 -0.1223 -0.1245 -0.2523
   64MPD2    C4  996   2.319   3.091  10.552  0.2229  0.0219 -0.5944
   64MPD2    C5  997   2.247   2.980  10.583 -0.5726  0.0270 -0.7226
   64MPD2     H  998   2.615   3.019  10.680  0.0050 -1.0699  2.1052
   64MPD2    H1  999   2.268   3.156  10.482 -1.4539 -1.0232 -0.3409
   64MPD2    H2 1000   2.253   2.795  10.680 -1.9988  0.0959 -2.1561
   64MPD2    H3 1001   2.142   2.975  10.557 -0.5853 -0.1832 -0.6293
   64MPD2     N 1002   2.516   3.224  10.562 -0.5101  0.3260 -0.2072
   64MPD2    H5 1003   2.615   3.224  10.584 -0.4962  1.5466 -0.2993
   64MPD2    N1 1004   2.518   2.775  10.750 -0.2832 -0.1684  0.1585
   64MPD2    H7 1005   2.608   2.793  10.795 -0.1325 -1.2299  0.2742
   65TMC2    C1 1006   4.056   1.868  15.750 -0.1097 -0.1399  0.4504
   65TMC2    C2 1007   4.088   1.764  15.663  0.1665  0.0338 -0.4326
   65TMC2    C3 1008   4.085   1.793  15.527  0.5515 -0.0133  0.1428
   65TMC2    C4 1009   4.002   1.986  15.705  0.5831  0.3581 -0.1678
   65TMC2    C5 1010   3.977   2.001  15.569 -0.7066  0.1140 -0.3506
   65TMC2    C6 1011   4.025   1.909  15.482  0.7844  0.2922  0.7262
   65TMC2     C 1012   4.033   1.839  15.889 -0.4965 -0.3227 -0.3382
   65TMC2     O 1013   4.024   1.927  15.974 -0.5086  0.2939 -0.6149
   65TMC2     H 1014   4.131   1.667  15.689  0.2107  0.2051  0.1297
   65TMC2    H1 1015   3.966   2.059  15.776  0.5546 -1.5874  1.8307
   65TMC2    H2 1016   4.017   1.917  15.375 -1.1332 -1.2116  0.7550
   65TMC2    C7 1017   3.929   2.121  15.511  0.3573 -0.0877 -0.5104
   65TMC2    C8 1018   4.085   1.681  15.436  0.3952 -0.6114 -0.2449
   65TMC2    O1 1019   3.937   2.121  15.386 -0.2925  0.0806  0.4407
   65TMC2    O2 1020   4.007   1.672  15.341  0.5594  0.1010 -0.6145
   65TMC2    O5 1021   4.212   1.627  15.446 -0.1678  0.4279  0.2930
   65TMC2    H5 1022   4.271   1.675  15.508  2.1148  1.7366 -2.8599
   66MPD2     C 1023   4.013   1.665  16.144 -0.1278 -0.9082 -0.4276
   66MPD2    C1 1024   4.017   1.616  16.010  0.1357  0.0502  0.0863
   66MPD2    C2 1025   4.027   1.478  15.992 -0.1702 -0.3991  0.2608
   66MPD2    C3 1026   4.028   1.392  16.098  0.1712 -0.8603 -0.0479
   66MPD2    C4 1027   4.008   1.441  16.224  0.3637  0.2806  0.2971
   66MPD2    C5 1028   4.018   1.576  16.246  0.2150 -0.2496 -0.7345
   66MPD2     H 1029   4.024   1.445  15.889 -1.2126 -0.1426  0.2119
   66MPD2    H1 1030   4.003   1.385  16.317 -0.4234  1.6765  1.0920
   66MPD2    H2 1031   3.998   1.769  16.169  0.9587 -0.6324 -0.8887
   66MPD2    H3 1032   4.016   1.603  16.351  0.2221 -0.8247 -0.5890
   66MPD2     N 1033   4.027   1.253  16.080  0.3209  0.5550  0.0947
   66MPD2    H5 1034   4.005   1.187  16.154  0.2558 -0.5264 -0.8790
   66MPD2    N1 1035   4.015   1.700  15.893 -0.1789 -0.1503  0.0267
   66MPD2    H7 1036   4.019   1.651  15.804 -0.5229 -2.0843  1.0818
   67TMC2    C1 1037   4.353   0.988  14.608  0.0950  0.0984 -0.4364
   67TMC2    C2 1038   4.300   1.109  14.624  0.1231  0.2881  0.2809
   67TMC2    C3 1039   4.350   1.188  14.722  0.2678 -0.0503 -0.2934
   67TMC2    C4 1040   4.460   0.951  14.678 -0.6248  0.4272  0.7297
   67TMC2    C5 1041   4.517   1.038  14.768 -0.2191  0.1670  0.5071
   67TMC2    C6 1042   4.461   1.157  14.800  1.5484 -0.1286 -0.2276
   67TMC2     C 1043   4.312   0.892  14.505 -0.2497  0.3324 -0.4733
   67TMC2     O 1044   4.372   0.783  14.502  0.1315  0.3945  0.4747
   67TMC2     H 1045   4.218   1.146  14.564 -0.3652 -1.8057 -0.3314
   67TMC2    H1 1046   4.529   0.874  14.646 -1.0712  0.6830 -0.8190
   67TMC2    H2 1047   4.503   1.225  14.873  2.3301 -0.0450 -0.7564
   67TMC2    C7 1048   4.587   0.979  14.877  0.6133 -0.1548  0.6924
   67TMC2    C8 1049   4.311   1.326  14.693 -0.4344 -0.0831  0.9896
   67TMC2    O1 1050   4.633   0.869  14.849 -0.4163  0.8016  0.8168
   67TMC2    O2 1051   4.282   1.364  14.579  0.4954  0.1581  0.6207
   67TMC2    O5 1052   4.380   1.401  14.783  0.3802  0.8190 -0.0097
   67TMC2    H5 1053   4.388   1.358  14.871 -2.3512 -0.3955 -0.3468
   68MPD2     C 1054   4.192   0.782  14.262  0.3864  0.1483 -0.8741
   68MPD2    C1 1055   4.124   0.857  14.356 -0.1683 -0.2433 -0.5256
   68MPD2    C2 1056   3.984   0.850  14.351  0.1465  0.3309  0.6074
   68MPD2    C3 1057   3.910   0.778  14.255  0.0571  0.3352 -0.7844
   68MPD2    C4 1058   3.989   0.719  14.159  0.2309  0.0743  0.7262
   68MPD2    C5 1059   4.121   0.732  14.160 -0.4565 -0.5135  0.8479
   68MPD2     H 1060   3.934   0.899  14.433 -3.3022 -1.2071 -0.5963
   68MPD2    H1 1061   3.945   0.674  14.070  3.6740 -0.8821 -0.5177
   68MPD2    H2 1062   4.299   0.765  14.263 -0.5932 -5.9193 -0.6776
   68MPD2    H3 1063   4.170   0.681  14.078 -1.0222  0.2584  0.0368
   68MPD2     N 1064   3.775   0.775  14.250 -0.1338  0.2356  0.3440
   68MPD2    H5 1065   3.740   0.734  14.164  3.1228  3.0982 -2.3640
   68MPD2    N1 1066   4.190   0.928  14.454  0.3065  0.7507 -0.1692
   68MPD2    H7 1067   4.131   0.996  14.500 -0.6108 -0.3741  0.2970
   69TMC2    C1 1068   1.727   2.317  12.697 -0.9314 -0.3889  0.1330
   69TMC2    C2 1069   1.606   2.360  12.738 -0.4833  0.3342 -0.0407
   69TMC2    C3 1070   1.554   2.473  12.672  0.2290  0.2204 -0.2563
   69TMC2    C4 1071   1.793   2.371  12.595  0.0420  0.2790  0.0790
   69TMC2    C5 1072   1.730   2.471  12.522 -0.1057  0.3881  0.5744
   69TMC2    C6 1073   1.612   2.529  12.562  0.3114  0.3031 -0.5909
   69TMC2     C 1074   1.791   2.220  12.783 -0.3746  0.4848 -0.0039
   69TMC2     O 1075   1.719   2.166  12.872  0.1154 -0.0312  0.1410
   69TMC2     H 1076   1.561   2.330  12.832 -0.2498 -0.2408 -0.1114
   69TMC2    H1 1077   1.878   2.319  12.550 -2.0001 -1.7016 -1.5003
   69TMC2    H2 1078   1.582   2.628  12.527  0.3978  0.4364 -0.2878
   69TMC2    C7 1079   1.792   2.514  12.398 -0.3534 -0.2112  0.7833
   69TMC2    C8 1080   1.425   2.508  12.717  0.6457  0.1596 -0.6621
   69TMC2    O1 1081   1.897   2.463  12.370  0.3061  0.7864 -0.4313
   69TMC2    O2 1082   1.368   2.456  12.815 -0.1955  0.1750 -0.1164
   69TMC2    O5 1083   1.349   2.528  12.604 -1.0350  0.0668  0.1329
   69TMC2    H5 1084   1.394   2.550  12.519  1.9094  0.2105  1.7346
   70MPD2     C 1085   2.146   2.231  12.858  0.8087 -0.5130  0.2611
   70MPD2    C1 1086   2.020   2.173  12.859 -0.0865 -0.3461 -0.5594
   70MPD2    C2 1087   1.984   2.081  12.951 -0.2324 -0.3804 -0.5102
   70MPD2    C3 1088   2.077   2.031  13.031  0.1937 -1.0473 -0.3310
   70MPD2    C4 1089   2.199   2.089  13.034  0.6765  0.5265 -0.2262
   70MPD2    C5 1090   2.240   2.189  12.951 -0.3344 -0.1909  0.3519
   70MPD2     H 1091   1.892   2.028  12.931 -0.5583 -0.3805  1.0593
   70MPD2    H1 1092   2.264   2.055  13.114 -0.6256 -2.5356 -0.4397
   70MPD2    H2 1093   2.167   2.312  12.789 -0.8013  0.1441  0.5399
   70MPD2    H3 1094   2.342   2.227  12.949 -0.5215  0.3903  2.1110
   70MPD2     N 1095   2.066   1.918  13.113 -0.3064  0.4082  0.2579
   70MPD2    H5 1096   2.150   1.876  13.153 -1.2309 -2.7678 -1.1301
   70MPD2    N1 1097   1.924   2.228  12.773 -0.1195 -0.3005 -0.3087
   70MPD2    H7 1098   1.956   2.292  12.700  0.4769  0.7561  0.8870
   71TMC2    C1 1099   3.600   2.974   1.941  0.4089  0.0436  0.2735
   71TMC2    C2 1100   3.688   2.933   2.042  0.0532  0.9755  0.0272
   71TMC2    C3 1101   3.680   2.998   2.161  0.5302  0.2171  0.1146
   71TMC2    C4 1102   3.508   3.071   1.955  0.1303  0.7575 -0.1234
   71TMC2    C5 1103   3.507   3.132   2.073 -0.0215  0.3883 -0.2862
   71TMC2    C6 1104   3.586   3.101   2.177 -0.3723  0.7455  0.3747
   71TMC2     C 1105   3.604   2.920   1.804  0.6738 -0.0842  0.9523
   71TMC2     O 1106   3.553   2.979   1.711 -1.1257 -0.7762 -0.2421
   71TMC2     H 1107   3.774   2.873   2.015 -0.6497 -0.3963  0.8494
   71TMC2    H1 1108   3.462   3.121   1.870  0.3070  3.4414  1.3624
   71TMC2    H2 1109   3.578   3.159   2.268  0.0791  1.7736 -0.2530
   71TMC2    C7 1110   3.410   3.237   2.090  0.5096 -0.2996  0.4075
   71TMC2    C8 1111   3.798   3.011   2.242  0.1982 -0.3919 -0.5575
   71TMC2    O1 1112   3.423   3.317   2.181  0.4046  0.1189 -0.1440
   71TMC2    O2 1113   3.911   3.022   2.197  0.0485  0.1539 -0.6553
   71TMC2    O5 1114   3.763   3.029   2.375 -0.8535  0.5368  0.1069
   71TMC2    H5 1115   3.673   3.002   2.402 -0.4004 -1.8719 -0.7913
   72MPD2     C 1116   3.776   2.538   1.496  0.0933 -0.0444  1.4701
   72MPD2    C1 1117   3.759   2.673   1.463 -0.4294 -0.0968  0.2703
   72MPD2    C2 1118   3.713   2.756   1.570 -0.0993  0.3808  0.2635
   72MPD2    C3 1119   3.674   2.705   1.695 -0.3883  0.5083  0.4492
   72MPD2    C4 1120   3.685   2.571   1.716  0.5083  0.2763  0.2581
   72MPD2    C5 1121   3.740   2.491   1.615 -0.0964 -0.1710  0.0868
   72MPD2     H 1122   3.703   2.863   1.558  0.7763  0.5243  0.8415
   72MPD2    H1 1123   3.644   2.529   1.807  1.5841  0.6583  0.9261
   72MPD2    H2 1124   3.806   2.465   1.421 -1.1100  2.1791 -1.1547
   72MPD2    H3 1125   3.756   2.385   1.632 -1.8418 -0.4524 -0.0372
   72MPD2     N 1126   3.639   2.783   1.807  0.2476  0.2891  0.6936
   72MPD2    H5 1127   3.636   2.737   1.897 -1.5804 -1.6643 -0.3686
   72MPD2    N1 1128   3.778   2.721   1.331  0.9146 -0.3903  0.4356
   72MPD2    H7 1129   3.758   2.820   1.314  0.5067 -0.6299 -0.4870
   73TMC2    C1 1130   3.372   4.475  14.217 -0.5919  0.4482 -0.3872
   73TMC2    C2 1131   3.279   4.521  14.301  0.3465 -0.7429 -0.0241
   73TMC2    C3 1132   3.308   4.526  14.435 -0.0138 -0.6463  0.1274
   73TMC2    C4 1133   3.492   4.430  14.263 -0.0642 -0.2954 -1.0616
   73TMC2    C5 1134   3.520   4.427  14.400 -0.4544  0.7032 -0.4445
   73TMC2    C6 1135   3.428   4.485  14.485 -1.1028 -0.2520  0.0371
   73TMC2     C 1136   3.392   4.531  14.081 -0.4549 -0.1807  0.3901
   73TMC2     O 1137   3.512   4.549  14.049  0.3082 -0.1928 -0.3949
   73TMC2     H 1138   3.177   4.549  14.277  0.5097 -0.9791 -1.0210
   73TMC2    H1 1139   3.559   4.376  14.197 -0.0404 -1.5469 -0.0135
   73TMC2    H2 1140   3.456   4.492  14.589  2.3788  2.2970 -1.0530
   73TMC2    C7 1141   3.657   4.461  14.416  0.4891  0.3588  0.1594
   73TMC2    C8 1142   3.207   4.595  14.517  0.3073  0.1977 -0.3027
   73TMC2    O1 1143   3.720   4.423  14.514  0.7430 -0.6048 -0.2099
   73TMC2    O2 1144   3.089   4.591  14.484  0.3878 -0.1675  0.0656
   73TMC2    O5 1145   3.276   4.701  14.570 -0.6316  0.2292  0.6319
   73TMC2    H5 1146   3.372   4.709  14.549 -0.7188 -0.1990  0.0513
   74MPD2     C 1147   3.280   0.123  13.720 -0.9136  0.5022 -1.0707
   74MPD2    C1 1148   3.394   0.111  13.798 -0.4042 -0.0750  0.6665
   74MPD2    C2 1149   3.392   0.021  13.908 -0.1497  0.0696  0.3496
   74MPD2    C3 1150   3.282   4.672  13.917 -0.1415 -0.3539 -0.0065
   74MPD2    C4 1151   3.168   4.690  13.832 -0.3112  0.5771  0.0250
   74MPD2    C5 1152   3.166   0.048  13.737 -0.0555  0.0151  0.1302
   74MPD2     H 1153   3.476   0.022  13.976  1.5444  1.0299 -1.7360
   74MPD2    H1 1154   3.093   4.613  13.838  0.0555  0.0663 -2.1370
   74MPD2    H2 1155   3.278   0.198  13.642  2.1478  2.0374  0.3029
   74MPD2    H3 1156   3.078   0.067  13.677  0.7190  0.2524 -0.9124
   74MPD2     N 1157   3.276   4.575  14.019  0.9022  0.0978  0.2931
   74MPD2    H5 1158   3.190   4.528  14.047  0.7372  1.4767  2.1337
   74MPD2    N1 1159   3.499   0.199  13.761  0.2159  0.1904 -0.3008
   74MPD2    H7 1160   3.503   0.245  13.671  0.0468  0.1619 -0.3234
   75TMC2    C1 1161   3.557   0.812  14.312  0.7954 -0.3633  0.6748
   75TMC2    C2 1162   3.467   0.765  14.402  0.4792  0.4657  0.0298
   75TMC2    C3 1163   3.339   0.739  14.359  0.1933 -0.5488 -0.0350
   75TMC2    C4 1164   3.527   0.837  14.185  0.6313  0.1786  0.0098
   75TMC2    C5 1165   3.395   0.815  14.139  0.6774 -0.3964  0.1011
   75TMC2    C6 1166   3.304   0.755  14.224 -0.3403 -0.0211  0.1866
   75TMC2     C 1167   3.693   0.814  14.352  0.8202 -0.0726  0.3579
   75TMC2     O 1168   3.728   0.815  14.472 -0.3384  0.1846 -0.3066
   75TMC2     H 1169   3.509   0.741  14.499 -0.1494  0.7153  0.3616
   75TMC2    H1 1170   3.602   0.891  14.129  0.1018  1.6345  0.6895
   75TMC2    H2 1171   3.208   0.731  14.181  0.5527  1.7487 -2.7588
   75TMC2    C7 1172   3.361   0.828  13.999  0.3922 -0.0988 -0.6609
   75TMC2    C8 1173   3.252   0.645  14.436 -0.1409 -0.7004  0.0116
   75TMC2    O1 1174   3.242   0.808  13.968 -0.4513 -0.2352  0.0439
   75TMC2    O2 1175   3.158   0.593  14.388  0.3975  0.1879  0.8906
   75TMC2    O5 1176   3.276   0.668  14.571  0.5828  0.0981  0.3989
   75TMC2    H5 1177   3.370   0.677  14.598  0.5584 -0.7993  0.7805
   76TMC2    C1 1178   2.583   1.759  12.030  0.1714 -0.4264  0.0635
   76TMC2    C2 1179   2.487   1.686  12.103  0.1076 -0.2517 -0.6382
   76TMC2    C3 1180   2.514   1.555  12.136 -0.4465 -1.2897  0.2255
   76TMC2    C4 1181   2.694   1.696  11.982  0.3021 -0.2605  0.2235
   76TMC2    C5 1182   2.711   1.566  12.022 -0.3837 -0.1219 -0.6973
   76TMC2    C6 1183   2.624   1.488  12.096 -0.3659  0.4191  0.3696
   76TMC2     C 1184   2.560   1.899  11.999  0.3111  0.3920 -0.5091
   76TMC2     O 1185   2.447   1.933  12.003 -0.3906  0.5147 -0.0826
   76TMC2     H 1186   2.387   1.726  12.121  0.8410  0.9926  0.6403
   76TMC2    H1 1187   2.777   1.753  11.941  1.8917 -1.4263  1.7898
   76TMC2    H2 1188   2.657   1.392  12.134 -1.7309 -0.4362 -0.6424
   76TMC2    C7 1189   2.849   1.515  12.013  0.8684  0.6752  0.4078
   76TMC2    C8 1190   2.404   1.466  12.165  0.2288 -0.0604 -0.9098
   76TMC2    O1 1191   2.903   1.552  11.907 -0.1144  0.1766  0.3841
   76TMC2    O2 1192   2.400   1.344  12.144  1.0084 -0.5849 -0.2214
   76TMC2    O5 1193   2.330   1.535  12.258  0.0552  0.2670  0.2648
   76TMC2    H5 1194   2.386   1.611  12.284  0.9213 -0.5364  0.7339
   77MPD2     C 1195   2.730   2.360  11.839  0.4645  0.3721  0.0002
   77MPD2    C1 1196   2.600   2.306  11.847 -0.4900  0.4841 -0.2863
   77MPD2    C2 1197   2.576   2.177  11.893 -0.4742 -0.9191  0.2572
   77MPD2    C3 1198   2.681   2.091  11.920 -0.1074 -0.5856  0.3747
   77MPD2    C4 1199   2.809   2.138  11.906 -0.0254 -0.1976  0.3477
   77MPD2    C5 1200   2.835   2.269  11.874  0.4931 -0.6517 -0.1328
   77MPD2     H 1201   2.472   2.149  11.905 -0.6093 -0.6232 -0.2055
   77MPD2    H1 1202   2.887   2.064  11.920 -0.0037 -0.2946 -0.2822
   77MPD2    H2 1203   2.756   2.456  11.795 -0.0433 -0.1973 -1.5791
   77MPD2    H3 1204   2.938   2.298  11.861  0.5609 -0.7248  0.2374
   77MPD2     N 1205   2.675   1.964  11.967  0.1260 -0.0018 -0.0032
   77MPD2    H5 1206   2.764   1.915  11.970 -0.9392 -2.0175 -1.1141
   77MPD2    N1 1207   2.491   2.394  11.814  0.0554 -0.1266  0.6269
   77MPD2    H7 1208   2.396   2.370  11.839 -0.0048  1.3473  1.7922
   78TMC2    C1 1209   4.367   3.257   1.962 -0.5874 -0.1702 -0.5281
   78TMC2    C2 1210   4.343   3.388   2.005  0.1861  0.2113  0.7907
   78TMC2    C3 1211   4.448   3.474   2.000  0.6036  0.8812  0.5031
   78TMC2    C4 1212   4.477   3.226   1.896 -0.1791  0.0485 -0.2707
   78TMC2    C5 1213   4.572   3.315   1.879  0.2724 -0.0337  0.3362
   78TMC2    C6 1214   4.566   3.443   1.931  0.8407 -0.0722  0.4989
   78TMC2     C 1215   4.267   3.154   1.981 -0.3871 -0.1458 -0.9266
   78TMC2     O 1216   4.187   3.177   2.068  0.1545  0.2976 -0.2359
   78TMC2     H 1217   4.254   3.405   2.064  0.6981  1.3215  1.2383
   78TMC2    H1 1218   4.497   3.123   1.870 -1.6737 -0.6085  1.1730
   78TMC2    H2 1219   4.654   3.504   1.917 -0.7409  1.5898 -2.4677
   78TMC2    C7 1220   4.689   3.269   1.807  0.0434 -0.0778 -0.0459
   78TMC2    C8 1221   4.433   3.610   2.048  0.1265  0.4285  0.3443
   78TMC2    O1 1222   4.679   3.187   1.718 -0.3727  0.1242 -0.3913
   78TMC2    O2 1223   4.516   3.670   2.112 -0.4925 -0.3410  0.8115
   78TMC2    O5 1224   4.309   3.653   2.023  0.1144 -0.1546  0.1355
   78TMC2    H5 1225   4.252   3.596   1.966  0.5313 -0.2704 -0.1669
   79MPD1     C 1226   4.016   2.758   1.809  0.3216 -0.4255 -0.3611
   79MPD1    C1 1227   4.034   2.805   1.934  0.3698 -0.6467  0.5041
   79MPD1    C2 1228   4.126   2.904   1.951 -0.3639  0.0994 -0.2205
   79MPD1    C3 1229   4.173   2.973   1.843  0.4081 -0.4862  0.4322
   79MPD1    C4 1230   4.149   2.928   1.714 -0.2842 -0.2017 -0.4088
   79MPD1    C5 1231   4.077   2.816   1.698  0.5822  0.3563  0.0142
   79MPD1     H 1232   4.145   2.930   2.054 -1.0325  1.6563 -0.4821
   79MPD1    H1 1233   4.191   2.968   1.622 -2.4975 -0.6541 -1.6091
   79MPD1    H2 1234   3.947   2.676   1.792  0.2139 -0.9701  2.7617
   79MPD1    H3 1235   4.055   2.788   1.595 -1.2437  1.6315  0.0518
   79MPD1     N 1236   4.255   3.086   1.863  0.0486  0.2622  0.4696
   79MPD1    H5 1237   4.313   3.111   1.783  2.0627 -0.5194  1.6955
   79MPD1    N1 1238   4.003   2.725   2.043 -0.2728 -0.6295  0.5937
   79MPD1    H6 1239   3.920   2.666   2.047 -1.9850  1.6452 -0.7782
   79MPD1    H7 1240   4.004   2.774   2.132 -2.4110  0.0834  0.2344
   80TMC2    C1 1241   1.743   0.390  12.578 -0.0303  0.0154 -0.0441
   80TMC2    C2 1242   1.778   0.280  12.507  0.4824 -0.8535 -0.0429
   80TMC2    C3 1243   1.668   0.210  12.459 -0.7745  0.7232  0.5322
   80TMC2    C4 1244   1.617   0.440  12.586  0.2384 -1.1915 -0.1720
   80TMC2    C5 1245   1.518   0.371  12.525  0.0842  0.2064 -0.4359
   80TMC2    C6 1246   1.540   0.248  12.463  0.3493  0.4178  0.7827
   80TMC2     C 1247   1.850   0.483  12.609 -0.1923  0.8385  0.6858
   80TMC2     O 1248   1.959   0.426  12.614 -0.4563  0.2526 -0.0136
   80TMC2     H 1249   1.877   0.238  12.494  0.9149  0.1262  0.1021
   80TMC2    H1 1250   1.590   0.531  12.638  1.0624 -2.3904  2.3618
   80TMC2    H2 1251   1.466   0.191  12.407  0.2446  0.8363  0.4987
   80TMC2    C7 1252   1.385   0.421  12.540 -0.0457  0.6587  0.6406
   80TMC2    C8 1253   1.693   0.071  12.416 -0.3622 -0.0240  0.1258
   80TMC2    O1 1254   1.323   0.450  12.439 -0.5914  0.9691  0.1579
   80TMC2    O2 1255   1.752   0.046  12.310 -0.3427 -0.2503  0.3189
   80TMC2    O5 1256   1.600   4.730  12.469  0.1768 -0.3420  0.4098
   80TMC2    H5 1257   1.571   0.033  12.553  0.0857 -0.0168  0.2229
   81MPD2     C 1258   2.041   0.677  12.730 -0.1198 -0.0395 -0.4040
   81MPD2    C1 1259   1.914   0.710  12.682 -0.3309  0.7585 -0.9583
   81MPD2    C2 1260   1.875   0.847  12.685  1.0698 -0.2207 -0.1341
   81MPD2    C3 1261   1.952   0.941  12.752  0.0146 -0.5354  0.1766
   81MPD2    C4 1262   2.075   0.906  12.810  0.7526  0.0423  0.7026
   81MPD2    C5 1263   2.121   0.769  12.793  0.1517  0.0001  0.1870
   81MPD2     H 1264   1.773   0.872  12.658  0.4106 -2.5512  0.2299
   81MPD2    H1 1265   2.137   0.967  12.874  1.2848 -0.0520  0.2765
   81MPD2    H2 1266   2.081   0.576  12.727 -0.8714 -0.3112 -1.3163
   81MPD2    H3 1267   2.214   0.731  12.834  1.9327  2.3622 -1.6443
   81MPD2     N 1268   1.905   1.072  12.764 -0.3404  0.5509 -0.3159
   81MPD2    H5 1269   1.955   1.135  12.826 -0.3216  0.6531 -0.4326
   81MPD2    N1 1270   1.820   0.615  12.624 -0.1095 -0.2665 -1.0096
   81MPD2    H7 1271   1.725   0.651  12.612  0.0198  1.1058  2.0420
   82TMC2    C1 1272   4.390   1.245  11.306  0.0044 -0.1762  0.0570
   82TMC2    C2 1273   4.525   1.249  11.286  0.6475 -0.3422  0.2946
   82TMC2    C3 1274   4.602   1.136  11.270 -0.6989  0.8564 -0.5756
   82TMC2    C4 1275   4.325   1.124  11.314 -0.1203  0.2404  0.5066
   82TMC2    C5 1276   4.402   1.011  11.295 -0.6562  0.4510 -0.2512
   82TMC2    C6 1277   4.540   1.010  11.279  0.0670 -0.1621  0.2006
   82TMC2     C 1278   4.338   1.372  11.362  0.0748  0.5271 -0.1998
   82TMC2     O 1279   4.423   1.452  11.410  0.4927  0.4318 -0.0770
   82TMC2     H 1280   4.571   1.346  11.273 -0.7279  0.3025  0.2233
   82TMC2    H1 1281   4.219   1.125  11.339 -0.1369 -0.6268  0.4595
   82TMC2    H2 1282   4.596   0.920  11.259  1.7452  1.5669 -2.8585
   82TMC2    C7 1283   4.348   0.889  11.349  0.2705  0.0911 -0.2235
   82TMC2    C8 1284   0.007   1.154  11.268  0.0531 -0.4392  0.1514
   82TMC2    O1 1285   4.429   0.826  11.417 -0.3768 -0.3410 -0.8952
   82TMC2    O2 1286   0.069   1.246  11.220  0.6724 -0.1306 -0.2854
   82TMC2    O5 1287   0.054   1.044  11.336 -0.1256  0.0755 -0.3900
   82TMC2    H5 1288   4.730   0.998  11.397 -0.7178  1.1734 -0.1591
   83MPD2     C 1289   3.947   1.688  11.487  0.1739  0.2856 -0.5189
   83MPD2    C1 1290   3.909   1.605  11.395  0.0967  0.0453  0.1019
   83MPD2    C2 1291   3.990   1.497  11.347 -0.2316 -0.2061 -0.0687
   83MPD2    C3 1292   4.117   1.491  11.391 -0.5976 -0.3930 -0.0250
   83MPD2    C4 1293   4.161   1.582  11.484 -0.2795 -0.0624 -0.5071
   83MPD2    C5 1294   4.078   1.681  11.533 -0.7272  0.4865 -0.1823
   83MPD2     H 1295   3.957   1.413  11.287 -0.0315 -0.8834  0.7602
   83MPD2    H1 1296   4.264   1.579  11.518 -0.2340 -0.8977 -0.7228
   83MPD2    H2 1297   3.886   1.769  11.525  1.7559  0.6698  1.1729
   83MPD2    H3 1298   4.115   1.747  11.611  2.2985 -1.4131 -0.0033
   83MPD2     N 1299   4.197   1.386  11.339 -0.1285  0.3523  0.5568
   83MPD2    H5 1300   4.150   1.324  11.274  2.7429 -0.8809 -0.3422
   83MPD2    N1 1301   3.770   1.610  11.361  0.0736  0.3729  0.0184
   83MPD2    H7 1302   3.729   1.696  11.395  0.6913  1.2686 -1.4707
   84TMC2    C1 1303   0.624   4.579  10.768  0.4205  0.8100 -0.4661
   84TMC2    C2 1304   0.606   4.443  10.741  0.2728 -0.0227  0.6241
   84TMC2    C3 1305   0.551   4.403  10.623 -0.1438 -0.0856 -1.1499
   84TMC2    C4 1306   0.591   4.669  10.671  0.2088  0.4903 -0.3214
   84TMC2    C5 1307   0.539   4.628  10.547 -0.6234  0.0816 -0.5988
   84TMC2    C6 1308   0.507   4.495  10.528  0.0779 -0.0355  0.5366
   84TMC2     C 1309   0.666   4.632  10.899  0.2619  0.1960  0.3580
   84TMC2     O 1310   0.656   0.014  10.916 -0.1940 -0.1188  0.0436
   84TMC2     H 1311   0.603   4.371  10.822  1.0669  1.1688  1.7056
   84TMC2    H1 1312   0.594   0.035  10.701 -0.0505  0.6573 -0.8653
   84TMC2    H2 1313   0.491   4.459  10.427  2.2237 -0.4620  0.3650
   84TMC2    C7 1314   0.494   4.734  10.458  0.1598 -0.5509  0.5180
   84TMC2    C8 1315   0.520   4.266  10.613  0.5174 -0.1587 -0.6339
   84TMC2    O1 1316   0.432   4.702  10.358  0.9317 -0.3141 -0.1117
   84TMC2    O2 1317   0.543   4.182  10.700 -0.0373 -0.2996  0.1998
   84TMC2    O5 1318   0.410   4.260  10.534  0.0847  0.2048  0.0766
   84TMC2    H5 1319   0.407   4.344  10.484 -1.1551  0.5153  0.6627
   85TMC2    C1 1320   1.854   3.084  16.103 -0.3838 -0.4950 -0.5316
   85TMC2    C2 1321   1.726   3.122  16.133  0.0656  0.5748  0.1817
   85TMC2    C3 1322   1.686   3.244  16.087  0.8310 -0.4811  0.1299
   85TMC2    C4 1323   1.935   3.158  16.021  0.1744 -0.6742  0.3898
   85TMC2    C5 1324   1.884   3.274  15.969  0.7917 -0.5131  0.2888
   85TMC2    C6 1325   1.756   3.320  15.999 -0.0812  0.5631  0.6341
   85TMC2     C 1326   1.896   2.950  16.143 -0.8647 -0.5077 -0.4405
   85TMC2     O 1327   2.016   2.926  16.164 -0.0763  0.0182 -0.3897
   85TMC2     H 1328   1.661   3.079  16.208 -0.9110  1.2856 -0.2593
   85TMC2    H1 1329   2.036   3.122  16.006  0.3121 -1.6026  3.6395
   85TMC2    H2 1330   1.711   3.402  15.944  1.4063  0.9366 -0.0261
   85TMC2    C7 1331   1.933   3.299  15.837 -0.0568 -0.1087  0.0537
   85TMC2    C8 1332   1.550   3.287  16.132 -0.0703 -0.3768  1.5025
   85TMC2    O1 1333   2.025   3.224  15.808 -0.1764  0.1921  0.0720
   85TMC2    O2 1334   1.457   3.212  16.150 -0.3261 -0.1167 -0.0521
   85TMC2    O5 1335   1.541   3.416  16.114 -0.5968  0.4147  0.1249
   85TMC2    H5 1336   1.623   3.466  16.091 -0.8627 -0.0459 -1.8213
   86MPD2     C 1337   1.776   2.484  16.312 -0.7997 -0.1276 -0.2816
   86MPD2    C1 1338   1.668   2.528  16.241  0.9296  0.5873 -0.7595
   86MPD2    C2 1339   1.684   2.650  16.176 -0.7482  0.3272  1.2316
   86MPD2    C3 1340   1.793   2.729  16.197  0.8569  0.5163  0.1313
   86MPD2    C4 1341   1.890   2.682  16.282 -0.4389  0.1200  0.2044
   86MPD2    C5 1342   1.880   2.561  16.345  0.4549  0.0079  0.6698
   86MPD2     H 1343   1.600   2.682  16.116  0.9418  1.6581 -0.4657
   86MPD2    H1 1344   1.969   2.751  16.307 -1.0927  0.6260  0.8588
   86MPD2    H2 1345   1.773   2.388  16.363 -0.6591 -0.3905 -0.7665
   86MPD2    H3 1346   1.953   2.533  16.419 -0.4442  1.6826  2.1851
   86MPD2     N 1347   1.789   2.865  16.153 -0.3176 -0.0013  0.2032
   86MPD2    H5 1348   1.703   2.897  16.110  0.4652 -0.2221 -1.4960
   86MPD2    N1 1349   1.559   2.443  16.215 -0.3618 -0.4213 -0.5133
   86MPD2    H7 1350   1.504   2.466  16.133 -2.7078  1.2769  1.5378
   87TMC2    C1 1351   4.545   0.883   0.613 -0.2881 -0.5683 -0.1262
   87TMC2    C2 1352   4.672   0.927   0.647 -0.0337 -0.4329 -0.4886
   87TMC2    C3 1353   4.667   1.027   0.740  0.4905  0.7764 -0.0008
   87TMC2    C4 1354   4.432   0.929   0.669  0.2291 -0.0251 -0.1039
   87TMC2    C5 1355   4.434   1.024   0.767 -0.4992  0.2198  0.3363
   87TMC2    C6 1356   4.556   1.082   0.789 -0.0942  0.5578 -0.3041
   87TMC2     C 1357   4.544   0.776   0.517  0.0585 -0.1285 -0.6378
   87TMC2     O 1358   4.648   0.721   0.498 -0.0998 -0.1251  0.0229
   87TMC2     H 1359   0.026   0.882   0.612  0.4880  0.1890  0.0819
   87TMC2    H1 1360   4.333   0.897   0.638 -0.2150  0.7185  0.5326
   87TMC2    H2 1361   4.562   1.154   0.871 -2.7058 -0.6975  0.9796
   87TMC2    C7 1362   4.318   1.080   0.829 -0.3577  1.1366 -0.2239
   87TMC2    C8 1363   0.065   1.050   0.791  0.0783  0.1280  0.2990
   87TMC2    O1 1364   4.336   1.192   0.877 -0.4554  0.1017 -0.3685
   87TMC2    O2 1365   0.153   0.971   0.767  0.3945 -0.0053 -0.3735
   87TMC2    O5 1366   0.057   1.132   0.898 -0.4201  0.2442  0.0452
   87TMC2    H5 1367   0.002   1.210   0.877 -0.3938 -0.4954 -2.8052
   88MPD2     C 1368   3.987   0.917   0.837  0.1751  0.4553  0.7921
   88MPD2    C1 1369   4.078   1.017   0.857  0.0172 -0.2091  0.4672
   88MPD2    C2 1370   4.036   1.144   0.882 -0.0279 -0.8217 -0.1103
   88MPD2    C3 1371   3.901   1.165   0.903  0.1497 -0.2197 -0.3606
   88MPD2    C4 1372   3.810   1.062   0.888 -0.1708  0.1905  1.4999
   88MPD2    C5 1373   3.855   0.935   0.861  0.6590 -0.0393  0.8137
   88MPD2     H 1374   4.110   1.222   0.896  0.1628 -1.3314  1.7482
   88MPD2    H1 1375   3.704   1.085   0.881  0.0649  0.5650 -0.6735
   88MPD2    H2 1376   4.023   0.820   0.804 -0.9818  0.0883  0.6202
   88MPD2    H3 1377   3.783   0.857   0.839  0.4933  0.3534 -0.0188
   88MPD2     N 1378   3.846   1.296   0.928 -0.7856 -0.4585 -1.1438
   88MPD2    H5 1379   3.745   1.310   0.923 -0.4599  2.3461  0.1120
   88MPD2    N1 1380   4.213   0.995   0.817 -0.1748 -0.6877  0.7990
   88MPD2    H7 1381   4.243   0.901   0.795  1.4634 -0.5380  2.4061
   89TMC2    C1 1382   0.994   3.910   1.422 -0.5979  0.9007  0.2689
   89TMC2    C2 1383   1.063   3.918   1.308  0.3321 -0.2056 -0.4339
   89TMC2    C3 1384   1.089   4.046   1.258 -0.0650  0.0782  0.5693
   89TMC2    C4 1385   0.957   4.023   1.486 -0.6928  0.0028 -1.1481
   89TMC2    C5 1386   1.000   4.141   1.441  0.0068 -0.8061 -0.0699
   89TMC2    C6 1387   1.056   4.160   1.316 -0.2636  0.3922 -0.5478
   89TMC2     C 1388   0.925   3.787   1.441  0.2978 -0.3273 -0.1573
   89TMC2     O 1389   0.969   3.688   1.383  0.1118  0.0838 -0.2824
   89TMC2     H 1390   1.093   3.826   1.258 -2.3148 -0.8261 -0.8865
   89TMC2    H1 1391   0.926   4.014   1.589  0.0193  1.3950 -0.8146
   89TMC2    H2 1392   1.082   4.253   1.266  0.1857  0.3503 -0.3937
   89TMC2    C7 1393   0.994   4.253   1.532 -0.6133  0.5450  0.4801
   89TMC2    C8 1394   1.155   4.053   1.126 -0.5596  0.6018 -0.2822
   89TMC2    O1 1395   0.940   4.238   1.643 -0.6964  0.2669 -0.2095
   89TMC2    O2 1396   1.265   4.108   1.105  0.2497 -0.5441 -0.5722
   89TMC2    O5 1397   1.099   3.957   1.046 -0.5196 -0.3649 -0.6034
   89TMC2    H5 1398   1.005   3.934   1.064 -1.1285  0.7139 -2.4403
   90MPD2     C 1399   0.485   3.534   1.524  0.1546 -0.3829 -0.3136
   90MPD2    C1 1400   0.467   3.653   1.584 -0.4273 -0.1939  0.0695
   90MPD2    C2 1401   0.574   3.745   1.570  0.8679  0.5928 -0.0336
   90MPD2    C3 1402   0.693   3.710   1.514  0.8679 -0.0484  0.3411
   90MPD2    C4 1403   0.713   3.579   1.479 -0.1789  0.0771 -0.4614
   90MPD2    C5 1404   0.607   3.493   1.473  0.0614 -0.3962 -0.4311
   90MPD2     H 1405   0.560   3.842   1.616 -0.7091  0.5051 -0.3296
   90MPD2    H1 1406   0.805   3.537   1.441  0.8135  0.3434  1.6746
   90MPD2    H2 1407   0.400   3.468   1.513 -1.2024  1.1483  1.0745
   90MPD2    H3 1408   0.613   3.389   1.442 -0.2311 -0.3641 -0.6009
   90MPD2     N 1409   0.801   3.806   1.501  0.0496  0.2377  0.8054
   90MPD2    H5 1410   0.776   3.901   1.526 -1.0573 -1.1123  4.7745
   90MPD2    N1 1411   0.343   3.697   1.636 -0.6699  0.4258 -0.0789
   90MPD2    H7 1412   0.342   3.782   1.692 -0.2700  0.1984  0.2774
   91TMC2    C1 1413   1.697   3.707  16.374 -0.6432 -0.4801 -0.4955
   91TMC2    C2 1414   1.732   3.808  16.463  0.0440 -0.4006 -0.2004
   91TMC2    C3 1415   1.635   3.852  16.556  0.5252  0.4964  0.4532
   91TMC2    C4 1416   1.569   3.658  16.370  0.0164  1.0761  0.4320
   91TMC2    C5 1417   1.489   3.689  16.473  0.2177 -0.0359 -0.3057
   91TMC2    C6 1418   1.519   3.786  16.564 -0.5377  0.0913 -0.2150
   91TMC2     C 1419   1.788   3.650  16.276  0.3093 -0.4685 -0.3665
   91TMC2     O 1420   1.732   3.598  16.180 -0.1603 -0.5070  0.4813
   91TMC2     H 1421   1.827   3.861  16.458  0.3180 -0.8145  0.5071
   91TMC2    H1 1422   1.551   3.572  16.307  2.0934 -0.0054  1.2932
   91TMC2    H2 1423   1.454   3.805  16.648 -1.6954 -0.4187 -0.9937
   91TMC2    C7 1424   1.360   3.627  16.501  0.5411 -0.2715  0.2660
   91TMC2    C8 1425   1.681   3.898  16.687  0.1156  0.1445  0.6066
   91TMC2    O1 1426   1.314   3.634  16.614 -0.1831  0.2443 -0.2316
   91TMC2    O2 1427   1.782   3.859  16.745 -0.4281 -0.4900 -0.3020
   91TMC2    O5 1428   1.579   3.964  16.746 -0.2972 -0.1565  0.2758
   91TMC2    H5 1429   1.502   3.986  16.689 -0.0850  0.3459  0.1853
   92MPD2     C 1430   2.030   3.594  16.118  0.5860 -0.2500  0.5346
   92MPD2    C1 1431   2.033   3.634  16.250 -0.0115  0.4193  0.4427
   92MPD2    C2 1432   2.161   3.652  16.307  0.2788  0.1690  0.5482
   92MPD2    C3 1433   2.279   3.636  16.232  0.1625 -0.6245  0.1668
   92MPD2    C4 1434   2.267   3.602  16.099 -0.1998 -0.6700  0.3849
   92MPD2    C5 1435   2.144   3.587  16.052 -0.4398 -0.3618  0.2373
   92MPD2     H 1436   2.160   3.670  16.414 -0.0842 -0.6113  0.6745
   92MPD2    H1 1437   2.351   3.608  16.030  0.3358 -2.3003  0.8898
   92MPD2    H2 1438   1.940   3.565  16.064 -0.0899  0.0704  1.4890
   92MPD2    H3 1439   2.137   3.562  15.946 -0.5850  0.1401  0.1290
   92MPD2     N 1440   2.404   3.657  16.285  0.2431  0.3337 -0.5711
   92MPD2    H5 1441   2.483   3.645  16.223 -0.1830  1.4844 -1.3246
   92MPD2    N1 1442   1.913   3.661  16.321  0.0962 -0.0971  0.5360
   92MPD2    H7 1443   1.921   3.689  16.418  2.3394 -3.1377  1.1981
   93TMC2    C1 1444   3.569   4.090  14.157 -0.5306 -0.0876  0.0317
   93TMC2    C2 1445   3.527   4.070  14.286  0.1182 -0.5328 -0.4935
   93TMC2    C3 1446   3.625   4.086  14.379  0.5993 -0.4679 -0.1223
   93TMC2    C4 1447   3.691   4.130  14.118 -0.1074 -0.2522  0.0926
   93TMC2    C5 1448   3.783   4.147  14.218  0.0954  0.2617 -0.3029
   93TMC2    C6 1449   3.756   4.129  14.347  0.3578  0.1147  0.1648
   93TMC2     C 1450   3.475   4.096  14.049 -0.1938 -0.1357  0.4654
   93TMC2     O 1451   3.509   4.155  13.947  0.3449 -0.2766 -0.4285
   93TMC2     H 1452   3.422   4.062  14.312 -0.0550  0.4374 -0.8644
   93TMC2    H1 1453   3.708   4.112  14.012  2.6327  3.3810 -0.1096
   93TMC2    H2 1454   3.835   4.137  14.420 -1.5044  1.6004  2.0172
   93TMC2    C7 1455   3.924   4.168  14.182  0.0259 -0.1423 -0.4233
   93TMC2    C8 1456   3.617   4.016  14.506 -0.3573 -0.1026 -0.2025
   93TMC2    O1 1457   4.004   4.139  14.270 -0.0088 -0.0880 -0.0782
   93TMC2    O2 1458   3.714   3.998  14.577 -0.3546  0.0768 -0.3737
   93TMC2    O5 1459   3.511   3.932  14.499  0.3122  0.4262 -0.4859
   93TMC2    H5 1460   3.449   3.935  14.424 -1.2524 -1.3838  0.7638
   94MPD2     C 1461   3.215   4.125  13.923 -0.3557  0.1022  0.4154
   94MPD2    C1 1462   3.253   4.015  13.998  0.2318 -0.1313  0.4909
   94MPD2    C2 1463   3.171   3.906  14.009 -0.1755 -0.5924 -0.3555
   94MPD2    C3 1464   3.048   3.904  13.941  0.0378 -0.3901 -0.1056
   94MPD2    C4 1465   3.011   4.016  13.871  0.0183 -0.1449  0.4734
   94MPD2    C5 1466   3.093   4.124  13.860  0.3045 -0.2039  0.1577
   94MPD2     H 1467   3.212   3.825  14.069  1.0362 -0.8723 -1.5364
   94MPD2    H1 1468   2.918   4.022  13.816 -1.2194  1.2204  2.7201
   94MPD2    H2 1469   3.272   4.216  13.917 -0.8596  0.2674 -2.0757
   94MPD2    H3 1470   3.070   4.204  13.790 -0.2572 -1.1684 -0.7699
   94MPD2     N 1471   2.958   3.798  13.930 -0.1510 -0.4979  1.3082
   94MPD2    H5 1472   2.867   3.813  13.888  1.6570 -0.8346 -2.8179
   94MPD2    N1 1473   3.364   4.022  14.078 -0.0971  0.3454 -0.0770
   94MPD2    H7 1474   3.372   3.959  14.157  0.8286  0.8213  0.2201
   95TMC2    C1 1475   3.692   0.375  16.578  0.1876  0.2266  0.2422
   95TMC2    C2 1476   3.728   0.243  16.604 -0.5847  0.4966  0.1286
   95TMC2    C3 1477   3.690   0.198  16.720  0.9539  1.1232 -0.2609
   95TMC2    C4 1478   3.617   0.453  16.659 -0.4164 -0.1278  0.6828
   95TMC2    C5 1479   3.570   0.395  16.776 -0.3701  0.6586 -0.0097
   95TMC2    C6 1480   3.602   0.271  16.805 -0.3604  0.0687 -0.1203
   95TMC2     C 1481   3.743   0.438  16.458  0.1943  0.0816  0.2038
   95TMC2     O 1482   3.688   0.543  16.418  0.0030 -0.6848  0.3753
   95TMC2     H 1483   3.776   0.176  16.534  0.7448  1.2317  0.3508
   95TMC2    H1 1484   3.603   0.558  16.636  2.3932  0.6290  2.4324
   95TMC2    H2 1485   3.552   0.228  16.891 -0.5011  0.3933 -0.0384
   95TMC2    C7 1486   3.507   0.469  16.877 -0.0932  0.9479 -0.8814
   95TMC2    C8 1487   3.767   0.079  16.759  0.1887 -0.3381 -0.1692
   95TMC2    O1 1488   3.458   0.408  16.970  0.2509 -0.1441  0.3909
   95TMC2    O2 1489   3.839   0.014  16.685 -0.0754  0.0293  0.4196
   95TMC2    O5 1490   3.699   0.029  16.862  0.0837 -0.0097  0.3339
   95TMC2    H5 1491   3.710   0.091  16.937  0.3763  0.2104  0.1056
   96MPD2     C 1492   3.989   0.432  16.016  0.1139 -0.6632  0.0211
   96MPD2    C1 1493   3.932   0.542  16.076  0.9013 -0.2725 -0.6759
   96MPD2    C2 1494   3.888   0.517  16.209  0.5107  0.1574  0.4838
   96MPD2    C3 1495   3.894   0.391  16.266 -0.3292 -0.0331 -0.1367
   96MPD2    C4 1496   3.958   0.285  16.201  0.4253 -0.3239 -0.6760
   96MPD2    C5 1497   3.998   0.305  16.069 -0.4790  0.1883  0.4039
   96MPD2     H 1498   3.841   0.587  16.279 -0.1904  0.4631 -0.2918
   96MPD2    H1 1499   3.967   0.187  16.246 -0.2625 -0.1951 -0.2392
   96MPD2    H2 1500   4.029   0.443  15.916 -1.0252  0.5577 -0.2987
   96MPD2    H3 1501   4.047   0.228  16.012  0.4254  2.2493 -1.6137
   96MPD2     N 1502   3.842   0.360  16.392  0.1334 -0.1319  0.1850
   96MPD2    H5 1503   3.875   0.277  16.441  0.3472 -0.7209 -0.9638
   96MPD2    N1 1504   3.932   0.668  16.013  0.4053  0.6138 -0.7130
   96MPD2    H7 1505   3.960   0.668  15.916 -1.9769 -2.6351 -1.3671
   97TMC2    C1 1506   1.531   3.410   0.039  0.5671  0.2506  0.2230
   97TMC2    C2 1507   1.499   3.347  17.673 -0.5952  0.8510  0.3828
   97TMC2    C3 1508   1.551   3.395  17.554 -0.2281 -0.4297 -0.6793
   97TMC2    C4 1509   1.625   3.515   0.045 -0.1458  0.4980 -0.7322
   97TMC2    C5 1510   1.664   3.553  17.666  0.0592  0.0261  0.3264
   97TMC2    C6 1511   1.628   3.501  17.547  0.1491  0.0130 -0.6821
   97TMC2     C 1512   1.451   3.382   0.158  0.3157  0.6272 -0.0729
   97TMC2     O 1513   1.365   3.296   0.140  0.2911 -0.4002  0.0175
   97TMC2     H 1514   1.433   3.260  17.671 -0.1504  0.5290 -0.3662
   97TMC2    H1 1515   1.649   3.566   0.137  1.5256 -1.5346 -0.0332
   97TMC2    H2 1516   1.654   3.551  17.454  0.9426  3.0500  1.1887
   97TMC2    C7 1517   1.727   3.686  17.660 -0.4005  0.1003  0.3440
   97TMC2    C8 1518   1.506   3.347  17.430 -0.6027  0.3854 -0.4267
   97TMC2    O1 1519   1.810   3.714  17.745  0.1005  0.0289  0.1358
   97TMC2    O2 1520   1.394   3.306  17.408  0.1108 -0.4786  0.2972
   97TMC2    O5 1521   1.620   3.316  17.357 -0.3330  0.3220 -0.3749
   97TMC2    H5 1522   1.704   3.339  17.402  0.3105 -0.7427 -1.0282
   98MPD2     C 1523   1.291   3.458   0.643  0.3327  1.6402 -0.2489
   98MPD2    C1 1524   1.235   3.380   0.540  0.4593 -0.6282  0.3790
   98MPD2    C2 1525   1.301   3.383   0.416 -0.0178 -0.2621 -1.2335
   98MPD2    C3 1526   1.416   3.460   0.395 -0.5122  0.0368 -0.0590
   98MPD2    C4 1527   1.461   3.549   0.491 -0.4872 -0.1904 -0.0160
   98MPD2    C5 1528   1.400   3.544   0.615 -0.1310 -0.0974 -0.0960
   98MPD2     H 1529   1.251   3.330   0.336 -1.2622 -1.2907  0.2270
   98MPD2    H1 1530   1.544   3.613   0.462  1.4505 -1.2709  3.1054
   98MPD2    H2 1531   1.252   3.464   0.744 -1.2691 -1.0282 -0.6927
   98MPD2    H3 1532   1.433   3.610   0.694 -0.0913  1.9610 -1.8545
   98MPD2     N 1533   1.489   3.457   0.269  0.7346 -0.5642 -0.4295
   98MPD2    H5 1534   1.573   3.514   0.262  0.4537 -0.0575  0.2601
   98MPD2    N1 1535   1.114   3.311   0.574 -0.4519 -0.3375  0.3574
   98MPD2    H7 1536   1.078   3.315   0.669 -1.5112 -2.1866  0.0379
   99TMC2    C1 1537   4.425   0.811   1.528  0.8249  0.8681 -0.3099
   99TMC2    C2 1538   4.407   0.944   1.561 -0.5096  0.0555  0.1819
   99TMC2    C3 1539   4.280   1.002   1.554  0.0954 -0.1811  0.0857
   99TMC2    C4 1540   4.314   0.733   1.497 -0.2462 -0.2856 -0.2944
   99TMC2    C5 1541   4.190   0.792   1.490 -0.1287  0.6058 -0.1195
   99TMC2    C6 1542   4.174   0.921   1.529  0.5019 -1.0190 -0.3955
   99TMC2     C 1543   4.562   0.778   1.472 -0.0691  0.1957 -0.0576
   99TMC2     O 1544   4.650   0.851   1.520 -0.2089  0.7408  0.4921
   99TMC2     H 1545   4.496   1.003   1.577  0.1784 -0.3944 -1.9150
   99TMC2    H1 1546   4.324   0.625   1.490  0.9999 -0.2344  0.6423
   99TMC2    H2 1547   4.077   0.968   1.517  0.8450 -0.1192  0.3761
   99TMC2    C7 1548   4.072   0.716   1.495  0.2407  0.3690  0.0781
   99TMC2    C8 1549   4.261   1.137   1.592  0.5385  1.0229 -0.0347
   99TMC2    O1 1550   3.974   0.785   1.527  0.4266 -0.1159 -0.7251
   99TMC2    O2 1551   4.342   1.227   1.571  0.5569  0.3098  0.1760
   99TMC2    O5 1552   4.205   1.116   1.706 -0.1524  0.5731 -0.0973
   99TMC2    H5 1553   4.166   1.027   1.722 -1.0224  0.5373 -2.4848
  100MPD2     C 1554   0.088   0.651   1.375  0.6478 -0.3486 -0.2873
  100MPD2    C1 1555   4.700   0.610   1.342  0.7563 -0.8284  0.0808
  100MPD2    C2 1556   4.690   0.510   1.244 -0.4833  0.1630  0.0835
  100MPD2    C3 1557   0.061   0.443   1.193  0.2647 -1.1979 -0.0051
  100MPD2    C4 1558   0.183   0.483   1.245  0.1263 -0.5518  0.0374
  100MPD2    C5 1559   0.194   0.586   1.327 -0.0902 -0.4176 -0.4704
  100MPD2     H 1560   4.593   0.477   1.208 -0.0813 -1.9070  0.8497
  100MPD2    H1 1561   0.276   0.434   1.217  0.9221  1.6440 -1.1637
  100MPD2    H2 1562   0.110   0.738   1.436 -0.9993  1.1053 -1.7754
  100MPD2    H3 1563   0.292   0.620   1.358 -0.0694 -1.6212  0.7812
  100MPD2     N 1564   0.044   0.362   1.082 -0.2638 -0.1695 -0.8186
  100MPD2    H5 1565   4.693   0.355   1.031  0.3795 -1.7112 -1.7530
  100MPD2    N1 1566   4.580   0.667   1.392  1.4187  0.4197 -0.3595
  100MPD2    H7 1567   4.496   0.623   1.358  2.0842 -0.9181 -0.2589
  101TMC2    C1 1568   0.747   1.440  13.595 -0.0584 -0.4101  0.3823
  101TMC2    C2 1569   0.824   1.516  13.683 -0.1817  0.9565 -0.2517
  101TMC2    C3 1570   0.915   1.605  13.628 -0.0990 -0.3239 -0.6291
  101TMC2    C4 1571   0.760   1.452  13.459  0.0786  0.3267 -0.0802
  101TMC2    C5 1572   0.854   1.540  13.406 -0.0478 -0.1741  0.0911
  101TMC2    C6 1573   0.934   1.613  13.490  0.1411 -0.4198 -0.8595
  101TMC2     C 1574   0.645   1.358  13.645  0.2905 -0.2552 -0.3612
  101TMC2     O 1575   0.611   1.376  13.760  0.2758  0.0935 -0.5328
  101TMC2     H 1576   0.816   1.506  13.790 -0.2208  1.0487 -0.2454
  101TMC2    H1 1577   0.693   1.404  13.389  1.4760  0.5626 -1.5706
  101TMC2    H2 1578   1.003   1.689  13.455 -0.1950  1.2630  2.0867
  101TMC2    C7 1579   0.872   1.557  13.267  0.5560  0.0958 -0.2636
  101TMC2    C8 1580   0.987   1.699  13.714 -0.1423 -0.0811  0.1498
  101TMC2    O1 1581   0.944   1.654  13.246 -0.0307 -0.2084  0.3753
  101TMC2    O2 1582   1.025   1.806  13.667 -0.4785 -0.2425  0.1521
  101TMC2    O5 1583   0.973   1.682  13.847  0.1107 -0.4287 -0.1806
  101TMC2    H5 1584   0.946   1.590  13.867 -1.1601 -0.3555 -1.5694
  102MPD2     C 1585   0.481   1.094  13.458 -1.0358  0.1320 -0.1876
  102MPD2    C1 1586   0.489   1.190  13.550  0.3179 -0.4398  0.5058
  102MPD2    C2 1587   0.380   1.222  13.638  0.3215 -0.8992 -0.3207
  102MPD2    C3 1588   0.263   1.147  13.622 -0.2814  0.0618 -1.0722
  102MPD2    C4 1589   0.262   1.039  13.538 -0.0337 -0.1082  0.1262
  102MPD2    C5 1590   0.374   1.008  13.462  0.2455  0.4137  0.2391
  102MPD2     H 1591   0.393   1.307  13.704  1.0609 -1.7359  0.6124
  102MPD2    H1 1592   0.184   0.964  13.538 -0.3688  0.2405  2.7980
  102MPD2    H2 1593   0.569   1.083  13.396 -0.3273 -0.6068  0.9428
  102MPD2    H3 1594   0.360   0.918  13.404  2.5368 -1.0331  1.9139
  102MPD2     N 1595   0.153   1.181  13.702  0.6514 -0.3618  0.7143
  102MPD2    H5 1596   0.168   1.255  13.770 -2.8282 -0.0443  1.1411
  102MPD2    N1 1597   0.603   1.266  13.554  0.0660  0.0665 -0.4876
  102MPD2    H7 1598   0.676   1.248  13.486  1.6059  1.1608  0.8665
  103TMC2    C1 1599   3.224   1.641  12.696 -0.0452 -0.4762 -0.0217
  103TMC2    C2 1600   3.329   1.729  12.681 -0.1944 -0.4038 -0.4323
  103TMC2    C3 1601   3.399   1.763  12.787 -0.3771  0.1516 -0.2109
  103TMC2    C4 1602   3.180   1.605  12.818 -0.2071  0.7481 -0.0472
  103TMC2    C5 1603   3.253   1.640  12.925 -0.2206  0.4633 -0.0561
  103TMC2    C6 1604   3.370   1.702  12.909 -0.2067 -1.4135 -0.2718
  103TMC2     C 1605   3.156   1.586  12.582  0.3318 -0.0155  0.1825
  103TMC2     O 1606   3.035   1.565  12.591  0.0266  0.0615 -0.3805
  103TMC2     H 1607   3.372   1.752  12.584  2.0808  0.1706  0.6926
  103TMC2    H1 1608   3.095   1.538  12.813  1.1267 -0.5788 -4.5148
  103TMC2    H2 1609   3.429   1.716  12.999  0.6043  0.3052 -1.0664
  103TMC2    C7 1610   3.257   1.557  13.043  0.0077  0.0918  0.1788
  103TMC2    C8 1611   3.536   1.785  12.753 -0.7632 -0.4968 -0.1302
  103TMC2    O1 1612   3.365   1.537  13.101  0.7133 -0.9375 -0.3829
  103TMC2    O2 1613   3.593   1.767  12.649  0.0012  0.1906  0.2348
  103TMC2    O5 1614   3.585   1.853  12.861  0.5226  0.3553  0.3926
  103TMC2    H5 1615   3.524   1.875  12.935 -0.3819  1.0912 -0.5628
  104MPD2     C 1616   3.284   1.470  12.256 -0.9101  0.0789  0.5170
  104MPD2    C1 1617   3.190   1.516  12.347 -0.1799 -0.6180 -0.0125
  104MPD2    C2 1618   3.064   1.512  12.306  0.9010 -0.1969  0.4424
  104MPD2    C3 1619   3.031   1.479  12.174  0.0298 -0.1790 -0.1762
  104MPD2    C4 1620   3.125   1.446  12.079 -0.2552  0.6309  0.5405
  104MPD2    C5 1621   3.251   1.430  12.131 -0.2308 -0.3315 -0.3476
  104MPD2     H 1622   2.979   1.542  12.366  1.3554  2.2194 -0.1229
  104MPD2    H1 1623   3.101   1.413  11.979 -2.3904 -1.8768  1.8483
  104MPD2    H2 1624   3.385   1.468  12.294 -0.2376  0.3032 -1.3151
  104MPD2    H3 1625   3.335   1.407  12.067 -0.2896  1.7971 -1.1898
  104MPD2     N 1626   2.897   1.500  12.138 -0.4627  0.7351 -0.4326
  104MPD2    H5 1627   2.830   1.512  12.213 -0.1358 -2.0734  0.3027
  104MPD2    N1 1628   3.234   1.567  12.472  0.4238  0.3712 -0.2729
  104MPD2    H7 1629   3.334   1.580  12.489  0.5892  1.4070 -2.0662
  105TMC2    C1 1630   0.099   0.091   0.212 -0.1434  0.3673 -0.3254
  105TMC2    C2 1631   0.076   4.705   0.160  0.0267  0.2825 -0.7331
  105TMC2    C3 1632   4.700   4.676   0.094 -0.2116 -0.0983 -0.1169
  105TMC2    C4 1633   0.003   0.185   0.205 -0.4132 -0.5786 -0.0967
  105TMC2    C5 1634   4.620   0.155   0.154 -0.1963 -0.5026 -0.1204
  105TMC2    C6 1635   4.596   0.033   0.095 -0.1513 -0.8223  0.1234
  105TMC2     C 1636   0.234   0.140   0.233  0.2097 -0.0683  0.6585
  105TMC2     O 1637   0.308   0.071   0.305 -0.2507  0.1331  0.1530
  105TMC2     H 1638   0.158   4.638   0.185  0.3213  0.8362 -0.2305
  105TMC2    H1 1639   0.027   0.276   0.259  0.3894  0.3680 -2.0511
  105TMC2    H2 1640   4.504   0.018   0.039 -0.9631  1.9716  0.7259
  105TMC2    C7 1641   4.522   0.257   0.129  0.5922  0.3866 -0.3168
  105TMC2    C8 1642   4.676   4.533   0.076 -0.6953  0.0037 -0.0419
  105TMC2    O1 1643   4.443   0.242   0.034  1.0258  0.0636 -0.0422
  105TMC2    O2 1644   4.564   4.496   0.083  0.1579  0.2488 -0.0343
  105TMC2    O5 1645   0.043   4.466   0.018 -0.3033  0.9423 -0.3320
  105TMC2    H5 1646   0.130   4.510   0.018  0.6992 -1.0600  1.3618
  106MPD2     C 1647   0.620   0.274  17.691 -0.3502  0.1835  0.5349
  106MPD2    C1 1648   0.506   0.320  17.627 -0.3382 -0.0991  0.1274
  106MPD2    C2 1649   0.382   0.318  17.701 -0.1281 -0.2053 -0.2923
  106MPD2    C3 1650   0.376   0.258   0.075 -0.2717  0.4536 -1.2852
  106MPD2    C4 1651   0.494   0.226   0.137  0.2900 -0.0128 -0.3909
  106MPD2    C5 1652   0.616   0.222   0.070 -0.2943 -0.1047  0.6122
  106MPD2     H 1653   0.294   0.358  17.650  0.9905  1.7332 -0.7078
  106MPD2    H1 1654   0.496   0.199   0.241  0.2170 -0.5248 -0.5254
  106MPD2    H2 1655   0.709   0.263  17.629  1.0171 -1.0401  2.7159
  106MPD2    H3 1656   0.709   0.192   0.118  0.3817 -1.2549 -1.4300
  106MPD2     N 1657   0.254   0.225   0.127 -0.5139 -0.6443 -0.3658
  106MPD2    H5 1658   0.172   0.251   0.073 -0.8506 -1.9893 -0.5148
  106MPD2    N1 1659   0.510   0.391  17.504 -0.2211  0.2270 -0.6902
  106MPD2    H7 1660   0.426   0.442  17.479 -0.0885  0.0182 -1.5712
  107TMC2    C1 1661   0.779   0.416  11.705  1.0551 -0.0661  0.0867
  107TMC2    C2 1662   0.754   0.516  11.614 -0.0328  0.0477  0.0699
  107TMC2    C3 1663   0.740   0.475  11.486  0.0231  0.0066  0.2758
  107TMC2    C4 1664   0.781   0.285  11.672  0.3228  0.0836 -0.2024
  107TMC2    C5 1665   0.759   0.249  11.543  0.1020  0.0614 -0.5216
  107TMC2    C6 1666   0.726   0.345  11.445  0.6875  0.1889 -0.0117
  107TMC2     C 1667   0.785   0.446  11.847  0.7731 -0.2715  0.1425
  107TMC2     O 1668   0.753   0.360  11.933  0.1314 -0.3890 -0.2669
  107TMC2     H 1669   0.738   0.622  11.631  0.9756  0.2504 -0.2199
  107TMC2    H1 1670   0.797   0.205  11.744  0.6595 -0.3662 -0.7706
  107TMC2    H2 1671   0.728   0.326  11.338 -1.2300  1.4071 -0.2628
  107TMC2    C7 1672   0.789   0.115  11.505  0.1080  0.7023 -0.8499
  107TMC2    C8 1673   0.755   0.569  11.382  0.3285  0.1354  0.9959
  107TMC2    O1 1674   0.847   0.046  11.584  0.2058 -0.2433  0.0659
  107TMC2    O2 1675   0.738   0.541  11.265 -0.1014  0.0625  0.1903
  107TMC2    O5 1676   0.860   0.639  11.424  0.0488  0.8650  0.2385
  107TMC2    H5 1677   0.878   0.636  11.520 -0.3686  0.6708  0.3090
  108MPD2     C 1678   0.753   0.791  11.976 -0.6690  0.6171 -0.1199
  108MPD2    C1 1679   0.732   0.653  11.975 -0.0821 -0.0550  0.2245
  108MPD2    C2 1680   0.678   0.594  12.088  0.1154  0.3980  0.6302
  108MPD2    C3 1681   0.643   0.670  12.194 -0.5372 -0.2144  0.2372
  108MPD2    C4 1682   0.660   0.803  12.186 -0.2138 -0.5208  0.5930
  108MPD2    C5 1683   0.715   0.865  12.077 -0.3189 -0.3292  0.0588
  108MPD2     H 1684   0.681   0.486  12.100 -2.0106  0.3015  0.2581
  108MPD2    H1 1685   0.625   0.869  12.265  0.9990 -0.0690  0.7612
  108MPD2    H2 1686   0.802   0.852  11.901  0.0086  0.5566  0.2714
  108MPD2    H3 1687   0.731   0.972  12.075  0.2811 -0.4269 -0.2884
  108MPD2     N 1688   0.583   0.608  12.306  0.2225  0.3225  0.4928
  108MPD2    H5 1689   0.538   0.668  12.374  1.5244  1.7680  0.0640
  108MPD2    N1 1690   0.781   0.584  11.868 -0.2706  0.0929 -0.5241
  108MPD2    H7 1691   0.812   0.646  11.794 -0.1918 -1.1842 -1.5636
  109TMC2    C1 1692   0.336   2.094   0.785  0.4344  1.1166 -0.3222
  109TMC2    C2 1693   0.321   1.962   0.736  0.5694  0.4295  0.2992
  109TMC2    C3 1694   0.361   1.937   0.608 -0.2862 -0.8341  0.2295
  109TMC2    C4 1695   0.396   2.188   0.716  0.0251  0.5683 -0.6782
  109TMC2    C5 1696   0.441   2.150   0.589  0.9177 -0.2294 -0.7822
  109TMC2    C6 1697   0.417   2.029   0.527  0.1092  1.1199  0.1602
  109TMC2     C 1698   0.283   2.117   0.919  0.4232 -0.2953 -0.5472
  109TMC2     O 1699   0.287   2.018   0.996 -0.1703 -0.3562  0.1140
  109TMC2     H 1700   0.255   1.893   0.787  1.7208 -0.4898  0.5612
  109TMC2    H1 1701   0.415   2.282   0.766 -1.1325 -0.3619  1.5546
  109TMC2    H2 1702   0.451   1.998   0.429  0.7991 -0.8898  1.0334
  109TMC2    C7 1703   0.503   2.252   0.510 -0.4201 -0.1330 -0.1596
  109TMC2    C8 1704   0.338   1.806   0.555 -0.0639 -0.3489 -0.0181
  109TMC2    O1 1705   0.501   2.223   0.393  0.3394  0.1491  0.5448
  109TMC2    O2 1706   0.307   1.784   0.437  0.0414  0.4028 -0.1165
  109TMC2    O5 1707   0.365   1.720   0.653  0.4352 -0.1413  0.5750
  109TMC2    H5 1708   0.403   1.769   0.730  0.9634  1.3472 -0.6341
  110MPD2     C 1709   0.169   2.432   1.307 -0.5369  0.2445 -0.3420
  110MPD2    C1 1710   0.208   2.506   1.193 -0.0282  0.3104  0.5111
  110MPD2    C2 1711   0.223   2.438   1.074  0.3435 -0.5423  0.1216
  110MPD2    C3 1712   0.216   2.304   1.068 -0.3410 -0.6307 -0.2347
  110MPD2    C4 1713   0.184   2.237   1.178  0.7400 -0.7165  0.0669
  110MPD2    C5 1714   0.154   2.293   1.295  0.3324 -0.2489  0.3484
  110MPD2     H 1715   0.285   2.478   0.995 -0.0242 -1.3311 -0.5672
  110MPD2    H1 1716   0.182   2.128   1.178  0.3911 -0.7078  1.4271
  110MPD2    H2 1717   0.148   2.481   1.401 -0.8309 -1.2118  0.3530
  110MPD2    H3 1718   0.117   2.247   1.387 -1.3990  1.0893  0.3259
  110MPD2     N 1719   0.248   2.249   0.945  1.0681 -1.1030 -0.1387
  110MPD2    H5 1720   0.268   2.312   0.867  3.6286  1.6888  2.7627
  110MPD2    N1 1721   0.234   2.638   1.217  0.7538 -0.1755 -0.4673
  110MPD2    H7 1722   0.243   2.663   1.315  0.6334 -2.3205  0.0887
  111TMC2    C1 1723   0.528   2.050  11.742  0.2978 -0.5404 -0.6646
  111TMC2    C2 1724   0.497   1.939  11.666 -0.4059  0.4928 -0.4507
  111TMC2    C3 1725   0.562   1.822  11.694  0.1775 -0.0290  0.2997
  111TMC2    C4 1726   0.619   2.048  11.844 -0.4837 -0.8355  0.2781
  111TMC2    C5 1727   0.680   1.927  11.867 -0.1678 -0.1213 -0.8976
  111TMC2    C6 1728   0.656   1.819  11.790 -0.3242 -0.6438 -0.5563
  111TMC2     C 1729   0.485   2.178  11.687 -0.0590 -0.1203  0.7817
  111TMC2     O 1730   0.469   2.182  11.566  0.8486 -0.5936 -0.0462
  111TMC2     H 1731   0.414   1.938  11.598  0.0484 -0.8381 -0.9720
  111TMC2    H1 1732   0.646   2.142  11.893  2.2733 -0.9150 -1.0794
  111TMC2    H2 1733   0.709   1.730  11.822  0.3357 -0.3949 -0.9482
  111TMC2    C7 1734   0.790   1.923  11.961  0.3739  0.0394  0.4717
  111TMC2    C8 1735   0.510   1.695  11.642 -1.5310 -0.2827 -0.5857
  111TMC2    O1 1736   0.832   1.815  11.995  0.3293  0.2782 -0.1054
  111TMC2    O2 1737   0.435   1.685  11.546 -0.1647  0.2235  0.1103
  111TMC2    O5 1738   0.513   1.607  11.736  0.1566 -0.5313 -0.7548
  111TMC2    H5 1739   0.583   1.623  11.803 -0.0097 -0.7756 -0.5254
  112MPD2     C 1740   0.212   2.615  11.730 -0.5761 -0.8078  0.5569
  112MPD2    C1 1741   0.260   2.548  11.620  0.0125 -0.1386  0.1471
  112MPD2    C2 1742   0.334   2.427  11.631 -0.2085 -0.1669 -0.4599
  112MPD2    C3 1743   0.370   2.378  11.762 -0.2170 -0.5389  0.6656
  112MPD2    C4 1744   0.321   2.456  11.866  0.2212 -0.3284  0.1009
  112MPD2    C5 1745   0.247   2.570  11.856  0.4644 -0.0040  0.4779
  112MPD2     H 1746   0.361   2.371  11.542  1.1479  0.5912 -0.5356
  112MPD2    H1 1747   0.339   2.414  11.964  1.9678 -1.1777 -0.5901
  112MPD2    H2 1748   0.145   2.700  11.725  0.2914 -0.2397 -1.3681
  112MPD2    H3 1749   0.206   2.619  11.944 -0.7708  0.1318 -0.1633
  112MPD2     N 1750   0.433   2.257  11.789  0.0608  0.3221  0.7242
  112MPD2    H5 1751   0.425   2.215  11.881  1.0242  0.9503  1.0998
  112MPD2    N1 1752   0.232   2.606  11.491  0.1426 -0.3496 -0.4283
  112MPD2    H7 1753   0.264   2.556  11.409 -1.6843 -0.9241 -0.7904
  113TMC2    C1 1754   3.400   0.082   0.510  0.5944  0.2505  0.5370
  113TMC2    C2 1755   3.300   0.153   0.451 -0.3977  0.0996 -0.1318
  113TMC2    C3 1756   3.192   0.082   0.403 -0.5519  0.5054 -0.2281
  113TMC2    C4 1757   3.389   4.687   0.508  0.0788  0.0836 -0.0021
  113TMC2    C5 1758   3.283   4.620   0.455 -0.7503  0.7535 -0.1843
  113TMC2    C6 1759   3.181   4.685   0.398 -0.4951 -0.5693  0.2760
  113TMC2     C 1760   3.488   0.163   0.590  0.0778 -0.2701  0.6278
  113TMC2     O 1761   3.451   0.274   0.619  0.5541  0.6194  0.1623
  113TMC2     H 1762   3.300   0.261   0.458  1.6208  0.1067 -0.2187
  113TMC2    H1 1763   3.453   4.634   0.579 -3.1810 -0.1832  2.7285
  113TMC2    H2 1764   3.087   4.640   0.368 -0.0791  0.0931 -2.0504
  113TMC2    C7 1765   3.239   4.520   0.558  0.1101  0.0653  0.0516
  113TMC2    C8 1766   3.089   0.165   0.343  0.7599  0.0555  0.1950
  113TMC2    O1 1767   3.126   4.546   0.605 -0.0445 -0.1622 -0.3649
  113TMC2    O2 1768   3.026   0.232   0.423 -0.0706 -0.3897  0.0689
  113TMC2    O5 1769   3.153   0.205   0.237 -0.6250  0.6141 -0.2227
  113TMC2    H5 1770   3.221   0.138   0.212  0.8347  1.3818  1.6418
  114MPD2     C 1771   3.933   0.209   0.839 -0.3228  0.0797 -0.2396
  114MPD2    C1 1772   3.822   0.300   0.841  0.4044  0.1798 -0.0849
  114MPD2    C2 1773   3.710   0.267   0.764 -0.7889 -0.8920  0.1553
  114MPD2    C3 1774   3.713   0.147   0.691  0.9939 -0.2016 -0.2063
  114MPD2    C4 1775   3.825   0.062   0.695  0.4147  0.0915 -0.6275
  114MPD2    C5 1776   3.934   0.097   0.766  0.1380  0.0693 -0.0592
  114MPD2     H 1777   3.628   0.338   0.753 -0.1284  0.1755  2.0453
  114MPD2    H1 1778   3.827   4.706   0.641  2.7924  0.3592 -0.9955
  114MPD2    H2 1779   4.025   0.227   0.892 -1.1187  0.4978  0.9951
  114MPD2    H3 1780   4.017   0.030   0.788 -1.0510 -0.7491  1.9226
  114MPD2     N 1781   3.605   0.097   0.617 -0.0490  0.2534  0.3048
  114MPD2    H5 1782   3.609   0.004   0.576 -0.1750  0.3644  0.0429
  114MPD2    N1 1783   3.822   0.414   0.920  0.4455 -0.8350  0.2424
  114MPD2    H7 1784   3.739   0.474   0.919  1.7107  0.8665 -2.0837
  115TMC2    C1 1785   4.414   2.627   0.002 -0.0083 -0.3770 -0.3612
  115TMC2    C2 1786   4.502   2.575   0.095  0.3110  0.3295 -0.7560
  115TMC2    C3 1787   4.551   2.653   0.199 -1.0062  0.0322 -0.1754
  115TMC2    C4 1788   4.387   2.756  17.740 -0.0462 -0.2210  0.2719
  115TMC2    C5 1789   4.447   2.837   0.091 -0.4537 -0.2406 -0.1797
  115TMC2    C6 1790   4.520   2.786   0.195  0.0860  0.0861  0.2885
  115TMC2     C 1791   4.335   2.529  17.675 -1.0436  0.4504  0.0279
  115TMC2     O 1792   4.379   2.418  17.645 -0.5390  0.6318 -0.0451
  115TMC2     H 1793   4.502   2.467   0.109 -0.0409  0.2645 -1.2531
  115TMC2    H1 1794   4.321   2.798  17.665 -0.0977 -0.3909  0.2225
  115TMC2    H2 1795   4.552   2.851   0.275  1.4515 -0.1731 -0.0479
  115TMC2    C7 1796   4.413   2.973   0.096 -0.1345 -0.4543 -0.4091
  115TMC2    C8 1797   4.582   2.596   0.325  0.3836 -0.2747 -0.0036
  115TMC2    O1 1798   4.419   3.030   0.202 -0.1376  0.8022  0.1039
  115TMC2    O2 1799   4.645   2.652   0.412  0.3575  0.1310  0.4887
  115TMC2    O5 1800   4.511   2.486   0.342 -0.1949 -0.3381 -0.3066
  115TMC2    H5 1801   4.435   2.470   0.282 -0.6322  1.2534 -0.1888
  116MPD2     C 1802   3.863   2.418  17.475  0.5581  0.1570 -0.2185
  116MPD2    C1 1803   3.984   2.347  17.457 -0.0318  0.5386 -0.3577
  116MPD2    C2 1804   4.100   2.391  17.525 -0.0184  0.9530  0.5154
  116MPD2    C3 1805   4.091   2.511  17.599  0.7593  0.0713  0.5923
  116MPD2    C4 1806   3.966   2.572  17.611  0.5184 -0.2431 -0.0785
  116MPD2    C5 1807   3.849   2.518  17.562  0.5271 -0.2860 -0.3539
  116MPD2     H 1808   4.195   2.341  17.509 -0.0285  1.1242 -0.0925
  116MPD2    H1 1809   3.944   2.664  17.664  0.0350 -0.3483 -0.0900
  116MPD2    H2 1810   3.771   2.399  17.421  0.6615  0.1458 -0.3906
  116MPD2    H3 1811   3.755   2.570  17.573 -0.0549 -1.1409 -1.2735
  116MPD2     N 1812   4.201   2.568  17.668 -0.6801  0.0653  0.3456
  116MPD2    H5 1813   4.185   2.657  17.715  0.9128  0.6252 -0.1997
  116MPD2    N1 1814   3.972   2.234  17.374  0.3606 -0.0125  0.2715
  116MPD2    H7 1815   3.881   2.219  17.330  0.2809 -0.4373  0.5753
  117TMC2    C1 1816   2.853   4.053  14.262  0.0490 -0.4133  0.1230
  117TMC2    C2 1817   2.965   4.020  14.346 -0.1898  0.0002 -0.1531
  117TMC2    C3 1818   3.067   4.111  14.337 -0.4530  0.1607  0.1515
  117TMC2    C4 1819   2.849   4.158  14.173 -0.9400 -0.2001  0.2279
  117TMC2    C5 1820   2.952   4.244  14.162  0.1609 -0.5362 -0.1476
  117TMC2    C6 1821   3.060   4.218  14.253 -0.3723  0.4816  0.2929
  117TMC2     C 1822   2.727   3.988  14.298  0.1345  0.1832 -0.0289
  117TMC2     O 1823   2.737   3.866  14.319  0.5355 -0.1454 -0.1212
  117TMC2     H 1824   2.965   3.931  14.408 -1.1198 -0.9557 -1.5262
  117TMC2    H1 1825   2.759   4.173  14.116 -0.2978  2.1666 -0.1618
  117TMC2    H2 1826   3.138   4.293  14.244  2.1763 -2.2362  0.0194
  117TMC2    C7 1827   2.934   4.385  14.126 -0.7950 -0.6301  0.4078
  117TMC2    C8 1828   3.176   4.111  14.434 -0.4525 -0.1152 -0.0927
  117TMC2    O1 1829   3.036   4.440  14.092 -0.1425  0.1068  0.4520
  117TMC2    O2 1830   3.269   4.191  14.421 -0.3052 -0.4786  0.2764
  117TMC2    O5 1831   3.162   4.005  14.518 -0.2190  0.2976 -0.2951
  117TMC2    H5 1832   3.075   3.978  14.552  1.0426 -2.0637  1.0278
  118MPD2     C 1833   2.658   4.607  14.224 -0.0278 -0.3687 -0.3571
  118MPD2    C1 1834   2.788   4.577  14.173  1.0501  0.0005  0.1894
  118MPD2    C2 1835   2.867   4.678  14.130 -0.7411 -0.7247 -0.1328
  118MPD2    C3 1836   2.826   0.071  14.153  0.3170 -0.2714 -0.1524
  118MPD2    C4 1837   2.701   0.098  14.194 -0.1468 -0.1776  0.6926
  118MPD2    C5 1838   2.615   4.736  14.227  0.2670 -0.4876  1.2488
  118MPD2     H 1839   2.960   4.661  14.076  0.0310 -0.6769  1.2009
  118MPD2    H1 1840   2.678   0.203  14.212 -2.8502 -0.6114 -0.1702
  118MPD2    H2 1841   2.602   4.521  14.260 -1.0767  0.4428 -0.0744
  118MPD2    H3 1842   2.520   0.023  14.273  0.7198  0.1261  1.8611
  118MPD2     N 1843   2.905   0.178  14.131  0.0028  0.3398  0.5681
  118MPD2    H5 1844   2.864   0.271  14.132 -0.8477 -0.0352  0.7427
  118MPD2    N1 1845   2.818   4.440  14.166 -0.0282  0.4688  0.0053
  118MPD2    H7 1846   2.751   4.384  14.218  0.2214 -0.7694 -1.0210
  119TMC2    C1 1847   0.832   0.348  13.318  0.1107 -0.4038 -0.2175
  119TMC2    C2 1848   0.934   0.298  13.392 -0.1989  0.7103 -0.6857
  119TMC2    C3 1849   0.902   0.271  13.526 -0.2899 -0.5020  0.2113
  119TMC2    C4 1850   0.708   0.375  13.367  0.0244 -0.3713 -0.2455
  119TMC2    C5 1851   0.685   0.358  13.495  0.7308  0.0799  0.1310
  119TMC2    C6 1852   0.779   0.300  13.578 -0.3952 -0.0545 -0.3024
  119TMC2     C 1853   0.879   0.414  13.199 -0.3543 -0.6629 -0.3857
  119TMC2     O 1854   0.942   0.345  13.120 -0.6995 -0.6441  0.0521
  119TMC2     H 1855   1.033   0.285  13.350 -1.4883  1.0055 -3.8716
  119TMC2    H1 1856   0.631   0.407  13.297  1.7268  2.2853 -0.9037
  119TMC2    H2 1857   0.754   0.273  13.680  3.7230 -4.8344 -0.5656
  119TMC2    C7 1858   0.586   0.454  13.547  0.0071 -0.9691  0.5210
  119TMC2    C8 1859   1.000   0.260  13.628 -0.4188  0.3024 -0.0993
  119TMC2    O1 1860   0.521   0.515  13.467  0.2336 -0.1714 -0.1649
  119TMC2    O2 1861   0.973   0.254  13.748 -0.2065  0.4121 -0.5643
  119TMC2    O5 1862   1.113   0.228  13.567 -0.3746  0.7542 -0.5923
  119TMC2    H5 1863   1.189   0.216  13.628  0.8794  2.2170 -1.8530
  120MPD2     C 1864   0.677   0.833  13.426 -0.0546 -0.7137  1.1972
  120MPD2    C1 1865   0.773   0.749  13.478 -0.2995 -0.2277 -0.5412
  120MPD2    C2 1866   0.825   0.657  13.390 -0.7284 -0.2515  0.5520
  120MPD2    C3 1867   0.780   0.637  13.259 -0.5008  0.2082  0.2063
  120MPD2    C4 1868   0.690   0.730  13.211  0.1166  0.4558  0.7660
  120MPD2    C5 1869   0.639   0.830  13.291 -0.0619 -0.1804 -0.0686
  120MPD2     H 1870   0.910   0.598  13.423 -2.5433 -2.5491  1.1533
  120MPD2    H1 1871   0.663   0.727  13.106  2.6850 -1.7025  0.1953
  120MPD2    H2 1872   0.618   0.899  13.488 -0.4700  0.8692 -0.8864
  120MPD2    H3 1873   0.571   0.897  13.240  0.3888  0.2424 -0.1106
  120MPD2     N 1874   0.820   0.535  13.169  0.2728  0.6054 -0.3226
  120MPD2    H5 1875   0.802   0.564  13.074 -0.2941 -0.4737 -0.5470
  120MPD2    N1 1876   0.795   0.751  13.615 -0.1575  0.6292 -0.6161
  120MPD2    H7 1877   0.740   0.819  13.667 -1.2761 -1.0237  0.3247
  121TMC2    C1 1878   2.597   2.552  14.372 -0.2756 -0.2184 -0.2568
  121TMC2    C2 1879   2.516   2.561  14.484 -0.5390  0.1138  0.3094
  121TMC2    C3 1880   2.404   2.479  14.489 -0.9864 -0.5511  0.4158
  121TMC2    C4 1881   2.564   2.476  14.263 -0.0198 -0.1550 -0.5662
  121TMC2    C5 1882   2.457   2.395  14.278  0.3282  0.5741  0.1378
  121TMC2    C6 1883   2.373   2.400  14.384 -0.1058 -0.1296 -0.0638
  121TMC2     C 1884   2.705   2.650  14.365 -0.4710  0.8389 -0.2706
  121TMC2     O 1885   2.737   2.707  14.468 -0.0526 -1.3629  0.3716
  121TMC2     H 1886   2.547   2.620  14.569 -3.2291  0.1719  1.2309
  121TMC2    H1 1887   2.638   2.460  14.185 -0.8354  0.6766 -1.5131
  121TMC2    H2 1888   2.293   2.328  14.400 -0.0820 -0.0791  0.2867
  121TMC2    C7 1889   2.425   2.307  14.166  0.0872  0.1521  1.0363
  121TMC2    C8 1890   2.313   2.507  14.600 -0.3294 -0.3790 -0.2497
  121TMC2    O1 1891   2.507   2.270  14.085 -0.3229  0.4790  0.2446
  121TMC2    O2 1892   2.357   2.543  14.708 -0.1091 -0.7978  0.1332
  121TMC2    O5 1893   2.205   2.561  14.548 -0.0530 -0.3667  0.0473
  121TMC2    H5 1894   2.198   2.548  14.451 -1.6053  0.1145  0.0993
  122MPD2     C 1895   2.901   2.841  14.276 -0.3468  0.0297  0.4878
  122MPD2    C1 1896   2.817   2.780  14.188 -0.3729  1.2327  0.7363
  122MPD2    C2 1897   2.809   2.830  14.059  0.6931 -0.5963  0.4626
  122MPD2    C3 1898   2.902   2.920  14.013 -0.5056  0.9549 -0.0538
  122MPD2    C4 1899   2.991   2.977  14.103  0.1726  0.1383  0.2940
  122MPD2    C5 1900   2.990   2.941  14.229 -0.3358 -0.1164  0.2683
  122MPD2     H 1901   2.730   2.792  13.995  1.2334 -1.0450  0.0657
  122MPD2    H1 1902   3.054   3.061  14.078 -2.0045  2.2111  1.7029
  122MPD2    H2 1903   2.907   2.815  14.382 -1.9225 -0.6340  0.4066
  122MPD2    H3 1904   3.056   2.986  14.302  0.5001 -1.5413  0.3953
  122MPD2     N 1905   2.898   2.976  13.882  0.0979 -0.4778 -0.7613
  122MPD2    H5 1906   2.966   3.048  13.865  1.1927 -1.2393  0.3749
  122MPD2    N1 1907   2.729   2.679  14.236  0.5076  0.1277 -0.4730
  122MPD2    H7 1908   2.678   2.623  14.168  2.1458 -0.1152 -1.4951
  123TMC2    C1 1909   1.479   1.368  10.393  0.2577 -0.6462  0.9812
  123TMC2    C2 1910   1.592   1.322  10.326  0.8745  0.4290 -0.7443
  123TMC2    C3 1911   1.591   1.345  10.188  0.1209 -0.8777  0.1763
  123TMC2    C4 1912   1.387   1.451  10.328  0.8221 -0.5471  0.0139
  123TMC2    C5 1913   1.407   1.473  10.195 -0.3056 -0.0858 -1.0565
  123TMC2    C6 1914   1.497   1.409  10.118  0.6160 -0.3029  0.5546
  123TMC2     C 1915   1.468   1.323  10.537 -0.1306 -0.0002  0.4228
  123TMC2     O 1916   1.556   1.265  10.592  0.1007 -0.7331 -0.0265
  123TMC2     H 1917   1.664   1.261  10.378 -1.0135 -1.7400 -0.7047
  123TMC2    H1 1918   1.296   1.482  10.377  2.0547  1.5218  0.9583
  123TMC2    H2 1919   1.500   1.412  10.010 -0.4195  0.3272  0.5408
  123TMC2    C7 1920   1.275   1.493  10.137 -0.1401 -0.4833 -0.2472
  123TMC2    C8 1921   1.718   1.317  10.124  0.1607  0.3668  0.1181
  123TMC2    O1 1922   1.200   1.400  10.162 -0.3920 -0.1622  0.0492
  123TMC2    O2 1923   1.815   1.289  10.191  0.1201  0.0263  0.6469
  123TMC2    O5 1924   1.680   1.235  10.027  0.0223 -0.4369  0.4634
  123TMC2    H5 1925   1.583   1.228  10.031  0.0326  0.2891  1.9512
  124MPD2     C 1926   1.128   1.162  10.897  0.0652  0.0108 -0.2511
  124MPD2    C1 1927   1.061   1.247  10.808  0.3623  0.0487 -0.0065
  124MPD2    C2 1928   1.144   1.302  10.708  0.4206 -0.0206  0.1988
  124MPD2    C3 1929   1.279   1.277  10.698  0.2413  0.4305 -0.2700
  124MPD2    C4 1930   1.341   1.194  10.788  0.3124  0.0630  0.5842
  124MPD2    C5 1931   1.262   1.148  10.884  0.5168 -0.0695 -0.0609
  124MPD2     H 1932   1.099   1.367  10.635  0.0253 -0.8203 -0.2666
  124MPD2    H1 1933   1.448   1.174  10.787  0.4287  0.6514  1.5913
  124MPD2    H2 1934   1.081   1.115  10.982 -0.0012 -0.3933 -0.5128
  124MPD2    H3 1935   1.310   1.075  10.948 -0.3187 -0.1220  0.5083
  124MPD2     N 1936   1.337   1.333  10.578 -0.7448  0.4581 -0.0067
  124MPD2    H5 1937   1.271   1.373  10.512 -0.2165 -0.7823 -1.2961
  124MPD2    N1 1938   0.922   1.270  10.821 -0.3873  0.0390  0.4670
  124MPD2    H7 1939   0.877   1.217  10.896  2.5262 -0.1068  2.1438
  125TMC2    C1 1940   1.444   4.285   9.613  0.0247 -0.1712 -0.2152
  125TMC2    C2 1941   1.547   4.289   9.518  0.3444  0.2298 -0.0858
  125TMC2    C3 1942   1.622   4.174   9.517  0.5168  0.1612  0.1481
  125TMC2    C4 1943   1.430   4.191   9.712  0.5085  0.0170 -0.1661
  125TMC2    C5 1944   1.516   4.084   9.703 -0.6173  0.4752  0.2002
  125TMC2    C6 1945   1.614   4.071   9.606  0.4904  0.3864  0.2581
  125TMC2     C 1946   1.357   4.402   9.632 -0.3483  0.0497  0.3878
  125TMC2     O 1947   1.264   4.396   9.712 -0.3174 -0.2232  0.8851
  125TMC2     H 1948   1.547   4.363   9.439 -1.1458  0.5168  0.1693
  125TMC2    H1 1949   1.346   4.201   9.780  1.8165  0.1765  1.4421
  125TMC2    H2 1950   1.686   3.992   9.587 -1.0071 -0.5888 -1.3279
  125TMC2    C7 1951   1.489   3.971   9.788 -0.1039  0.3760  0.5244
  125TMC2    C8 1952   1.699   4.145   9.400 -0.1705 -0.0549 -0.2325
  125TMC2    O1 1953   1.404   3.990   9.877  0.3025  0.0598  0.4105
  125TMC2    O2 1954   1.771   4.226   9.340 -0.3686 -0.5503 -0.1926
  125TMC2    O5 1955   1.639   4.032   9.349  0.6468  0.1625  0.3135
  125TMC2    H5 1956   1.562   3.999   9.401 -0.0925 -0.3528 -1.1259
  126MPD1     C 1957   1.160   0.123   9.503  0.2120  0.3609  0.1942
  126MPD1    C1 1958   1.286   0.108   9.450 -0.2981  0.2993  0.1548
  126MPD1    C2 1959   1.348   4.723   9.453 -0.3726  0.0619  0.6165
  126MPD1    C3 1960   1.298   4.618   9.529  0.2793  0.3152 -0.1274
  126MPD1    C4 1961   1.177   4.635   9.594 -0.2913  0.0100  0.1917
  126MPD1    C5 1962   1.114   0.026   9.590  0.3815 -0.4277 -0.2411
  126MPD1     H 1963   1.439   4.701   9.399  0.0555 -0.5441  1.5773
  126MPD1    H1 1964   1.127   4.551   9.641 -1.5188  0.5879 -0.0763
  126MPD1    H2 1965   1.097   0.211   9.495 -0.9879 -0.4178  1.1524
  126MPD1    H3 1966   1.022   0.038   9.646 -0.7948 -1.8321 -1.8397
  126MPD1     N 1967   1.382   4.508   9.549 -0.2100  0.5895 -0.2713
  126MPD1    H5 1968   1.470   4.501   9.499 -0.0216  0.7746  0.0354
  126MPD1    N1 1969   1.352   0.203   9.374 -0.0470  0.0118  0.2700
  126MPD1    H6 1970   1.453   0.209   9.384 -0.0094  1.4829 -0.9292
  126MPD1    H7 1971   1.314   0.295   9.397  0.9790  0.6487 -0.6122
  127TMC2    C1 1972   2.288   1.722  10.068  0.1658 -0.1875 -0.9921
  127TMC2    C2 1973   2.331   1.593  10.082 -0.2322  0.0600  0.1274
  127TMC2    C3 1974   2.338   1.545  10.205 -0.4142 -0.2689  0.1584
  127TMC2    C4 1975   2.244   1.795  10.177  0.0119  0.3468 -0.5458
  127TMC2    C5 1976   2.254   1.739  10.302 -0.5800 -0.1697  0.3219
  127TMC2    C6 1977   2.293   1.613  10.317 -0.3544  0.0947  0.6313
  127TMC2     C 1978   2.279   1.799   9.944  0.3552  0.0315  0.0322
  127TMC2     O 1979   2.272   1.919   9.944  0.3626 -0.1184  0.6772
  127TMC2     H 1980   2.354   1.529   9.998  0.1865 -1.9229  1.7542
  127TMC2    H1 1981   2.225   1.901  10.167  0.8486  0.6231  0.6936
  127TMC2    H2 1982   2.309   1.578  10.418 -0.5289 -1.6358  0.0642
  127TMC2    C7 1983   2.188   1.818  10.407 -0.4677  0.1690  0.1543
  127TMC2    C8 1984   2.384   1.412  10.213  0.3896 -0.2649 -0.0801
  127TMC2    O1 1985   2.147   1.936  10.390 -0.2347  0.3768 -0.5545
  127TMC2    O2 1986   2.466   1.372  10.132 -0.0718  0.0907  0.0395
  127TMC2    O5 1987   2.350   1.354  10.332 -0.3089 -0.4538 -0.0517
  127TMC2    H5 1988   2.267   1.394  10.367 -0.6535  1.0492 -2.5903
  128MPD2     C 1989   2.314   1.657   9.602  0.4392 -0.6306 -0.2233
  128MPD2    C1 1990   2.299   1.753   9.700  0.3732 -0.1009  0.1350
  128MPD2    C2 1991   2.326   1.884   9.665 -0.1791  0.2019 -0.5533
  128MPD2    C3 1992   2.355   1.924   9.537 -0.1010 -0.5184  0.0739
  128MPD2    C4 1993   2.338   1.831   9.435 -0.7309  0.5907 -0.0355
  128MPD2    C5 1994   2.316   1.698   9.468  0.2903 -0.0219  0.4461
  128MPD2     H 1995   2.349   1.957   9.741  0.7904  0.5610 -1.1859
  128MPD2    H1 1996   2.351   1.858   9.331 -2.7268 -0.9933 -0.6990
  128MPD2    H2 1997   2.300   1.552   9.624  1.7494 -1.1022 -1.6720
  128MPD2    H3 1998   2.316   1.629   9.384 -1.3444  0.3236  0.1610
  128MPD2     N 1999   2.408   2.049   9.517 -0.2939  0.4804  0.0616
  128MPD2    H5 2000   2.430   2.100   9.602  1.5295 -0.0154 -0.1173
  128MPD2    N1 2001   2.283   1.712   9.838 -0.2336 -0.0976 -0.7892
  128MPD2    H7 2002   2.261   1.615   9.854  0.6674  0.2980  2.6928
  129TMC2    C1 2003   1.288   2.305   1.010  0.1422  0.1583 -0.8027
  129TMC2    C2 2004   1.400   2.374   1.009 -0.1766  0.1073  0.3825
  129TMC2    C3 2005   1.512   2.322   0.951  0.6626  0.1938  0.0183
  129TMC2    C4 2006   1.292   2.175   0.970  0.4900 -0.1105 -0.2685
  129TMC2    C5 2007   1.409   2.120   0.928 -0.3091  0.2968 -0.0904
  129TMC2    C6 2008   1.525   2.192   0.914 -0.4367 -0.1600  0.2440
  129TMC2     C 2009   1.153   2.351   1.060  0.2850  0.0539 -0.1174
  129TMC2     O 2010   1.059   2.269   1.075  0.3125  0.1436 -0.0564
  129TMC2     H 2011   1.407   2.471   1.056  1.5379  0.5173 -0.7093
  129TMC2    H1 2012   1.199   2.119   0.967  1.2063 -1.3500  0.5001
  129TMC2    H2 2013   1.615   2.160   0.862  0.6485  2.2216  0.6850
  129TMC2    C7 2014   1.407   1.978   0.906  0.6748 -0.9437 -0.4175
  129TMC2    C8 2015   1.623   2.416   0.939  0.2291  0.0397  0.2335
  129TMC2    O1 2016   1.296   1.930   0.896 -0.1222  0.5806 -0.2931
  129TMC2    O2 2017   1.614   2.532   0.904 -0.1274  0.0213 -0.1186
  129TMC2    O5 2018   1.742   2.344   0.936  0.9606 -0.6186 -0.6036
  129TMC2    H5 2019   1.732   2.248   0.950  1.8889 -0.7172 -0.6845
  130MPD2     C 2020   0.952   2.467   1.264 -0.0058  0.1700  0.4812
  130MPD2    C1 2021   1.064   2.532   1.206  0.2203  0.1449  0.1587
  130MPD2    C2 2022   1.080   2.668   1.230  0.8390 -0.6499  0.3408
  130MPD2    C3 2023   1.000   2.743   1.310  0.2015  0.6008 -0.3678
  130MPD2    C4 2024   0.894   2.682   1.362 -0.2915  0.5923 -0.5808
  130MPD2    C5 2025   0.870   2.550   1.334  0.2591  0.8123 -0.4960
  130MPD2     H 2026   1.160   2.723   1.181 -0.1873  1.2673  0.8200
  130MPD2    H1 2027   0.817   2.725   1.426  0.2937  0.4843  0.1905
  130MPD2    H2 2028   0.923   2.363   1.261 -1.9955  0.8097 -2.0085
  130MPD2    H3 2029   0.781   2.513   1.382  1.7953  0.3894  1.9837
  130MPD2     N 2030   1.032   2.873   1.350  0.3678  0.2825  0.1693
  130MPD2    H5 2031   1.105   2.913   1.291  0.1722 -1.4138 -1.2459
  130MPD2    N1 2032   1.161   2.478   1.120  0.3098 -0.2006 -0.5926
  130MPD2    H7 2033   1.243   2.537   1.110 -1.0185  1.4876 -1.5401
  131TMC2    C1 2034   0.404   1.942  10.070  0.0317 -0.1629 -0.2203
  131TMC2    C2 2035   0.291   2.029  10.077 -0.0460 -0.4932 -0.1197
  131TMC2    C3 2036   0.319   2.162  10.057 -0.3499  0.3506  0.4995
  131TMC2    C4 2037   0.524   1.974  10.015  0.1916  0.6803  0.2648
  131TMC2    C5 2038   0.535   2.107   9.987 -0.4393 -0.6867  0.5611
  131TMC2    C6 2039   0.438   2.206  10.009  0.8918 -0.4211  0.1795
  131TMC2     C 2040   0.406   1.816  10.140 -0.3225  0.8143 -0.4576
  131TMC2     O 2041   0.512   1.753  10.153 -0.0667 -0.0673 -0.5514
  131TMC2     H 2042   0.214   2.001  10.149 -0.1781  1.4945  0.4888
  131TMC2    H1 2043   0.602   1.899  10.011  1.5485  2.0723  0.7386
  131TMC2    H2 2044   0.442   2.309   9.975  0.9473  0.0426  1.5892
  131TMC2    C7 2045   0.655   2.141   9.916 -0.2948  0.4669  0.2534
  131TMC2    C8 2046   0.216   2.259  10.063 -0.3442  1.2242 -0.0371
  131TMC2    O1 2047   0.707   2.059   9.836  0.5162 -0.2953 -0.3040
  131TMC2    O2 2048   0.238   2.381  10.061 -0.2048 -0.2934 -0.4753
  131TMC2    O5 2049   0.093   2.205  10.046  0.1378  0.3479 -0.1070
  131TMC2    H5 2050   0.098   2.107  10.039 -0.5017  0.4570 -1.9705
  132MPD2     C 2051   0.113   1.635  10.271 -0.3531  0.0717 -0.6171
  132MPD2    C1 2052   0.244   1.664  10.260  0.2001 -0.9042 -0.3166
  132MPD2    C2 2053   0.343   1.586  10.322  0.8267  0.2500 -0.6424
  132MPD2    C3 2054   0.303   1.485  10.407 -0.0054  0.0943  0.8812
  132MPD2    C4 2055   0.168   1.450  10.412  0.6767 -0.3983  0.1248
  132MPD2    C5 2056   0.079   1.529  10.348 -0.1564  0.4232 -0.1209
  132MPD2     H 2057   0.445   1.619  10.316  0.6754  0.6573 -0.9327
  132MPD2    H1 2058   0.132   1.378  10.484  0.0944  0.5527  0.7766
  132MPD2    H2 2059   0.039   1.700  10.226  1.5645  1.8659 -1.1973
  132MPD2    H3 2060   4.713   1.516  10.380 -0.2638  3.8148  0.9320
  132MPD2     N 2061   0.406   1.419  10.491 -0.1081  0.6150  0.0674
  132MPD2    H5 2062   0.486   1.478  10.511  1.6490 -0.7975 -2.6854
  132MPD2    N1 2063   0.277   1.774  10.177 -0.0116  0.1519  0.1753
  132MPD2    H7 2064   0.199   1.834  10.154  0.2894 -0.2213 -1.8266
  133TMC2    C1 2065   4.583   3.245   9.839 -0.2581  0.1512 -0.1563
  133TMC2    C2 2066   4.702   3.207   9.883 -0.3787  0.5578  0.9209
  133TMC2    C3 2067   0.036   3.303   9.956 -0.4381  0.0118  0.6581
  133TMC2    C4 2068   4.527   3.372   9.860  0.0195 -0.5469  0.7186
  133TMC2    C5 2069   4.611   3.466   9.915  0.0824  0.2927 -0.1143
  133TMC2    C6 2070   4.730   3.430   9.971  0.0089 -0.3179  0.7944
  133TMC2     C 2071   4.506   3.137   9.780  0.0541  0.0697 -0.0736
  133TMC2     O 2072   4.536   3.021   9.790 -0.0979 -0.7506  0.3153
  133TMC2     H 2073   4.737   3.107   9.862  0.2209  0.3331  3.0400
  133TMC2    H1 2074   4.428   3.398   9.824 -0.5408 -2.1760  1.1139
  133TMC2    H2 2075   0.057   3.497  10.026  0.4077  1.4330 -1.8014
  133TMC2    C7 2076   4.553   3.596   9.952 -0.4232  0.2597  0.1324
  133TMC2    C8 2077   0.146   3.268  10.045 -0.2564 -0.4468  0.6203
  133TMC2    O1 2078   4.431   3.601   9.949  0.9048  0.2408 -0.2777
  133TMC2    O2 2079   0.170   3.344  10.138  0.2618  0.4089 -0.4315
  133TMC2    O5 2080   0.147   3.134  10.057  0.1256 -0.7283  0.0572
  133TMC2    H5 2081   0.175   3.092   9.973  0.9532 -0.8775  0.4038
  134MPD2     C 2082   4.197   3.196   9.580 -0.1847 -0.5965  0.3993
  134MPD2    C1 2083   4.285   3.119   9.657 -0.6624 -0.9844 -0.2638
  134MPD2    C2 2084   4.270   2.979   9.658  0.1194  0.5745  0.5880
  134MPD2    C3 2085   4.172   2.920   9.585 -0.4411  0.1501 -0.5620
  134MPD2    C4 2086   4.085   2.995   9.521 -0.0810 -0.5739  0.6468
  134MPD2    C5 2087   4.093   3.136   9.516  0.4840 -0.0062 -0.3517
  134MPD2     H 2088   4.341   2.916   9.710  1.2401  1.0696 -0.3424
  134MPD2    H1 2089   3.995   2.958   9.472 -2.0968  1.7295  2.6199
  134MPD2    H2 2090   4.213   3.303   9.583  0.1886 -0.5922 -2.3188
  134MPD2    H3 2091   4.021   3.196   9.462 -1.4656 -0.4998  1.6874
  134MPD2     N 2092   4.149   2.782   9.587  0.0474  0.3408 -0.0045
  134MPD2    H5 2093   4.065   2.754   9.538 -1.0710  1.8490  1.0472
  134MPD2    N1 2094   4.392   3.189   9.712  0.1216 -0.5242 -0.0020
  134MPD2    H7 2095   4.383   3.290   9.704  1.0564 -0.4527 -0.1005
  135TMC2    C1 2096   1.900   3.826   9.869 -0.7154 -0.1631 -0.3206
  135TMC2    C2 2097   1.881   3.911   9.971 -0.2493  0.5932  0.4052
  135TMC2    C3 2098   1.873   3.852  10.094  0.1727  0.3243 -0.1672
  135TMC2    C4 2099   1.920   3.689   9.889 -0.4806  1.1017 -0.2677
  135TMC2    C5 2100   1.898   3.635  10.012  0.1074 -0.1250  0.2810
  135TMC2    C6 2101   1.871   3.719  10.115  0.9843 -0.9477 -0.7321
  135TMC2     C 2102   1.914   3.886   9.738  0.5128 -0.0164  0.2112
  135TMC2     O 2103   1.905   4.008   9.739 -0.1683  0.3665  0.1077
  135TMC2     H 2104   1.869   4.017   9.953  1.0840  0.6305 -0.2735
  135TMC2    H1 2105   1.958   3.621   9.813 -0.8507  2.0286 -1.2906
  135TMC2    H2 2106   1.883   3.678  10.215 -1.9512  2.4599  1.0459
  135TMC2    C7 2107   1.915   3.492  10.034 -0.7750  0.3276  0.2348
  135TMC2    C8 2108   1.849   3.941  10.206  0.4454  0.1319 -0.8535
  135TMC2    O1 2109   1.975   3.428   9.949  0.1251  0.3718 -0.3933
  135TMC2    O2 2110   1.837   4.063  10.193  0.1207 -0.4703 -0.1309
  135TMC2    O5 2111   1.754   3.864  10.266 -0.4565  0.1455 -0.5999
  135TMC2    H5 2112   1.754   3.771  10.234  0.3894  0.3190 -1.1290
  136MPD2     C 2113   1.988   3.970   9.452  0.0285  0.0933  0.2734
  136MPD2    C1 2114   1.981   3.838   9.503  0.3410 -0.4029  0.9665
  136MPD2    C2 2115   2.024   3.733   9.427 -0.4618  0.6427 -0.4877
  136MPD2    C3 2116   2.073   3.748   9.302  0.3730  0.3783  0.3073
  136MPD2    C4 2117   2.069   3.879   9.249  0.4368  0.4650 -0.2159
  136MPD2    C5 2118   2.026   3.985   9.323 -0.3043 -0.0221  0.2805
  136MPD2     H 2119   2.025   3.633   9.468 -0.5801  1.2532  1.0046
  136MPD2    H1 2120   2.119   3.899   9.155  0.1295 -0.5577 -0.5965
  136MPD2    H2 2121   1.969   4.063   9.503 -2.2260 -0.1046 -0.2006
  136MPD2    H3 2122   2.024   4.085   9.283 -0.0988  0.1235  0.6409
  136MPD2     N 2123   2.137   3.646   9.225  0.0798  0.4739  0.1845
  136MPD2    H5 2124   2.179   3.665   9.135 -0.8000 -0.8023 -0.4939
  136MPD2    N1 2125   1.942   3.799   9.634 -0.5596  0.2794 -0.3474
  136MPD2    H7 2126   1.940   3.698   9.643 -4.4249  0.2561 -1.1735
  137TMC2    C1 2127   1.637   3.191   9.431  0.2758 -0.0811  0.1295
  137TMC2    C2 2128   1.718   3.238   9.331  0.0808  0.7775  0.4808
  137TMC2    C3 2129   1.721   3.373   9.298  0.5825  0.0056 -0.5642
  137TMC2    C4 2130   1.568   3.290   9.503 -0.0351 -0.4338  0.2529
  137TMC2    C5 2131   1.564   3.421   9.460  0.6347  0.0280  0.1569
  137TMC2    C6 2132   1.635   3.467   9.354  0.9293 -0.3869  0.1764
  137TMC2     C 2133   1.656   3.061   9.490 -0.8000 -0.7576  0.2066
  137TMC2     O 2134   1.628   3.046   9.605 -0.0116  0.4587  0.4697
  137TMC2     H 2135   1.774   3.165   9.275 -0.2473 -0.2252  1.4669
  137TMC2    H1 2136   1.524   3.251   9.594  0.5564  3.2546  2.0995
  137TMC2    H2 2137   1.623   3.564   9.307 -2.2729 -0.2145  1.3237
  137TMC2    C7 2138   1.458   3.503   9.502  0.3472 -0.5121 -0.0646
  137TMC2    C8 2139   1.772   3.412   9.176  0.1530  0.1505 -0.6026
  137TMC2    O1 2140   1.453   3.620   9.467 -0.2501 -0.0581  0.9919
  137TMC2    O2 2141   1.734   3.514   9.120 -0.3237  0.0662  0.6132
  137TMC2    O5 2142   1.879   3.332   9.131 -0.1414 -0.5368 -0.3068
  137TMC2    H5 2143   1.926   3.278   9.199  0.4553  0.0798 -0.2291
  138MPD2     C 2144   1.846   2.788   9.311 -0.6668  0.7343 -0.1691
  138MPD2    C1 2145   1.783   2.844   9.418  0.4366  0.0413 -0.5595
  138MPD2    C2 2146   1.777   2.764   9.533 -0.2950 -0.8662  0.8137
  138MPD2    C3 2147   1.801   2.628   9.522 -0.1311  0.5248 -0.8509
  138MPD2    C4 2148   1.865   2.576   9.409 -0.0927 -0.5990 -0.1528
  138MPD2    C5 2149   1.901   2.664   9.306  0.3679  0.4233  0.0544
  138MPD2     H 2150   1.732   2.810   9.620  1.2335 -1.2672  1.8193
  138MPD2    H1 2151   1.890   2.472   9.391  0.1851 -0.5935  0.2103
  138MPD2    H2 2152   1.874   2.857   9.232  1.0382  0.1352 -0.0790
  138MPD2    H3 2153   1.960   2.627   9.223  0.8244 -0.3890  0.7325
  138MPD2     N 2154   1.762   2.553   9.626 -0.0006  0.6878 -0.3532
  138MPD2    H5 2155   1.747   2.601   9.715  0.4695 -2.0149  1.1855
  138MPD2    N1 2156   1.733   2.975   9.404  0.5161 -0.0213  0.3970
  138MPD2    H7 2157   1.748   3.007   9.309 -0.7588  0.2484  0.2982
  139TMC2    C1 2158   1.981   0.707  13.778 -0.4969 -0.8580 -0.9314
  139TMC2    C2 2159   2.065   0.790  13.710  0.7457 -0.2566  0.0984
  139TMC2    C3 2160   2.009   0.894  13.642 -0.4996  0.4041 -0.6520
  139TMC2    C4 2161   1.850   0.724  13.780  0.1686  0.4507 -0.8439
  139TMC2    C5 2162   1.798   0.819  13.701  0.1774  0.7037 -0.4396
  139TMC2    C6 2163   1.873   0.906  13.630 -0.4632  0.2069  0.2723
  139TMC2     C 2164   2.041   0.579  13.822 -0.3051  0.5800 -1.0928
  139TMC2     O 2165   2.148   0.554  13.778 -0.3455  0.4789  0.5780
  139TMC2     H 2166   2.172   0.771  13.707  0.6530 -0.4416 -2.5118
  139TMC2    H1 2167   1.784   0.646  13.817 -0.5310  1.4551  0.0339
  139TMC2    H2 2168   1.840   0.990  13.570  1.5860  1.5429  1.0113
  139TMC2    C7 2169   1.660   0.807  13.664 -0.4466 -0.1039 -0.4615
  139TMC2    C8 2170   2.087   1.002  13.603 -0.0654 -0.4117  0.1273
  139TMC2    O1 2171   1.639   0.798  13.544 -0.0005 -0.3530  0.0483
  139TMC2    O2 2172   2.038   1.116  13.608 -0.4346 -0.5492 -0.3553
  139TMC2    O5 2173   2.172   0.961  13.507 -0.8284 -0.6364  0.2169
  139TMC2    H5 2174   2.190   0.865  13.498 -1.0943 -0.6323 -0.2910
  140MPD2     C 2175   1.951   0.360  14.087  0.0718  0.5019 -0.0054
  140MPD2    C1 2176   2.022   0.394  13.977 -0.0518  0.2986 -0.4974
  140MPD2    C2 2177   2.124   0.312  13.936 -0.0947  0.0862  0.1210
  140MPD2    C3 2178   2.162   0.199  14.007  0.4491 -0.2681  0.1528
  140MPD2    C4 2179   2.081   0.157  14.110 -0.1719 -0.5232 -0.0062
  140MPD2    C5 2180   1.971   0.234  14.143  0.0425 -0.1400 -0.0480
  140MPD2     H 2181   2.188   0.341  13.853 -1.4455 -0.4783 -1.1177
  140MPD2    H1 2182   2.098   0.067  14.168 -1.4261 -0.7280  0.0567
  140MPD2    H2 2183   1.875   0.425  14.129 -2.3468 -0.5502 -2.7610
  140MPD2    H3 2184   1.919   0.207  14.234 -0.5948 -0.4470 -0.5027
  140MPD2     N 2185   2.272   0.129  13.956  0.5993  0.3138 -0.2049
  140MPD2    H5 2186   2.319   0.160  13.871  0.0273  0.2613 -0.5415
  140MPD2    N1 2187   1.985   0.519  13.923 -0.5446  0.6756 -0.1675
  140MPD2    H7 2188   1.916   0.569  13.979  0.0879  1.2508  0.0969
  141TMC2    C1 2189   3.387   1.358  14.857 -0.1891  0.3887 -0.6113
  141TMC2    C2 2190   3.425   1.265  14.946 -0.1240 -0.2847  0.1041
  141TMC2    C3 2191   3.443   1.299  15.071 -0.3867  0.5953  1.0740
  141TMC2    C4 2192   3.337   1.477  14.894  0.3447 -0.6826 -0.1134
  141TMC2    C5 2193   3.346   1.506  15.025 -0.1512 -0.3048 -0.3315
  141TMC2    C6 2194   3.405   1.424  15.113 -0.0960  0.1698  0.8315
  141TMC2     C 2195   3.371   1.315  14.720  0.4781 -0.8543  0.7685
  141TMC2     O 2196   3.298   1.385  14.647 -0.0793 -1.1787 -0.3781
  141TMC2     H 2197   3.442   1.161  14.920  1.3275 -0.2622  0.9842
  141TMC2    H1 2198   3.297   1.548  14.823 -1.2730 -1.1772  0.3122
  141TMC2    H2 2199   3.412   1.441  15.220  0.4224 -0.3747  0.8847
  141TMC2    C7 2200   3.366   1.641  15.077  0.0642 -0.2199 -0.0754
  141TMC2    C8 2201   3.457   1.199  15.178 -0.5215 -0.4791 -0.6199
  141TMC2    O1 2202   3.364   1.649  15.199 -0.2337  0.0727 -0.2647
  141TMC2    O2 2203   3.413   1.222  15.288 -0.0854  0.3656  0.0550
  141TMC2    O5 2204   3.527   1.090  15.133 -0.3733 -0.6475  0.0913
  141TMC2    H5 2205   3.569   1.110  15.047  3.9650  1.4969  2.7323
  142TMC2    C1 2206   0.507   1.240  10.189  0.4842 -0.3394 -0.7627
  142TMC2    C2 2207   0.408   1.266  10.104  0.4345  0.3547 -0.0868
  142TMC2    C3 2208   0.429   1.382  10.029 -0.0121  0.3202  0.0179
  142TMC2    C4 2209   0.609   1.327  10.225  0.1668  0.1475  0.1288
  142TMC2    C5 2210   0.624   1.443  10.156 -0.5940 -0.5212 -0.2305
  142TMC2    C6 2211   0.533   1.470  10.055 -0.4597  0.3351 -0.3260
  142TMC2     C 2212   0.472   1.122  10.272 -0.6488 -0.5209  0.1255
  142TMC2     O 2213   0.367   1.062  10.259 -0.4974  0.5369 -0.0152
  142TMC2     H 2214   0.340   1.187  10.075 -0.6014  0.4792  2.0681
  142TMC2    H1 2215   0.690   1.298  10.291  0.0864 -0.6056 -0.0964
  142TMC2    H2 2216   0.544   1.562   9.998 -0.1577 -1.4699 -3.1685
  142TMC2    C7 2217   0.751   1.518  10.169 -0.2926  0.2381  0.2378
  142TMC2    C8 2218   0.343   1.398   9.909  0.4926 -0.0865 -0.3816
  142TMC2    O1 2219   0.832   1.477  10.248  0.3348  0.2791 -0.1978
  142TMC2    O2 2220   0.370   1.478   9.821  0.0723 -0.4860 -0.0269
  142TMC2    O5 2221   0.216   1.369   9.956  0.0127  0.5929  0.4887
  142TMC2    H5 2222   0.224   1.312  10.036  1.1294  2.4580  1.7009
  143MPD2     C 2223   0.525   0.849  10.690 -0.6512  0.0410  0.3378
  143MPD2    C1 2224   0.436   0.830  10.592 -0.5837  0.2576 -0.6903
  143MPD2    C2 2225   0.446   0.915  10.480  0.0319 -0.6531  0.2394
  143MPD2    C3 2226   0.546   1.010  10.471  0.3931  0.2043 -0.2830
  143MPD2    C4 2227   0.646   1.012  10.564  0.1551  0.3456  0.2068
  143MPD2    C5 2228   0.635   0.930  10.674  0.4323  0.3965 -0.2724
  143MPD2     H 2229   0.383   0.895  10.394  1.0503 -0.2878 -0.6000
  143MPD2    H1 2230   0.731   1.078  10.559  0.5128 -0.0747  0.7897
  143MPD2    H2 2231   0.517   0.793  10.783 -0.7881 -0.9340 -0.2562
  143MPD2    H3 2232   0.710   0.947  10.751 -1.3395  2.3696  1.0216
  143MPD2     N 2233   0.563   1.101  10.369 -0.3040 -0.1507 -0.0794
  143MPD2    H5 2234   0.649   1.155  10.368  0.1052 -0.8093  0.2490
  143MPD2    N1 2235   0.335   0.734  10.611 -0.0984  0.1917 -0.0873
  143MPD2    H7 2236   0.355   0.669  10.686  1.9308 -0.3811 -1.1463
  144TMC2    C1 2237   4.141   3.651   0.802 -0.3632 -0.2184  0.7650
  144TMC2    C2 2238   4.227   3.549   0.777  0.1793  0.2221 -0.0503
  144TMC2    C3 2239   4.353   3.570   0.818  0.3887 -0.5020 -0.6477
  144TMC2    C4 2240   4.168   3.757   0.879 -0.4045  0.2002 -0.0445
  144TMC2    C5 2241   4.292   3.768   0.933  0.4285  0.1361  0.5047
  144TMC2    C6 2242   4.386   3.672   0.903  0.3201 -0.6454 -0.3802
  144TMC2     C 2243   4.011   3.646   0.737  0.1705 -0.7521 -0.0521
  144TMC2     O 2244   4.001   3.557   0.654  0.3921  0.0152  0.1914
  144TMC2     H 2245   4.199   3.463   0.717  1.6877  0.1655 -0.7036
  144TMC2    H1 2246   4.109   3.848   0.876 -1.1491 -0.2877 -0.2090
  144TMC2    H2 2247   4.487   3.696   0.935 -0.2222 -1.6003  2.1007
  144TMC2    C7 2248   4.338   3.882   1.009 -0.4546 -0.8079  0.3813
  144TMC2    C8 2249   4.461   3.485   0.775 -0.2370  0.0020  0.3960
  144TMC2    O1 2250   4.440   3.870   1.070  0.5326  0.0036  0.0279
  144TMC2    O2 2251   4.572   3.478   0.820 -0.6445  0.8152 -0.2660
  144TMC2    O5 2252   4.431   3.434   0.654  0.1269 -0.3869  0.0444
  144TMC2    H5 2253   4.362   3.474   0.596  0.7790  1.6972  0.7352
  145MPD2     C 2254   3.496   3.722   0.715 -0.1063 -0.4184  0.1709
  145MPD2    C1 2255   3.579   3.645   0.638  0.2554 -0.5347  0.3479
  145MPD2    C2 2256   3.712   3.632   0.673  0.1654  0.2951 -0.5194
  145MPD2    C3 2257   3.769   3.709   0.774 -0.4355 -0.4454  0.2331
  145MPD2    C4 2258   3.687   3.782   0.853 -0.7088  0.0710  0.4135
  145MPD2    C5 2259   3.555   3.791   0.816 -0.1151 -0.1171  0.3519
  145MPD2     H 2260   3.779   3.573   0.612  1.3018  0.8325  0.2137
  145MPD2    H1 2261   3.717   3.817   0.951  0.4346 -4.6335  1.7540
  145MPD2    H2 2262   3.394   3.750   0.691 -0.3932 -1.3585  0.2963
  145MPD2    H3 2263   3.480   3.849   0.868  1.0767  1.1255  0.6794
  145MPD2     N 2264   3.911   3.715   0.800 -0.5497 -0.0629  0.5300
  145MPD2    H5 2265   3.930   3.765   0.886 -0.2993  2.0835 -0.7609
  145MPD2    N1 2266   3.541   3.578   0.517 -0.0061  0.3815 -0.5520
  145MPD2    H7 2267   3.606   3.516   0.470  0.6925  1.9477 -1.6580
  146TMC2    C1 2268   0.042   2.872  12.715 -0.2911  0.0302  0.2478
  146TMC2    C2 2269   0.038   2.967  12.614  0.8479  0.0700 -0.1992
  146TMC2    C3 2270   0.024   2.921  12.485  0.4298 -0.0421 -0.4263
  146TMC2    C4 2271   0.038   2.737  12.688 -0.2232  0.2587 -0.8526
  146TMC2    C5 2272   0.020   2.698  12.560  0.5778 -0.8108 -0.1506
  146TMC2    C6 2273   0.013   2.788  12.458  0.0822  0.3634  0.1069
  146TMC2     C 2274   0.059   2.928  12.843  0.4443  0.5017 -0.5734
  146TMC2     O 2275   0.039   3.045  12.858  0.4738  0.8506  0.1822
  146TMC2     H 2276   0.057   3.073  12.623  1.8019 -0.1344  0.2452
  146TMC2    H1 2277   0.035   2.656  12.760 -0.7615  0.5004 -0.6035
  146TMC2    H2 2278   4.726   2.755  12.358 -0.4915 -0.8714  0.6572
  146TMC2    C7 2279   0.020   2.553  12.526 -0.1492  0.7202 -0.0878
  146TMC2    C8 2280   0.015   3.023  12.379 -0.1293  0.1921 -0.2785
  146TMC2    O1 2281   4.723   2.523  12.415 -0.3060  0.4518  0.2146
  146TMC2    O2 2282   0.007   3.143  12.406 -0.0447 -0.0967 -0.0647
  146TMC2    O5 2283   0.065   2.974  12.261 -0.5125 -0.3253 -0.6279
  146TMC2    H5 2284   0.104   2.884  12.262  0.2616  0.0387  3.5479
  147MPD2     C 2285   0.083   2.065  12.702 -0.3007  0.5232 -1.2352
  147MPD2    C1 2286   0.162   2.152  12.766  0.4037  0.0319 -0.2958
  147MPD2    C2 2287   0.153   2.287  12.744  0.0635  0.6170 -0.0823
  147MPD2    C3 2288   0.075   2.333  12.640  0.2989 -0.0076  0.2505
  147MPD2    C4 2289   4.731   2.244  12.574 -0.8112  0.6049  0.3564
  147MPD2    C5 2290   4.736   2.111  12.608  0.1654 -0.6894  0.1169
  147MPD2     H 2291   0.213   2.364  12.791  0.5625  0.0306  0.2492
  147MPD2    H1 2292   4.664   2.275  12.495  0.5416  0.7990 -0.7075
  147MPD2    H2 2293   0.092   1.957  12.714 -0.2546  0.6042 -0.5729
  147MPD2    H3 2294   4.677   2.043  12.547  1.9871 -1.6183 -0.6193
  147MPD2     N 2295   0.073   2.473  12.622 -0.1494 -0.2137  0.0788
  147MPD2    H5 2296   0.126   2.519  12.695  0.6143 -0.1630 -0.5003
  147MPD2    N1 2297   0.250   2.102  12.864  0.0363 -0.1593 -0.1220
  147MPD2    H7 2298   0.244   2.002  12.878 -0.9590  0.0954  1.2350
  148TMC2    C1 2299   0.805   1.887  10.308 -0.2412  0.3454 -0.0839
  148TMC2    C2 2300   0.937   1.880  10.317  0.4950 -0.5444 -0.1090
  148TMC2    C3 2301   0.991   1.818  10.417  1.1325 -0.1549  0.8200
  148TMC2    C4 2302   0.734   1.809  10.390 -0.1259  0.3552  0.4372
  148TMC2    C5 2303   0.795   1.723  10.474 -0.5929 -0.6520  0.5445
  148TMC2    C6 2304   0.924   1.738  10.508  0.2614 -0.3562  0.2818
  148TMC2     C 2305   0.766   2.026  10.291 -0.1507 -0.8255 -0.2200
  148TMC2     O 2306   0.828   2.105  10.221 -0.0365  0.4231  0.8669
  148TMC2     H 2307   0.997   1.956  10.267 -0.2571  0.1413  0.0300
  148TMC2    H1 2308   0.627   1.801  10.377  0.1505 -1.2302 -0.8857
  148TMC2    H2 2309   0.969   1.691  10.594  0.1473 -1.2131 -0.1299
  148TMC2    C7 2310   0.708   1.649  10.562  0.0576  0.0501  0.1354
  148TMC2    C8 2311   1.140   1.833  10.445  0.4082  0.9685  0.5386
  148TMC2    O1 2312   0.616   1.598  10.504  0.0283  0.3636 -0.5465
  148TMC2    O2 2313   1.201   1.935  10.420  0.1772 -0.0379  0.2804
  148TMC2    O5 2314   1.197   1.712  10.440  0.6518 -0.2945 -0.3982
  148TMC2    H5 2315   1.130   1.641  10.437 -0.0429  0.2445  2.3623
  149MPD2     C 2316   0.623   2.294  10.307 -0.0539 -0.3169 -0.6148
  149MPD2    C1 2317   0.583   2.175  10.367  0.0288  1.1221  0.3334
  149MPD2    C2 2318   0.462   2.179  10.433 -0.4902 -0.5319  0.3108
  149MPD2    C3 2319   0.388   2.290  10.464 -0.7322 -0.0831 -0.5194
  149MPD2    C4 2320   0.428   2.400  10.402  0.3531 -0.5515 -1.1277
  149MPD2    C5 2321   0.540   2.403  10.325  0.2361 -0.5340  0.0694
  149MPD2     H 2322   0.423   2.080  10.454 -0.0731 -1.0778 -1.5028
  149MPD2    H1 2323   0.382   2.496  10.421  1.1311 -0.3379 -0.3155
  149MPD2    H2 2324   0.715   2.305  10.249  0.6749 -0.1134  0.5871
  149MPD2    H3 2325   0.572   2.492  10.271 -0.1257  0.6680  1.8172
  149MPD2     N 2326   0.270   2.289  10.552  0.2898 -0.1456  0.2327
  149MPD2    H5 2327   0.242   2.380  10.588  1.6473  0.5192 -0.3710
  149MPD2    N1 2328   0.643   2.048  10.353  0.1577  0.6025  0.2062
  149MPD2    H7 2329   0.599   1.965  10.391  2.4700 -1.6632 -2.1029
  150TMC2    C1 2330   2.155   0.946  12.439  0.1748  0.1069 -0.1218
  150TMC2    C2 2331   2.068   1.051  12.439  0.2473  0.5599 -0.5056
  150TMC2    C3 2332   2.118   1.175  12.437 -0.6603 -0.3992 -0.8834
  150TMC2    C4 2333   2.290   0.967  12.446  0.3219 -0.1878  0.2133
  150TMC2    C5 2334   2.344   1.100  12.453 -0.6534 -0.1021  0.3403
  150TMC2    C6 2335   2.251   1.199  12.440  0.4745 -0.1080 -0.4846
  150TMC2     C 2336   2.109   0.817  12.402  0.1222 -0.1238  0.3370
  150TMC2     O 2337   2.186   0.723  12.403  0.6685 -0.1439  0.2481
  150TMC2     H 2338   1.962   1.044  12.459  0.1814  0.6039 -0.8350
  150TMC2    H1 2339   2.359   0.883  12.448  1.0269  0.3345 -1.7987
  150TMC2    H2 2340   2.288   1.301  12.433  0.4526  0.0835  2.2108
  150TMC2    C7 2341   2.488   1.141  12.444 -0.6355  0.4837  1.0568
  150TMC2    C8 2342   2.025   1.281  12.455 -0.2021  0.5106  0.1855
  150TMC2    O1 2343   2.515   1.254  12.406  0.0103  0.2926  0.3745
  150TMC2    O2 2344   1.920   1.289  12.391 -0.7293  0.6558 -0.2864
  150TMC2    O5 2345   2.046   1.313  12.584 -0.6950 -0.5722 -0.4343
  150TMC2    H5 2346   2.133   1.284  12.619 -0.9036 -1.6854 -0.8634
  151MPD2     C 2347   1.736   0.525  12.181 -0.7852  0.7851 -0.2131
  151MPD2    C1 2348   1.705   0.658  12.162  0.8436 -0.3475 -0.2349
  151MPD2    C2 2349   1.795   0.753  12.207 -0.1228 -0.1923 -0.6197
  151MPD2    C3 2350   1.905   0.717  12.283 -0.9805  0.2401 -0.2177
  151MPD2    C4 2351   1.934   0.582  12.299  0.4977 -0.0618 -0.1300
  151MPD2    C5 2352   1.854   0.491  12.243 -0.1657 -0.1790 -0.4978
  151MPD2     H 2353   1.771   0.858  12.192  3.6325  0.8474  0.4707
  151MPD2    H1 2354   2.014   0.546  12.363 -0.7380 -2.1068  0.2566
  151MPD2    H2 2355   1.663   0.449  12.156 -1.5422  1.5522 -0.3516
  151MPD2    H3 2356   1.891   0.389  12.245  1.9060  0.6010  1.4386
  151MPD2     N 2357   1.985   0.824  12.337  0.1768 -0.5026  0.2883
  151MPD2    H5 2358   1.951   0.918  12.318  1.0624  0.3511  2.9393
  151MPD2    N1 2359   1.578   0.685  12.110  0.7105 -0.0853  0.3861
  151MPD2    H7 2360   1.516   0.609  12.087 -0.7361  1.6006 -1.2256
  152TMC2    C1 2361   2.067   0.414  13.457  0.0240  0.6696  0.3843
  152TMC2    C2 2362   2.142   0.326  13.524 -0.6449  0.1948  0.2644
  152TMC2    C3 2363   2.276   0.334  13.514 -0.3468  0.4463  0.0848
  152TMC2    C4 2364   2.123   0.505  13.370  0.2731 -0.2699 -0.5567
  152TMC2    C5 2365   2.257   0.512  13.371  0.2507 -0.4644 -0.5102
  152TMC2    C6 2366   2.334   0.427  13.436 -0.2442  0.1876 -0.1628
  152TMC2     C 2367   1.917   0.416  13.459  0.3013  0.1574 -0.1893
  152TMC2     O 2368   1.857   0.482  13.372  0.2005  0.2179 -0.0100
  152TMC2     H 2369   2.106   0.244  13.586 -3.4308  0.5738 -0.8788
  152TMC2    H1 2370   2.066   0.586  13.326  2.0340  1.5532  0.5035
  152TMC2    H2 2371   2.439   0.414  13.410 -0.9397 -0.1667 -2.8580
  152TMC2    C7 2372   2.298   0.640  13.405  0.1721  0.5991  0.2177
  152TMC2    C8 2373   2.343   0.216  13.544  0.0081  0.3765  0.2399
  152TMC2    O1 2374   2.222   0.702  13.481  0.2376 -0.6637 -0.1535
  152TMC2    O2 2375   2.303   0.105  13.524 -0.5186 -0.2975  0.0741
  152TMC2    O5 2376   2.376   0.248  13.670  0.4933  0.0433  0.4038
  152TMC2    H5 2377   2.386   0.346  13.674  0.7564  0.1328 -2.6466
  153MPD2     C 2378   1.718   0.372  13.759  0.8887 -0.1184 -0.2700
  153MPD2    C1 2379   1.741   0.399  13.631  0.1234  0.4330 -0.5229
  153MPD2    C2 2380   1.633   0.441  13.550  0.1335 -0.6452  0.6801
  153MPD2    C3 2381   1.509   0.460  13.604 -0.1604 -0.3209 -0.1672
  153MPD2    C4 2382   1.487   0.425  13.735 -0.7583  0.8590 -0.1456
  153MPD2    C5 2383   1.594   0.382  13.813  0.4463  0.2192 -0.1724
  153MPD2     H 2384   1.647   0.455  13.443  1.5702 -1.7252  0.7328
  153MPD2    H1 2385   1.387   0.416  13.776 -0.3598 -0.0388  0.6065
  153MPD2    H2 2386   1.792   0.319  13.817 -0.2696 -1.0140  0.4078
  153MPD2    H3 2387   1.574   0.343  13.912  1.5593  0.0983  0.0040
  153MPD2     N 2388   1.408   0.513  13.532  0.2378 -0.0338 -0.5271
  153MPD2    H5 2389   1.419   0.517  13.431 -1.1480  1.4087 -0.6229
  153MPD2    N1 2390   1.871   0.375  13.588  0.2564 -0.6045  0.0760
  153MPD2    H7 2391   1.940   0.340  13.654 -0.1934  3.5486  2.7064
  154TMC2    C1 2392   3.947   0.491   0.558  0.0411 -0.8019 -1.0757
  154TMC2    C2 2393   4.013   0.552   0.665  0.2609  0.0744 -0.9193
  154TMC2    C3 2394   4.146   0.523   0.676  0.4861  0.5942  0.1732
  154TMC2    C4 2395   4.009   0.403   0.479 -0.2276  0.6070  0.5500
  154TMC2    C5 2396   4.149   0.379   0.496  0.5568 -0.9196  0.1108
  154TMC2    C6 2397   4.213   0.434   0.596  0.0502 -0.7344  0.1463
  154TMC2     C 2398   3.815   0.529   0.542  0.2212 -0.1942  0.8370
  154TMC2     O 2399   3.782   0.634   0.597  0.0388  0.1424 -0.6606
  154TMC2     H 2400   3.975   0.633   0.725 -2.1580 -1.1229 -0.8102
  154TMC2    H1 2401   3.960   0.352   0.397 -1.2029 -1.2842  2.3023
  154TMC2    H2 2402   4.322   0.439   0.591 -0.0594  0.5772 -1.0241
  154TMC2    C7 2403   4.201   0.262   0.428  0.2586  0.2604 -0.0583
  154TMC2    C8 2404   4.226   0.589   0.777 -0.0846  0.1405 -1.3421
  154TMC2    O1 2405   4.145   0.226   0.327  0.0386  0.2920  0.2650
  154TMC2    O2 2406   4.220   0.712   0.804 -0.5946 -0.4383 -0.7991
  154TMC2    O5 2407   4.295   0.498   0.833 -0.0170  0.2589 -0.0164
  154TMC2    H5 2408   4.256   0.410   0.814  1.0529 -0.2925  0.3429
  155MPD2     C 2409   3.582   0.397   0.295  0.1669 -0.0518  0.5804
  155MPD2    C1 2410   3.620   0.483   0.394  0.4830  0.3266 -0.0221
  155MPD2    C2 2411   3.539   0.579   0.451  0.1738 -0.4544  0.5521
  155MPD2    C3 2412   3.416   0.598   0.396  0.0951  0.0911  0.3112
  155MPD2    C4 2413   3.379   0.521   0.291  0.1457 -0.4999  0.3429
  155MPD2    C5 2414   3.462   0.420   0.238  0.1931  0.2210 -1.0350
  155MPD2     H 2415   3.573   0.634   0.538  2.0186  0.0759 -0.5131
  155MPD2    H1 2416   3.287   0.536   0.236 -0.0728  0.4594  0.9668
  155MPD2    H2 2417   3.654   0.330   0.248 -1.0373 -0.7754 -0.2120
  155MPD2    H3 2418   3.432   0.366   0.149  1.6649 -3.3068  0.6143
  155MPD2     N 2419   3.340   0.708   0.442  0.1583 -0.4528 -0.1439
  155MPD2    H5 2420   3.374   0.765   0.519  1.8317  1.4780 -2.2897
  155MPD2    N1 2421   3.747   0.460   0.445  0.4330 -0.2313  0.7284
  155MPD2    H7 2422   3.791   0.377   0.407  0.6158 -0.5507  1.6242
  156TMC2    C1 2423   2.871   3.757  12.000  0.7113 -0.0266  0.4135
  156TMC2    C2 2424   2.906   3.635  11.947 -0.3373 -0.7264 -0.5413
  156TMC2    C3 2425   2.876   3.606  11.820 -0.2898 -0.3494  0.7801
  156TMC2    C4 2426   2.815   3.852  11.917  0.4385  0.3225 -0.7701
  156TMC2    C5 2427   2.795   3.821  11.782 -0.3826 -1.5614 -0.1651
  156TMC2    C6 2428   2.827   3.698  11.737  0.0366  0.3698  0.1627
  156TMC2     C 2429   2.807   3.742  12.128 -0.1264  0.7767 -0.3378
  156TMC2     O 2430   2.693   3.776  12.135  0.1733 -0.6239 -0.2836
  156TMC2     H 2431   2.967   3.571  12.010  0.0524  1.1498  0.9724
  156TMC2    H1 2432   2.776   3.945  11.958 -0.2207 -0.4515  0.3642
  156TMC2    H2 2433   2.816   3.667  11.634  0.4282  0.7884 -0.0051
  156TMC2    C7 2434   2.678   3.893  11.725 -0.1747  0.1581  0.6612
  156TMC2    C8 2435   2.964   3.511  11.761 -0.7187 -0.3864 -0.3012
  156TMC2    O1 2436   2.634   3.985  11.788 -0.6117 -0.0993  0.5120
  156TMC2    O2 2437   3.023   3.523  11.654  0.2754  0.0203 -0.6110
  156TMC2    O5 2438   2.944   3.399  11.829 -0.1065 -0.1724 -0.1236
  156TMC2    H5 2439   2.872   3.405  11.894 -0.0201 -1.0651  0.0537
  157MPD2     C 2440   2.925   3.640  12.463  0.1508 -0.6991  0.2017
  157MPD2    C1 2441   2.840   3.657  12.359  0.3606 -0.4100 -0.5530
  157MPD2    C2 2442   2.708   3.632  12.380  0.0582 -0.3058 -0.9145
  157MPD2    C3 2443   2.659   3.622  12.505 -0.5889 -0.0414 -0.3424
  157MPD2    C4 2444   2.749   3.633  12.612  0.6720 -0.6526 -0.6353
  157MPD2    C5 2445   2.881   3.627  12.589  0.5305 -0.7462 -0.9954
  157MPD2     H 2446   2.629   3.643  12.306  0.9387 -1.8129 -2.0850
  157MPD2    H1 2447   2.712   3.632  12.714  2.0027  0.7886 -0.1450
  157MPD2    H2 2448   3.030   3.662  12.448 -0.0552 -0.2518 -0.6233
  157MPD2    H3 2449   2.950   3.630  12.673  0.8717 -1.0252 -1.2654
  157MPD2     N 2450   2.521   3.597  12.513  0.2909 -0.5670 -0.1793
  157MPD2    H5 2451   2.462   3.588  12.430 -1.5880 -2.9249  1.4205
  157MPD2    N1 2452   2.889   3.689  12.231 -0.0010 -0.1241  0.4754
  157MPD2    H7 2453   2.988   3.668  12.220  0.1931  1.0660 -0.0533
  158TMC2    C1 2454   2.819   1.904  14.065 -0.2564 -0.1515 -0.9143
  158TMC2    C2 2455   2.861   2.030  14.026  0.0623  0.1595 -0.8681
  158TMC2    C3 2456   2.823   2.130  14.112 -0.2185 -0.0720  0.1458
  158TMC2    C4 2457   2.741   1.878  14.172  0.7877 -0.3284 -0.0463
  158TMC2    C5 2458   2.690   1.987  14.241  1.1510  0.7956  0.5526
  158TMC2    C6 2459   2.741   2.111  14.224 -0.5096  0.0502 -0.1289
  158TMC2     C 2460   2.847   1.804  13.963 -0.3649 -0.0964 -0.0107
  158TMC2     O 2461   2.827   1.843  13.845  0.3673  0.3913  0.0426
  158TMC2     H 2462   2.911   2.048  13.932 -0.1114  0.1885 -0.9541
  158TMC2    H1 2463   2.711   1.775  14.186 -0.0665 -0.3306 -1.9716
  158TMC2    H2 2464   2.705   2.190  14.288  0.6170  1.8511 -1.7294
  158TMC2    C7 2465   2.554   1.976  14.294 -0.2839 -0.3221  0.1604
  158TMC2    C8 2466   2.890   2.256  14.114 -0.0257  0.0912 -0.2780
  158TMC2    O1 2467   2.504   2.070  14.355  0.3184  0.2369 -0.0177
  158TMC2    O2 2468   2.855   2.352  14.185  0.9541 -0.4383  0.0540
  158TMC2    O5 2469   3.019   2.221  14.079  0.1333  0.3500 -0.0449
  158TMC2    H5 2470   3.035   2.138  14.031 -0.7884 -0.2940  0.7470
  159MPD2     C 2471   2.929   1.316  13.839 -0.9096  0.4220 -0.4811
  159MPD2    C1 2472   2.959   1.325  13.976  0.1881  0.4676  0.2910
  159MPD2    C2 2473   2.935   1.450  14.025  0.3566  0.6167 -0.1508
  159MPD2    C3 2474   2.889   1.556  13.951 -0.0097  1.2967 -0.8943
  159MPD2    C4 2475   2.876   1.544  13.815  0.8557 -0.0282 -0.2621
  159MPD2    C5 2476   2.899   1.425  13.761  0.2321 -0.1538  0.5423
  159MPD2     H 2477   2.954   1.468  14.131 -0.1245  1.5558 -0.2225
  159MPD2    H1 2478   2.815   1.617  13.764  1.1292  1.2118  1.1781
  159MPD2    H2 2479   2.941   1.218  13.793 -0.1535  0.5738 -0.6050
  159MPD2    H3 2480   2.880   1.410  13.655  0.6542  4.4621 -0.1855
  159MPD2     N 2481   2.877   1.680  14.015 -0.7341 -0.6791 -0.0236
  159MPD2    H5 2482   2.909   1.683  14.112  0.2484 -1.4442 -0.3221
  159MPD2    N1 2483   3.000   1.213  14.048  0.2857  0.6070 -0.0847
  159MPD2    H7 2484   2.993   1.126  13.996  0.8794  0.5874 -0.1258
  160TMC2    C1 2485   2.342   0.812   2.111 -0.5416  0.6628  0.1551
  160TMC2    C2 2486   2.281   0.816   2.229  0.4005  0.1261  0.3531
  160TMC2    C3 2487   2.304   0.723   2.322  0.2627  0.2561 -0.7072
  160TMC2    C4 2488   2.411   0.700   2.071 -1.0696  0.5488  0.3302
  160TMC2    C5 2489   2.419   0.593   2.156  0.2995  0.7210  0.0598
  160TMC2    C6 2490   2.365   0.602   2.283 -0.1869 -0.3050 -0.9796
  160TMC2     C 2491   2.330   0.923   2.017  0.2011 -0.1316 -0.3868
  160TMC2     O 2492   2.319   1.035   2.063 -0.3310  0.1359 -0.4072
  160TMC2     H 2493   2.227   0.908   2.250  0.0265  0.5272 -2.3136
  160TMC2    H1 2494   2.480   0.696   1.987 -0.5303 -1.1330  0.8659
  160TMC2    H2 2495   2.375   0.530   2.363  2.8345 -0.5916 -1.5830
  160TMC2    C7 2496   2.503   0.478   2.130 -0.5794  0.0846  0.6465
  160TMC2    C8 2497   2.215   0.712   2.436  0.3446  0.0455  0.1897
  160TMC2    O1 2498   2.529   0.406   2.225  0.0801 -0.4648 -0.1030
  160TMC2    O2 2499   2.150   0.610   2.461  0.5876 -0.5726 -0.4127
  160TMC2    O5 2500   2.213   0.835   2.493 -0.3206  0.1086  0.2577
  160TMC2    H5 2501   2.281   0.894   2.454 -1.2094 -0.0881 -1.5462
  161MPD2     C 2502   2.301   1.104   1.778  0.5123  0.3717  0.0563
  161MPD2    C1 2503   2.316   0.965   1.772  1.0316  1.1351 -0.6013
  161MPD2    C2 2504   2.299   0.906   1.648  0.3929  0.2938 -0.1063
  161MPD2    C3 2505   2.280   0.975   1.530 -0.0779  0.8268  0.2874
  161MPD2    C4 2506   2.265   1.108   1.541  0.2033 -0.3910 -0.3791
  161MPD2    C5 2507   2.283   1.172   1.663 -0.3774 -0.1345  0.4871
  161MPD2     H 2508   2.314   0.799   1.642 -1.0264  0.0418  0.8389
  161MPD2    H1 2509   2.234   1.162   1.453 -1.8556 -2.2510 -0.8047
  161MPD2    H2 2510   2.301   1.165   1.868  0.2628  1.5499 -0.7463
  161MPD2    H3 2511   2.257   1.276   1.677 -0.1771  0.4388 -3.2505
  161MPD2     N 2512   2.289   0.925   1.402  0.4452  0.0392  0.6494
  161MPD2    H5 2513   2.300   0.994   1.329 -1.7466 -0.2866  0.0102
  161MPD2    N1 2514   2.322   0.881   1.887 -0.1860  0.1091  0.0058
  161MPD2    H7 2515   2.336   0.781   1.873  1.4401  0.5977 -1.9052
  162TMC2    C1 2516   0.160   1.767   1.117 -0.0044 -0.2407 -0.4320
  162TMC2    C2 2517   0.074   1.847   1.186  0.5856 -0.0870 -0.6607
  162TMC2    C3 2518   0.103   1.871   1.319 -0.3487 -0.2941 -0.1999
  162TMC2    C4 2519   0.283   1.723   1.164  0.7071  0.0132 -0.0148
  162TMC2    C5 2520   0.309   1.761   1.298  0.1562 -0.2041 -0.2851
  162TMC2    C6 2521   0.213   1.821   1.380 -0.4239 -0.1067  0.3884
  162TMC2     C 2522   0.128   1.743   0.976 -0.0365 -0.2565 -0.6019
  162TMC2     O 2523   0.227   1.696   0.918  0.1435 -0.3755  0.2205
  162TMC2     H 2524   4.722   1.892   1.146 -0.1419 -0.9564  0.0120
  162TMC2    H1 2525   0.338   1.653   1.103 -0.1869 -1.3694  0.7564
  162TMC2    H2 2526   0.236   1.839   1.485  2.5879  1.7154 -0.5882
  162TMC2    C7 2527   0.446   1.776   1.334  0.6660  0.1866 -0.3258
  162TMC2    C8 2528   0.002   1.940   1.396 -0.0141  0.0251  0.3883
  162TMC2    O1 2529   0.486   1.866   1.407 -0.6610  0.6228 -0.3465
  162TMC2    O2 2530   4.668   2.027   1.350 -0.0034 -0.1601 -0.5348
  162TMC2    O5 2531   0.039   1.942   1.525 -0.7429 -0.1119 -0.0270
  162TMC2    H5 2532   0.072   1.855   1.555  0.2250  0.2229 -0.1434
  163MPD2     C 2533   4.575   1.628   0.567 -0.1363 -0.2207  0.9591
  163MPD2    C1 2534   4.710   1.613   0.597  0.5291 -0.0688 -0.1424
  163MPD2    C2 2535   0.021   1.651   0.717 -0.1523 -0.3471  0.2024
  163MPD2    C3 2536   4.676   1.704   0.818 -0.0471 -0.6724  0.0279
  163MPD2    C4 2537   4.541   1.707   0.798 -0.4145  0.3683 -0.6338
  163MPD2    C5 2538   4.497   1.684   0.670 -0.3414  0.4323  0.3728
  163MPD2     H 2539   0.130   1.650   0.722 -0.1595  0.4869  0.4612
  163MPD2    H1 2540   4.467   1.733   0.872  0.4700  1.3478 -0.0997
  163MPD2    H2 2541   4.535   1.594   0.472 -0.3841  1.5341  0.4391
  163MPD2    H3 2542   4.390   1.691   0.655 -0.7177 -0.4841  2.6049
  163MPD2     N 2543   4.731   1.749   0.944 -0.3801  0.7772 -0.2245
  163MPD2    H5 2544   4.669   1.770   1.022  0.9383  0.3266  0.9452
  163MPD2    N1 2545   0.052   1.548   0.500  0.0966 -0.4697 -0.0772
  163MPD2    H7 2546   0.033   1.572   0.403  0.1984  0.3781  0.1073
  164TMC2    C1 2547   0.963   2.047  10.711  0.4207  0.1117  0.6240
  164TMC2    C2 2548   1.023   2.111  10.603  0.1949 -0.5414  0.6404
  164TMC2    C3 2549   0.941   2.201  10.536 -0.2703  0.2346  0.2646
  164TMC2    C4 2550   0.829   2.060  10.743  0.4859 -0.0180  0.3526
  164TMC2    C5 2551   0.755   2.162  10.679 -0.0252 -1.1101 -0.4626
  164TMC2    C6 2552   0.812   2.234  10.578 -0.7485  0.4851  0.5371
  164TMC2     C 2553   1.019   1.928  10.770  0.6433 -0.7680 -0.2791
  164TMC2     O 2554   0.930   1.845  10.786 -0.2933  0.3824  0.1477
  164TMC2     H 2555   1.128   2.122  10.579  0.4681  0.2981  2.2141
  164TMC2    H1 2556   0.787   2.013  10.831  0.6027  0.8073  0.8553
  164TMC2    H2 2557   0.752   2.312  10.532  0.9003  0.3923 -1.7555
  164TMC2    C7 2558   0.632   2.206  10.727  0.1227  0.2083  0.5856
  164TMC2    C8 2559   1.015   2.288  10.444 -0.0538  0.1741  0.4950
  164TMC2    O1 2560   0.628   2.322  10.764 -0.0113 -0.4262  0.2463
  164TMC2    O2 2561   1.098   2.237  10.370 -0.5072 -0.3259 -0.1203
  164TMC2    O5 2562   0.932   2.372  10.389  0.0927  0.2824  0.2860
  164TMC2    H5 2563   0.881   2.427  10.452 -0.5395  0.8705 -0.7322
  165TMC2    C1 2564   1.897   4.459   1.232  0.4880  0.5987 -0.4662
  165TMC2    C2 2565   1.883   4.337   1.175  0.0947  0.4128  0.0520
  165TMC2    C3 2566   1.987   4.272   1.125  0.1953  0.6904  0.6930
  165TMC2    C4 2567   2.023   4.508   1.248  0.2282  0.1117  0.4262
  165TMC2    C5 2568   2.124   4.448   1.184 -0.3562 -0.3681  0.2476
  165TMC2    C6 2569   2.107   4.331   1.118  0.0738  0.1634  0.2659
  165TMC2     C 2570   1.776   4.523   1.290 -0.2972 -1.4134  0.1983
  165TMC2     O 2571   1.677   4.456   1.279  0.2786 -0.8409  0.1602
  165TMC2     H 2572   1.794   4.277   1.190  0.0742  0.3035 -0.5247
  165TMC2    H1 2573   2.033   4.592   1.316 -2.0552  1.3495 -0.7460
  165TMC2    H2 2574   2.187   4.275   1.070 -0.3652 -1.0414  0.9324
  165TMC2    C7 2575   2.263   4.495   1.205 -0.4583  0.1401 -0.1132
  165TMC2    C8 2576   1.970   4.136   1.086  0.7681 -0.4297 -0.0231
  165TMC2    O1 2577   2.342   4.425   1.141 -0.2469  0.0986 -0.1610
  165TMC2    O2 2578   1.868   4.104   1.026  0.0794  0.1213  0.8376
  165TMC2    O5 2579   2.065   4.056   1.140 -0.2925  0.1277 -0.6904
  165TMC2    H5 2580   2.135   4.101   1.192 -1.3184  0.0511  0.7495
  166MPD2     C 2581   1.599   0.017   1.701 -0.5407  0.2061  1.0680
  166MPD2    C1 2582   1.576   4.626   1.651  0.4063  0.0813 -0.6452
  166MPD2    C2 2583   1.655   4.589   1.537  0.1492 -0.1426  0.1161
  166MPD2    C3 2584   1.733   4.680   1.474 -0.6054 -0.0203  0.1448
  166MPD2    C4 2585   1.754   0.065   1.529 -0.2104  0.3486 -0.0145
  166MPD2    C5 2586   1.689   0.106   1.643 -0.1961  0.0764  0.0446
  166MPD2     H 2587   1.665   4.485   1.508 -2.9257 -0.1826 -0.7651
  166MPD2    H1 2588   1.821   0.135   1.479  0.7384  0.0067  0.7701
  166MPD2    H2 2589   1.546   0.051   1.790 -1.2597  1.3074  0.2116
  166MPD2    H3 2590   1.700   0.209   1.675 -0.6376  0.0635  0.2382
  166MPD2     N 2591   1.807   4.639   1.361  0.3159 -0.3405 -0.1157
  166MPD2    H5 2592   1.884   4.690   1.319 -0.7806  2.3024  1.0953
  166MPD2    N1 2593   1.484   4.543   1.705  0.1730 -0.2887 -0.3273
  166MPD2    H7 2594   1.443   4.582   1.789  2.1406 -1.8098  1.3446
  167TMC2    C1 2595   0.339   1.418  13.230 -0.1171 -0.0640  0.1446
  167TMC2    C2 2596   0.280   1.453  13.354  0.5310  0.4648  0.1451
  167TMC2    C3 2597   0.155   1.408  13.376 -1.2097  0.3381  0.1124
  167TMC2    C4 2598   0.281   1.338  13.139 -0.2315 -0.4736 -0.2976
  167TMC2    C5 2599   0.159   1.283  13.174  0.2896 -0.1435  0.0517
  167TMC2    C6 2600   0.093   1.320  13.292 -0.1952  1.0333  0.1191
  167TMC2     C 2601   0.452   1.503  13.187 -0.0569  0.5855  0.3425
  167TMC2     O 2602   0.512   1.568  13.272  0.0365 -0.1055 -0.3392
  167TMC2     H 2603   0.321   1.531  13.417 -0.8373  0.2712  1.2753
  167TMC2    H1 2604   0.329   1.314  13.044 -0.3284 -2.6733  0.2178
  167TMC2    H2 2605   0.008   1.259  13.321  0.2918  0.3677  0.1604
  167TMC2    C7 2606   0.085   1.199  13.073  0.1657  0.0286  0.8923
  167TMC2    C8 2607   0.097   1.469  13.490  0.6642 -0.5328 -0.2884
  167TMC2    O1 2608   4.705   1.198  13.103  0.2362  0.5846  0.1812
  167TMC2    O2 2609   0.158   1.498  13.586  0.0485 -0.0712  0.0129
  167TMC2    O5 2610   4.706   1.499  13.475  1.0975  0.2595  0.5517
  167TMC2    H5 2611   4.681   1.486  13.381 -0.9097  0.8108  1.0046
  168MPD2     C 2612   0.591   1.721  13.021  0.2676  0.3245 -0.2350
  168MPD2    C1 2613   0.490   1.642  12.972 -0.4752  0.0253  0.8377
  168MPD2    C2 2614   0.439   1.672  12.848 -0.2611  0.0661 -0.5702
  168MPD2    C3 2615   0.476   1.784  12.779  0.0612 -0.1774 -0.3323
  168MPD2    C4 2616   0.580   1.855  12.819 -0.7127  0.1398 -0.3186
  168MPD2    C5 2617   0.640   1.813  12.932 -0.2776 -0.6028 -0.1610
  168MPD2     H 2618   0.353   1.613  12.818  1.2364 -2.0592 -0.7159
  168MPD2    H1 2619   0.611   1.933  12.751  1.0258 -1.1025 -0.9453
  168MPD2    H2 2620   0.634   1.703  13.119 -2.2025  0.0067  0.8000
  168MPD2    H3 2621   0.734   1.849  12.971 -1.2785 -0.2878  1.9380
  168MPD2     N 2622   0.416   1.823  12.657 -0.1505  0.0187  0.2897
  168MPD2    H5 2623   0.456   1.904  12.611 -0.5596  0.0247 -0.0564
  168MPD2    N1 2624   0.425   1.542  13.053  0.1604  0.5964  0.4528
  168MPD2    H7 2625   0.347   1.493  13.008  0.0085  0.9214  0.3609
  169MPD1     C 2626   2.934   2.493   9.173  0.3306  0.3267  0.1620
  169MPD1    C1 2627   2.960   2.473   9.307 -0.0739  0.6288 -0.0367
  169MPD1    C2 2628   2.926   2.355   9.367  0.1737  0.3845  0.1712
  169MPD1    C3 2629   2.872   2.243   9.298 -0.6223  1.0810 -0.3141
  169MPD1    C4 2630   2.842   2.266   9.167  0.6491 -0.1850  0.3871
  169MPD1    C5 2631   2.863   2.395   9.116  0.2945  0.0378  0.1471
  169MPD1     H 2632   2.951   2.343   9.472 -0.6561 -1.2023  0.1827
  169MPD1    H1 2633   2.799   2.192   9.100  0.4871  2.3417 -2.2279
  169MPD1    H2 2634   2.971   2.580   9.120  2.0415 -0.0657  0.6792
  169MPD1    H3 2635   2.843   2.410   9.010  0.3023  0.0787  0.1516
  169MPD1     N 2636   2.861   2.124   9.364  0.1009 -0.1038 -0.1273
  169MPD1    H5 2637   2.907   2.114   9.453 -1.0760 -0.9630  0.3872
  169MPD1    N1 2638   3.037   2.577   9.371  0.5216 -0.1965 -0.6851
  169MPD1    H6 2639   3.052   2.663   9.318  2.4054  0.9096  1.6119
  169MPD1    H7 2640   2.996   2.587   9.464  1.1988 -1.3265 -0.2629
  170MPD1     C 2641   1.621   3.171  13.312  0.4097  0.7702 -0.4586
  170MPD1    C1 2642   1.653   3.167  13.441  0.5222  0.4268 -0.3609
  170MPD1    C2 2643   1.583   3.254  13.524  0.3501  0.2919 -0.1284
  170MPD1    C3 2644   1.472   3.324  13.478 -0.4136  0.3523  0.3613
  170MPD1    C4 2645   1.437   3.316  13.348  0.7287  0.0222 -0.0132
  170MPD1    C5 2646   1.515   3.243  13.271 -0.0674 -0.7711 -0.3154
  170MPD1     H 2647   1.622   3.256  13.625  0.4732  0.6477 -0.1820
  170MPD1    H1 2648   1.353   3.367  13.303  1.1813 -0.3156 -1.2452
  170MPD1    H2 2649   1.684   3.110  13.248  1.2229  1.7707 -0.6194
  170MPD1    H3 2650   1.490   3.243  13.166  0.4734  1.9789 -0.4469
  170MPD1     N 2651   1.407   3.413  13.567 -0.2652  0.1206 -0.3239
  170MPD1    H5 2652   1.433   3.418  13.665  0.4448  1.5591 -0.5839
  170MPD1    N1 2653   1.783   3.116  13.476 -0.2807 -0.2901 -0.0480
  170MPD1    H6 2654   1.816   3.038  13.421 -1.8704 -0.8212 -0.2453
  170MPD1    H7 2655   1.799   3.103  13.576 -0.6601  1.3628  0.2232
  171MPD1     C 2656   4.424   4.348  15.234  0.1651  0.1386  0.1654
  171MPD1    C1 2657   4.357   4.347  15.351 -0.3139 -0.0486  0.2573
  171MPD1    C2 2658   4.401   4.271  15.451 -0.0171  0.4404  0.2034
  171MPD1    C3 2659   4.513   4.193  15.443 -0.5486  0.1208 -0.3344
  171MPD1    C4 2660   4.587   4.206  15.327  0.5557 -0.2569 -0.0860
  171MPD1    C5 2661   4.546   4.285  15.228 -0.4844  0.3223 -0.4862
  171MPD1     H 2662   4.338   4.254  15.537  1.8694  0.7025  1.6542
  171MPD1    H1 2663   4.687   4.167  15.312  0.7617  0.8219 -1.5482
  171MPD1    H2 2664   4.404   4.422  15.157  2.8468  0.0415 -0.6391
  171MPD1    H3 2665   4.619   4.299  15.149  0.6855  0.5311  0.6191
  171MPD1     N 2666   4.554   4.099  15.535 -0.1200 -0.5883 -0.2493
  171MPD1    H5 2667   4.627   4.031  15.514 -0.4940 -0.6882 -1.2081
  171MPD1    N1 2668   4.238   4.414  15.369 -0.4033  0.0907 -1.0900
  171MPD1    H6 2669   4.216   4.489  15.303 -1.3537  1.2761  0.5748
  171MPD1    H7 2670   4.247   4.467  15.456 -1.0713  1.1587 -1.6676
  172MPD1     C 2671   0.279   3.712   0.850  0.1113 -0.0033 -0.1723
  172MPD1    C1 2672   0.237   3.842   0.821  0.0064  0.0429 -0.4025
  172MPD1    C2 2673   0.117   3.855   0.763  0.1829  0.2140 -0.3502
  172MPD1    C3 2674   0.051   3.743   0.711 -0.3398 -0.9865  0.2866
  172MPD1    C4 2675   0.109   3.621   0.726 -0.0061 -0.1604 -0.4204
  172MPD1    C5 2676   0.220   3.606   0.799  0.0029 -0.2984 -1.2227
  172MPD1     H 2677   0.083   3.953   0.733 -1.0774  0.1183  0.7923
  172MPD1    H1 2678   0.055   3.534   0.689  0.2836 -0.0673 -1.0485
  172MPD1    H2 2679   0.371   3.685   0.901 -0.1911 -0.9263 -0.1235
  172MPD1    H3 2680   0.255   3.504   0.817 -1.4700 -0.4772  0.6092
  172MPD1     N 2681   4.672   3.761   0.629  0.4178  0.9144 -0.7627
  172MPD1    H5 2682   4.648   3.698   0.553  0.0680  2.1492 -1.6876
  172MPD1    N1 2683   0.305   3.954   0.859 -0.0667  0.3215 -0.1197
  172MPD1    H6 2684   0.404   3.933   0.850  0.1781  1.0041  1.0114
  172MPD1    H7 2685   0.282   4.038   0.806  1.0147  0.4484 -0.3787
  173MPD1     C 2686   0.835   4.272  14.110 -0.5534  0.0011 -0.1086
  173MPD1    C1 2687   0.880   4.152  14.057 -0.4775 -0.0458 -0.1228
  173MPD1    C2 2688   0.824   4.033  14.104 -0.9710 -0.0448  0.4638
  173MPD1    C3 2689   0.706   4.039  14.182  0.3653 -0.3191 -0.3165
  173MPD1    C4 2690   0.653   4.162  14.217 -0.2201 -0.2991 -0.0579
  173MPD1    C5 2691   0.717   4.274  14.187 -0.7269  0.2522 -0.5418
  173MPD1     H 2692   0.866   3.937  14.076 -1.8606 -1.1563  2.9749
  173MPD1    H1 2693   0.561   4.165  14.274  0.8300 -1.0298  1.6979
  173MPD1    H2 2694   0.883   4.365  14.081  1.7639 -0.6152  1.8240
  173MPD1    H3 2695   0.669   4.365  14.218 -3.3495 -0.5318 -2.3064
  173MPD1     N 2696   0.640   3.925  14.232  0.2196  0.0273  0.2011
  173MPD1    H5 2697   0.682   3.835  14.210  1.3280  0.2434  1.4624
  173MPD1    N1 2698   1.008   4.149  14.007  0.3369 -0.4216  0.1008
  173MPD1    H6 2699   1.018   4.059  13.960 -1.2986 -0.9202  0.7223
  173MPD1    H7 2700   1.022   4.230  13.946 -0.9290  0.3542  0.8503
  174MPD1     C 2701   1.162   3.468  14.691  0.6492 -0.1810  0.1249
  174MPD1    C1 2702   1.044   3.450  14.760 -0.6755 -0.3766  0.6114
  174MPD1    C2 2703   0.926   3.466  14.691  0.0200  0.4396 -0.9496
  174MPD1    C3 2704   0.925   3.511  14.555  0.0359  0.8430 -0.2018
  174MPD1    C4 2705   1.042   3.530  14.486 -0.4609  0.0585  0.0341
  174MPD1    C5 2706   1.156   3.507  14.558 -0.2940 -0.5127  1.0302
  174MPD1     H 2707   0.834   3.441  14.743 -0.2735  3.9891  0.2127
  174MPD1    H1 2708   1.050   3.563  14.383 -1.2968 -1.0035 -0.3674
  174MPD1    H2 2709   1.260   3.470  14.738  1.9867 -1.0081 -2.6282
  174MPD1    H3 2710   1.241   3.542  14.502 -0.1891 -1.7720  0.3941
  174MPD1     N 2711   0.804   3.536  14.482  0.4588 -0.7402 -0.5998
  174MPD1    H5 2712   0.816   3.568  14.386  3.6392  1.1115  0.4388
  174MPD1    N1 2713   1.041   3.420  14.896  0.7718  0.0671 -0.2206
  174MPD1    H6 2714   0.977   3.346  14.926  0.1889  0.9955  0.8354
  174MPD1    H7 2715   1.136   3.401  14.926 -0.3017 -2.1571  1.8278
  175MPD1     C 2716   3.660   4.500  15.696  0.2067 -0.4106 -0.2478
  175MPD1    C1 2717   3.772   4.502  15.774  0.0504 -0.2039  0.0036
  175MPD1    C2 2718   3.760   4.469  15.911  0.4288 -0.0258  0.1069
  175MPD1    C3 2719   3.629   4.450  15.969 -0.1860 -0.0349 -0.4593
  175MPD1    C4 2720   3.519   4.449  15.882  0.4815 -0.5233 -0.3167
  175MPD1    C5 2721   3.540   4.467  15.746 -0.4345 -0.6948 -0.1060
  175MPD1     H 2722   3.848   4.441  15.968  0.1099 -2.5551 -0.6615
  175MPD1    H1 2723   3.418   4.445  15.922  1.3957  0.8854  2.1843
  175MPD1    H2 2724   3.667   4.514  15.588  4.0099 -1.7009 -0.1862
  175MPD1    H3 2725   3.450   4.461  15.686  0.5347 -0.4472 -1.5667
  175MPD1     N 2726   3.610   4.448  16.105 -0.5049 -0.0839  0.4692
  175MPD1    H5 2727   3.516   4.428  16.138 -0.3495 -2.7139 -0.6685
  175MPD1    N1 2728   3.900   4.524  15.717  0.3128 -0.0692 -0.1770
  175MPD1    H6 2729   3.971   4.564  15.777  0.9079 -0.7666 -0.4065
  175MPD1    H7 2730   3.891   4.588  15.639  0.5456 -0.0390 -0.1800
  176MPD1     C 2731   0.177   1.642  17.559 -0.9461  0.8961  0.3199
  176MPD1    C1 2732   0.164   1.580  17.436  0.1469 -0.0002  0.2984
  176MPD1    C2 2733   0.073   1.641  17.353  0.4300 -0.5343 -0.3229
  176MPD1    C3 2734   4.730   1.749  17.392  0.5324 -0.3225  0.0399
  176MPD1    C4 2735   0.007   1.799  17.520  0.8664  0.5683 -0.6533
  176MPD1    C5 2736   0.099   1.743  17.601 -0.4787  0.6020 -1.2683
  176MPD1     H 2737   0.055   1.602  17.254 -2.1805 -0.4860  0.1278
  176MPD1    H1 2738   4.685   1.885  17.550 -1.9816 -1.1851 -1.2092
  176MPD1    H2 2739   0.249   1.610  17.633  1.4219  1.6128 -1.6643
  176MPD1    H3 2740   0.118   1.773  17.704 -1.4270 -1.8533 -0.3776
  176MPD1     N 2741   4.651   1.810  17.295 -0.5562 -0.4831 -0.5232
  176MPD1    H5 2742   4.662   1.782  17.198 -1.7032 -0.7887 -0.5671
  176MPD1    N1 2743   0.257   1.482  17.392  0.3077  0.0956  0.0885
  176MPD1    H6 2744   0.294   1.418  17.463  0.1559 -0.4496 -0.3198
  176MPD1    H7 2745   0.234   1.425  17.311 -0.9318  0.7095  0.0083
  177MPD1     C 2746   2.836   2.496  10.128 -0.7824 -0.6028  0.9612
  177MPD1    C1 2747   2.774   2.380  10.107 -0.4532  0.2329  0.6871
  177MPD1    C2 2748   2.724   2.352   9.983 -0.4059 -0.4996 -0.0968
  177MPD1    C3 2749   2.746   2.429   9.874  0.1107  0.9480 -0.0616
  177MPD1    C4 2750   2.825   2.544   9.890 -0.2400  0.2638 -0.4734
  177MPD1    C5 2751   2.860   2.575  10.019 -0.0189  0.5814  0.5812
  177MPD1     H 2752   2.680   2.254   9.968  1.1311 -1.1842 -0.1583
  177MPD1    H1 2753   2.859   2.608   9.809 -0.2792  0.4368 -0.3529
  177MPD1    H2 2754   2.872   2.531  10.224  2.9684  1.4786 -1.2298
  177MPD1    H3 2755   2.918   2.665  10.035 -0.8186  0.8842  1.8240
  177MPD1     N 2756   2.692   2.388   9.752 -0.0151  0.2829  0.0429
  177MPD1    H5 2757   2.656   2.293   9.758  0.7088 -0.0490 -0.9193
  177MPD1    N1 2758   2.743   2.291  10.209 -0.0038 -0.3944  0.3225
  177MPD1    H6 2759   2.711   2.197  10.188  1.0722 -0.8124  0.5810
  177MPD1    H7 2760   2.809   2.293  10.286  0.2485  1.9022  0.0650
  178MPD1     C 2761   0.954   3.502  17.704  0.0823 -0.8403 -0.0278
  178MPD1    C1 2762   0.870   3.417  17.633 -0.6839 -0.6896 -0.4253
  178MPD1    C2 2763   0.930   3.314  17.562 -1.0172 -0.1018  0.1385
  178MPD1    C3 2764   1.068   3.307  17.549 -0.2955 -0.5514 -0.0268
  178MPD1    C4 2765   1.150   3.406  17.606  0.0014  0.1505  0.1501
  178MPD1    C5 2766   1.087   3.500  17.687 -0.0193 -0.5950 -0.3468
  178MPD1     H 2767   0.863   3.250  17.506  0.2502  0.2218 -1.7300
  178MPD1    H1 2768   1.258   3.412  17.601  0.0251 -0.5860 -0.2844
  178MPD1    H2 2769   0.918   3.570   0.032  0.6292 -0.7429  0.1441
  178MPD1    H3 2770   1.153   3.565  17.744 -2.4666  0.3520  1.3895
  178MPD1     N 2771   1.135   3.208  17.471 -0.3409 -0.0737 -0.0006
  178MPD1    H5 2772   1.234   3.224  17.453  0.4898 -3.2980  1.6173
  178MPD1    N1 2773   0.737   3.420  17.657  0.2805 -0.2595 -0.5475
  178MPD1    H6 2774   0.702   3.516  17.658  2.8533  0.6831 -0.7655
  178MPD1    H7 2775   0.690   3.380  17.576  0.4468  1.7407 -1.6159
  179MPD1     C 2776   1.181   1.139  16.160 -0.6087  0.1070 -0.6040
  179MPD1    C1 2777   1.093   1.077  16.250  0.3262  0.3471  0.5770
  179MPD1    C2 2778   1.032   0.970  16.194  0.0120  1.1775  0.4972
  179MPD1    C3 2779   1.051   0.933  16.057 -0.1066 -0.2303 -0.4867
  179MPD1    C4 2780   1.123   1.010  15.965  0.2571 -0.4809 -0.5065
  179MPD1    C5 2781   1.180   1.116  16.024 -0.9295  0.3872  0.0768
  179MPD1     H 2782   0.960   0.915  16.254  4.7613 -3.9875  1.4678
  179MPD1    H1 2783   1.133   0.987  15.859 -1.0535  0.0572 -0.7521
  179MPD1    H2 2784   1.236   1.225  16.196  1.3050 -1.3713  0.0179
  179MPD1    H3 2785   1.242   1.178  15.960 -1.1919  0.3607 -0.2024
  179MPD1     N 2786   0.980   0.815  16.007  0.2841 -0.2037 -0.3948
  179MPD1    H5 2787   0.975   0.809  15.906 -2.4301  1.8146 -0.3705
  179MPD1    N1 2788   1.077   1.112  16.385  0.0962  0.1319 -0.7185
  179MPD1    H6 2789   1.108   1.209  16.389 -0.2754  0.1232  2.0989
  179MPD1    H7 2790   0.981   1.100  16.418 -0.1119 -1.2823 -1.8079
  180MPD1     C 2791   0.459   2.122  15.769 -0.1024 -0.0160  0.6435
  180MPD1    C1 2792   0.561   2.129  15.672  0.1287 -0.1378  0.2091
  180MPD1    C2 2793   0.541   2.070  15.550 -0.1971  0.1901  0.4825
  180MPD1    C3 2794   0.419   2.006  15.523  0.0300 -0.0850 -0.4650
  180MPD1    C4 2795   0.325   2.004  15.621  0.2065 -0.2312  0.3087
  180MPD1    C5 2796   0.342   2.057  15.745 -0.2116  0.0337  0.2078
  180MPD1     H 2797   0.602   2.095  15.464 -1.5987  0.0935 -0.5497
  180MPD1    H1 2798   0.228   1.958  15.607  0.5239 -0.6443 -0.5317
  180MPD1    H2 2799   0.469   2.152  15.873 -0.2762 -1.1745  0.9883
  180MPD1    H3 2800   0.268   2.053  15.824  0.5048 -0.3793  0.8492
  180MPD1     N 2801   0.403   1.955  15.388  0.0248  0.4956  0.2301
  180MPD1    H5 2802   0.482   1.966  15.325  0.1892  1.4445  0.6002
  180MPD1    N1 2803   0.667   2.211  15.693  0.1137  0.7026  0.4031
  180MPD1    H6 2804   0.754   2.183  15.648 -0.8652 -1.2392 -0.2961
  180MPD1    H7 2805   0.687   2.224  15.792 -1.3832 -0.9342  0.9284
  181MPD1     C 2806   1.423   0.266   9.729  0.1287 -0.6044 -0.0647
  181MPD1    C1 2807   1.450   0.363   9.819 -0.5888 -0.6373 -0.5624
  181MPD1    C2 2808   1.583   0.389   9.860 -0.0289  0.3436 -0.2683
  181MPD1    C3 2809   1.680   0.298   9.831 -0.0479  0.1049 -0.4800
  181MPD1    C4 2810   1.651   0.191   9.745 -0.5596 -0.5296 -0.4325
  181MPD1    C5 2811   1.528   0.176   9.696  0.4051  0.1574 -0.1952
  181MPD1     H 2812   1.604   0.474   9.924  0.0941  0.0747  0.0463
  181MPD1    H1 2813   1.723   0.120   9.706  1.8671  1.8834 -0.2631
  181MPD1    H2 2814   1.323   0.242   9.695  0.5772  0.2173 -1.9355
  181MPD1    H3 2815   1.504   0.099   9.623  2.1114 -0.5426 -0.0055
  181MPD1     N 2816   1.820   0.312   9.882  0.1902 -0.5134 -0.1391
  181MPD1    H5 2817   1.895   0.245   9.867 -0.5846 -1.1713 -1.0345
  181MPD1    N1 2818   1.351   0.445   9.867 -0.5470  0.3329 -0.1572
  181MPD1    H6 2819   1.368   0.485   9.959  0.0250  1.8249 -0.9131
  181MPD1    H7 2820   1.257   0.407   9.856  0.9927 -2.1642 -4.6903
  182MPD1     C 2821   3.903   3.222   1.818  0.1911  0.6047 -0.3191
  182MPD1    C1 2822   3.858   3.311   1.914  0.0527  0.0970 -0.1466
  182MPD1    C2 2823   3.742   3.378   1.888  1.1376  0.2236 -0.1105
  182MPD1    C3 2824   3.666   3.342   1.775  0.1404 -0.5022 -0.8979
  182MPD1    C4 2825   3.710   3.234   1.691 -0.1507  0.6472  0.2878
  182MPD1    C5 2826   3.833   3.178   1.715  0.1782 -0.2886  0.1440
  182MPD1     H 2827   3.719   3.465   1.948  2.3104  0.2111  0.3552
  182MPD1    H1 2828   3.650   3.200   1.607  1.9387  0.5500 -1.1579
  182MPD1    H2 2829   4.004   3.182   1.821  0.7390  1.7290 -3.6325
  182MPD1    H3 2830   3.865   3.105   1.642  0.8843 -0.3313  0.4984
  182MPD1     N 2831   3.553   3.416   1.727  0.6378  0.7360 -0.4155
  182MPD1    H5 2832   3.531   3.386   1.632  0.2872 -1.1194  0.2459
  182MPD1    N1 2833   3.956   3.349   2.008 -0.2682  0.6152 -0.2228
  182MPD1    H6 2834   3.912   3.392   2.089  0.5052 -0.0202  0.5358
  182MPD1    H7 2835   4.003   3.267   2.046 -2.3951  1.1354  3.5269
  183MPD1     C 2836   2.896   3.919   9.008  0.0454  0.2094  0.0952
  183MPD1    C1 2837   2.972   4.026   9.065  0.1636 -0.4844  0.5947
  183MPD1    C2 2838   2.900   4.119   9.152  0.1504  0.2185  0.5929
  183MPD1    C3 2839   2.767   4.110   9.168  0.0427 -0.6094 -0.5913
  183MPD1    C4 2840   2.691   4.013   9.103 -0.0149 -0.2921 -0.2904
  183MPD1    C5 2841   2.763   3.915   9.040  0.2826  0.3039  0.9096
  183MPD1     H 2842   2.957   4.187   9.214 -1.6051 -0.4097  2.8750
  183MPD1    H1 2843   2.585   3.994   9.110 -0.2207 -0.0005 -2.4909
  183MPD1    H2 2844   2.943   3.845   8.945  3.2602  2.4315 -0.1725
  183MPD1    H3 2845   2.700   3.834   9.006  0.1099  1.4919 -1.6491
  183MPD1     N 2846   2.708   4.200   9.262 -0.1891 -0.4553  0.9274
  183MPD1    H5 2847   2.765   4.259   9.321  0.4726  1.2127 -1.3821
  183MPD1    N1 2848   3.113   4.025   9.056 -0.3219  0.7344  0.6736
  183MPD1    H6 2849   3.154   3.985   8.972  0.2372  1.3906  0.6235
  183MPD1    H7 2850   3.150   4.120   9.065 -0.3946  0.9086 -1.0212
  184MPD1     C 2851   2.473   1.964  10.775  0.4608  0.5244  0.2590
  184MPD1    C1 2852   2.579   2.032  10.722 -0.0011 -0.4613  0.2456
  184MPD1    C2 2853   2.544   2.122  10.621 -0.2656  0.2670 -0.0811
  184MPD1    C3 2854   2.420   2.170  10.605 -0.2321 -0.5082  0.0496
  184MPD1    C4 2855   2.315   2.100  10.662 -0.7272  0.5075  0.1403
  184MPD1    C5 2856   2.342   1.994  10.741  0.2333 -0.4130 -0.1512
  184MPD1     H 2857   2.628   2.165  10.567 -0.4173  0.7635  0.0804
  184MPD1    H1 2858   2.211   2.122  10.641 -1.2316 -1.5586  0.4615
  184MPD1    H2 2859   2.488   1.886  10.848  1.3712  1.5926  1.2038
  184MPD1    H3 2860   2.263   1.936  10.788 -0.7509  0.4194 -0.7948
  184MPD1     N 2861   2.396   2.281  10.519  0.4647  0.3576 -0.5282
  184MPD1    H5 2862   2.304   2.283  10.477  0.1116 -1.6175  0.1906
  184MPD1    N1 2863   2.715   1.984  10.735 -0.4803  0.1041 -0.0907
  184MPD1    H6 2864   2.732   1.951  10.829  0.5054  0.9886  0.0331
  184MPD1    H7 2865   2.780   2.062  10.724 -0.8040  0.3951  0.0507
  185MPD1     C 2866   2.180   2.466   9.551  0.0815 -0.1010  0.4194
  185MPD1    C1 2867   2.187   2.355   9.631 -0.0675  0.1166 -0.3977
  185MPD1    C2 2868   2.240   2.373   9.761  0.1866  0.1506 -0.0024
  185MPD1    C3 2869   2.294   2.494   9.803  0.5700 -0.3703 -0.2026
  185MPD1    C4 2870   2.293   2.600   9.714  0.2387  0.1551  0.2400
  185MPD1    C5 2871   2.228   2.588   9.594  0.0266 -0.3786 -0.0603
  185MPD1     H 2872   2.238   2.294   9.835 -1.7889 -1.3634 -1.6629
  185MPD1    H1 2873   2.339   2.694   9.741  2.9761 -1.6362  1.8036
  185MPD1    H2 2874   2.131   2.453   9.455  1.3090  2.4702 -0.5745
  185MPD1    H3 2875   2.221   2.676   9.531  0.5634  0.3521  0.8981
  185MPD1     N 2876   2.365   2.514   9.922  0.0286  0.0923 -0.5804
  185MPD1    H5 2877   2.401   2.606   9.944 -0.8953  0.2967  0.1070
  185MPD1    N1 2878   2.155   2.229   9.578  0.2388  0.8020  0.5122
  185MPD1    H6 2879   2.085   2.248   9.507 -0.7393  0.9739  1.5324
  185MPD1    H7 2880   2.110   2.171   9.648  0.4355 -0.1439 -0.1418
  186MPD1     C 2881   1.504   0.651  16.211  0.1246  0.0031 -0.1674
  186MPD1    C1 2882   1.588   0.760  16.180  0.9442 -0.1561 -1.4311
  186MPD1    C2 2883   1.550   0.882  16.230 -0.3419 -0.3432 -0.3646
  186MPD1    C3 2884   1.439   0.897  16.319  0.4334 -0.1913  0.0404
  186MPD1    C4 2885   1.360   0.788  16.342  0.0887  0.5874 -0.1212
  186MPD1    C5 2886   1.391   0.668  16.288  0.5558  0.0962 -0.1831
  186MPD1     H 2887   1.621   0.960  16.207  1.7946 -2.6077 -1.5331
  186MPD1    H1 2888   1.272   0.795  16.405 -0.2345  0.7732 -0.5924
  186MPD1    H2 2889   1.514   0.554  16.166  1.9906  0.3302 -0.4501
  186MPD1    H3 2890   1.335   0.579  16.314  0.8480 -0.6123 -1.9730
  186MPD1     N 2891   1.411   1.017  16.394 -0.2775 -0.5076  0.6190
  186MPD1    H5 2892   1.328   1.015  16.453 -1.2651  1.1741 -0.6970
  186MPD1    N1 2893   1.693   0.745  16.090  0.0314  0.4375 -0.1913
  186MPD1    H6 2894   1.732   0.651  16.093  0.2209  0.5918  2.7841
  186MPD1    H7 2895   1.772   0.809  16.087 -0.2978  0.9277  1.5719
  187MPD1     C 2896   4.553   3.838  17.571 -0.3281  0.2992  0.0174
  187MPD1    C1 2897   4.662   3.855  17.492  0.5851  1.1404 -0.0431
  187MPD1    C2 2898   4.727   3.737  17.457  0.2916  0.6004 -0.1832
  187MPD1    C3 2899   4.697   3.613  17.518 -0.6129 -0.1293  1.1172
  187MPD1    C4 2900   4.586   3.605  17.587  0.0287 -0.0432 -0.3308
  187MPD1    C5 2901   4.509   3.716  17.623  0.6075 -0.4243 -0.6310
  187MPD1     H 2902   0.071   3.756  17.388 -0.7509  0.3302 -1.4751
  187MPD1    H1 2903   4.556   3.516  17.642 -1.7891  0.6205 -0.2506
  187MPD1    H2 2904   4.480   3.914  17.596  1.2219  1.4642  0.9540
  187MPD1    H3 2905   4.419   3.717  17.682  0.6397  1.6786 -0.6145
  187MPD1     N 2906   0.030   3.495  17.495  0.2906  0.1834  0.1775
  187MPD1    H5 2907   4.731   3.406  17.529 -3.8615  1.8575  0.0846
  187MPD1    N1 2908   4.673   3.973  17.420  0.3153 -0.2783  0.2036
  187MPD1    H6 2909   0.033   3.990  17.397  0.5513 -0.6593  0.9222
  187MPD1    H7 2910   4.633   4.055  17.465  0.4466 -0.3806  0.5048
  188MPD1     C 2911   0.102   4.086  10.505  0.2643 -0.2898 -0.7268
  188MPD1    C1 2912   0.186   3.998  10.567  0.8191 -0.6581 -0.1791
  188MPD1    C2 2913   0.177   3.865  10.537  0.2641  0.1045  0.7708
  188MPD1    C3 2914   0.082   3.820  10.443  0.2609  0.2340 -0.3362
  188MPD1    C4 2915   0.018   3.917  10.364  0.1894  0.5673  0.2091
  188MPD1    C5 2916   0.017   4.047  10.410  0.1328  0.1227  0.5613
  188MPD1     H 2917   0.237   3.796  10.595  1.0810 -0.7202 -1.0679
  188MPD1    H1 2918   4.684   3.888  10.288  0.1942 -1.9068  1.1337
  188MPD1    H2 2919   0.088   4.189  10.536 -1.4412 -1.6715  3.2258
  188MPD1    H3 2920   4.700   4.118  10.350  2.0332 -0.2757 -1.6353
  188MPD1     N 2921   0.053   3.685  10.415 -0.3562  0.5977  0.5073
  188MPD1    H5 2922   4.718   3.664  10.347 -2.3200  1.9149  2.1880
  188MPD1    N1 2923   0.267   4.049  10.667  0.5001  0.8823  0.2642
  188MPD1    H6 2924   0.295   4.145  10.649 -0.8878  0.5203 -3.9280
  188MPD1    H7 2925   0.352   3.992  10.672 -0.6781 -0.7346  2.0301
  189MPD1     C 2926   2.664   4.020   0.569 -0.0874 -0.8496 -0.0876
  189MPD1    C1 2927   2.623   3.983   0.443 -0.5777 -0.1941 -0.0654
  189MPD1    C2 2928   2.512   4.031   0.389 -0.3305  0.2714 -0.1150
  189MPD1    C3 2929   2.439   4.131   0.454  0.2526 -0.0147 -0.4684
  189MPD1    C4 2930   2.477   4.171   0.578  0.0423 -0.2611 -0.1029
  189MPD1    C5 2931   2.588   4.113   0.636 -0.9742 -0.4143  0.4935
  189MPD1     H 2932   2.479   3.992   0.293 -2.9346  0.7866  0.5904
  189MPD1    H1 2933   2.429   4.250   0.634 -0.8826 -1.4017  0.7066
  189MPD1    H2 2934   2.754   3.986   0.619  0.5540  0.4514 -0.3541
  189MPD1    H3 2935   2.622   4.138   0.736  3.7768  0.7533 -1.3745
  189MPD1     N 2936   2.332   4.186   0.379 -0.6738 -0.3916 -0.1110
  189MPD1    H5 2937   2.316   4.151   0.286  0.8489  2.1824 -1.3387
  189MPD1    N1 2938   2.691   3.874   0.387  0.1271 -0.3080  0.0191
  189MPD1    H6 2939   2.679   3.861   0.287  0.7633 -0.6409 -0.0164
  189MPD1    H7 2940   2.788   3.866   0.417 -0.4158  1.0108  2.1165
  190MPD1     C 2941   0.809   2.056  15.141 -0.3934  0.5855 -0.3442
  190MPD1    C1 2942   0.903   2.151  15.103  0.4857  0.6668  0.4387
  190MPD1    C2 2943   0.965   2.218  15.206 -0.1854  0.4766 -0.5217
  190MPD1    C3 2944   0.946   2.189  15.339  0.0775 -0.4475  0.3706
  190MPD1    C4 2945   0.852   2.101  15.377 -0.5689  0.2235 -0.0454
  190MPD1    C5 2946   0.783   2.031  15.274  0.2434  0.3972  0.2530
  190MPD1     H 2947   1.025   2.304  15.180  0.2121  0.1968 -0.5409
  190MPD1    H1 2948   0.821   2.068  15.476 -2.9019  2.1575 -0.1267
  190MPD1    H2 2949   0.751   2.002  15.067 -1.6712  1.7975 -0.2403
  190MPD1    H3 2950   0.711   1.954  15.300  0.1976  0.4062  0.1544
  190MPD1     N 2951   1.018   2.270  15.429 -0.4180  0.3290 -0.0465
  190MPD1    H5 2952   1.062   2.355  15.394  0.3071 -0.2496 -0.5277
  190MPD1    N1 2953   0.907   2.200  14.968 -0.0482  0.3134  0.0509
  190MPD1    H6 2954   0.987   2.257  14.942  0.6233 -1.8137 -2.4836
  190MPD1    H7 2955   0.892   2.122  14.904  3.0529  0.1988 -0.5080
  191MPD1     C 2956   0.076   4.276  13.205  0.5333  0.0240 -0.4406
  191MPD1    C1 2957   4.733   4.381  13.163  0.1316  0.3052 -0.5798
  191MPD1    C2 2958   0.052   4.464  13.069 -0.2801 -0.0066 -0.2871
  191MPD1    C3 2959   0.175   4.438  13.009 -0.7736  0.3911 -0.4400
  191MPD1    C4 2960   0.254   4.326  13.052 -0.6237  0.7874  0.6551
  191MPD1    C5 2961   0.204   4.249  13.150 -0.1926  0.6222 -0.3145
  191MPD1     H 2962   4.737   4.553  13.035 -2.1621 -1.2801 -0.7472
  191MPD1    H1 2963   0.351   4.305  13.008 -1.5530 -1.0127 -0.5211
  191MPD1    H2 2964   0.052   4.214  13.291  1.0033 -0.1816 -0.4596
  191MPD1    H3 2965   0.260   4.161  13.177 -0.8111  0.4860  0.5327
  191MPD1     N 2966   0.213   4.526  12.905 -0.0512  0.5032  0.2300
  191MPD1    H5 2967   0.163   4.613  12.893  1.3796  1.3188  0.2669
  191MPD1    N1 2968   4.614   4.410  13.232 -0.5987 -0.3548  0.1816
  191MPD1    H6 2969   4.574   4.335  13.288 -0.9149 -0.3865 -0.0902
  191MPD1    H7 2970   4.546   4.469  13.185  0.9516  1.4812  0.2441
  192MPD1     C 2971   4.504   0.331  12.485 -0.4806  0.4755 -0.7642
  192MPD1    C1 2972   4.529   0.233  12.392  0.5742  0.6323  0.3936
  192MPD1    C2 2973   4.644   0.159  12.400 -0.1793  0.1657  0.0506
  192MPD1    C3 2974   4.737   0.181  12.502 -0.2259 -0.6278  0.0289
  192MPD1    C4 2975   4.714   0.279  12.593  0.0215  0.7354  0.0128
  192MPD1    C5 2976   4.594   0.346  12.587 -0.1275  0.0904  0.4808
  192MPD1     H 2977   4.662   0.082  12.325 -1.6951 -1.4901  1.3801
  192MPD1    H1 2978   0.041   0.291  12.680  0.2740  1.4800 -0.2763
  192MPD1    H2 2979   4.420   0.398  12.468  0.5346  1.6082 -1.3567
  192MPD1    H3 2980   4.583   0.415  12.671 -1.5722  0.9806 -0.4263
  192MPD1     N 2981   0.114   0.106  12.533 -0.3998  0.2631 -0.0593
  192MPD1    H5 2982   0.173   0.135  12.611 -3.5319  0.1495  2.3736
  192MPD1    N1 2983   4.456   0.225  12.277  0.0147  0.1543  0.7197
  192MPD1    H6 2984   4.438   0.127  12.255  1.4002 -0.1350  0.8526
  192MPD1    H7 2985   4.373   0.283  12.288 -1.6507 -2.5949  2.6463
  193MPD1     C 2986   0.519   4.114  17.599 -0.5116 -0.0747  0.6842
  193MPD1    C1 2987   0.435   4.219  17.616 -0.7832  0.1161  0.5349
  193MPD1    C2 2988   0.387   4.282  17.499 -0.1477 -0.8719 -0.3983
  193MPD1    C3 2989   0.433   4.243  17.372 -0.5983 -0.1677 -0.2167
  193MPD1    C4 2990   0.516   4.131  17.358 -1.3315  0.7028  0.1800
  193MPD1    C5 2991   0.558   4.069  17.474 -0.5817 -0.9509  0.5571
  193MPD1     H 2992   0.321   4.368  17.509 -0.0095 -0.9595  1.1233
  193MPD1    H1 2993   0.567   4.099  17.268 -2.6773 -2.8574  0.6951
  193MPD1    H2 2994   0.559   4.070  17.690  0.5044  0.9563  0.7343
  193MPD1    H3 2995   0.630   3.988  17.464  0.0571 -0.4953  1.4770
  193MPD1     N 2996   0.407   4.308  17.250  0.8839  0.1668  0.1724
  193MPD1    H5 2997   0.438   4.269  17.162 -0.7621 -1.4416  0.3103
  193MPD1    N1 2998   0.383   4.251  17.743 -0.2285 -0.4183 -0.4094
  193MPD1    H6 2999   0.349   4.347  17.747 -1.9945 -1.0499 -0.1913
  193MPD1    H7 3000   0.444   4.232   0.073 -0.7897  2.6458  0.7770
  194MPD1     C 3001   3.319   1.745  16.661  0.1467  0.5199  0.5212
  194MPD1    C1 3002   3.214   1.784  16.738  0.3415 -0.3893 -0.2303
  194MPD1    C2 3003   3.190   1.733  16.863 -0.1841 -0.4719 -0.0252
  194MPD1    C3 3004   3.285   1.656  16.928 -0.0650  0.0651  0.5445
  194MPD1    C4 3005   3.388   1.614  16.849 -0.4578  0.0125  0.4929
  194MPD1    C5 3006   3.411   1.656  16.719  0.7884 -0.2838  0.1388
  194MPD1     H 3007   3.102   1.773  16.912 -0.0240  0.7055 -0.7249
  194MPD1    H1 3008   3.463   1.549  16.893 -2.8362 -0.9457  3.0568
  194MPD1    H2 3009   3.334   1.782  16.560  1.0138 -1.3145 -0.0209
  194MPD1    H3 3010   3.499   1.635  16.658 -1.6091 -1.8220 -2.7824
  194MPD1     N 3011   3.276   1.611  17.065  0.2501  0.6787 -0.6416
  194MPD1    H5 3012   3.342   1.539  17.093 -0.7908  0.5638  1.5595
  194MPD1    N1 3013   3.151   1.897  16.691  0.3114  0.0742 -0.4620
  194MPD1    H6 3014   3.174   1.916  16.594  0.2806  1.6579 -0.1554
  194MPD1    H7 3015   3.051   1.889  16.710  0.7801 -4.2742  0.2881
  195MPD1     C 3016   0.348   3.576   0.075 -0.2074  0.8740  0.5359
  195MPD1    C1 3017   0.204   3.579   0.060  0.3111 -0.0153 -0.5038
  195MPD1    C2 3018   0.144   3.453   0.052 -0.1900 -0.4308 -0.5336
  195MPD1    C3 3019   0.217   3.337   0.050  0.7091  0.8395  0.2873
  195MPD1    C4 3020   0.354   3.333   0.071  0.0052 -0.4226  0.0315
  195MPD1    C5 3021   0.418   3.455   0.072  0.5067 -0.5941  0.1716
  195MPD1     H 3022   0.036   3.453   0.061 -0.2462  2.4922 -1.1919
  195MPD1    H1 3023   0.418   3.246   0.082  0.0873 -0.6347 -2.2534
  195MPD1    H2 3024   0.412   3.663   0.082  0.7899  0.3595 -2.1500
  195MPD1    H3 3025   0.526   3.451   0.078  0.7064  3.8698 -0.0631
  195MPD1     N 3026   0.160   3.212   0.013 -0.1441 -0.0841 -0.3716
  195MPD1    H5 3027   0.220   3.134   0.038  0.4493  1.4430  3.0914
  195MPD1    N1 3028   0.138   3.693   0.069  0.2713 -0.3765 -0.4057
  195MPD1    H6 3029   0.191   3.765   0.021  1.5749 -0.8918  0.2551
  195MPD1    H7 3030   0.044   3.685   0.030  0.5473 -2.7764 -0.5999
  196MPD1     C 3031   3.701   2.521   0.331 -0.1545  0.1731 -0.5212
  196MPD1    C1 3032   3.815   2.592   0.347  0.4043 -0.0178 -0.0165
  196MPD1    C2 3033   3.856   2.618   0.474  0.6329  0.2428  0.4868
  196MPD1    C3 3034   3.784   2.590   0.586  0.0910  0.5508  0.5011
  196MPD1    C4 3035   3.667   2.527   0.565  1.0427 -0.0917  0.2108
  196MPD1    C5 3036   3.618   2.502   0.438 -0.5321 -0.1591 -0.7961
  196MPD1     H 3037   3.954   2.665   0.478 -0.1559  1.9408 -0.4825
  196MPD1    H1 3038   3.601   2.512   0.649 -0.6071  0.4938 -0.9776
  196MPD1    H2 3039   3.661   2.497   0.233 -0.2041 -0.4593 -0.3452
  196MPD1    H3 3040   3.517   2.466   0.423 -0.5057  0.5704 -2.7379
  196MPD1     N 3041   3.811   2.624   0.721  0.1983  0.0733 -0.7539
  196MPD1    H5 3042   3.731   2.619   0.783  0.3110  1.2792 -0.4953
  196MPD1    N1 3043   3.909   2.602   0.239 -0.1300  0.1353 -0.7511
  196MPD1    H6 3044   3.977   2.677   0.252  0.8229 -1.3499  2.6077
  196MPD1    H7 3045   3.859   2.627   0.154 -1.8648  1.1421  0.5832
  197MPD1     C 3046   3.908   4.525   0.170  0.0324  0.5673  0.0010
  197MPD1    C1 3047   3.937   4.660   0.180  0.0786 -0.2173 -0.2336
  197MPD1    C2 3048   3.865   0.008   0.099  0.3834 -0.0239  0.1285
  197MPD1    C3 3049   3.789   4.696  17.741 -0.2896 -0.2217  0.4666
  197MPD1    C4 3050   3.772   4.567  17.729 -0.0861 -0.1407 -0.3007
  197MPD1    C5 3051   3.835   4.480   0.066 -0.2016  0.3929  0.7571
  197MPD1     H 3052   3.867   0.113   0.124  0.7550 -0.6624  2.7313
  197MPD1    H1 3053   3.721   4.537  17.638  1.0880 -1.5698 -0.4958
  197MPD1    H2 3054   3.961   4.459   0.238 -0.6838  1.5965  1.5302
  197MPD1    H3 3055   3.818   4.374   0.050 -1.0676  0.4927  1.0014
  197MPD1     N 3056   3.725   0.041  17.649  0.1008 -0.0886  0.2859
  197MPD1    H5 3057   3.679   4.729  17.573  0.0716 -0.2450  0.4072
  197MPD1    N1 3058   4.020   4.703   0.278  0.5951 -0.1967 -0.2954
  197MPD1    H6 3059   4.064   0.057   0.279  0.2263 -0.0262  0.3223
  197MPD1    H7 3060   4.070   4.626   0.321 -0.5245  0.5870  2.4455
  198MPD1     C 3061   1.372   3.121  15.346  0.3638 -0.4704 -0.3163
  198MPD1    C1 3062   1.249   3.165  15.308  0.2001  0.6407 -0.1438
  198MPD1    C2 3063   1.147   3.158  15.406  0.3595  0.2709  0.7411
  198MPD1    C3 3064   1.173   3.117  15.535 -0.0260  0.3557 -0.6445
  198MPD1    C4 3065   1.299   3.076  15.569  0.9689 -0.3959 -0.0508
  198MPD1    C5 3066   1.395   3.083  15.468 -0.2334  0.1283 -0.3005
  198MPD1     H 3067   1.046   3.193  15.387  0.4224 -0.0651 -0.1803
  198MPD1    H1 3068   1.335   3.060  15.670 -1.4401 -2.0177  0.5533
  198MPD1    H2 3069   1.463   3.121  15.288  1.9292 -0.5666  2.1476
  198MPD1    H3 3070   1.497   3.073  15.503 -1.0895 -0.2778  2.1307
  198MPD1     N 3071   1.062   3.112  15.625  0.6699  0.7029  0.0549
  198MPD1    H5 3072   0.974   3.139  15.584  0.9175  0.5866 -0.5549
  198MPD1    N1 3073   1.222   3.207  15.176 -0.2664 -0.1355 -0.0079
  198MPD1    H6 3074   1.137   3.262  15.171  0.1953  0.7014  1.3347
  198MPD1    H7 3075   1.289   3.254  15.116  0.8313 -0.4907  0.9434
  199MPD1     C 3076   3.291   0.840  10.455 -0.2374 -0.3498  0.5700
  199MPD1    C1 3077   3.205   0.729  10.462 -0.3003 -0.4018  0.1596
  199MPD1    C2 3078   3.094   0.723  10.381  0.4987  0.1854 -0.7100
  199MPD1    C3 3079   3.080   0.820  10.278  0.5385  0.7827 -0.9323
  199MPD1    C4 3080   3.179   0.915  10.263 -0.1570  0.6023  0.2334
  199MPD1    C5 3081   3.270   0.935  10.355  0.0756  0.7088 -0.4922
  199MPD1     H 3082   3.015   0.653  10.407  1.0649 -0.0237  0.4646
  199MPD1    H1 3083   3.186   0.979  10.175 -1.6594 -0.4417 -0.6429
  199MPD1    H2 3084   3.373   0.863  10.522  0.5771 -1.6437  0.0060
  199MPD1    H3 3085   3.339   1.018  10.349  0.2151  0.3954 -3.1682
  199MPD1     N 3086   2.974   0.823  10.180 -0.3573 -0.0386  0.5540
  199MPD1    H5 3087   2.977   0.898  10.112 -2.4254 -0.5838 -0.1190
  199MPD1    N1 3088   3.211   0.637  10.568  0.0147 -0.0659  0.6839
  199MPD1    H6 3089   3.303   0.614  10.605  0.5920 -2.2430 -2.1208
  199MPD1    H7 3090   3.171   0.545  10.550  0.7931 -0.3045  0.1610
  200MPD1     C 3091   1.507   4.585  15.695 -0.2150  0.0233 -0.2018
  200MPD1    C1 3092   1.435   4.543  15.581 -0.3511  0.3613 -0.2366
  200MPD1    C2 3093   1.501   4.539  15.460 -0.3115 -0.1474 -0.1691
  200MPD1    C3 3094   1.636   4.572  15.455  0.5705  0.5440 -0.3093
  200MPD1    C4 3095   1.707   4.595  15.569  0.0565 -0.0927  0.7021
  200MPD1    C5 3096   1.639   4.608  15.682  0.1746 -0.4840 -0.7886
  200MPD1     H 3097   1.452   4.523  15.365 -0.5884 -0.0210 -0.0469
  200MPD1    H1 3098   1.811   4.624  15.580 -0.2806  1.7243 -0.8110
  200MPD1    H2 3099   1.460   4.595  15.792  0.9441  2.3593  0.1331
  200MPD1    H3 3100   1.704   4.632  15.765 -0.9089 -0.1374 -0.0373
  200MPD1     N 3101   1.695   4.576  15.326  0.6138 -0.4955  0.2417
  200MPD1    H5 3102   1.636   4.551  15.247  1.3461 -1.4284 -0.0087
  200MPD1    N1 3103   1.297   4.549  15.580 -0.2210  0.1109  0.2233
  200MPD1    H6 3104   1.251   4.532  15.669 -0.0081  3.8527  1.0739
  200MPD1    H7 3105   1.267   4.484  15.508 -0.7985 -1.2958  1.7423
  201MPD1     C 3106   4.148   3.834  13.045  0.5985 -0.2806  0.2876
  201MPD1    C1 3107   4.108   3.706  13.069  0.3680 -0.1628 -0.9826
  201MPD1    C2 3108   4.188   3.635  13.165  0.2824  0.1769  0.1717
  201MPD1    C3 3109   4.301   3.694  13.224  0.4504 -0.5390  0.1771
  201MPD1    C4 3110   4.332   3.824  13.193  0.0398 -0.3010  0.4336
  201MPD1    C5 3111   4.258   3.899  13.106 -0.0340 -0.3839 -0.1984
  201MPD1     H 3112   4.161   3.535  13.197 -0.2261 -0.2845 -1.7122
  201MPD1    H1 3113   4.410   3.870  13.252 -1.3458  2.2450  0.3060
  201MPD1    H2 3114   4.082   3.894  12.983  0.7939  1.4545  1.7517
  201MPD1    H3 3115   4.280   4.000  13.074  1.5907 -0.9014 -0.7328
  201MPD1     N 3116   4.374   3.606  13.310 -0.8307  0.4205  0.2768
  201MPD1    H5 3117   4.339   3.511  13.315 -1.5974  0.6619 -0.4965
  201MPD1    N1 3118   3.993   3.649  13.018 -0.1782  0.5357 -0.6556
  201MPD1    H6 3119   4.005   3.549  13.004  0.0325  0.1368  2.3933
  201MPD1    H7 3120   3.966   3.691  12.929 -1.7333  1.4847  0.2594
  202MPD1     C 3121   3.246   3.292   9.342  0.0514  0.5540  0.5571
  202MPD1    C1 3122   3.114   3.352   9.361 -0.4528 -0.9176 -0.1096
  202MPD1    C2 3123   3.109   3.457   9.457  0.1443  1.0957  0.3040
  202MPD1    C3 3124   3.214   3.483   9.543  0.5867  0.6474  0.2283
  202MPD1    C4 3125   3.336   3.416   9.527  0.3760 -0.0092  0.4202
  202MPD1    C5 3126   3.345   3.321   9.430 -0.3112 -0.1319  0.1912
  202MPD1     H 3127   3.018   3.514   9.471  1.3583  3.0401  0.1158
  202MPD1    H1 3128   3.423   3.451   9.582 -0.2526 -0.4319  1.6839
  202MPD1    H2 3129   3.260   3.227   9.256  1.3861 -1.9484  2.6753
  202MPD1    H3 3130   3.438   3.267   9.413  0.5529  0.8076  1.8907
  202MPD1     N 3131   3.218   3.590   9.625 -0.2560 -0.7723  0.5751
  202MPD1    H5 3132   3.300   3.613   9.681  0.4698  2.0185 -1.6365
  202MPD1    N1 3133   3.022   3.355   9.252  0.4718 -0.6932  0.9646
  202MPD1    H6 3134   2.929   3.376   9.286  0.0671  1.7117 -1.6514
  202MPD1    H7 3135   3.011   3.263   9.208 -2.5861 -0.5245  1.4027
  203MPD1     C 3136   2.248   3.890  12.313 -0.8017 -0.2939 -0.3102
  203MPD1    C1 3137   2.385   3.897  12.283  0.9940  0.1834 -0.8999
  203MPD1    C2 3138   2.479   3.916  12.383  0.5865  0.0680 -0.1226
  203MPD1    C3 3139   2.437   3.922  12.512  0.1871 -0.2691 -0.9326
  203MPD1    C4 3140   2.304   3.913  12.540 -0.3837  0.6377 -0.0305
  203MPD1    C5 3141   2.212   3.890  12.444  0.7601  0.4849 -0.0679
  203MPD1     H 3142   2.586   3.923  12.363  0.3425 -2.8380 -2.5178
  203MPD1    H1 3143   2.258   3.905  12.638  1.5264 -2.1413  0.6496
  203MPD1    H2 3144   2.166   3.879  12.243  2.0177  0.1174 -3.6562
  203MPD1    H3 3145   2.109   3.881  12.476  0.3333 -0.0228 -1.6235
  203MPD1     N 3146   2.537   3.927  12.610 -0.4573 -0.1392  0.1364
  203MPD1    H5 3147   2.637   3.934  12.593 -0.7765  0.1069 -1.6105
  203MPD1    N1 3148   2.429   3.910  12.151 -0.5317  0.0120 -0.0051
  203MPD1    H6 3149   2.526   3.883  12.138 -0.5042  0.9143 -1.6333
  203MPD1    H7 3150   2.364   3.886  12.076 -0.1546 -1.1533  0.0302
  204MPD1     C 3151   2.209   0.711   0.029 -1.1291 -0.2674  0.2252
  204MPD1    C1 3152   2.311   0.742  17.685 -0.3795 -0.3567 -0.1175
  204MPD1    C2 3153   2.392   0.636  17.641  0.9466  0.1740 -0.1313
  204MPD1    C3 3154   2.374   0.506  17.692 -0.2849  0.3575  0.6054
  204MPD1    C4 3155   2.277   0.475   0.037  0.1737  0.5430  0.0570
  204MPD1    C5 3156   2.194   0.578   0.073 -0.0442 -0.0818 -0.2304
  204MPD1     H 3157   2.463   0.656  17.561  0.6674  0.3223 -0.3462
  204MPD1    H1 3158   2.260   0.376   0.077  0.4401  0.7741  0.7413
  204MPD1    H2 3159   2.134   0.783   0.060 -2.2286 -2.0547  1.7045
  204MPD1    H3 3160   2.114   0.562   0.145  0.4744 -0.0890  0.3428
  204MPD1     N 3161   2.462   0.407  17.647  0.0632 -0.0390 -0.2098
  204MPD1    H5 3162   2.530   0.435  17.576  0.9966 -1.7055  0.0278
  204MPD1    N1 3163   2.327   0.873  17.634  0.2859 -0.3668  0.0460
  204MPD1    H6 3164   2.411   0.873  17.576  1.6623  0.2978  2.0354
  204MPD1    H7 3165   2.325   0.943  17.707 -2.8137  0.9066 -1.2671
  205MPD1     C 3166   2.057   3.947  16.932 -0.0091  0.3143 -0.0713
  205MPD1    C1 3167   2.049   3.820  16.982 -0.4870 -1.0652 -0.6174
  205MPD1    C2 3168   2.146   3.786  17.080  0.4964 -0.3518 -0.2413
  205MPD1    C3 3169   2.224   3.887  17.140 -0.4211 -0.0931 -0.4971
  205MPD1    C4 3170   2.208   4.012  17.097  0.2821  0.0492  0.6454
  205MPD1    C5 3171   2.128   4.046  16.996  0.4771  0.0603 -0.4712
  205MPD1     H 3172   2.155   3.683  17.112 -1.0422 -0.4038  0.0426
  205MPD1    H1 3173   2.253   4.096  17.149  1.5711  0.2452 -0.7644
  205MPD1    H2 3174   1.995   3.975  16.848 -3.5035 -2.0072  1.7393
  205MPD1    H3 3175   2.130   4.150  16.965 -2.3140 -0.2135 -1.6227
  205MPD1     N 3176   2.321   3.857  17.240 -0.2487  0.3737  0.3100
  205MPD1    H5 3177   2.370   3.939  17.276 -0.6038  0.3112  0.9305
  205MPD1    N1 3178   1.970   3.724  16.914  0.0973  0.2388  0.0744
  205MPD1    H6 3179   1.885   3.768  16.877  1.4720  1.3601 -1.7272
  205MPD1    H7 3180   1.935   3.651  16.976  0.3126 -0.0609 -0.1541
  206MPD1     C 3181   2.849   1.470  16.942 -0.9273  1.0254  0.1484
  206MPD1    C1 3182   2.797   1.410  16.831  0.2400 -0.5334 -0.5809
  206MPD1    C2 3183   2.801   1.475  16.710 -0.4799  0.1060 -0.2163
  206MPD1    C3 3184   2.828   1.614  16.702  0.3808 -0.3818  0.5006
  206MPD1    C4 3185   2.858   1.679  16.821  0.0281  0.3045  0.0201
  206MPD1    C5 3186   2.869   1.607  16.942 -0.1767 -0.2703 -0.2797
  206MPD1     H 3187   2.770   1.422  16.620 -1.9908 -0.3611  0.5846
  206MPD1    H1 3188   2.868   1.787  16.831 -0.4960  0.1091  2.5780
  206MPD1    H2 3189   2.847   1.421  17.038 -2.1276  0.3767 -0.2041
  206MPD1    H3 3190   2.899   1.658  17.033 -0.7563 -1.4379  0.5707
  206MPD1     N 3191   2.818   1.687  16.579  0.3845 -0.3600  0.0624
  206MPD1    H5 3192   2.783   1.640  16.496 -0.1224 -0.1826  0.1770
  206MPD1    N1 3193   2.785   1.270  16.832  0.5367 -0.2438 -1.6330
  206MPD1    H6 3194   2.712   1.232  16.772 -0.7095 -1.4473  0.6451
  206MPD1    H7 3195   2.765   1.235  16.925 -1.0418  0.2790 -1.7874
  207MPD1     C 3196   4.334   0.583   9.922  0.1021  0.0632  0.1537
  207MPD1    C1 3197   4.333   0.470   9.992  0.3992 -0.2592 -0.4509
  207MPD1    C2 3198   4.412   0.466  10.104 -0.0494  0.1300 -0.5825
  207MPD1    C3 3199   4.497   0.565  10.145 -0.3472  0.1099  0.4377
  207MPD1    C4 3200   4.490   0.685  10.076 -0.1044 -0.2478 -0.0713
  207MPD1    C5 3201   4.416   0.690   9.959 -0.2313 -0.5563  0.3755
  207MPD1     H 3202   4.412   0.372  10.157 -1.4633  1.1533  1.2065
  207MPD1    H1 3203   4.547   0.774  10.102  0.6583 -0.3916 -1.2736
  207MPD1    H2 3204   4.279   0.592   9.829 -1.7940  0.7867  1.3526
  207MPD1    H3 3205   4.416   0.782   9.902  0.1964 -2.0532 -2.0620
  207MPD1     N 3206   4.601   0.559  10.249  0.6698  0.0021 -0.5746
  207MPD1    H5 3207   4.657   0.643  10.261  3.1799 -1.7500  0.0282
  207MPD1    N1 3208   4.272   0.352   9.943  0.2267  0.2524 -0.3708
  207MPD1    H6 3209   4.262   0.282  10.015 -0.3935  0.2971 -0.4154
  207MPD1    H7 3210   4.187   0.372   9.891 -0.1313 -0.6809 -0.1370
  208MPD1     C 3211   3.617   3.170   0.326 -0.3265 -0.2535 -0.1819
  208MPD1    C1 3212   3.619   3.222   0.454 -1.2064 -0.7047 -0.4761
  208MPD1    C2 3213   3.499   3.240   0.521 -0.0106 -0.6921 -0.4040
  208MPD1    C3 3214   3.374   3.191   0.484  0.1802  0.1011 -0.4167
  208MPD1    C4 3215   3.381   3.128   0.362 -0.2349  0.7394  0.4231
  208MPD1    C5 3216   3.496   3.131   0.285  0.8830 -0.2314  0.0664
  208MPD1     H 3217   3.503   3.301   0.610 -0.0647 -0.9247 -0.2425
  208MPD1    H1 3218   3.298   3.088   0.305 -1.0540  1.3147  1.2176
  208MPD1    H2 3219   3.709   3.166   0.269 -0.0405 -0.8964  0.3277
  208MPD1    H3 3220   3.485   3.113   0.179  0.4475  0.8471 -0.0705
  208MPD1     N 3221   3.253   3.217   0.560  0.2292 -0.2551  0.7301
  208MPD1    H5 3222   3.264   3.273   0.644  2.8157 -0.7901  0.7505
  208MPD1    N1 3223   3.731   3.296   0.494  0.2847  0.1135  0.3199
  208MPD1    H6 3224   3.746   3.297   0.595 -0.3382 -1.8185  0.4322
  208MPD1    H7 3225   3.815   3.261   0.448 -0.5718  1.9990 -2.6896
  209MPD1     C 3226   0.489   3.748  11.078  0.7183 -0.7091  0.7969
  209MPD1    C1 3227   0.505   3.834  10.970 -0.5362  0.2574 -0.0679
  209MPD1    C2 3228   0.520   3.967  11.001 -0.2621  0.3043  0.6323
  209MPD1    C3 3229   0.524   4.021  11.130  0.5650  0.3653  0.9589
  209MPD1    C4 3230   0.513   3.935  11.237  0.6233  1.1460  0.4582
  209MPD1    C5 3231   0.496   3.800  11.209  0.7942  0.3985 -0.0666
  209MPD1     H 3232   0.512   4.041  10.922  0.9538 -2.0646 -1.7429
  209MPD1    H1 3233   0.515   3.957  11.343  0.2670  0.0751  0.6874
  209MPD1    H2 3234   0.480   3.641  11.065 -2.9639 -0.1313 -1.0791
  209MPD1    H3 3235   0.475   3.737  11.295  1.2179 -0.6639 -0.7487
  209MPD1     N 3236   0.523   4.161  11.141 -0.0944  0.2985  0.3144
  209MPD1    H5 3237   0.504   4.216  11.058  0.2866  3.5836  2.4390
  209MPD1    N1 3238   0.457   3.801  10.841  0.5025  0.3158 -0.3632
  209MPD1    H6 3239   0.473   3.704  10.815  1.5412  0.0033  1.5046
  209MPD1    H7 3240   0.523   3.848  10.779 -1.3489  1.4899 -1.4413
  210MPD1     C 3241   0.473   0.315  11.792  0.6932 -0.1029 -0.2338
  210MPD1    C1 3242   0.523   0.184  11.816 -0.3573 -0.1429  0.3573
  210MPD1    C2 3243   0.510   0.089  11.720 -0.5913 -0.5075  0.2363
  210MPD1    C3 3244   0.441   0.116  11.602  0.0082  0.5866 -0.4401
  210MPD1    C4 3245   0.398   0.239  11.578 -0.1124  0.0721 -0.8570
  210MPD1    C5 3246   0.414   0.335  11.676  0.7779  0.5727 -0.4391
  210MPD1     H 3247   0.533   4.723  11.745 -2.8838 -1.4578 -1.5017
  210MPD1    H1 3248   0.351   0.269  11.485 -0.8111  2.0343  0.1195
  210MPD1    H2 3249   0.472   0.390  11.870 -0.9650 -0.2104 -0.1510
  210MPD1    H3 3250   0.369   0.433  11.662  0.1083  0.5710  1.5988
  210MPD1     N 3251   0.425   0.024  11.501 -0.0270 -0.0280  0.8186
  210MPD1    H5 3252   0.376   0.057  11.418  4.0685  5.2644  0.5350
  210MPD1    N1 3253   0.575   0.157  11.943 -0.2793  0.7643 -0.2147
  210MPD1    H6 3254   0.631   0.072  11.952  0.7132  1.4233 -0.1283
  210MPD1    H7 3255   0.642   0.233  11.959 -0.5590  1.1713 -0.9736
  211MPD1     C 3256   3.298   3.245  16.268  0.0620  0.2015  0.3669
  211MPD1    C1 3257   3.300   3.371  16.218  0.9046  0.1491 -0.4731
  211MPD1    C2 3258   3.189   3.444  16.243  1.1626 -0.6523  0.2325
  211MPD1    C3 3259   3.081   3.397  16.317 -0.0880  0.6254 -0.0569
  211MPD1    C4 3260   3.072   3.262  16.347  0.1186  0.6205  0.2283
  211MPD1    C5 3261   3.184   3.192  16.319 -0.3239  0.2228 -0.1891
  211MPD1     H 3262   3.190   3.550  16.218  3.5151 -1.1994 -1.8929
  211MPD1    H1 3263   2.996   3.206  16.400 -0.6629 -1.1523 -2.7337
  211MPD1    H2 3264   3.390   3.189  16.269  0.2499  0.5199  1.1957
  211MPD1    H3 3265   3.192   3.091  16.359  0.4022  0.5517  0.4995
  211MPD1     N 3266   2.987   3.491  16.352  0.5046  0.4328  0.0499
  211MPD1    H5 3267   3.013   3.587  16.332  2.5762 -0.5338 -1.8934
  211MPD1    N1 3268   3.418   3.427  16.173  0.2489  0.0587  0.2337
  211MPD1    H6 3269   3.475   3.348  16.142  1.0013  0.9914 -0.7492
  211MPD1    H7 3270   3.401   3.497  16.102 -1.0284 -1.3730 -0.8548
  212MPD1     C 3271   2.566   2.037  16.845  0.3966  0.6659  0.0982
  212MPD1    C1 3272   2.507   2.093  16.955 -0.5639 -0.9344  0.3221
  212MPD1    C2 3273   2.386   2.043  16.991  0.8649  0.1040 -0.0471
  212MPD1    C3 3274   2.317   1.956  16.912 -0.0837  0.3398 -0.2711
  212MPD1    C4 3275   2.377   1.898  16.804 -0.2189 -0.5153 -0.6248
  212MPD1    C5 3276   2.502   1.937  16.770 -0.2269 -0.9048 -0.3475
  212MPD1     H 3277   2.326   2.093  17.066 -0.6001  1.3172 -2.0346
  212MPD1    H1 3278   2.324   1.826  16.742 -1.2219 -1.0430  0.8481
  212MPD1    H2 3279   2.664   2.069  16.813 -0.1967 -0.4228 -2.8570
  212MPD1    H3 3280   2.557   1.902  16.683 -0.5201 -1.8203 -0.1640
  212MPD1     N 3281   2.200   1.893  16.956  0.6602 -0.5083 -0.0675
  212MPD1    H5 3282   2.154   1.822  16.900  0.0682 -0.8325  0.8400
  212MPD1    N1 3283   2.572   2.182  17.040 -0.8542 -0.0506 -0.2396
  212MPD1    H6 3284   2.638   2.234  16.982 -3.3550  0.9684 -2.1912
  212MPD1    H7 3285   2.515   2.250  17.090 -0.0956  0.5484 -0.1979
  213MPD1     C 3286   0.034   2.954  15.462 -0.0628  0.2281 -0.1181
  213MPD1    C1 3287   4.696   2.847  15.508 -0.0410  0.3342 -0.0736
  213MPD1    C2 3288   4.700   2.735  15.425  0.1976  0.1759  0.1952
  213MPD1    C3 3289   0.056   2.720  15.322 -0.4201 -1.2709 -0.6369
  213MPD1    C4 3290   0.138   2.828  15.288 -0.3226  0.6036 -0.1476
  213MPD1    C5 3291   0.125   2.942  15.362 -0.4532  0.0253  0.6291
  213MPD1     H 3292   4.621   2.661  15.433 -0.2069  0.6274  0.4003
  213MPD1    H1 3293   0.196   2.837  15.197 -0.7036  1.1691 -0.3306
  213MPD1    H2 3294   0.011   3.056  15.490  0.4056  0.1286  0.6140
  213MPD1    H3 3295   0.180   3.031  15.335 -0.9760  0.5064  1.1425
  213MPD1     N 3296   0.048   2.607  15.241 -0.0030 -0.0533  0.7882
  213MPD1    H5 3297   4.717   2.539  15.270 -2.6938  1.3578 -2.2273
  213MPD1    N1 3298   4.575   2.874  15.574 -0.6277  0.3291 -0.1208
  213MPD1    H6 3299   4.580   2.942  15.650  0.2156  0.5541 -0.3865
  213MPD1    H7 3300   4.545   2.785  15.614 -1.5038  0.3691 -0.6798
  214MPD1     C 3301   4.052   2.221  14.652 -0.3271  0.7278 -0.1954
  214MPD1    C1 3302   4.092   2.177  14.776 -0.0155  0.1076 -0.1803
  214MPD1    C2 3303   4.211   2.222  14.828 -1.0891 -0.5460  0.6169
  214MPD1    C3 3304   4.280   2.318  14.764 -0.3101  0.1064  0.3072
  214MPD1    C4 3305   4.233   2.367  14.640  0.5384 -0.6588 -0.2140
  214MPD1    C5 3306   4.129   2.312  14.584  0.0702 -0.5823 -0.0140
  214MPD1     H 3307   4.243   2.180  14.923  1.0910  0.0881  0.1601
  214MPD1    H1 3308   4.291   2.435  14.578  1.8764 -2.4607 -0.9147
  214MPD1    H2 3309   3.965   2.178  14.603  0.1114 -0.7840  0.3770
  214MPD1    H3 3310   4.099   2.340  14.483  0.1051 -1.9489 -0.4005
  214MPD1     N 3311   4.402   2.378  14.806 -0.4932 -0.5658  0.2382
  214MPD1    H5 3312   4.447   2.439  14.738 -0.6243  1.5876  2.1099
  214MPD1    N1 3313   4.022   2.065  14.835 -0.1120 -0.3162 -0.0523
  214MPD1    H6 3314   3.923   2.062  14.812 -0.3417 -2.9227  1.2421
  214MPD1    H7 3315   4.027   2.067  14.937 -2.1744 -0.4336  0.0686
  215MPD1     C 3316   4.272   4.250  10.414  1.2951 -0.2099 -0.0739
  215MPD1    C1 3317   4.244   4.379  10.440  0.4499  0.1408  0.2794
  215MPD1    C2 3318   4.305   4.446  10.543 -0.5647  0.0838  0.3445
  215MPD1    C3 3319   4.411   4.385  10.604  0.5212  0.2151  0.4695
  215MPD1    C4 3320   4.449   4.261  10.565 -0.2079  0.0566  0.0922
  215MPD1    C5 3321   4.384   4.198  10.466  0.7133 -0.9658  0.1186
  215MPD1     H 3322   4.269   4.539  10.585  0.8062  1.1255 -0.7782
  215MPD1    H1 3323   4.537   4.214  10.609 -1.4987 -2.2581  0.1832
  215MPD1    H2 3324   4.217   4.203  10.334 -1.1696  0.6714  1.1167
  215MPD1    H3 3325   4.428   4.108  10.424  2.4971  0.2244 -0.5695
  215MPD1     N 3326   4.479   4.462  10.708  0.8554  0.3485 -1.1287
  215MPD1    H5 3327   4.440   4.550  10.740  0.0481 -0.6602  0.6733
  215MPD1    N1 3328   4.116   4.420  10.406 -0.1560  0.3914  0.1626
  215MPD1    H6 3329   4.097   4.380  10.315 -0.6769 -0.0227  0.4603
  215MPD1    H7 3330   4.098   4.520  10.405 -1.5418  0.1358  0.8270
  216MPD1     C 3331   2.548   1.736  17.074 -0.0647 -0.1863  0.6303
  216MPD1    C1 3332   2.457   1.748  17.177 -0.8640  0.2566  0.3877
  216MPD1    C2 3333   2.389   1.627  17.213 -0.9840  0.0691 -0.0215
  216MPD1    C3 3334   2.388   1.511  17.136  0.6608  0.3203 -0.1112
  216MPD1    C4 3335   2.460   1.519  17.019  0.0182 -0.3065  0.1484
  216MPD1    C5 3336   2.536   1.631  16.989 -0.1453  0.6714  0.1454
  216MPD1     H 3337   2.345   1.625  17.312  3.4349 -0.9733  1.9589
  216MPD1    H1 3338   2.460   1.437  16.949 -1.9054  1.5262 -2.0030
  216MPD1    H2 3339   2.602   1.828  17.055 -0.6307  0.3220  1.4435
  216MPD1    H3 3340   2.601   1.639  16.902  0.1606  0.6056  0.3673
  216MPD1     N 3341   2.318   1.397  17.181 -0.6293 -0.2742 -0.5206
  216MPD1    H5 3342   2.262   1.404  17.266 -0.2607  1.9822 -0.4684
  216MPD1    N1 3343   2.450   1.856  17.263  0.2448  0.6115  0.1871
  216MPD1    H6 3344   2.356   1.860  17.302 -0.7002  2.4830 -2.3143
  216MPD1    H7 3345   2.462   1.939  17.207 -0.6889  0.3694 -0.3840
  217MPD1     C 3346   2.208   3.641   8.366 -0.2851  0.3144  0.2582
  217MPD1    C1 3347   2.304   3.553   8.402 -0.4156  0.5048  0.3683
  217MPD1    C2 3348   2.310   3.508   8.532  0.6810 -0.2688  0.9276
  217MPD1    C3 3349   2.232   3.557   8.635  1.3276 -0.4749 -0.2657
  217MPD1    C4 3350   2.151   3.660   8.595  0.1295  0.0945 -0.3934
  217MPD1    C5 3351   2.127   3.690   8.463 -0.5029  0.0232  0.9951
  217MPD1     H 3352   2.394   3.442   8.553  1.2155 -0.5207 -1.9325
  217MPD1    H1 3353   2.085   3.706   8.667  0.5668 -1.4631  1.0227
  217MPD1    H2 3354   2.192   3.688   8.270 -0.4561  0.1029  0.1833
  217MPD1    H3 3355   2.061   3.774   8.444  1.0370  0.9907 -0.0852
  217MPD1     N 3356   2.233   3.516   8.774  0.0883  0.2003  0.8397
  217MPD1    H5 3357   2.170   3.566   8.836  1.0483 -0.2591  2.1531
  217MPD1    N1 3358   2.383   3.487   8.300  0.7467 -1.1090  0.5898
  217MPD1    H6 3359   2.403   3.564   8.236  0.6792 -2.2454 -0.7948
  217MPD1    H7 3360   2.477   3.468   8.336  1.3786  1.0346  0.0541
  218MPD1     C 3361   4.351   0.018  12.964 -0.3709  0.0395  0.1450
  218MPD1    C1 3362   4.452   0.015  12.873 -0.7320  0.2058 -0.5758
  218MPD1    C2 3363   4.520   4.636  12.854  0.9712 -0.0341 -0.4520
  218MPD1    C3 3364   4.476   4.516  12.911  0.3628 -0.0113  0.4339
  218MPD1    C4 3365   4.362   4.517  12.993  0.1446  0.0345  0.1778
  218MPD1    C5 3366   4.304   4.638  13.019  0.9693  0.2385 -0.2488
  218MPD1     H 3367   4.613   4.625  12.799  1.3468 -3.0569  0.7946
  218MPD1    H1 3368   4.311   4.430  13.032  0.9552  0.1713  1.5414
  218MPD1    H2 3369   4.316   0.112  13.005 -0.0302 -0.1580  0.9061
  218MPD1    H3 3370   4.217   4.649  13.082  0.1197 -1.9567 -1.0299
  218MPD1     N 3371   4.538   4.392  12.874 -0.2439  0.3357 -0.2583
  218MPD1    H5 3372   4.617   4.413  12.814  1.5272  0.3344  2.0579
  218MPD1    N1 3373   4.516   0.138  12.836  0.1726 -0.1945  0.4794
  218MPD1    H6 3374   4.553   0.129  12.742  0.7558  1.4672  0.5587
  218MPD1    H7 3375   4.449   0.214  12.837  1.6542  1.0802  1.6789
  219MPD1     C 3376   0.382   4.374  12.292 -0.4556 -0.8684 -0.0247
  219MPD1    C1 3377   0.454   4.338  12.404 -0.0869 -1.2922 -0.1323
  219MPD1    C2 3378   0.388   4.284  12.512 -0.2942 -0.0149  0.2194
  219MPD1    C3 3379   0.248   4.275  12.509 -0.3675  0.4655  0.1579
  219MPD1    C4 3380   0.179   4.327  12.404 -0.0231  0.6418  0.4687
  219MPD1    C5 3381   0.247   4.374  12.291  0.8022  0.7345  0.2454
  219MPD1     H 3382   0.449   4.237  12.589 -0.0661 -3.5746 -2.1548
  219MPD1    H1 3383   0.072   4.314  12.401 -0.1502  1.7507  0.3337
  219MPD1    H2 3384   0.430   4.407  12.200 -1.1587  0.2261 -0.0023
  219MPD1    H3 3385   0.200   4.408  12.200 -1.1309  0.4590  1.1514
  219MPD1     N 3386   0.172   4.229  12.617 -0.5835  0.4845  0.0794
  219MPD1    H5 3387   0.080   4.271  12.628 -0.5310  0.5272  0.3629
  219MPD1    N1 3388   0.593   4.346  12.391 -0.7263 -0.0875 -0.0605
  219MPD1    H6 3389   0.641   4.360  12.480  0.2603  1.4169 -0.8199
  219MPD1    H7 3390   0.620   4.425  12.332 -1.0489 -0.8799 -1.2557
  220MPD1     C 3391   4.038   1.297  10.052  0.2832  0.1729 -0.5265
  220MPD1    C1 3392   4.057   1.273  10.189 -0.3401 -0.1119  0.6772
  220MPD1    C2 3393   4.098   1.150  10.230 -0.1690  0.1813  0.6682
  220MPD1    C3 3394   4.087   1.043  10.141 -0.1750  0.4195  0.5815
  220MPD1    C4 3395   4.066   1.067  10.009  0.2039 -0.3887  0.3772
  220MPD1    C5 3396   4.043   1.195   9.961 -0.1688  0.2130  0.1068
  220MPD1     H 3397   4.116   1.126  10.334 -2.3358 -0.8203  0.8133
  220MPD1    H1 3398   4.049   0.982   9.944 -0.0603  0.8239 -1.1567
  220MPD1    H2 3399   4.017   1.397  10.014  0.6213  1.4935  2.7425
  220MPD1    H3 3400   4.044   1.204   9.853  0.8276  1.2732  0.2090
  220MPD1     N 3401   4.094   0.911  10.194 -0.0186 -0.5592 -0.6536
  220MPD1    H5 3402   4.101   0.914  10.295 -0.6568  2.7118 -0.7106
  220MPD1    N1 3403   4.073   1.388  10.270  1.0977  0.2166  0.5321
  220MPD1    H6 3404   4.064   1.370  10.370 -1.7555  0.6420  0.3358
  220MPD1    H7 3405   4.003   1.458  10.248  1.8877  1.3132  1.5183
  221MPD1     C 3406   1.911   3.081  16.662 -0.4623  0.3213 -0.7321
  221MPD1    C1 3407   2.016   3.108  16.749 -0.2281 -0.2621  0.2544
  221MPD1    C2 3408   2.137   3.055  16.712 -0.0893  0.5343 -0.4312
  221MPD1    C3 3409   2.166   2.997  16.587 -0.3470 -0.3598 -0.5212
  221MPD1    C4 3410   2.059   2.979  16.497  0.0879 -0.0636 -0.4555
  221MPD1    C5 3411   1.935   3.014  16.542 -0.2815  0.2718 -0.0391
  221MPD1     H 3412   2.217   3.066  16.784 -0.3992  1.6531 -0.2490
  221MPD1    H1 3413   2.063   2.927  16.402 -0.2683 -1.1541  0.1215
  221MPD1    H2 3414   1.808   3.104  16.685 -0.5899 -0.9952 -0.0206
  221MPD1    H3 3415   1.853   2.987  16.476 -1.1864  0.7399  0.8973
  221MPD1     N 3416   2.294   2.957  16.542  0.3954 -0.0771  0.5345
  221MPD1    H5 3417   2.291   2.924  16.446  2.8153 -0.4003  0.5766
  221MPD1    N1 3418   1.980   3.138  16.880  0.7939  0.1573  0.0360
  221MPD1    H6 3419   2.050   3.181  16.941 -1.1812  2.9769  0.3457
  221MPD1    H7 3420   1.902   3.203  16.870  0.9112 -0.0645 -2.1924
  222MPD1     C 3421   1.290   1.791   0.024  0.1509 -0.3171 -0.1534
  222MPD1    C1 3422   1.184   1.875   0.053 -0.1290  0.3090  0.1866
  222MPD1    C2 3423   1.197   2.002   0.012  0.1214  0.3281 -0.3746
  222MPD1    C3 3424   1.299   2.052  17.681  0.4514  0.3356 -0.2139
  222MPD1    C4 3425   1.385   1.961  17.631  0.2863 -0.5642 -0.8857
  222MPD1    C5 3426   1.387   1.827  17.684 -0.6741 -0.0871 -0.7444
  222MPD1     H 3427   1.122   2.070   0.051  1.3342  1.9988 -0.9876
  222MPD1    H1 3428   1.464   1.992  17.563  1.8283 -3.1856 -0.3220
  222MPD1    H2 3429   1.312   1.697   0.073  0.7949 -1.4279 -2.5723
  222MPD1    H3 3430   1.466   1.759  17.658  0.7726  1.8283 -1.3836
  222MPD1     N 3431   1.315   2.182  17.636 -0.0624  0.8448  0.0146
  222MPD1    H5 3432   1.392   2.205  17.573  0.8505  3.1029  1.9736
  222MPD1    N1 3433   1.087   1.831   0.152 -0.2881 -0.2722  0.0159
  222MPD1    H6 3434   1.001   1.886   0.153 -0.1123  0.0125 -1.0686
  222MPD1    H7 3435   1.071   1.731   0.161 -1.3684 -0.0212  0.9227
  223MPD1     C 3436   1.454   2.583  16.872  0.7791  0.0613  0.3004
  223MPD1    C1 3437   1.337   2.535  16.926 -0.0982 -0.4050  0.4151
  223MPD1    C2 3438   1.324   2.505  17.059  0.6690  0.6741  0.7439
  223MPD1    C3 3439   1.422   2.551  17.146  0.9474 -0.0497 -0.3461
  223MPD1    C4 3440   1.536   2.613  17.096  0.0344  0.2666 -0.3060
  223MPD1    C5 3441   1.552   2.626  16.958 -0.6140 -0.4355  0.1836
  223MPD1     H 3442   1.238   2.453  17.099  1.1144 -1.0781 -0.5397
  223MPD1    H1 3443   1.619   2.647  17.158 -0.5031  1.5722 -0.3128
  223MPD1    H2 3444   1.478   2.599  16.768  1.5546 -0.6314  0.3693
  223MPD1    H3 3445   1.634   2.687  16.921 -1.7172  1.8590  1.5859
  223MPD1     N 3446   1.404   2.525  17.283  0.0539 -0.5940 -0.7030
  223MPD1    H5 3447   1.312   2.491  17.307 -1.3315  2.7210 -1.2451
  223MPD1    N1 3448   1.241   2.491  16.830 -0.1740  0.2529 -0.2775
  223MPD1    H6 3449   1.149   2.492  16.874 -0.3790 -1.1557 -0.6528
  223MPD1    H7 3450   1.237   2.557  16.753 -0.5172 -0.5973 -0.9951
  224MPD1     C 3451   2.016   4.413   9.421 -0.1944 -0.5114  0.0083
  224MPD1    C1 3452   2.116   4.326   9.373 -0.5260  0.8707  0.0492
  224MPD1    C2 3453   2.208   4.276   9.463 -0.4880 -0.7317  0.3722
  224MPD1    C3 3454   2.193   4.307   9.595 -0.1393 -0.2066  0.5957
  224MPD1    C4 3455   2.084   4.387   9.640 -0.3824 -0.1854 -0.0975
  224MPD1    C5 3456   1.993   4.430   9.554 -0.3204 -0.0335 -0.2749
  224MPD1     H 3457   2.291   4.217   9.425  1.1198  2.9100 -1.8557
  224MPD1    H1 3458   2.068   4.415   9.743  1.2815  1.6530 -0.3387
  224MPD1    H2 3459   1.956   4.472   9.353 -0.2546  0.7299  1.1123
  224MPD1    H3 3460   1.908   4.487   9.588 -0.5669 -0.4585 -0.1753
  224MPD1     N 3461   2.286   4.274   9.693  0.4095 -0.3026 -0.1102
  224MPD1    H5 3462   2.256   4.296   9.788 -0.7818 -3.0247  0.1423
  224MPD1    N1 3463   2.137   4.328   9.237 -0.3135 -1.1030  0.1651
  224MPD1    H6 3464   2.182   4.246   9.194  1.1456 -1.4234  2.3146
  224MPD1    H7 3465   2.049   4.342   9.188  0.7587  4.1683 -0.2136
  225MPD1     C 3466   4.659   0.710  13.137 -0.3009  0.2412  0.3143
  225MPD1    C1 3467   4.632   0.577  13.103  0.4143 -0.3585  0.1839
  225MPD1    C2 3468   4.562   0.539  12.991  0.3387  0.0169  0.3229
  225MPD1    C3 3469   4.494   0.639  12.922 -0.3071 -0.7530  0.1251
  225MPD1    C4 3470   4.515   0.772  12.962  0.1954 -0.2155 -0.1398
  225MPD1    C5 3471   4.595   0.808  13.068 -0.4894 -0.1347 -0.5880
  225MPD1     H 3472   4.563   0.437  12.954 -1.1872  0.6079 -1.3164
  225MPD1    H1 3473   4.480   0.856  12.904  0.8496 -0.0514 -0.3011
  225MPD1    H2 3474   4.722   0.749  13.216 -0.4075 -0.1234  0.5777
  225MPD1    H3 3475   4.623   0.913  13.076 -0.3513 -0.0271 -2.3788
  225MPD1     N 3476   4.406   0.614  12.813 -0.5967  0.5210 -0.4401
  225MPD1    H5 3477   4.370   0.689  12.755  0.6449  1.7767  0.4199
  225MPD1    N1 3478   4.698   0.476  13.174 -0.4145  0.1585 -0.3748
  225MPD1    H6 3479   4.665   0.383  13.149  2.0694 -1.0721  0.8612
  225MPD1    H7 3480   4.711   0.484  13.275 -1.8174 -1.1727 -0.0929
  226MPD1     C 3481   2.698   0.726   9.486  0.3230  0.2055  0.7798
  226MPD1    C1 3482   2.640   0.603   9.493  1.0864 -0.3601 -0.7196
  226MPD1    C2 3483   2.510   0.595   9.436  0.3433 -0.9921  0.1312
  226MPD1    C3 3484   2.439   0.704   9.380 -0.1970 -0.4760  0.2251
  226MPD1    C4 3485   2.502   0.820   9.370 -0.4517 -0.0591 -0.5425
  226MPD1    C5 3486   2.626   0.835   9.435  0.5256 -0.1074 -0.5103
  226MPD1     H 3487   2.458   0.500   9.433 -3.1415  0.9252  0.7223
  226MPD1    H1 3488   2.452   0.911   9.337 -2.1970 -1.3408 -1.4410
  226MPD1    H2 3489   2.796   0.743   9.530  1.3916 -2.4007 -0.5423
  226MPD1    H3 3490   2.666   0.933   9.457 -2.7972  0.8195  1.3410
  226MPD1     N 3491   2.309   0.676   9.316 -0.2418  0.0038 -0.3174
  226MPD1    H5 3492   2.279   0.580   9.326  0.2011  0.0664  1.6191
  226MPD1    N1 3493   2.712   0.495   9.545  0.2785  0.2515  0.3486
  226MPD1    H6 3494   2.649   0.415   9.552 -0.1010  0.3531 -1.9989
  226MPD1    H7 3495   2.745   0.522   9.637  1.4830 -0.3840  0.0999
  227MPD1     C 3496   1.450   1.090   9.598 -0.0137  0.4682 -0.2189
  227MPD1    C1 3497   1.582   1.091   9.646 -0.2075  0.1739  0.1983
  227MPD1    C2 3498   1.675   1.027   9.566  0.0179  0.3273 -0.8038
  227MPD1    C3 3499   1.646   0.958   9.449  0.0355 -0.2245 -0.2049
  227MPD1    C4 3500   1.520   0.965   9.395 -0.0153 -0.0914 -0.3845
  227MPD1    C5 3501   1.430   1.036   9.474  0.0775  0.2125 -1.0717
  227MPD1     H 3502   1.777   1.018   9.601 -0.0247 -0.8522 -0.9718
  227MPD1    H1 3503   1.487   0.904   9.311 -1.1749 -0.2426  0.1861
  227MPD1    H2 3504   1.374   1.138   9.659 -0.0636 -0.2344  0.2742
  227MPD1    H3 3505   1.329   1.057   9.442 -0.2887  1.6937  1.1397
  227MPD1     N 3506   1.751   0.892   9.379 -0.3608  0.1001 -0.0296
  227MPD1    H5 3507   1.844   0.902   9.421 -0.5827  0.2843  0.4174
  227MPD1    N1 3508   1.615   1.174   9.747 -0.4756  0.2393  0.2900
  227MPD1    H6 3509   1.555   1.172   9.830  1.4017  1.1539  1.6809
  227MPD1    H7 3510   1.707   1.149   9.783  0.2742  0.5716 -1.4002
  228MPD1     C 3511   0.950   2.487  13.496  0.0909 -0.0995 -0.5741
  228MPD1    C1 3512   0.841   2.537  13.423  0.0878  0.1384  0.0464
  228MPD1    C2 3513   0.766   2.446  13.345  0.8183  0.2249 -0.0800
  228MPD1    C3 3514   0.780   2.309  13.342  0.3794  0.3484  0.0936
  228MPD1    C4 3515   0.882   2.259  13.419 -0.4244  0.9054 -0.1848
  228MPD1    C5 3516   0.959   2.351  13.493  0.4935  0.5560  0.7780
  228MPD1     H 3517   0.691   2.492  13.282  1.1045  0.2310 -0.4162
  228MPD1    H1 3518   0.902   2.152  13.417 -0.0274  1.0103 -2.1872
  228MPD1    H2 3519   1.023   2.548  13.548  0.9098 -0.3665 -1.4137
  228MPD1    H3 3520   1.032   2.301  13.555 -0.2090  0.6500  1.6672
  228MPD1     N 3521   0.693   2.237  13.255  0.2896 -0.7579  0.4875
  228MPD1    H5 3522   0.607   2.281  13.225  0.0454 -0.5920  1.4370
  228MPD1    N1 3523   0.832   2.673  13.395 -0.4281 -0.0557  0.1460
  228MPD1    H6 3524   0.851   2.743  13.467  0.9900  1.2706 -1.5181
  228MPD1    H7 3525   0.752   2.704  13.341 -0.5692 -2.3499 -0.9513
  229MPD1     C 3526   0.504   0.904  15.399  0.0966 -0.6927  0.1836
  229MPD1    C1 3527   0.575   1.021  15.402 -0.0912  0.6307  0.9374
  229MPD1    C2 3528   0.715   1.015  15.407 -0.2508  0.4598  0.0927
  229MPD1    C3 3529   0.779   0.899  15.377  0.3822 -0.0758  0.3912
  229MPD1    C4 3530   0.703   0.788  15.350  0.3565 -0.2872  0.1438
  229MPD1    C5 3531   0.562   0.786  15.366  0.5047  0.0299  0.3630
  229MPD1     H 3532   0.776   1.104  15.415  0.2476  0.2283 -1.2121
  229MPD1    H1 3533   0.754   0.698  15.319  0.9693  0.1836 -0.2187
  229MPD1    H2 3534   0.396   0.903  15.408  0.1812  0.4380  1.3631
  229MPD1    H3 3535   0.500   0.699  15.348  0.4686  0.3748 -1.2211
  229MPD1     N 3536   0.919   0.883  15.382 -0.0996 -0.2958 -0.4854
  229MPD1    H5 3537   0.962   0.794  15.359 -1.0878 -1.1353  0.8987
  229MPD1    N1 3538   0.520   1.141  15.438  0.3319  0.5706  0.4106
  229MPD1    H6 3539   0.421   1.155  15.418  0.1786 -0.2664  0.5589
  229MPD1    H7 3540   0.569   1.219  15.394 -0.5376  1.6026  1.2640
  230MPD1     C 3541   1.616   1.365  15.971 -0.7938  0.3238 -0.1364
  230MPD1    C1 3542   1.536   1.418  15.873  0.1975  0.5026  0.0403
  230MPD1    C2 3543   1.478   1.331  15.785  0.2091 -0.2522 -0.2318
  230MPD1    C3 3544   1.499   1.191  15.785 -0.6591  0.2604  0.2359
  230MPD1    C4 3545   1.590   1.139  15.873 -0.1214 -0.1590 -0.2601
  230MPD1    C5 3546   1.644   1.228  15.968 -0.0284  0.0678 -0.0330
  230MPD1     H 3547   1.401   1.368  15.719 -0.5923 -0.8671  0.3579
  230MPD1    H1 3548   1.617   1.034  15.880  3.0890  0.6555 -0.1711
  230MPD1    H2 3549   1.642   1.427  16.056 -0.2001  1.9441 -1.4975
  230MPD1    H3 3550   1.709   1.186  16.044 -2.7647 -1.1084  1.6814
  230MPD1     N 3551   1.414   1.107  15.705 -0.4928  0.0901  0.5345
  230MPD1    H5 3552   1.333   1.149  15.660 -0.1314 -2.0294 -2.0843
  230MPD1    N1 3553   1.515   1.558  15.872 -0.3795  0.1322 -0.2200
  230MPD1    H6 3554   1.504   1.592  15.777  0.5535 -0.7252 -0.6224
  230MPD1    H7 3555   1.580   1.615  15.927 -0.7369  0.6267 -0.3024
  231MPD1     C 3556   4.169   2.345  15.260  0.0645  0.1400 -0.5843
  231MPD1    C1 3557   4.101   2.369  15.144 -0.7512  0.0901 -0.6996
  231MPD1    C2 3558   4.128   2.481  15.068  0.6536  0.1774 -0.2634
  231MPD1    C3 3559   4.223   2.576  15.104  0.2704 -0.2570  0.0692
  231MPD1    C4 3560   4.290   2.542  15.219  0.3740  0.8883 -0.6806
  231MPD1    C5 3561   4.265   2.432  15.292 -0.1613  0.0664 -0.2511
  231MPD1     H 3562   4.061   2.493  14.983  1.6968  0.5088 -1.0442
  231MPD1    H1 3563   4.378   2.594  15.255  1.1026 -1.0026  0.2517
  231MPD1    H2 3564   4.167   2.252  15.316  0.0343 -0.7067 -1.9974
  231MPD1    H3 3565   4.312   2.416  15.389 -0.2969  2.5625  0.2230
  231MPD1     N 3566   4.242   2.692  15.020 -0.6437  0.3869  0.1521
  231MPD1    H5 3567   4.179   2.700  14.941  0.2810 -3.0164 -0.9586
  231MPD1    N1 3568   3.994   2.283  15.106 -0.7692 -0.2384 -0.3853
  231MPD1    H6 3569   4.019   2.187  15.126 -0.3099  0.2135  1.2215
  231MPD1    H7 3570   3.962   2.300  15.010  0.4316  1.3294 -0.5060
  232MPD1     C 3571   1.633   0.625   0.226  0.1170 -0.6539  0.1007
  232MPD1    C1 3572   1.656   0.542   0.332 -0.2188  0.3217  0.4205
  232MPD1    C2 3573   1.566   0.439   0.347 -0.6469 -0.6331  0.0175
  232MPD1    C3 3574   1.485   0.396   0.249  0.7316  0.2167  0.1138
  232MPD1    C4 3575   1.466   0.479   0.137 -0.8213  0.7579  0.3368
  232MPD1    C5 3576   1.538   0.593   0.132  0.3070 -0.4501 -0.4301
  232MPD1     H 3577   1.577   0.359   0.420 -1.6276  0.8586  1.7907
  232MPD1    H1 3578   1.383   0.466   0.068  0.5832 -0.4079 -1.1115
  232MPD1    H2 3579   1.693   0.713   0.206  0.0614 -0.3485  1.2701
  232MPD1    H3 3580   1.531   0.659   0.046  2.3596 -0.8359 -0.9139
  232MPD1     N 3581   1.394   0.283   0.268 -0.3611 -0.2252 -0.5686
  232MPD1    H5 3582   1.398   0.237   0.358 -0.4792  0.3286 -0.2806
  232MPD1    N1 3583   1.742   0.586   0.438 -0.2750  0.2397  0.5824
  232MPD1    H6 3584   1.753   0.514   0.509  3.8165 -1.9082 -2.2506
  232MPD1    H7 3585   1.833   0.619   0.408 -1.3497 -1.1872 -4.1383
  233MPD1     C 3586   1.941   4.687   1.802  0.1914 -0.0053  0.1878
  233MPD1    C1 3587   2.064   0.005   1.778 -0.1488 -0.2920 -0.6508
  233MPD1    C2 3588   2.157   4.665   1.714  0.6634 -0.4976 -0.5066
  233MPD1    C3 3589   2.123   4.536   1.668  0.3512  0.2683  0.5476
  233MPD1    C4 3590   1.997   4.498   1.672  0.1788  0.3106 -0.5684
  233MPD1    C5 3591   1.911   4.571   1.746 -0.6376  0.2737  0.4303
  233MPD1     H 3592   2.256   4.709   1.709  1.3110 -2.1483 -1.9110
  233MPD1    H1 3593   1.963   4.404   1.630  0.3773  0.3838 -0.8997
  233MPD1    H2 3594   1.867   0.001   1.862 -0.1393  0.6544 -0.7793
  233MPD1    H3 3595   1.816   4.525   1.769 -1.1009 -0.6007 -3.2251
  233MPD1     N 3596   2.217   4.438   1.628  0.0358  0.3458  0.1627
  233MPD1    H5 3597   2.191   4.350   1.584 -0.1461 -0.2381  1.4353
  233MPD1    N1 3598   2.094   0.125   1.841 -0.1443  0.0746 -0.3004
  233MPD1    H6 3599   2.167   0.178   1.793  0.7279 -1.7486 -0.9858
  233MPD1    H7 3600   2.024   0.198   1.846  0.5757  0.8187 -1.0106
  234MPD1     C 3601   3.879   3.000   9.800 -1.3572  0.6230 -0.7214
  234MPD1    C1 3602   3.836   3.124   9.836 -0.3408 -0.3949  0.5443
  234MPD1    C2 3603   3.703   3.153   9.819  0.1204  0.1329  0.0696
  234MPD1    C3 3604   3.607   3.068   9.773  0.8741 -0.1254  0.3310
  234MPD1    C4 3605   3.647   2.939   9.747  0.5091 -1.0093  0.6879
  234MPD1    C5 3606   3.782   2.912   9.756 -0.3422  0.9419  0.2075
  234MPD1     H 3607   3.668   3.249   9.855  0.4426  0.7180 -1.2027
  234MPD1    H1 3608   3.578   2.860   9.719 -0.2163 -0.6075  1.3187
  234MPD1    H2 3609   3.981   2.969   9.821 -1.7861 -1.3952 -1.5344
  234MPD1    H3 3610   3.816   2.810   9.746  0.0519  1.0582  0.3782
  234MPD1     N 3611   3.470   3.109   9.777  0.3341  0.0282  0.4606
  234MPD1    H5 3612   3.471   3.199   9.823 -0.6562 -0.2865  1.0928
  234MPD1    N1 3613   3.918   3.230   9.889 -0.7999  0.0246  0.0780
  234MPD1    H6 3614   4.019   3.217   9.895 -0.6966  1.8342  2.0384
  234MPD1    H7 3615   3.888   3.289   9.966  2.8857 -0.7798  2.1148
  235MPD1     C 3616   0.474   1.254  11.555 -0.6170 -0.0679  0.2431
  235MPD1    C1 3617   0.582   1.319  11.509  0.2271  0.1879  0.5951
  235MPD1    C2 3618   0.608   1.324  11.375 -0.4687  0.7867 -0.0516
  235MPD1    C3 3619   0.523   1.269  11.280  0.6131 -0.3491  0.1619
  235MPD1    C4 3620   0.401   1.219  11.333 -0.0457 -0.3132 -0.0287
  235MPD1    C5 3621   0.382   1.211  11.466 -0.3762 -0.0718  0.0815
  235MPD1     H 3622   0.695   1.381  11.344  0.3055 -0.8491 -0.9294
  235MPD1    H1 3623   0.322   1.184  11.268 -1.5904 -2.0566  2.7749
  235MPD1    H2 3624   0.445   1.250  11.660  0.1910 -3.6101  0.3616
  235MPD1    H3 3625   0.297   1.158  11.507 -1.5352  1.2930 -0.5533
  235MPD1     N 3626   0.557   1.280  11.140  0.3314 -0.5278  0.1764
  235MPD1    H5 3627   0.626   1.349  11.112  0.2522  0.0363  1.3651
  235MPD1    N1 3628   0.683   1.353  11.603 -0.1077 -0.3020 -0.3724
  235MPD1    H6 3629   0.650   1.363  11.698  1.4829 -0.5281  0.2030
  235MPD1    H7 3630   0.737   1.433  11.570  0.5872  0.1333  1.8218
  236MPD1     C 3631   4.335   2.802  10.387  0.7460  0.4284  0.6928
  236MPD1    C1 3632   4.282   2.676  10.390 -0.5160 -0.1131  0.5024
  236MPD1    C2 3633   4.353   2.589  10.470 -0.1071  0.2914  0.2020
  236MPD1    C3 3634   4.485   2.620  10.518 -0.0382  0.6184 -0.2359
  236MPD1    C4 3635   4.533   2.742  10.509 -0.0999  0.0103  0.7609
  236MPD1    C5 3636   4.462   2.831  10.435 -0.3723 -0.7297  0.4599
  236MPD1     H 3637   4.311   2.489  10.474  0.6075 -0.0353 -0.4207
  236MPD1    H1 3638   4.632   2.768  10.543 -1.0608  1.8376  2.1311
  236MPD1    H2 3639   4.272   2.874  10.335 -1.6667 -1.5020  0.9285
  236MPD1    H3 3640   4.492   2.935  10.426 -0.1656 -0.7961  0.3744
  236MPD1     N 3641   4.565   2.526  10.587 -0.7281  0.8590  0.0101
  236MPD1    H5 3642   4.652   2.564  10.623 -0.2324  0.0308 -0.3142
  236MPD1    N1 3643   4.145   2.661  10.374  0.0343  0.2514  0.5284
  236MPD1    H6 3644   4.102   2.731  10.314 -3.9180 -2.8557 -0.2495
  236MPD1    H7 3645   4.111   2.569  10.344 -0.0011  0.2627  0.5342
  237MPD1     C 3646   0.397   3.943  15.127 -0.0692 -0.3270  0.0323
  237MPD1    C1 3647   0.335   3.933  15.253 -0.1414 -0.2018  0.6271
  237MPD1    C2 3648   0.202   3.906  15.256  0.6086 -0.4930  0.6401
  237MPD1    C3 3649   0.123   3.892  15.145  0.1589 -0.5847  0.4171
  237MPD1    C4 3650   0.183   3.901  15.018  0.2813  0.4027  0.2594
  237MPD1    C5 3651   0.322   3.929  15.011 -0.6502  0.2926 -0.0182
  237MPD1     H 3652   0.153   3.904  15.353  1.9871 -1.2793  1.3203
  237MPD1    H1 3653   0.123   3.896  14.927  1.7513  1.0930 -0.7546
  237MPD1    H2 3654   0.503   3.964  15.125  0.1488 -1.7299 -2.2158
  237MPD1    H3 3655   0.362   3.928  14.910 -1.3717 -3.9237 -0.2897
  237MPD1     N 3656   4.722   3.881  15.145 -0.1461 -0.5142 -0.1700
  237MPD1    H5 3657   4.667   3.892  15.061 -0.5955  0.7732  0.2909
  237MPD1    N1 3658   0.409   3.953  15.369  0.7556 -0.5465  0.2120
  237MPD1    H6 3659   0.351   3.987  15.445  0.7059  3.0136 -1.3988
  237MPD1    H7 3660   0.497   4.003  15.358  0.5781 -0.1199  0.7673
  238MPD1     C 3661   1.602   2.733  15.259  0.4831 -0.1117  0.0983
  238MPD1    C1 3662   1.547   2.610  15.291  0.1904 -0.3355 -0.0762
  238MPD1    C2 3663   1.412   2.603  15.300 -0.0262  0.1073  0.1167
  238MPD1    C3 3664   1.324   2.708  15.273  0.3212 -0.0718  0.2499
  238MPD1    C4 3665   1.382   2.826  15.246 -0.3508  0.3326 -0.2623
  238MPD1    C5 3666   1.518   2.835  15.236 -0.0286 -0.0403  0.4339
  238MPD1     H 3667   1.357   2.510  15.306  0.0762 -0.1155 -2.3620
  238MPD1    H1 3668   1.316   2.908  15.219  0.4200 -0.2108 -3.8149
  238MPD1    H2 3669   1.709   2.750  15.251  0.4889  0.6182  1.7963
  238MPD1    H3 3670   1.567   2.930  15.216  0.7794 -0.3296  1.0542
  238MPD1     N 3671   1.180   2.703  15.266  0.1832  0.1115  0.7629
  238MPD1    H5 3672   1.134   2.789  15.237 -1.0569 -1.1762 -1.1060
  238MPD1    N1 3673   1.631   2.491  15.293  0.0112  0.1274  1.0603
  238MPD1    H6 3674   1.717   2.514  15.342  1.4834  0.4804 -1.6679
  238MPD1    H7 3675   1.592   2.417  15.350 -0.5534 -0.2467  0.1823
  239MPD1     C 3676   1.231   3.509  15.394  0.0531  0.7131 -0.2962
  239MPD1    C1 3677   1.348   3.488  15.322 -0.0210 -0.0669  0.3511
  239MPD1    C2 3678   1.374   3.570  15.211 -0.0829  0.0879 -0.1026
  239MPD1    C3 3679   1.266   3.649  15.164  0.9121 -0.4087  0.4370
  239MPD1    C4 3680   1.147   3.661  15.237  0.6161  0.0902  0.3775
  239MPD1    C5 3681   1.130   3.589  15.355  0.0285 -0.4877 -0.3956
  239MPD1     H 3682   1.470   3.569  15.160 -0.7968  1.4382 -1.4837
  239MPD1    H1 3683   1.066   3.722  15.198  2.1107  2.3492  0.7884
  239MPD1    H2 3684   1.220   3.446  15.482  0.4549  0.5322 -0.3778
  239MPD1    H3 3685   1.035   3.593  15.407 -0.1917  0.4118 -0.8742
  239MPD1     N 3686   1.265   3.713  15.038 -0.8436 -0.2292 -0.0024
  239MPD1    H5 3687   1.184   3.770  15.017 -0.2386  1.0383  1.1251
  239MPD1    N1 3688   1.443   3.403  15.370 -0.4124 -0.2273  0.0684
  239MPD1    H6 3689   1.493   3.356  15.294  0.1021  2.1644 -1.0661
  239MPD1    H7 3690   1.395   3.332  15.425  0.6754 -0.7645  0.3218
  240MPD1     C 3691   0.795   3.657  14.002 -0.2989 -0.2520 -0.5980
  240MPD1    C1 3692   0.658   3.658  14.008  0.2957 -0.1045  0.0041
  240MPD1    C2 3693   0.601   3.546  14.069 -0.1140  0.3935 -0.5706
  240MPD1    C3 3694   0.682   3.452  14.134 -0.5360  0.4499  0.2584
  240MPD1    C4 3695   0.816   3.472  14.141 -0.6556  0.3655 -0.0291
  240MPD1    C5 3696   0.872   3.577  14.078 -0.0718 -0.7362 -0.1150
  240MPD1     H 3697   0.494   3.527  14.072 -0.3244  1.6969  0.4423
  240MPD1    H1 3698   0.887   3.396  14.173 -1.4051 -0.3940 -0.1560
  240MPD1    H2 3699   0.839   3.732  13.938  1.4088 -0.0775  0.7868
  240MPD1    H3 3700   0.979   3.597  14.082 -0.1864  0.0811 -1.1731
  240MPD1     N 3701   0.619   3.348  14.203  0.4375 -0.1271 -0.0011
  240MPD1    H5 3702   0.518   3.343  14.196  0.3612  0.8634  0.4374
  240MPD1    N1 3703   0.591   3.751  13.926 -0.1117  0.3365 -0.7436
  240MPD1    H6 3704   0.636   3.842  13.931 -1.1202  0.6790  2.3511
  240MPD1    H7 3705   0.493   3.769  13.947  0.7257 -0.7912  4.2620
  241MPD1     C 3706   0.719   3.175  15.142 -0.3003 -0.5281  0.2931
  241MPD1    C1 3707   0.675   3.044  15.104 -0.0497  0.2388  0.1791
  241MPD1    C2 3708   0.662   3.019  14.968  0.3503 -0.0624 -0.3627
  241MPD1    C3 3709   0.667   3.124  14.877  0.0157  0.1600  0.2760
  241MPD1    C4 3710   0.688   3.248  14.920 -0.5604  0.7137  0.4277
  241MPD1    C5 3711   0.725   3.272  15.053  0.1635  0.4425 -0.0511
  241MPD1     H 3712   0.630   2.920  14.937 -0.7218  0.2972 -0.4307
  241MPD1    H1 3713   0.682   3.334  14.853 -0.6598 -0.1868 -0.7182
  241MPD1    H2 3714   0.753   3.183  15.244  0.1185 -0.4142  0.1417
  241MPD1    H3 3715   0.755   3.370  15.087  1.4705 -0.0627  0.2941
  241MPD1     N 3716   0.638   3.111  14.742 -0.1370  0.6542 -0.3048
  241MPD1    H5 3717   0.646   3.197  14.689  0.0588  2.0349  1.9371
  241MPD1    N1 3718   0.673   2.934  15.195  0.1067 -0.1371 -0.0570
  241MPD1    H6 3719   0.620   2.851  15.170  2.2404 -1.4110 -0.3558
  241MPD1    H7 3720   0.645   2.968  15.286 -1.1742 -1.2696 -0.0364
  242MPD1     C 3721   0.902   2.119  16.257  0.1073 -0.2756  0.3998
  242MPD1    C1 3722   0.814   2.015  16.233  0.6172 -0.7655 -0.4139
  242MPD1    C2 3723   0.812   1.960  16.108  0.2787 -0.2124 -0.2690
  242MPD1    C3 3724   0.900   2.001  16.010 -0.5074  0.3812  0.3900
  242MPD1    C4 3725   1.003   2.086  16.046  0.1391  0.3144  0.1247
  242MPD1    C5 3726   0.999   2.139  16.169 -0.1187  0.9600  1.6017
  242MPD1     H 3727   0.735   1.890  16.081  2.5330 -2.1863 -1.5509
  242MPD1    H1 3728   1.084   2.114  15.980 -1.9801 -1.3305 -3.1709
  242MPD1    H2 3729   0.892   2.184  16.344 -0.0765 -1.4756  1.2805
  242MPD1    H3 3730   1.080   2.207  16.189  0.2063  0.3073  2.5277
  242MPD1     N 3731   0.893   1.962  15.875  0.0779  0.2496 -0.3517
  242MPD1    H5 3732   0.972   1.987  15.816  1.8244  0.5030  2.1015
  242MPD1    N1 3733   0.714   2.000  16.333 -0.8492 -0.0783  0.0727
  242MPD1    H6 3734   0.738   2.039  16.424  0.1957  3.3516 -1.6899
  242MPD1    H7 3735   0.678   1.904  16.335  0.3057 -0.5080 -0.2406
  243MPD1     C 3736   2.190   0.398  17.398 -0.3402  0.4687 -0.0370
  243MPD1    C1 3737   2.148   0.448  17.279  0.0724  0.3180  0.5118
  243MPD1    C2 3738   2.187   0.391  17.158 -0.1499  0.1320  0.0913
  243MPD1    C3 3739   2.259   0.273  17.157 -0.1299 -0.4203 -0.4325
  243MPD1    C4 3740   2.292   0.219  17.279 -0.2303  0.4933  1.0423
  243MPD1    C5 3741   2.260   0.282  17.396 -0.2003  0.3252 -0.4347
  243MPD1     H 3742   2.167   0.442  17.064  2.3693  0.5105 -0.2386
  243MPD1    H1 3743   2.342   0.124  17.294 -0.4880  0.1511 -0.2796
  243MPD1    H2 3744   2.166   0.448  17.491 -0.5980  1.0698 -0.4194
  243MPD1    H3 3745   2.284   0.231  17.488 -0.1617 -1.8552 -1.6359
  243MPD1     N 3746   2.307   0.217  17.039 -0.4869 -0.2035  0.3254
  243MPD1    H5 3747   2.255   0.253  16.960  0.5982  1.0857  0.2071
  243MPD1    N1 3748   2.089   0.578  17.276  1.0234 -0.5976 -0.2360
  243MPD1    H6 3749   2.033   0.585  17.192 -0.1179 -2.9565  0.3159
  243MPD1    H7 3750   2.041   0.613  17.360  0.1124 -1.5806 -0.3436
  244MPD1     C 3751   2.919   4.315  16.371  0.1078  0.0232  1.2850
  244MPD1    C1 3752   2.888   4.430  16.303  0.5913  0.0308  0.0178
  244MPD1    C2 3753   2.795   4.516  16.370 -0.5658  0.6546 -0.5724
  244MPD1    C3 3754   2.755   4.490  16.505 -0.3950  0.1449  0.8846
  244MPD1    C4 3755   2.800   4.377  16.570 -0.1462  0.3635 -0.3754
  244MPD1    C5 3756   2.890   4.295  16.499  0.2572  0.0336  0.2773
  244MPD1     H 3757   2.754   4.599  16.314 -1.9352 -0.6687 -1.5753
  244MPD1    H1 3758   2.790   4.356  16.676 -2.6194  1.1648 -0.4466
  244MPD1    H2 3759   2.968   4.230  16.325  0.1127  0.6550  0.1391
  244MPD1    H3 3760   2.925   4.210  16.557  1.1777 -0.1674 -0.5805
  244MPD1     N 3761   2.662   4.578  16.562 -0.1418 -0.0765  0.1719
  244MPD1    H5 3762   2.611   4.639  16.499  0.4277  0.8439  0.6076
  244MPD1    N1 3763   2.887   4.425  16.165  0.2877  0.1746  0.6294
  244MPD1    H6 3764   2.974   4.384  16.132  1.0354  0.8257  1.7862
  244MPD1    H7 3765   2.862   4.511  16.116 -0.7716  0.2209  1.2488
  245MPD1     C 3766   3.711   0.857  13.030  0.1737 -0.2205 -0.0167
  245MPD1    C1 3767   3.768   0.812  13.148 -0.3094 -0.8095  0.4237
  245MPD1    C2 3768   3.807   0.901  13.250  0.3351  0.1026  0.0685
  245MPD1    C3 3769   3.779   1.036  13.231 -0.1348 -0.1519  0.2265
  245MPD1    C4 3770   3.729   1.081  13.110  0.4401  0.0165 -0.3464
  245MPD1    C5 3771   3.671   0.993  13.017 -0.7748  0.6659 -0.7500
  245MPD1     H 3772   3.868   0.871  13.335 -0.4219  1.1657  0.9900
  245MPD1    H1 3773   3.723   1.187  13.088 -0.1680  0.4151  1.7795
  245MPD1    H2 3774   3.700   0.795  12.942  0.0777 -1.6323  0.9733
  245MPD1    H3 3775   3.626   1.031  12.926 -1.4698  1.4066 -0.0869
  245MPD1     N 3776   3.833   1.132  13.324 -0.3812  0.1800  0.3602
  245MPD1    H5 3777   3.892   1.086  13.392 -0.2082  0.5203  0.4384
  245MPD1    N1 3778   3.807   0.679  13.147  0.2617  0.2324  0.7111
  245MPD1    H6 3779   3.813   0.652  13.245 -0.9191 -0.9181  0.4609
  245MPD1    H7 3780   3.725   0.629  13.113  1.4399 -1.1746 -0.0014
  246MPD1     C 3781   4.632   4.096  10.059  0.0334  0.1622 -0.6772
  246MPD1    C1 3782   0.014   4.042  10.020 -0.2587  0.0333 -0.0887
  246MPD1    C2 3783   0.009   3.914   9.976  0.0765  0.5390  0.2200
  246MPD1    C3 3784   4.630   3.831   9.985 -0.8468 -0.4854 -0.0937
  246MPD1    C4 3785   4.512   3.891  10.031 -0.3046  0.1872  0.7770
  246MPD1    C5 3786   4.514   4.021  10.072 -0.8856  0.2675  0.3298
  246MPD1     H 3787   0.100   3.876   9.929 -0.3730  0.7191 -0.8007
  246MPD1    H1 3788   4.420   3.834  10.034 -2.7617  4.0866 -1.0058
  246MPD1    H2 3789   4.638   4.198  10.094 -0.7815  0.2663 -0.8512
  246MPD1    H3 3790   4.421   4.068  10.100 -0.2864  1.2109  0.7504
  246MPD1     N 3791   4.646   3.696   9.960 -0.2585  0.2090  0.7965
  246MPD1    H5 3792   4.737   3.665   9.928 -1.3158 -2.9780  0.9272
  246MPD1    N1 3793   0.127   4.122   9.999 -0.1060  0.8925 -0.2196
  246MPD1    H6 3794   0.148   4.197  10.064 -0.2668  0.3294  0.4825
  246MPD1    H7 3795   0.205   4.058   9.989 -0.0045  0.8750  0.7232
  247MPD1     C 3796   3.294   0.918  17.021  0.5088  0.3929  0.0409
  247MPD1    C1 3797   3.390   0.949  16.932  0.0143 -0.5286 -0.1728
  247MPD1    C2 3798   3.476   0.847  16.883 -0.3856 -0.2951 -0.4758
  247MPD1    C3 3799   3.454   0.714  16.917  0.5329 -0.2231 -0.5333
  247MPD1    C4 3800   3.359   0.687  17.009  0.0778 -0.0426  0.6676
  247MPD1    C5 3801   3.279   0.787  17.063  0.1499  0.7934  0.4626
  247MPD1     H 3802   3.554   0.867  16.811 -2.2914  2.7248 -1.6666
  247MPD1    H1 3803   3.344   0.584  17.041 -0.9777 -0.2917 -0.6547
  247MPD1    H2 3804   3.225   0.993  17.057 -0.7849 -0.1017 -1.3734
  247MPD1    H3 3805   3.215   0.766  17.149 -1.1696  1.1265 -0.4382
  247MPD1     N 3806   3.522   0.608  16.860  0.0972 -0.8775 -0.0325
  247MPD1    H5 3807   3.592   0.631  16.789  1.3840 -1.7780  0.9502
  247MPD1    N1 3808   3.407   1.084  16.899 -0.6120 -0.1087 -0.4983
  247MPD1    H6 3809   3.322   1.132  16.928 -1.4176 -0.4193 -2.3899
  247MPD1    H7 3810   3.415   1.088  16.798  3.1477  2.3922 -0.1161
  248MPD1     C 3811   4.519   4.577   0.424  0.0869  0.4367  0.2266
  248MPD1    C1 3812   4.528   4.644   0.544 -0.6813 -0.0749  0.2026
  248MPD1    C2 3813   4.473   0.033   0.554 -1.1766 -0.1328  0.1825
  248MPD1    C3 3814   4.375   0.079   0.462  0.5610 -0.5974  0.4354
  248MPD1    C4 3815   4.353   0.001   0.353  0.7841 -1.0647  0.2084
  248MPD1    C5 3816   4.425   4.619   0.333 -0.2026  0.9887 -0.3416
  248MPD1     H 3817   4.484   0.086   0.649 -1.3116  0.2689 -0.0266
  248MPD1    H1 3818   4.290   0.028   0.269  1.6751  3.2732  0.9205
  248MPD1    H2 3819   4.567   4.482   0.402 -0.1007 -0.4397  3.5853
  248MPD1    H3 3820   4.405   4.570   0.238 -2.3636  1.0008  0.1113
  248MPD1     N 3821   4.309   0.204   0.490  0.6070 -0.3675  0.6171
  248MPD1    H5 3822   4.326   0.244   0.581 -1.6416  2.0663 -0.0281
  248MPD1    N1 3823   4.631   4.607   0.626  0.0233  0.0378  0.4228
  248MPD1    H6 3824   4.615   4.650   0.717 -0.7910 -0.3329  0.4561
  248MPD1    H7 3825   4.633   4.505   0.631 -0.6541  0.1067  2.4545
  249MPD1     C 3826   4.455   4.525  10.153 -0.1996 -0.3255 -0.1207
  249MPD1    C1 3827   4.516   4.610  10.244 -0.0298 -0.2277 -0.0482
  249MPD1    C2 3828   4.568   4.726  10.201 -0.1522  0.3945 -0.7595
  249MPD1    C3 3829   4.551   0.037  10.074 -1.1759  0.6258  0.0717
  249MPD1    C4 3830   4.485   4.695   9.984 -0.2926  0.4469  0.1947
  249MPD1    C5 3831   4.437   4.573  10.023  0.1343  0.3519  0.5290
  249MPD1     H 3832   4.638   0.047  10.261  0.8712 -0.3680 -1.2099
  249MPD1    H1 3833   4.484   4.728   9.881  0.2914  0.5623  0.2279
  249MPD1    H2 3834   4.419   4.427  10.182  0.9679 -1.3356 -2.0873
  249MPD1    H3 3835   4.385   4.515   9.948  0.3372  1.2564 -0.3150
  249MPD1     N 3836   4.624   0.149  10.041  0.0791 -0.3615 -0.0146
  249MPD1    H5 3837   4.672   0.186  10.123 -0.0931  1.2139 -0.6304
  249MPD1    N1 3838   4.556   4.557  10.361  0.4018 -0.0499  0.0459
  249MPD1    H6 3839   4.490   4.484  10.389 -1.2813  1.7445  0.7965
  249MPD1    H7 3840   4.570   4.633  10.427  0.5427 -0.2247  0.2180
  250MPD2     C 3841   2.685   4.407  12.986 -0.3914  0.7415 -0.3289
  250MPD2    C1 3842   2.568   4.464  12.938 -0.1892  0.5004  0.4849
  250MPD2    C2 3843   2.449   4.389  12.957  0.3708  0.4767 -0.0945
  250MPD2    C3 3844   2.458   4.262  13.007 -0.0429 -0.3919  0.9785
  250MPD2    C4 3845   2.579   4.207  13.036 -0.0433 -0.1484 -0.5558
  250MPD2    C5 3846   2.692   4.282  13.028 -0.0212  0.1605  0.1701
  250MPD2     H 3847   2.353   4.427  12.925  1.0283  1.9876 -0.2640
  250MPD2    H1 3848   2.591   4.112  13.086 -0.8788 -0.3970 -0.8435
  250MPD2    H2 3849   2.777   4.463  12.972  0.6422 -0.8741 -0.0542
  250MPD2    H3 3850   2.785   4.232  13.053 -0.1203 -0.0200  0.1801
  250MPD2     N 3851   2.346   4.174  13.037  0.1889 -0.4627  0.1277
  250MPD2    H5 3852   2.367   4.098  13.101  0.0369 -1.0396 -0.5086
  250MPD2    N1 3853   2.570   4.601  12.901 -0.0227 -0.0653 -0.5158
  250MPD2    H7 3854   2.662   4.645  12.893  0.3612 -0.9009 -0.6740
  251TMC3    C1 3855   2.482   0.083  12.920 -0.6697 -0.2324  0.0351
  251TMC3    C2 3856   2.371   0.156  12.922  0.5655 -0.2262 -0.2184
  251TMC3    C3 3857   2.352   0.253  13.017  0.2189  0.4014 -0.1269
  251TMC3    C4 3858   2.576   0.095  13.017  0.2381  0.0962  0.0728
  251TMC3    C5 3859   2.564   0.197  13.103 -0.1154  0.4593  0.3879
  251TMC3    C6 3860   2.453   0.280  13.108 -0.7111 -0.0703  0.0784
  251TMC3     C 3861   2.461   4.676  12.887  0.4669 -0.5488 -0.4455
  251TMC3     O 3862   2.348   4.639  12.874 -0.3950  0.1380 -0.4026
  251TMC3     H 3863   2.304   0.146  12.837  1.3225 -1.1459 -0.7071
  251TMC3    H1 3864   2.664   0.032  13.021  1.6116  1.8829 -2.1268
  251TMC3    H2 3865   2.431   0.342  13.194  2.4259 -1.1630  1.6449
  251TMC3    C7 3866   2.655   0.189  13.216  0.0908  0.5553 -0.2044
  251TMC3    C8 3867   2.227   0.256  13.081 -0.1163  1.1318 -0.0811
  251TMC3    O1 3868   2.699   0.081  13.251 -0.3937  0.3193 -0.0417
  251TMC3    O2 3869   2.224   0.237  13.202  0.2659 -0.0253  0.3228
  252TMC3    C1 3870   2.779   1.917   9.420  0.0838 -0.3007 -0.3719
  252TMC3    C2 3871   2.748   1.980   9.542 -0.3689  0.0854  0.4855
  252TMC3    C3 3872   2.680   1.900   9.624  0.0482 -0.0063  0.3829
  252TMC3    C4 3873   2.734   1.791   9.387  0.2656  0.0536  0.3817
  252TMC3    C5 3874   2.679   1.717   9.482  0.2832  0.1093  0.4751
  252TMC3    C6 3875   2.643   1.771   9.605 -0.5802  0.4896  0.1247
  252TMC3     C 3876   2.817   2.003   9.311 -0.1748  0.2802  0.6753
  252TMC3     O 3877   2.783   1.977   9.197  0.1952  0.3221 -0.5717
  252TMC3     H 3878   2.769   2.082   9.569 -2.2997  1.0095 -1.4632
  252TMC3    H1 3879   2.749   1.746   9.290  0.2992 -1.5033  1.0936
  252TMC3    H2 3880   2.583   1.720   9.680 -0.4214 -1.3860 -1.0267
  252TMC3    C7 3881   2.631   1.588   9.446  0.1924 -0.0412 -0.6090
  252TMC3    C8 3882   2.658   1.954   9.753  0.2052  0.1979 -0.3146
  252TMC3    O1 3883   2.585   1.567   9.336  0.0147  0.7484  0.4299
  252TMC3    O2 3884   2.637   2.077   9.752  0.1215  0.2825 -0.3395
  253MPD2     C 3885   3.673   4.067  15.093  0.4796  0.5961  0.5027
  253MPD2    C1 3886   3.537   4.054  15.098 -0.8177 -0.0555  0.7592
  253MPD2    C2 3887   3.474   4.053  15.222  0.6129 -0.3875  0.4790
  253MPD2    C3 3888   3.545   4.083  15.337 -0.5118 -0.6732  0.2204
  253MPD2    C4 3889   3.682   4.092  15.336  0.5045  0.1730  0.7282
  253MPD2    C5 3890   3.741   4.090  15.212 -0.3329 -0.2551 -1.0482
  253MPD2     H 3891   3.366   4.047  15.227  0.5319  0.6362 -0.0970
  253MPD2    H1 3892   3.738   4.108  15.427  1.9723  1.4730 -0.3942
  253MPD2    H2 3893   3.723   4.082  14.998  2.3743 -0.1547  1.3803
  253MPD2    H3 3894   3.847   4.110  15.220 -0.6979  2.2454 -2.3021
  253MPD2     N 3895   3.483   4.107  15.464  0.0978  0.3519  0.1208
  253MPD2    H5 3896   3.557   4.122  15.532  1.2146 -0.8967 -0.8374
  253MPD2    N1 3897   3.461   4.032  14.975  0.8926 -0.0981 -0.2379
  253MPD2    H7 3898   3.362   4.013  14.983  0.6211  2.3308  2.4117
  254TMC3    C1 3899   3.340   4.162  15.632 -0.6203 -0.1696 -0.1641
  254TMC3    C2 3900   3.223   4.234  15.666 -0.4000  0.6770  0.1345
  254TMC3    C3 3901   3.190   4.224  15.803  0.3385  0.3787  0.1407
  254TMC3    C4 3902   3.407   4.088  15.720 -0.8315 -0.0063  0.0498
  254TMC3    C5 3903   3.359   4.072  15.845  0.7015  0.3341 -0.1107
  254TMC3    C6 3904   3.249   4.136  15.890 -0.2858  0.0141 -0.4200
  254TMC3     C 3905   3.360   4.149  15.490 -0.2203  0.6043 -0.7262
  254TMC3     O 3906   3.271   4.177  15.411 -0.6342  0.3977 -0.0712
  254TMC3     H 3907   3.174   4.287  15.585  0.3727  1.0687 -0.0771
  254TMC3    H1 3908   3.501   4.039  15.698 -1.0934 -0.2397 -0.5511
  254TMC3    H2 3909   3.221   4.137  15.995  1.5730 -1.3182  0.0867
  254TMC3    C7 3910   3.452   4.031  15.956 -0.4277  0.7803 -0.1249
  254TMC3    C8 3911   3.132   4.333  15.871  0.3574  0.2701  0.2934
  254TMC3    O1 3912   3.395   4.008  16.062 -0.2766 -0.3075  0.4011
  254TMC3    O2 3913   3.086   4.305  15.979 -0.6377 -0.5158 -0.5432
  255MPD2     C 3914   1.143   2.602  10.279  1.0625  0.0618  0.0334
  255MPD2    C1 3915   1.264   2.599  10.346 -0.1419 -0.5061  0.6479
  255MPD2    C2 3916   1.358   2.523  10.287  0.1303 -0.0339 -0.5616
  255MPD2    C3 3917   1.347   2.451  10.169  0.9461 -0.6617 -0.2344
  255MPD2    C4 3918   1.219   2.450  10.115 -0.4023  0.2807  0.3353
  255MPD2    C5 3919   1.121   2.528  10.168  0.8694 -0.3067 -0.0201
  255MPD2     H 3920   1.460   2.530  10.322  0.0139 -0.7606 -0.0696
  255MPD2    H1 3921   1.187   2.385  10.035 -2.6308 -1.7559  2.8369
  255MPD2    H2 3922   1.059   2.666  10.302  2.3109  1.1120  1.6559
  255MPD2    H3 3923   1.025   2.537  10.119  0.7891 -1.0446 -0.0020
  255MPD2     N 3924   1.468   2.393  10.112  0.1866 -0.5929 -0.1114
  255MPD2    H5 3925   1.547   2.396  10.176  0.5805  2.0215 -0.6894
  255MPD2    N1 3926   1.284   2.683  10.455  0.3994 -0.5025 -0.3559
  255MPD2    H7 3927   1.236   2.772  10.446  0.7411 -0.4403 -1.5425
  256TMC3    C1 3928   1.422   2.773  10.618  0.7565 -0.4975 -0.2591
  256TMC3    C2 3929   1.540   2.827  10.578  0.6745 -0.3476 -0.4860
  256TMC3    C3 3930   1.553   2.964  10.567 -1.0329 -0.5607  0.2501
  256TMC3    C4 3931   1.321   2.855  10.654 -0.2562  0.2450 -0.4667
  256TMC3    C5 3932   1.338   2.997  10.651  0.8131  0.1837 -0.3474
  256TMC3    C6 3933   1.459   3.050  10.610  0.2114  0.3676 -0.1064
  256TMC3     C 3934   1.394   2.662  10.537 -0.3827 -0.5244  0.4444
  256TMC3     O 3935   1.453   2.558  10.563  0.5588  0.0334  0.0848
  256TMC3     H 3936   1.617   2.765  10.533 -0.2529 -2.0059  0.2313
  256TMC3    H1 3937   1.224   2.809  10.669 -1.0923  2.4465  0.8262
  256TMC3    H2 3938   1.472   3.157  10.596 -1.1159  0.6024  0.3762
  256TMC3    C7 3939   1.216   3.066  10.672 -0.2444  0.3667  0.6907
  256TMC3    C8 3940   1.684   3.006  10.527 -0.0094 -1.4271 -0.7860
  256TMC3    O1 3941   1.116   2.997  10.684 -0.1532 -0.0688 -0.5228
  256TMC3    O2 3942   1.779   2.944  10.566 -0.0170  0.0510 -0.0680
  257MPD2     C 3943   0.944   4.331  13.508 -0.0866 -1.6165  0.0074
  257MPD2    C1 3944   1.059   4.285  13.443  0.3711 -0.1930  0.4752
  257MPD2    C2 3945   1.108   4.162  13.480  0.6641  0.7627  0.1963
  257MPD2    C3 3946   1.050   4.087  13.584 -0.1967 -0.0189  0.2591
  257MPD2    C4 3947   0.944   4.143  13.659  0.4483 -0.2514 -0.2047
  257MPD2    C5 3948   0.893   4.259  13.613 -0.2964  0.1518 -0.1137
  257MPD2     H 3949   1.196   4.121  13.431 -0.7038 -0.6540 -1.0691
  257MPD2    H1 3950   0.893   4.114  13.751  0.3720 -1.5356 -0.6625
  257MPD2    H2 3951   0.894   4.424  13.484 -2.8006 -3.3144 -0.9355
  257MPD2    H3 3952   0.827   4.319  13.675 -0.5633 -0.2615  0.0069
  257MPD2     N 3953   1.104   3.958  13.610 -0.4538 -0.2216  0.2774
  257MPD2    H5 3954   1.162   3.918  13.536 -0.6792 -2.1208  1.1308
  257MPD2    N1 3955   1.109   4.363  13.335 -0.0839 -0.1299 -0.1623
  257MPD2    H7 3956   1.071   4.455  13.312  1.2658  0.6420  0.6634
  258TMC3    C1 3957   1.164   3.768  13.744 -0.7361  0.1625  0.0374
  258TMC3    C2 3958   1.220   3.714  13.634 -0.5646 -0.2082 -0.0408
  258TMC3    C3 3959   1.265   3.579  13.639  0.5554  0.1720  0.4682
  258TMC3    C4 3960   1.148   3.694  13.861 -0.0274 -0.1392 -0.0202
  258TMC3    C5 3961   1.203   3.571  13.868 -0.2084 -0.2472  0.4701
  258TMC3    C6 3962   1.253   3.507  13.758  0.0367  0.0853  0.6308
  258TMC3     C 3963   1.086   3.889  13.726  0.2786 -0.4919  0.6006
  258TMC3     O 3964   1.015   3.915  13.822  0.2942 -0.2117  0.1284
  258TMC3     H 3965   1.235   3.765  13.540  2.0756 -0.4530  0.2405
  258TMC3    H1 3966   1.097   3.741  13.944 -0.4684 -0.5639 -0.0498
  258TMC3    H2 3967   1.279   3.402  13.761 -4.1795 -0.9401  1.8048
  258TMC3    C7 3968   1.274   3.543  13.996  0.1153  0.2507  1.0383
  258TMC3    C8 3969   1.325   3.516  13.527  0.3784 -0.2671  0.1892
  258TMC3    O1 3970   1.299   3.645  14.059 -0.5212 -0.0100  0.6059
  258TMC3    O2 3971   1.319   3.576  13.420 -0.1128  0.1018  0.1594
  259MPD2     C 3972   0.174   0.723   0.273 -0.5272 -0.0823  0.8529
  259MPD2    C1 3973   0.239   0.624   0.349  0.3189 -0.2495 -0.2996
  259MPD2    C2 3974   0.363   0.582   0.309  0.1594 -0.4813  0.3827
  259MPD2    C3 3975   0.422   0.628   0.194  0.2958 -0.4237 -0.3645
  259MPD2    C4 3976   0.354   0.728   0.120  0.1160 -0.4536  0.0361
  259MPD2    C5 3977   0.232   0.770   0.163  0.4285  0.0390  0.6808
  259MPD2     H 3978   0.418   0.499   0.351  3.0933  1.3121  0.0890
  259MPD2    H1 3979   0.401   0.786   0.042 -0.6060 -0.0896 -0.1336
  259MPD2    H2 3980   0.080   0.764   0.308 -0.7774 -1.4227  1.7387
  259MPD2    H3 3981   0.180   0.849   0.110 -0.1653 -0.9194 -0.1479
  259MPD2     N 3982   0.552   0.594   0.166  0.5501  0.5762 -0.0281
  259MPD2    H5 3983   0.594   0.535   0.236  2.7579  1.3314 -0.7239
  259MPD2    N1 3984   0.182   0.581   0.468 -0.0960 -0.0976 -0.4277
  259MPD2    H7 3985   0.100   0.631   0.500 -0.9492 -1.2357 -0.8772
  260TMC3    C1 3986   0.766   0.598   0.068  0.1761 -0.4762  0.1643
  260TMC3    C2 3987   0.828   0.568  17.695 -0.1709 -0.2405 -0.1283
  260TMC3    C3 3988   0.950   0.508  17.710  0.3582  0.2922  0.0865
  260TMC3    C4 3989   0.811   0.552   0.191 -0.3745 -0.3712 -0.4224
  260TMC3    C5 3990   0.932   0.489   0.198  0.1641  0.4177 -0.8086
  260TMC3    C6 3991   1.001   0.464   0.081  0.6929 -0.2797  0.3765
  260TMC3     C 3992   0.626   0.629   0.050  0.3543 -0.1598 -0.0304
  260TMC3     O 3993   0.586   0.682  17.694 -0.1135 -0.6268  0.0490
  260TMC3     H 3994   0.787   0.596  17.599  2.1060 -1.5151 -1.4879
  260TMC3    H1 3995   0.758   0.570   0.284  2.5280 -1.3361  1.3957
  260TMC3    H2 3996   1.098   0.415   0.080  2.9092  4.1021  0.6520
  260TMC3    C7 3997   0.921   0.363   0.267 -0.2499  0.8809  0.3442
  260TMC3    C8 3998   0.959   0.412  17.599  0.1046 -0.8414 -0.3115
  260TMC3    O1 3999   0.935   0.270   0.185  0.2245 -0.3556  0.6633
  260TMC3    O2 4000   0.924   0.451  17.491  0.3744 -0.1614  0.5287
  261MPD2     C 4001   1.474   4.201  13.052  0.1302 -0.2928 -0.7481
  261MPD2    C1 4002   1.590   4.222  12.985  0.1898 -0.7401 -0.4543
  261MPD2    C2 4003   1.581   4.282  12.865 -0.0190  0.0796  0.2677
  261MPD2    C3 4004   1.461   4.304  12.803  0.3650 -0.0809  0.2694
  261MPD2    C4 4005   1.344   4.277  12.870 -0.4364  0.8020  0.6739
  261MPD2    C5 4006   1.354   4.230  12.994  0.1217 -0.1920  0.9421
  261MPD2     H 4007   1.669   4.301  12.803  0.4604 -1.2457  0.5555
  261MPD2    H1 4008   1.243   4.299  12.836 -0.3402  1.8869  1.1008
  261MPD2    H2 4009   1.474   4.184  13.159  0.4042  3.2811 -0.1808
  261MPD2    H3 4010   1.260   4.218  13.047  0.8037 -2.1994  1.6780
  261MPD2     N 4011   1.462   4.373  12.679  0.2476  0.5243 -0.7709
  261MPD2    H5 4012   1.549   4.404  12.639 -0.5286  1.1788 -1.9482
  261MPD2    N1 4013   1.725   4.196  13.024  0.7820  0.0863 -0.0486
  261MPD2    H7 4014   1.792   4.197  12.948  3.1070  3.4760  2.0339
  262TMC3    C1 4015   1.375   4.439  12.462  0.4343 -0.6161 -0.1968
  262TMC3    C2 4016   1.303   4.542  12.407 -0.0521  0.0197 -0.8989
  262TMC3    C3 4017   1.364   4.602  12.299  0.4048 -0.2301  0.1509
  262TMC3    C4 4018   1.497   4.387  12.417  0.5701  0.1993 -1.2213
  262TMC3    C5 4019   1.553   4.454  12.310  0.1631 -0.3666 -0.7692
  262TMC3    C6 4020   1.489   4.567  12.255  0.2932  0.2540 -0.9342
  262TMC3     C 4021   1.348   4.401  12.601  0.2921  0.2049  0.2079
  262TMC3     O 4022   1.229   4.381  12.623 -0.2133  0.7439 -0.5198
  262TMC3     H 4023   1.209   4.576  12.447  0.2360 -0.7650  0.4438
  262TMC3    H1 4024   1.539   4.295  12.456 -2.7818 -0.5831  0.5955
  262TMC3    H2 4025   1.534   4.616  12.169  1.2759  1.3136  0.1796
  262TMC3    C7 4026   1.678   4.407  12.265 -0.1469  0.0978  0.0137
  262TMC3    C8 4027   1.311   4.732  12.249  0.5156  0.0977  0.1467
  262TMC3    O1 4028   1.703   4.290  12.299  0.5530 -0.2523  0.1414
  262TMC3    O2 4029   1.390   0.045  12.163 -1.1834 -0.2117 -0.0042
  263MPD2     C 4030   2.860   4.302  11.884 -0.4074  0.9019  0.0899
  263MPD2    C1 4031   2.963   4.231  11.822 -0.3732 -0.7878  0.1339
  263MPD2    C2 4032   2.949   4.186  11.695 -0.4944 -0.3779 -0.1150
  263MPD2    C3 4033   2.830   4.209  11.627 -0.5406 -0.4432 -0.0098
  263MPD2    C4 4034   2.731   4.294  11.682  0.6053 -0.5534  0.0395
  263MPD2    C5 4035   2.751   4.339  11.809 -0.1729  0.0258  0.7020
  263MPD2     H 4036   3.020   4.122  11.644 -0.3690  0.1109 -0.5579
  263MPD2    H1 4037   2.636   4.317  11.637  1.4785 -1.3059 -2.1680
  263MPD2    H2 4038   2.871   4.341  11.985 -0.3841 -0.4594  0.6031
  263MPD2    H3 4039   2.670   4.392  11.859 -1.2681 -0.7711 -0.2253
  263MPD2     N 4040   2.828   4.149  11.501 -0.0103  0.0729 -0.1881
  263MPD2    H5 4041   2.905   4.088  11.473  0.6186  0.2721  1.0781
  263MPD2    N1 4042   3.075   4.186  11.905  0.3088 -0.3432  0.2847
  263MPD2    H7 4043   3.086   4.219  12.000 -1.4925  1.8357 -0.2679
  264TMC3    C1 4044   2.754   4.085  11.296  0.5424  0.6876 -0.3490
  264TMC3    C2 4045   2.640   4.063  11.224 -0.0450 -0.0530 -0.7279
  264TMC3    C3 4046   2.640   4.051  11.090  0.0456  0.1523 -0.6911
  264TMC3    C4 4047   2.873   4.105  11.227 -0.8392 -0.2027 -0.0697
  264TMC3    C5 4048   2.875   4.079  11.094  0.4790 -0.6854  0.0076
  264TMC3    C6 4049   2.761   4.047  11.021 -0.1701  0.4365  0.8238
  264TMC3     C 4050   2.728   4.160  11.416  0.2979 -0.0510 -0.1603
  264TMC3     O 4051   2.630   4.233  11.416  0.3811  1.2061  0.5572
  264TMC3     H 4052   2.542   4.066  11.271  0.4515  0.5840  0.2742
  264TMC3    H1 4053   2.960   4.133  11.287 -0.3958 -1.9703  0.1154
  264TMC3    H2 4054   2.766   4.048  10.913 -2.2263 -3.3610  0.7105
  264TMC3    C7 4055   2.961   4.176  11.015 -0.7627  0.0759  0.0347
  264TMC3    C8 4056   2.538   4.122  11.027 -0.8780 -0.8086  0.0396
  264TMC3    O1 4057   2.966   4.164  10.892  0.3989  0.0813 -0.3736
  264TMC3    O2 4058   2.467   4.076  10.943  0.1830 -0.2939 -0.1012
  265MPD2     C 4059   4.568   3.419  15.520  0.5191 -0.5418 -0.3505
  265MPD2    C1 4060   4.637   3.533  15.493  0.4189 -0.5372 -0.5497
  265MPD2    C2 4061   4.724   3.527  15.390  0.0424  1.2869  0.3235
  265MPD2    C3 4062   0.008   3.407  15.320  0.0688  0.2065  0.3433
  265MPD2    C4 4063   4.668   3.298  15.345 -0.7185 -0.5065  0.0435
  265MPD2    C5 4064   4.582   3.312  15.445  0.0758  0.2671 -0.5040
  265MPD2     H 4065   0.054   3.610  15.369 -1.0512  2.8165  2.7671
  265MPD2    H1 4066   4.673   3.207  15.286  0.2361 -0.0710 -0.5541
  265MPD2    H2 4067   4.501   3.420  15.605 -1.9918  1.4588 -2.3732
  265MPD2    H3 4068   4.516   3.227  15.462  0.0654  0.1013 -1.4069
  265MPD2     N 4069   0.101   3.385  15.216  0.2258 -1.0328 -0.0085
  265MPD2    H5 4070   0.087   3.302  15.160 -0.2567 -2.4703  2.2504
  265MPD2    N1 4071   4.622   3.644  15.577  0.3960 -0.0402 -0.1174
  265MPD2    H7 4072   4.639   3.736  15.536 -1.4715  0.5163  0.3065
  266TMC3    C1 4073   4.605   3.767  15.776 -0.2193  0.1155 -0.1881
  266TMC3    C2 4074   4.664   3.788  15.892  0.3522 -0.3600 -0.8339
  266TMC3    C3 4075   4.661   3.913  15.940 -0.6310 -0.0621 -0.5513
  266TMC3    C4 4076   4.561   3.869  15.692 -0.2989  0.4766  0.6312
  266TMC3    C5 4077   4.582   3.998  15.736 -0.3393  0.0236  0.1039
  266TMC3    C6 4078   4.624   4.018  15.863 -0.4773 -0.1907  0.3330
  266TMC3     C 4079   4.614   3.632  15.712  0.4116 -0.0821 -0.6332
  266TMC3     O 4080   4.632   3.536  15.787 -0.0818  0.1307  0.0057
  266TMC3     H 4081   4.706   3.709  15.954 -1.5753  0.5930  1.7017
  266TMC3    H1 4082   4.503   3.843  15.604 -0.2213  1.9606  0.1445
  266TMC3    H2 4083   4.618   4.121  15.894 -1.3974 -0.3738  0.7785
  266TMC3    C7 4084   4.522   4.103  15.664 -0.0207  0.4140  0.4958
  266TMC3    C8 4085   4.716   3.936  16.079  0.1270  0.0247 -0.2048
  266TMC3    O1 4086   4.472   4.192  15.728 -0.2323  0.5276  0.1502
  266TMC3    O2 4087   0.011   3.837  16.149 -0.0417 -0.3865  0.0179
  267MPD2     C 4088   1.973   1.048   0.275  0.0194  0.5406 -0.3325
  267MPD2    C1 4089   2.098   1.095   0.242  0.5384 -0.9584  0.0791
  267MPD2    C2 4090   2.133   1.096   0.109  1.2419 -0.9256  0.5992
  267MPD2    C3 4091   2.042   1.071   0.002 -0.2455 -0.2294 -0.4358
  267MPD2    C4 4092   1.914   1.034   0.043  0.2720  0.1398 -0.0120
  267MPD2    C5 4093   1.883   1.027   0.175  0.1225  1.5359 -0.4646
  267MPD2     H 4094   2.237   1.121   0.090  0.8738 -0.6545 -1.0949
  267MPD2    H1 4095   1.838   1.010  17.717  0.0038  1.4785 -0.1588
  267MPD2    H2 4096   1.943   1.043   0.379 -1.8326 -0.5510 -0.9230
  267MPD2    H3 4097   1.781   1.021   0.212 -0.6292  1.6520 -2.5066
  267MPD2     N 4098   2.065   1.082  17.612 -0.1770  0.4188  0.4094
  267MPD2    H5 4099   1.988   1.042  17.558 -1.4333  1.6580  1.2894
  267MPD2    N1 4100   2.192   1.121   0.349 -0.1703 -0.1351  0.0997
  267MPD2    H7 4101   2.177   1.094   0.446 -0.4892  2.2352  0.7129
  268TMC3    C1 4102   2.402   1.180   0.428  0.1225 -0.3200  0.4792
  268TMC3    C2 4103   2.508   1.266   0.414  0.0554  0.0794  0.6962
  268TMC3    C3 4104   2.620   1.234   0.482  0.0876 -0.2463 -0.2011
  268TMC3    C4 4105   2.403   1.059   0.498 -1.0465  0.6144 -0.0034
  268TMC3    C5 4106   2.520   1.037   0.563  0.6210  0.3155 -0.4751
  268TMC3    C6 4107   2.630   1.123   0.556 -0.7806 -0.0152  0.0524
  268TMC3     C 4108   2.295   1.201   0.330 -0.0480  0.2299 -0.6216
  268TMC3     O 4109   2.308   1.284   0.240  0.5944  0.5421  0.1547
  268TMC3     H 4110   2.503   1.359   0.359  1.9065  0.5223  1.2842
  268TMC3    H1 4111   2.318   0.993   0.515 -1.3430 -0.0019 -3.7992
  268TMC3    H2 4112   2.716   1.108   0.620  0.4151  0.6165 -1.4128
  268TMC3    C7 4113   2.528   0.947   0.668 -0.5050 -0.1710 -0.8892
  268TMC3    C8 4114   2.740   1.305   0.462  0.6481 -0.1983 -0.2132
  268TMC3    O1 4115   2.591   0.986   0.765  0.0441 -0.5163  0.3760
  268TMC3    O2 4116   2.803   1.354   0.556  0.4121 -0.2460 -0.4621
  269MPD2     C 4117   2.884   4.478  15.598 -0.0914 -0.0160 -0.0913
  269MPD2    C1 4118   2.824   4.519  15.718 -0.5664  0.7369 -0.9328
  269MPD2    C2 4119   2.797   4.653  15.742 -0.1030 -0.6021 -0.4294
  269MPD2    C3 4120   2.829   4.737  15.637 -0.1401 -0.5177  1.0353
  269MPD2    C4 4121   2.886   4.694  15.517 -0.2397  0.3996 -0.0202
  269MPD2    C5 4122   2.909   4.562  15.503  0.2727  0.7201 -0.2912
  269MPD2     H 4123   2.750   4.696  15.830  0.1346  0.5230 -0.8415
  269MPD2    H1 4124   2.899   0.023  15.433 -1.6765 -0.5913 -1.0292
  269MPD2    H2 4125   2.895   4.374  15.571  0.2979 -0.4101  1.5990
  269MPD2    H3 4126   2.940   4.528  15.405  0.9235 -0.8869  0.4776
  269MPD2     N 4127   2.788   0.134  15.661  0.7527 -0.7816  0.1705
  269MPD2    H5 4128   2.732   0.152  15.744 -1.3867 -1.5176 -1.1262
  269MPD2    N1 4129   2.781   4.413  15.800 -0.2045  0.8491  0.1946
  269MPD2    H7 4130   2.777   4.319  15.760 -1.8368  0.3287  1.5828
  270TMC3    C1 4131   2.674   4.286  15.952 -0.7913  0.4909 -0.0918
  270TMC3    C2 4132   2.537   4.251  15.943  0.3424 -0.1892 -0.0213
  270TMC3    C3 4133   2.496   4.119  15.945  0.3712 -0.0757  0.1583
  270TMC3    C4 4134   2.764   4.186  15.956 -0.1678  0.3593  0.5921
  270TMC3    C5 4135   2.720   4.058  15.944  0.3138 -0.4715 -0.4898
  270TMC3    C6 4136   2.590   4.023  15.940 -0.6662  0.3563 -0.0295
  270TMC3     C 4137   2.708   4.419  15.918  0.1442  0.5699  0.2328
  270TMC3     O 4138   2.644   4.512  15.970  0.0364 -0.3649 -0.1412
  270TMC3     H 4139   2.461   4.327  15.947  0.9526  0.4953 -1.3643
  270TMC3    H1 4140   2.868   4.215  15.959 -0.2236  0.3668  2.1261
  270TMC3    H2 4141   2.561   3.919  15.931 -0.8170  0.3645  0.3682
  270TMC3    C7 4142   2.805   3.975  15.856  0.4606 -0.2388 -0.0815
  270TMC3    C8 4143   2.382   4.101  15.857 -0.8461  0.5563 -0.1411
  270TMC3    O1 4144   2.923   3.964  15.884 -0.3098  0.0779  0.0450
  270TMC3    O2 4145   2.368   4.193  15.780 -0.1238  0.3622 -0.5503
  271MPD2     C 4146   1.695   4.117  14.144  0.0463 -0.2075  0.3408
  271MPD2    C1 4147   1.638   4.145  14.264  0.1886  0.3977 -0.3073
  271MPD2    C2 4148   1.516   4.202  14.269 -0.3455 -0.3118 -0.2521
  271MPD2    C3 4149   1.463   4.248  14.149  0.3741  0.5218  0.4107
  271MPD2    C4 4150   1.514   4.210  14.028  0.1131 -0.0216 -0.0170
  271MPD2    C5 4151   1.629   4.133  14.027  0.6701  0.1716 -0.1173
  271MPD2     H 4152   1.477   4.243  14.362  0.3558  1.6984 -0.8378
  271MPD2    H1 4153   1.472   4.237  13.932 -4.0662  0.2969  1.8936
  271MPD2    H2 4154   1.787   4.061  14.128  0.0672  0.1268 -0.6846
  271MPD2    H3 4155   1.666   4.106  13.928 -0.6845  1.2340 -0.9176
  271MPD2     N 4156   1.341   4.324  14.136 -0.3392  0.6887  0.2915
  271MPD2    H5 4157   1.316   4.346  14.040  1.8872 -0.5722 -0.5820
  271MPD2    N1 4158   1.693   4.113  14.396 -0.1778  0.7455  0.5484
  271MPD2    H7 4159   1.631   4.127  14.476  1.7689  2.7364  1.7051
  272TMC3    C1 4160   1.850   4.011  14.535 -0.2750  0.0932 -0.1640
  272TMC3    C2 4161   1.955   3.914  14.526 -1.0854  0.3941 -0.6087
  272TMC3    C3 4162   1.993   3.857  14.645 -0.5150  0.3248  0.0106
  272TMC3    C4 4163   1.785   4.053  14.644  0.4882 -0.1833 -0.3615
  272TMC3    C5 4164   1.827   3.995  14.760 -0.3244  0.0153 -0.2647
  272TMC3    C6 4165   1.931   3.902  14.760 -0.5775 -0.3425 -1.0783
  272TMC3     C 4166   1.825   4.069  14.408  0.0986  0.1167 -0.0208
  272TMC3     O 4167   1.913   4.080  14.327 -0.5244  0.4563  0.3565
  272TMC3     H 4168   1.983   3.884  14.426  1.8264  1.6555 -0.1801
  272TMC3    H1 4169   1.712   4.133  14.643  0.8200  0.1641  2.3549
  272TMC3    H2 4170   1.956   3.864  14.858 -0.9485  0.2197 -0.7637
  272TMC3    C7 4171   1.772   4.051  14.883  0.9309  0.3397  0.3344
  272TMC3    C8 4172   2.136   3.852  14.663  0.0982  0.5140 -0.0496
  272TMC3    O1 4173   1.654   4.084  14.883 -0.1945 -0.1626 -0.3675
  272TMC3    O2 4174   2.187   3.931  14.585 -0.8212 -0.2618  0.2440
  273MPD2     C 4175   3.516   2.860  11.896 -0.6811  0.0588 -0.1531
  273MPD2    C1 4176   3.612   2.954  11.901  0.5741  0.2048 -0.4616
  273MPD2    C2 4177   3.616   3.059  11.804 -0.6266 -0.1803  0.1756
  273MPD2    C3 4178   3.531   3.047  11.694 -0.2588  0.2261 -0.3161
  273MPD2    C4 4179   3.437   2.948  11.691  0.3967 -0.5196 -0.3017
  273MPD2    C5 4180   3.426   2.853  11.792  0.4783  0.0645  0.0003
  273MPD2     H 4181   3.697   3.131  11.809 -1.8348  1.0105  2.4800
  273MPD2    H1 4182   3.372   2.924  11.608  1.6520 -0.4115 -1.3123
  273MPD2    H2 4183   3.507   2.776  11.965  1.3973 -0.2015 -0.1912
  273MPD2    H3 4184   3.355   2.773  11.773  1.1244 -0.2084 -1.2931
  273MPD2     N 4185   3.531   3.133  11.579 -0.2868  0.6064 -0.0632
  273MPD2    H5 4186   3.458   3.122  11.508 -1.0171 -1.6014  1.0286
  273MPD2    N1 4187   3.701   2.939  12.014 -0.1381  0.0852  0.1123
  273MPD2    H7 4188   3.677   2.870  12.084  0.8343 -0.4392 -0.0805
  274TMC3    C1 4189   3.608   3.324  11.443  0.3727  0.2144 -0.4849
  274TMC3    C2 4190   3.497   3.316  11.366 -0.2557  0.3242  0.0010
  274TMC3    C3 4191   3.456   3.425  11.289 -1.0011 -0.0510  0.3147
  274TMC3    C4 4192   3.680   3.437  11.444  0.0639  0.4912  0.2480
  274TMC3    C5 4193   3.646   3.544  11.364 -0.3618 -0.2860  0.3541
  274TMC3    C6 4194   3.538   3.537  11.283 -0.4003 -0.0011 -1.5244
  274TMC3     C 4195   3.621   3.232  11.562 -0.5830  0.6855  0.4219
  274TMC3     O 4196   3.697   3.275  11.648  0.0009  0.3082  0.0765
  274TMC3     H 4197   3.447   3.221  11.353  0.9263 -0.5862  1.9918
  274TMC3    H1 4198   3.770   3.444  11.505  0.5782 -1.5518 -0.2846
  274TMC3    H2 4199   3.494   3.630  11.250 -0.0421  0.0471 -1.8748
  274TMC3    C7 4200   3.638   3.659  11.453 -0.2605 -0.0980  0.1569
  274TMC3    C8 4201   3.331   3.406  11.210 -0.4072  0.3619 -0.3859
  274TMC3    O1 4202   3.524   3.687  11.495 -0.2593 -0.2719  0.1182
  274TMC3    O2 4203   3.265   3.305  11.234  0.2876 -0.1605  0.2050
  275MPD2     C 4204   3.013   0.695  14.838  0.3017  0.1891 -0.5202
  275MPD2    C1 4205   3.021   0.564  14.883 -0.6443 -0.3588  0.5103
  275MPD2    C2 4206   2.911   0.478  14.866  0.0761 -0.2521 -0.7312
  275MPD2    C3 4207   2.784   0.530  14.834 -0.1726  0.1127  0.1030
  275MPD2    C4 4208   2.780   0.660  14.797 -0.4799 -0.1129  0.0402
  275MPD2    C5 4209   2.890   0.742  14.791  0.2688  0.2817 -0.2437
  275MPD2     H 4210   2.926   0.373  14.889 -0.6256 -0.2597 -0.2923
  275MPD2    H1 4211   2.683   0.698  14.766  0.2279 -0.2274 -2.2554
  275MPD2    H2 4212   3.101   0.757  14.826  0.1229  0.9280  1.9855
  275MPD2    H3 4213   2.886   0.828  14.725 -1.2397  0.4560  0.0856
  275MPD2     N 4214   2.663   0.452  14.821  0.6580  0.1684 -0.6261
  275MPD2    H5 4215   2.577   0.505  14.811  1.9397  2.1037 -1.4198
  275MPD2    N1 4216   3.149   0.513  14.936 -0.2370 -0.3802 -0.1574
  275MPD2    H7 4217   3.147   0.417  14.968 -0.4092  0.0250  1.0456
  276TMC3    C1 4218   3.373   0.501  15.025  0.0374 -0.0517  0.0961
  276TMC3    C2 4219   3.352   0.368  15.060  0.7542 -0.5887  0.1238
  276TMC3    C3 4220   3.427   0.315  15.163  0.0199 -0.4319  0.5305
  276TMC3    C4 4221   3.469   0.573  15.088 -0.7749 -0.0977  1.0165
  276TMC3    C5 4222   3.531   0.519  15.193 -0.3073  0.6586  0.3328
  276TMC3    C6 4223   3.509   0.393  15.241  0.5042 -0.2779  1.1496
  276TMC3     C 4224   3.269   0.583  14.962  0.2143 -0.2270  0.0393
  276TMC3     O 4225   3.294   0.695  14.926 -0.2009 -0.0991 -0.1733
  276TMC3     H 4226   3.279   0.310  15.004 -1.2504  1.0578  1.0369
  276TMC3    H1 4227   3.472   0.681  15.074 -0.0967 -0.1210  1.0228
  276TMC3    H2 4228   3.561   0.359  15.330  1.6908 -2.7940 -0.4890
  276TMC3    C7 4229   3.631   0.592  15.269  0.4403  0.3874  0.3912
  276TMC3    C8 4230   3.432   0.175  15.199  0.1172  0.6430 -0.0284
  276TMC3    O1 4231   3.643   0.555  15.387  0.9811  0.4429 -0.1153
  276TMC3    O2 4232   3.485   0.156  15.307  0.0396  0.5212  0.5518
  277MPD2     C 4233   0.503   4.436  13.723 -0.6021 -0.3470 -0.1332
  277MPD2    C1 4234   0.378   4.390  13.691 -0.8469  0.2756  0.4097
  277MPD2    C2 4235   0.292   4.344  13.786  1.0952  0.5184 -0.3344
  277MPD2    C3 4236   0.331   4.347  13.921  0.2392 -0.5679  0.2849
  277MPD2    C4 4237   0.460   4.386  13.954 -0.1920 -0.1209  0.4878
  277MPD2    C5 4238   0.548   4.423  13.853 -0.2354 -0.0577  0.2026
  277MPD2     H 4239   0.190   4.326  13.757  0.1758  0.3548  2.9975
  277MPD2    H1 4240   0.506   4.395  14.052  0.5571 -0.0213  0.1238
  277MPD2    H2 4241   0.577   4.473  13.653 -1.5021  1.7045  0.0036
  277MPD2    H3 4242   0.653   4.438  13.874 -0.4932 -0.4137  1.7145
  277MPD2     N 4243   0.242   4.311  14.020  0.4682 -0.1800 -0.3698
  277MPD2    H5 4244   0.161   4.258  13.988 -0.1299  1.7343 -2.0409
  277MPD2    N1 4245   0.329   4.422  13.564 -0.0250 -0.2617  0.3216
  277MPD2    H7 4246   0.390   4.483  13.509 -1.8660 -2.7026 -4.4214
  278TMC3    C1 4247   0.124   4.280  14.203  0.1526  0.6953  0.5807
  278TMC3    C2 4248   0.118   4.154  14.265  0.2486  0.4830 -0.0924
  278TMC3    C3 4249   0.012   4.076  14.237  0.5815 -0.3662  0.0701
  278TMC3    C4 4250   0.022   4.326  14.119 -0.3767 -0.4528  0.5894
  278TMC3    C5 4251   4.660   4.237  14.093 -0.7127 -0.6798 -0.0716
  278TMC3    C6 4252   4.643   4.112  14.155  0.2282  0.4865  0.3364
  278TMC3     C 4253   0.245   4.327  14.153 -0.6257 -0.4820  0.1427
  278TMC3     O 4254   0.344   4.321  14.222  0.1213 -0.2338 -0.0498
  278TMC3     H 4255   0.203   4.115  14.321 -0.9210  0.1981  1.4756
  278TMC3    H1 4256   0.035   4.422  14.071 -0.1047 -0.8770 -0.1787
  278TMC3    H2 4257   4.552   4.058  14.134  0.8355 -0.2138 -0.4871
  278TMC3    C7 4258   4.555   4.290  14.013 -0.1115  0.1614  0.3400
  278TMC3    C8 4259   0.036   3.937  14.255  0.2308 -0.3515 -0.4902
  278TMC3    O1 4260   4.587   4.373  13.927  0.3867  0.2283 -0.2858
  278TMC3    O2 4261   0.049   3.898  14.372 -0.4973  0.1671  0.1225
  279MPD2     C 4262   0.026   3.993   0.118  0.3954  0.8013  0.4216
  279MPD2    C1 4263   4.628   3.986   0.120  0.5510 -0.5228 -0.1032
  279MPD2    C2 4264   4.563   4.084   0.040  0.7537 -0.1389  0.0133
  279MPD2    C3 4265   4.629   4.167  17.697  0.1048 -0.2826  0.2139
  279MPD2    C4 4266   0.029   4.165  17.703  0.1982 -0.4729 -0.0257
  279MPD2    C5 4267   0.095   4.088   0.048  0.4605 -0.5620 -0.2455
  279MPD2     H 4268   4.457   4.104   0.047  1.1059  1.6592  0.2431
  279MPD2    H1 4269   0.090   4.233  17.645 -0.1596  0.1924  0.3834
  279MPD2    H2 4270   0.081   3.923   0.180 -0.0425 -0.0450 -0.1393
  279MPD2    H3 4271   0.203   4.101   0.046  0.5524 -1.4188 -0.7055
  279MPD2     N 4272   4.570   4.247  17.598  0.7474  0.2071  0.2171
  279MPD2    H5 4273   4.636   4.306  17.549  0.8271  0.5946  0.7823
  279MPD2    N1 4274   4.557   3.903   0.209 -0.2231 -0.4522  0.3006
  279MPD2    H7 4275   4.605   3.853   0.284  0.6647 -0.9818 -0.6079
  280TMC3    C1 4276   4.383   3.848   0.345 -0.3178  0.9139 -0.0920
  280TMC3    C2 4277   4.477   3.812   0.436 -0.0859 -0.3973 -0.1180
  280TMC3    C3 4278   4.455   3.840   0.569  0.1003 -0.9344 -0.3889
  280TMC3    C4 4279   4.259   3.890   0.387 -0.3539 -0.3801  0.0324
  280TMC3    C5 4280   4.237   3.921   0.515 -0.2305 -0.1219  0.6938
  280TMC3    C6 4281   4.342   3.912   0.610  0.5191 -0.1025 -0.6366
  280TMC3     C 4282   4.418   3.888   0.210 -0.2069  0.0685 -0.0097
  280TMC3     O 4283   4.333   3.935   0.136  0.4473 -0.1372  0.2167
  280TMC3     H 4284   4.570   3.766   0.404 -0.7956 -1.5628 -0.4995
  280TMC3    H1 4285   4.193   3.918   0.305 -3.1466  0.5220  2.5625
  280TMC3    H2 4286   4.342   3.948   0.712 -0.3512 -1.4318 -0.1751
  280TMC3    C7 4287   4.118   3.988   0.570  0.4875 -0.2277 -0.7336
  280TMC3    C8 4288   4.580   3.854   0.646 -0.1351  0.4209  0.4215
  280TMC3    O1 4289   4.119   3.996   0.694 -0.1518  0.3262  0.2589
  280TMC3    O2 4290   4.569   3.911   0.754 -0.1674 -0.0100  0.3208
  281TMC3    C1 4291   2.441   4.702  13.939 -0.2111  0.4029  1.0545
  281TMC3    C2 4292   2.525   0.046  13.870  0.3743  0.2744  0.2555
  281TMC3    C3 4293   2.646   4.726  13.825 -0.0212 -0.4202 -0.1761
  281TMC3    C4 4294   2.462   4.565  13.958  0.7185  0.0203  0.2255
  281TMC3    C5 4295   2.583   4.517  13.916 -0.4261 -0.1693  0.3644
  281TMC3    C6 4296   2.672   4.591  13.841 -0.1377 -0.5381 -0.2508
  281TMC3     C 4297   2.312   0.010  13.999 -0.0739  0.4120 -0.2168
  281TMC3     O 4298   2.264   4.681  14.091 -0.1945 -0.0030 -0.4177
  281TMC3     H 4299   2.507   0.151  13.852  4.6575  0.8262 -0.7645
  281TMC3    H1 4300   2.388   4.496  13.997 -0.2729  2.3281  2.3782
  281TMC3    H2 4301   2.764   4.563  13.792 -0.5462 -2.7697  0.2732
  281TMC3    C7 4302   2.596   4.375  13.897  0.1274 -0.6220  0.5494
  281TMC3    C8 4303   2.710   0.049  13.709 -0.0029 -0.4400  0.6120
  281TMC3    O1 4304   2.532   4.310  13.975  0.1558  0.4139  0.1020
  281TMC3    O2 4305   2.767   4.712  13.630 -0.6527 -0.1620 -0.2334
  282MPD2     C 4306   0.144   1.013  15.293 -0.6637  0.0599 -0.1265
  282MPD2    C1 4307   0.035   1.091  15.311 -0.0013 -0.8687 -0.2785
  282MPD2    C2 4308   4.671   1.089  15.214  0.1805  0.4102 -0.2056
  282MPD2    C3 4309   4.678   1.020  15.096 -0.0271 -0.1626  0.2247
  282MPD2    C4 4310   0.054   0.947  15.072  0.1730 -0.1974 -0.5209
  282MPD2    C5 4311   0.155   0.955  15.171 -0.0818 -0.1741 -0.5486
  282MPD2     H 4312   4.580   1.145  15.234 -0.3567 -1.0438  1.4400
  282MPD2    H1 4313   0.075   0.895  14.979  1.0059 -0.3358 -0.2557
  282MPD2    H2 4314   0.215   0.997  15.374  0.4632 -1.3421 -1.3935
  282MPD2    H3 4315   0.239   0.888  15.162 -0.0078 -0.0525 -0.7680
  282MPD2     N 4316   4.578   1.038  15.002 -0.0847  0.0732 -0.5051
  282MPD2    H5 4317   4.513   1.115  15.021 -0.8895 -0.4781 -1.0249
  282MPD2    N1 4318   0.022   1.158  15.438 -0.0594  0.5548 -0.0456
  282MPD2    H7 4319   4.667   1.194  15.461  0.5685  0.2503  2.9499
  283TMC3    C1 4320   0.077   1.206  15.657  0.2790 -0.0110 -0.5994
  283TMC3    C2 4321   0.113   1.312  15.734 -0.4367 -0.1427 -0.0391
  283TMC3    C3 4322   0.042   1.328  15.850  0.1620  0.3715  0.5926
  283TMC3    C4 4323   4.713   1.121  15.697 -1.0908 -0.0709 -0.0879
  283TMC3    C5 4324   4.641   1.147  15.813  0.0861  0.1178  0.4843
  283TMC3    C6 4325   4.673   1.255  15.888  0.1154  0.8240  1.0227
  283TMC3     C 4326   0.122   1.205  15.523 -0.4981 -0.3094 -0.0821
  283TMC3     O 4327   0.241   1.217  15.511  0.0049 -0.4249  0.7007
  283TMC3     H 4328   0.186   1.385  15.699 -1.2397  0.3473 -0.6870
  283TMC3    H1 4329   4.693   1.029  15.643 -2.7991  0.4605 -0.3548
  283TMC3    H2 4330   4.625   1.268  15.985 -0.5355 -1.8502  1.0777
  283TMC3    C7 4331   4.563   1.039  15.878  0.1249  0.9981 -0.4192
  283TMC3    C8 4332   0.069   1.446  15.926  0.0137 -0.7502 -0.2494
  283TMC3    O1 4333   4.549   1.065  15.997  0.0461 -0.2205 -0.4175
  283TMC3    O2 4334   0.133   1.434  16.029 -0.6445 -0.2144  0.2659
  284MPD2     C 4335   2.535   0.724  12.296  0.7714  0.4152  0.0488
  284MPD2    C1 4336   2.625   0.696  12.200  0.5056  0.3351  0.2883
  284MPD2    C2 4337   2.747   0.647  12.238 -0.3107  0.6973 -0.2039
  284MPD2    C3 4338   2.776   0.612  12.370 -0.1812  0.1242  1.1969
  284MPD2    C4 4339   2.680   0.633  12.463 -0.3191 -0.0818 -0.8550
  284MPD2    C5 4340   2.556   0.677  12.421  0.5883  0.2137  0.1131
  284MPD2     H 4341   2.825   0.635  12.163 -0.5419 -0.8628 -0.2046
  284MPD2    H1 4342   2.700   0.613  12.568 -0.4488 -1.0293 -1.0095
  284MPD2    H2 4343   2.433   0.754  12.277 -0.6059 -3.9846  0.6946
  284MPD2    H3 4344   2.471   0.675  12.488  1.2562 -0.0199  0.9564
  284MPD2     N 4345   2.902   0.576  12.419  0.3213  0.7403 -0.5215
  284MPD2    H5 4346   2.906   0.568  12.520 -3.0711  1.9827 -0.2776
  284MPD2    N1 4347   2.617   0.724  12.064  0.2117  0.1527  0.4708
  284MPD2    H7 4348   2.701   0.713  12.007 -0.3232 -0.6536 -0.1598
  285TMC3    C1 4349   2.547   0.837  11.873  0.2483 -0.6191 -0.4087
  285TMC3    C2 4350   2.641   0.760  11.815 -0.8720 -0.4312  0.2306
  285TMC3    C3 4351   2.728   0.828  11.723 -0.3743  0.2667  0.8491
  285TMC3    C4 4352   2.535   0.972  11.850 -0.4690  0.0265  0.4099
  285TMC3    C5 4353   2.620   1.031  11.758  0.3007 -0.5580 -0.2921
  285TMC3    C6 4354   2.724   0.962  11.692 -0.3193  0.3658 -0.0339
  285TMC3     C 4355   2.509   0.793  12.007  0.1999  0.0363 -0.0733
  285TMC3     O 4356   2.428   0.870  12.058 -0.1934 -0.0811  0.0224
  285TMC3     H 4357   2.648   0.652  11.828  0.6752 -0.2013  1.3192
  285TMC3    H1 4358   2.470   1.034  11.910 -1.0812 -0.3420  0.1243
  285TMC3    H2 4359   2.794   0.994  11.616 -1.5061  0.7605 -0.9745
  285TMC3    C7 4360   2.602   1.168  11.719  0.3939  0.2938  0.0019
  285TMC3    C8 4361   2.817   0.726  11.663  0.6097 -0.7368 -0.4374
  285TMC3    O1 4362   2.693   1.220  11.658 -0.3219 -0.7311 -0.8843
  285TMC3    O2 4363   2.777   0.610  11.644  0.2787  0.8899  0.0252
  286MPD2     C 4364   3.483   4.150   1.671  0.0134  0.5492  0.7239
  286MPD2    C1 4365   3.446   4.129   1.538 -0.5753 -0.0077 -0.0526
  286MPD2    C2 4366   3.491   4.015   1.479 -0.0567  0.3188 -0.7805
  286MPD2    C3 4367   3.572   3.927   1.546  0.5214 -0.3345 -0.0209
  286MPD2    C4 4368   3.601   3.947   1.685 -0.2794 -0.1614  0.7137
  286MPD2    C5 4369   3.551   4.063   1.743 -0.4805  0.0363 -0.3776
  286MPD2     H 4370   3.481   4.011   1.371 -1.6426  0.1900 -0.6257
  286MPD2    H1 4371   3.661   3.881   1.745  0.4800  0.9705  1.2116
  286MPD2    H2 4372   3.464   4.240   1.727  0.1534  1.8602 -1.3416
  286MPD2    H3 4373   3.578   4.099   1.842 -1.7783 -2.5437  0.9282
  286MPD2     N 4374   3.625   3.815   1.485  0.0934 -0.6063 -0.2122
  286MPD2    H5 4375   3.694   3.764   1.540  1.1721  1.2114  0.1288
  286MPD2    N1 4376   3.348   4.198   1.469  0.6824 -0.4200  0.0281
  286MPD2    H7 4377   3.325   4.152   1.382 -0.4196 -0.3989  0.3077
  287TMC3    C1 4378   3.682   3.641   1.340 -1.2463  0.1437 -0.4435
  287TMC3    C2 4379   3.684   3.596   1.208 -0.0116  0.3039  0.0495
  287TMC3    C3 4380   3.773   3.495   1.186 -0.2324 -0.0268  0.2042
  287TMC3    C4 4381   3.768   3.592   1.437 -0.0066  0.0481 -0.4352
  287TMC3    C5 4382   3.851   3.486   1.404  0.4877 -0.2891  0.3836
  287TMC3    C6 4383   3.850   3.433   1.277 -0.1246  0.9111 -0.1099
  287TMC3     C 4384   3.600   3.763   1.360 -0.7298 -0.1349  0.1576
  287TMC3     O 4385   3.523   3.791   1.272 -0.1879 -0.3003 -0.1180
  287TMC3     H 4386   3.618   3.638   1.133 -0.1306 -0.6798 -0.3971
  287TMC3    H1 4387   3.768   3.621   1.541  0.0294 -0.0867 -0.3979
  287TMC3    H2 4388   3.914   3.352   1.244 -1.7428 -0.5732  0.3839
  287TMC3    C7 4389   3.974   3.491   1.484 -0.0326  0.5328 -0.6023
  287TMC3    C8 4390   3.745   3.424   1.064 -0.0332 -0.4666  0.3426
  287TMC3    O1 4391   3.999   3.592   1.551 -0.0031  0.0704  0.2031
  287TMC3    O2 4392   3.626   3.413   1.042  0.1961 -0.0861 -0.2645
  288TMC3    C1 4393   0.572   3.580  14.445 -0.4501  0.5873 -0.3810
  288TMC3    C2 4394   0.443   3.536  14.446 -0.5150  0.7177  0.2440
  288TMC3    C3 4395   0.340   3.625  14.421  0.2549 -0.0427 -0.4785
  288TMC3    C4 4396   0.602   3.701  14.381  0.6595 -0.0493 -0.4465
  288TMC3    C5 4397   0.497   3.779  14.341 -0.0100 -0.4389 -0.0121
  288TMC3    C6 4398   0.369   3.744  14.363 -0.1869  0.0525  0.0041
  288TMC3     C 4399   0.677   3.511  14.523  0.3889  0.8852 -0.3292
  288TMC3     O 4400   0.648   3.430  14.610  0.4433  0.2114 -0.2532
  288TMC3     H 4401   0.433   3.437  14.489  1.1456  0.3347 -0.2512
  288TMC3    H1 4402   0.703   3.740  14.382  0.2878  0.9433 -1.2363
  288TMC3    H2 4403   0.284   3.810  14.348 -0.9184 -0.7339  0.6297
  288TMC3    C7 4404   0.513   3.912  14.288  0.1445  0.1312  0.6229
  288TMC3    C8 4405   0.243   3.652  14.531 -0.6752 -0.8559  0.2499
  288TMC3    O1 4406   0.415   3.986  14.284  0.0009  0.5814  0.1633
  288TMC3    O2 4407   0.284   3.724  14.616  0.0550 -0.0797  0.4176
  289MPD2     C 4408   0.202   2.574  14.319  0.1324  0.1290 -0.5640
  289MPD2    C1 4409   0.219   2.695  14.246  0.4753  0.6147  0.4823
  289MPD2    C2 4410   0.133   2.729  14.143  0.6895  0.1547  0.3418
  289MPD2    C3 4411   0.030   2.648  14.116 -0.0540 -0.0442  0.5118
  289MPD2    C4 4412   0.019   2.527  14.179  0.5275  0.3062 -0.5421
  289MPD2    C5 4413   0.109   2.484  14.279  0.3653  0.5682  0.3857
  289MPD2     H 4414   0.148   2.828  14.100  1.2218  0.9996  2.5212
  289MPD2    H1 4415   4.680   2.457  14.149  1.8423 -2.4444  2.4650
  289MPD2    H2 4416   0.275   2.540  14.392 -0.4679  0.5622  0.2370
  289MPD2    H3 4417   0.099   2.385  14.322 -0.7186  0.5891  0.1823
  289MPD2     N 4418   4.668   2.673  14.020 -0.3532  1.3506  0.1629
  289MPD2    H5 4419   4.607   2.598  13.990  0.2471  0.7912  0.3388
  289MPD2    N1 4420   0.314   2.785  14.298  0.1264 -0.2392  0.4065
  289MPD2    H7 4421   0.369   2.746  14.374  0.0860 -1.4665 -0.1825
  290TMC3    C1 4422   4.517   2.794  13.895 -0.6283  0.1897 -0.2090
  290TMC3    C2 4423   4.477   2.917  13.841  0.5352  0.0755  0.3632
  290TMC3    C3 4424   4.352   2.943  13.804 -0.0639 -0.4295 -0.0311
  290TMC3    C4 4425   4.421   2.694  13.910  0.6435 -0.3045  0.1181
  290TMC3    C5 4426   4.293   2.723  13.878  0.1639  0.3243 -0.3852
  290TMC3    C6 4427   4.260   2.845  13.835 -0.1879  0.0178 -0.4749
  290TMC3     C 4428   4.652   2.792  13.959 -0.4217 -0.0070  0.7837
  290TMC3     O 4429   4.723   2.890  13.952 -0.2430  0.0098 -0.5839
  290TMC3     H 4430   4.549   2.998  13.844  1.5369 -0.8001  0.2026
  290TMC3    H1 4431   4.456   2.594  13.930  1.4505  0.2482  1.4853
  290TMC3    H2 4432   4.155   2.872  13.824  0.0937  0.4364 -2.1859
  290TMC3    C7 4433   4.184   2.632  13.901  0.5902  0.2435 -0.3655
  290TMC3    C8 4434   4.313   3.080  13.780  0.2302 -0.6403 -0.3264
  290TMC3    O1 4435   4.076   2.646  13.845 -0.0563  0.2255  0.4488
  290TMC3    O2 4436   4.280   3.102  13.666 -0.0454 -0.5383  0.2256
  291MPD2     C 4437   0.329   2.572   0.472  0.6251 -0.0020  0.4659
  291MPD2    C1 4438   0.228   2.520   0.397 -0.3333  0.9534  0.0071
  291MPD2    C2 4439   0.204   2.579   0.275  0.0276 -0.6198  0.2042
  291MPD2    C3 4440   0.264   2.696   0.232  0.3925 -0.1061 -0.0713
  291MPD2    C4 4441   0.367   2.739   0.312 -0.3896 -0.3955 -0.8526
  291MPD2    C5 4442   0.406   2.676   0.430 -0.6456 -0.8280 -0.2100
  291MPD2     H 4443   0.134   2.529   0.208 -1.5431  1.2470  0.4426
  291MPD2    H1 4444   0.425   2.824   0.279 -1.0443 -0.0326 -1.0544
  291MPD2    H2 4445   0.351   2.531   0.569  3.8837  2.3037  0.6937
  291MPD2    H3 4446   0.498   2.707   0.479 -2.2973 -0.2969  2.5566
  291MPD2     N 4447   0.237   2.754   0.108 -0.3478  0.1127  0.1501
  291MPD2    H5 4448   0.290   2.838   0.088 -2.7819  1.9643  1.5667
  291MPD2    N1 4449   0.149   2.405   0.437  0.3949 -0.1520  0.1147
  291MPD2    H7 4450   0.091   2.357   0.369 -0.0371  0.3552  0.1233
  292TMC3    C1 4451   0.064   2.237   0.578 -0.5286  0.7701 -0.7397
  292TMC3    C2 4452   0.025   2.205   0.704 -0.1506 -0.5257 -0.4114
  292TMC3    C3 4453   4.675   2.101   0.732 -0.0035 -0.2493  0.0604
  292TMC3    C4 4454   0.035   2.150   0.474 -0.4835 -0.6269  0.8458
  292TMC3    C5 4455   4.683   2.048   0.502  0.1194 -0.0046 -0.0601
  292TMC3    C6 4456   4.640   2.019   0.629 -0.0469 -0.0362 -0.0950
  292TMC3     C 4457   0.147   2.353   0.560 -0.0159 -0.1016 -0.1644
  292TMC3     O 4458   0.201   2.392   0.667  0.4082 -0.5630  0.1206
  292TMC3     H 4459   0.057   2.258   0.793  0.3953 -1.5721  0.0121
  292TMC3    H1 4460   0.075   2.174   0.376 -1.8199  0.0708  0.4709
  292TMC3    H2 4461   4.583   1.929   0.647  1.0753 -0.4610  1.4334
  292TMC3    C7 4462   4.645   1.961   0.393  0.7890 -0.5953 -0.0946
  292TMC3    C8 4463   4.609   2.091   0.863 -0.4471 -0.5035 -0.1794
  292TMC3    O1 4464   4.726   1.929   0.309 -0.1277 -0.2032  0.2971
  292TMC3    O2 4465   4.686   2.122   0.954 -0.2054  0.9195 -0.0760
  293MPD2     C 4466   1.580   3.899  12.804 -0.2459 -0.1800 -0.1216
  293MPD2    C1 4467   1.450   3.911  12.836 -0.0744  0.6240 -0.1747
  293MPD2    C2 4468   1.415   3.902  12.968  0.0315 -0.3173 -0.6841
  293MPD2    C3 4469   1.511   3.880  13.065 -0.5633  0.0675 -0.3468
  293MPD2    C4 4470   1.639   3.856  13.026 -0.3343 -0.1418 -0.2367
  293MPD2    C5 4471   1.671   3.878  12.899 -0.5786 -0.4046  0.5005
  293MPD2     H 4472   1.322   3.928  13.016  0.0110 -0.1383 -0.8218
  293MPD2    H1 4473   1.717   3.823  13.093 -0.9733  1.4109  1.2948
  293MPD2    H2 4474   1.625   3.914  12.707 -1.4874  2.0942 -0.3527
  293MPD2    H3 4475   1.774   3.870  12.870 -1.4208  1.0261 -2.8205
  293MPD2     N 4476   1.480   3.886  13.205 -0.0992 -0.1436  0.1980
  293MPD2    H5 4477   1.387   3.904  13.242 -0.2128  1.0021 -0.6371
  293MPD2    N1 4478   1.362   3.943  12.734 -0.3089 -0.4354  0.0249
  293MPD2    H7 4479   1.393   3.961  12.639  1.1442  0.9248  0.7554
  294TMC3    C1 4480   1.149   4.015  12.649  0.2633  0.9274  0.5533
  294TMC3    C2 4481   1.019   3.985  12.659 -0.5130 -0.8930 -0.3086
  294TMC3    C3 4482   0.932   4.008  12.553  0.5080 -0.3803  0.2007
  294TMC3    C4 4483   1.190   4.078  12.537  0.4009 -0.6218  0.1940
  294TMC3    C5 4484   1.099   4.083  12.429 -0.9103  0.1525  0.4328
  294TMC3    C6 4485   0.963   4.048  12.430 -0.5527  0.0624 -0.2643
  294TMC3     C 4486   1.230   3.970  12.757  0.2017 -0.0903 -0.1929
  294TMC3     O 4487   1.164   3.939  12.855 -0.2280  0.4651  0.4322
  294TMC3     H 4488   0.987   3.931  12.747 -0.9754  2.4438  1.5613
  294TMC3    H1 4489   1.288   4.122  12.521  0.6989 -1.6838 -0.8816
  294TMC3    H2 4490   0.892   4.074  12.352  0.4694 -0.5964 -1.4111
  294TMC3    C7 4491   1.126   4.177  12.315  0.0415 -0.1865  0.4457
  294TMC3    C8 4492   0.792   3.990  12.586 -0.1974 -0.0337  0.3072
  294TMC3    O1 4493   1.029   4.245  12.280  0.4836 -0.1492 -0.7726
  294TMC3    O2 4494   0.751   4.021  12.695  0.4143  0.2630  0.6064
  295MPD2     C 4495   1.559   3.570   1.011  0.0591 -0.3384  0.9658
  295MPD2    C1 4496   1.520   3.443   0.978  0.1930  0.4477 -0.1018
  295MPD2    C2 4497   1.411   3.389   1.037 -0.1077 -0.3419  0.8908
  295MPD2    C3 4498   1.353   3.451   1.145  0.8172  0.2737 -0.8295
  295MPD2    C4 4499   1.395   3.576   1.188  0.2890 -0.5502  0.0385
  295MPD2    C5 4500   1.494   3.630   1.116 -0.4881 -0.5862 -0.2321
  295MPD2     H 4501   1.383   3.290   1.003  0.0488  0.9662 -3.0921
  295MPD2    H1 4502   1.355   3.627   1.274 -2.8595  1.6328 -2.7260
  295MPD2    H2 4503   1.641   3.619   0.960 -1.6176  0.4163 -0.9792
  295MPD2    H3 4504   1.536   3.723   1.153 -1.0900 -0.6747  0.6752
  295MPD2     N 4505   1.255   3.395   1.231 -0.2457  0.0924  0.4953
  295MPD2    H5 4506   1.241   3.440   1.321 -0.9527 -0.7030  0.7862
  295MPD2    N1 4507   1.574   3.373   0.870  0.2424  0.6409  0.3178
  295MPD2    H7 4508   1.526   3.298   0.822 -0.7170  2.6211 -1.8440
  296TMC3    C1 4509   1.087   3.255   1.311  0.1402 -0.1936  0.0043
  296TMC3    C2 4510   1.065   3.343   1.416  0.4236 -0.1970  0.2964
  296TMC3    C3 4511   0.997   3.289   1.521 -0.3029 -0.5285 -0.2045
  296TMC3    C4 4512   1.040   3.125   1.308  0.0097 -0.8826  0.0438
  296TMC3    C5 4513   0.988   3.077   1.427  0.0132  0.1757 -0.3180
  296TMC3    C6 4514   0.971   3.158   1.535  0.0159  0.2629  0.7132
  296TMC3     C 4515   1.179   3.284   1.200 -0.1375  0.1934 -0.3606
  296TMC3     O 4516   1.184   3.218   1.099 -0.2232  0.1454  0.5847
  296TMC3     H 4517   1.071   3.449   1.392  2.0471 -0.1412  0.9582
  296TMC3    H1 4518   1.066   3.062   1.224  0.7327  1.6126 -1.5940
  296TMC3    H2 4519   0.914   3.130   1.622  0.3985  0.8278  1.1412
  296TMC3    C7 4520   0.964   2.942   1.446  0.5467 -0.0643 -0.3766
  296TMC3    C8 4521   0.953   3.381   1.624  0.1126 -0.2407  0.1015
  296TMC3    O1 4522   0.913   2.902   1.547  0.8317  0.2668  0.3369
  296TMC3    O2 4523   0.860   3.342   1.695 -0.6567 -0.3330  0.7804
  297MPD2     C 4524   4.119   4.357  16.793 -0.0256  0.7884 -0.3195
  297MPD2    C1 4525   4.070   4.472  16.733  0.3340 -0.3272  1.1801
  297MPD2    C2 4526   4.146   4.587  16.731  0.0733 -0.2819  0.2882
  297MPD2    C3 4527   4.279   4.593  16.775 -0.2716  0.1950  0.7180
  297MPD2    C4 4528   4.322   4.479  16.835 -0.1985  0.1481 -0.2798
  297MPD2    C5 4529   4.246   4.361  16.840  0.4636  0.3572  0.2430
  297MPD2     H 4530   4.104   4.677  16.688  0.0479  0.0750  1.0631
  297MPD2    H1 4531   4.427   4.470  16.858 -0.0732  1.0873 -0.5020
  297MPD2    H2 4532   4.069   4.261  16.799  1.4195  0.2199  2.5631
  297MPD2    H3 4533   4.292   4.272  16.882 -1.1748 -0.8372 -0.4829
  297MPD2     N 4534   4.360   4.704  16.752  0.2754  0.1429  0.7869
  297MPD2    H5 4535   4.314   0.047  16.710  0.2080 -1.7776 -2.7957
  297MPD2    N1 4536   3.947   4.473  16.669 -0.2795  0.2301  0.0596
  297MPD2    H7 4537   3.897   4.559  16.648 -0.2387  0.3937  0.6359
  298TMC3    C1 4538   3.772   4.392  16.541 -0.2363 -0.1785 -0.6407
  298TMC3    C2 4539   3.772   4.359  16.408  0.1293 -0.1482 -0.4470
  298TMC3    C3 4540   3.673   4.412  16.330  0.0950 -0.2200  0.1760
  298TMC3    C4 4541   3.681   4.477  16.596 -0.0169  0.4402 -0.4766
  298TMC3    C5 4542   3.588   4.534  16.517 -0.1019  0.1945  0.1807
  298TMC3    C6 4543   3.578   4.500  16.381 -0.4163 -0.1028 -0.0716
  298TMC3     C 4544   3.895   4.368  16.608  0.0094  0.1677  0.5230
  298TMC3     O 4545   3.952   4.264  16.575  0.2566 -0.1759 -0.0269
  298TMC3     H 4546   3.854   4.304  16.365  0.7059  1.6030 -1.6234
  298TMC3    H1 4547   3.694   4.515  16.697 -0.3939  0.7766 -0.5537
  298TMC3    H2 4548   3.512   4.561  16.321 -0.7695 -0.7395 -0.3327
  298TMC3    C7 4549   3.521   4.653  16.565  0.7143  0.7181  0.0853
  298TMC3    C8 4550   3.715   4.430  16.193 -0.9400  0.1100  0.5941
  298TMC3    O1 4551   3.492   4.652  16.683  0.1101  0.6003  0.1836
  298TMC3    O2 4552   3.835   4.453  16.180 -0.9487  0.1477  0.9142
  299MPD2     C 4553   3.957   0.164  10.857 -0.0637  0.7353  0.3400
  299MPD2    C1 4554   4.016   0.285  10.817 -0.2616  0.0607 -0.1083
  299MPD2    C2 4555   3.957   0.350  10.713 -0.0214 -0.0514  1.0354
  299MPD2    C3 4556   3.846   0.298  10.652 -0.1635  0.0406  0.3923
  299MPD2    C4 4557   3.784   0.184  10.704 -0.4458  0.6594  0.2308
  299MPD2    C5 4558   3.836   0.122  10.804 -0.0029  0.0860 -0.3775
  299MPD2     H 4559   3.993   0.444  10.672  0.3901 -0.8109 -0.3337
  299MPD2    H1 4560   3.697   0.146  10.652  1.0142 -1.6479 -0.5370
  299MPD2    H2 4561   4.006   0.100  10.929 -0.4824 -0.0802 -0.1039
  299MPD2    H3 4562   3.783   0.036  10.844 -0.7870  1.0583  0.6741
  299MPD2     N 4563   3.778   0.350  10.538 -0.2883 -0.0751  0.1392
  299MPD2    H5 4564   3.708   0.291  10.495 -2.2641  2.0684  0.4075
  299MPD2    N1 4565   4.120   0.332  10.898 -0.2123 -1.0576 -0.0033
  299MPD2    H7 4566   4.165   0.268  10.963  0.3431  0.6329  1.2785
  300TMC3    C1 4567   3.711   0.520  10.382  0.0181 -0.0349  0.5920
  300TMC3    C2 4568   3.717   0.652  10.337  0.1039 -0.9372  0.3673
  300TMC3    C3 4569   3.637   0.684  10.236 -0.4686  0.9425 -0.4824
  300TMC3    C4 4570   3.610   0.438  10.339  0.9412  0.0188 -0.8344
  300TMC3    C5 4571   3.523   0.483  10.248  0.2341  0.0464  0.1888
  300TMC3    C6 4572   3.536   0.606  10.198 -0.2698  0.0336 -0.1128
  300TMC3     C 4573   3.783   0.483  10.498 -0.1228 -0.6999  0.3998
  300TMC3     O 4574   3.858   0.568  10.543  0.2094 -0.0649 -0.1182
  300TMC3     H 4575   3.811   0.703  10.354 -0.6239  0.7359 -0.7085
  300TMC3    H1 4576   3.604   0.335  10.372  2.5317 -0.1426 -1.0566
  300TMC3    H2 4577   3.467   0.632  10.118 -1.1975  2.0050  1.3518
  300TMC3    C7 4578   3.390   0.424  10.256 -0.1333 -0.5900 -0.2327
  300TMC3    C8 4579   3.609   0.826  10.212 -0.2687  0.0143  0.8009
  300TMC3    O1 4580   3.318   0.434  10.157 -0.4927  0.3584 -0.7328
  300TMC3    O2 4581   3.566   0.850  10.100 -0.4311  0.0571 -0.4191
  301MPD2     C 4582   2.431   1.449   0.771 -0.1983  0.4853  0.5658
  301MPD2    C1 4583   2.303   1.397   0.773 -0.1314 -0.2658 -0.0400
  301MPD2    C2 4584   2.282   1.281   0.832  0.5607 -0.1991 -0.0114
  301MPD2    C3 4585   2.384   1.202   0.885 -0.7368 -0.4098 -0.0212
  301MPD2    C4 4586   2.510   1.254   0.890  0.1208  0.3318  0.5617
  301MPD2    C5 4587   2.527   1.379   0.838  0.6251 -0.0704 -0.4715
  301MPD2     H 4588   2.181   1.240   0.824  0.9222 -0.9397 -0.8031
  301MPD2    H1 4589   2.598   1.201   0.923  0.1079 -0.2451 -0.3251
  301MPD2    H2 4590   2.458   1.545   0.728  0.2419 -0.3124 -0.9607
  301MPD2    H3 4591   2.629   1.414   0.826 -0.0434  1.2561 -2.3057
  301MPD2     N 4592   2.356   1.076   0.942 -0.5775  0.0568  0.0888
  301MPD2    H5 4593   2.434   1.030   0.988 -0.1108  0.0083 -0.7475
  301MPD2    N1 4594   2.191   1.463   0.724  0.0783 -0.5273 -0.6757
  301MPD2    H7 4595   2.103   1.418   0.746  0.0744 -0.5265 -0.6897
  302TMC3    C1 4596   2.241   0.883   1.003 -0.0743  0.4002  0.2588
  302TMC3    C2 4597   2.293   0.892   1.137  0.0672  0.2168  0.5735
  302TMC3    C3 4598   2.255   0.786   1.217  0.6439  0.3107 -0.0649
  302TMC3    C4 4599   2.147   0.795   0.961  0.1823  0.6957 -0.5751
  302TMC3    C5 4600   2.129   0.687   1.050 -0.4140  0.0207  0.1117
  302TMC3    C6 4601   2.179   0.682   1.171 -0.8906  0.0741 -0.5407
  302TMC3     C 4602   2.234   1.010   0.938  0.9222 -0.2601 -0.3978
  302TMC3     O 4603   2.130   1.029   0.876 -0.5660  0.1805 -0.2072
  302TMC3     H 4604   2.365   0.969   1.160 -0.0728  0.0707  1.5186
  302TMC3    H1 4605   2.112   0.801   0.859  1.4450 -3.3074 -1.2356
  302TMC3    H2 4606   2.154   0.590   1.222 -0.4279 -0.4090 -1.1750
  302TMC3    C7 4607   2.036   0.579   1.014 -0.1072  0.1811  0.0617
  302TMC3    C8 4608   2.278   0.787   1.361  0.1031  0.3110  0.1465
  302TMC3    O1 4609   2.069   0.466   1.042 -0.1604 -0.2142 -0.0206
  302TMC3    O2 4610   2.257   0.683   1.424  0.5439  0.0187  0.2576
  303MPD2     C 4611   1.727   0.943  10.332  0.2096 -0.2235  0.0640
  303MPD2    C1 4612   1.605   0.940  10.271 -0.5459  0.0937  0.2704
  303MPD2    C2 4613   1.595   0.904  10.130 -0.7726  0.2308  0.4776
  303MPD2    C3 4614   1.714   0.867  10.062 -0.2165  0.0482 -0.0264
  303MPD2    C4 4615   1.833   0.873  10.129 -0.0667 -0.3069 -0.3452
  303MPD2    C5 4616   1.839   0.917  10.260 -0.5550 -0.2058  0.5152
  303MPD2     H 4617   1.500   0.885  10.081  0.2254 -1.0357 -0.9565
  303MPD2    H1 4618   1.929   0.864  10.078 -0.1393 -0.4528 -0.4540
  303MPD2    H2 4619   1.724   0.968  10.437 -0.4538  1.4538 -0.3580
  303MPD2    H3 4620   1.933   0.947  10.304 -0.1971 -0.0717 -0.3458
  303MPD2     N 4621   1.714   0.812   9.926  0.7901  0.2711 -0.7411
  303MPD2    H5 4622   1.803   0.781   9.890 -0.4318 -1.4528 -2.3339
  303MPD2    N1 4623   1.495   0.986  10.339 -0.8263  0.3708 -0.2112
  303MPD2    H7 4624   1.506   0.990  10.440  0.6544  0.1356 -0.3721
  304TMC3    C1 4625   1.285   1.058  10.392  0.0651  0.8403  0.1986
  304TMC3    C2 4626   1.195   1.141  10.331  0.5784 -0.4293 -0.4113
  304TMC3    C3 4627   1.073   1.155  10.385  0.0340  0.2544  0.3719
  304TMC3    C4 4628   1.246   0.976  10.492 -0.0961 -0.3447  0.3598
  304TMC3    C5 4629   1.120   0.978  10.528  0.1123  0.7541 -0.0083
  304TMC3    C6 4630   1.028   1.076  10.485  0.1452  0.7788  0.3010
  304TMC3     C 4631   1.368   1.006  10.287  0.0265 -0.0490 -0.7037
  304TMC3     O 4632   1.326   1.005  10.172 -0.1948 -0.3114 -0.4662
  304TMC3     H 4633   1.229   1.200  10.246  0.2975  1.1842  0.6029
  304TMC3    H1 4634   1.308   0.897  10.530 -1.1309 -1.7187 -0.7923
  304TMC3    H2 4635   0.932   1.085  10.535 -0.0953  0.2307 -0.0683
  304TMC3    C7 4636   1.061   0.853  10.549  0.1195  1.2962  0.3302
  304TMC3    C8 4637   0.965   1.158  10.285 -0.5213 -0.2879  0.6396
  304TMC3    O1 4638   1.121   0.769  10.619 -0.4668 -0.2768 -0.3372
  304TMC3    O2 4639   0.865   1.105  10.325  0.3738 -0.0324  0.0894
  305MPD2     C 4640   4.635   1.645  14.505 -0.7087 -1.0607 -0.0825
  305MPD2    C1 4641   4.648   1.508  14.506 -0.5064  0.3600  0.2369
  305MPD2    C2 4642   4.664   1.442  14.382 -0.2198  0.0429  0.8248
  305MPD2    C3 4643   4.643   1.515  14.264  0.0236 -0.0406  0.3332
  305MPD2    C4 4644   4.613   1.649  14.267 -0.5465 -0.5415  0.4397
  305MPD2    C5 4645   4.621   1.719  14.390  0.2035 -0.4004 -0.0777
  305MPD2     H 4646   4.679   1.335  14.374 -0.1962  0.2801 -2.2418
  305MPD2    H1 4647   4.586   1.709  14.181  1.7665 -0.7542 -0.4374
  305MPD2    H2 4648   4.643   1.696  14.600 -1.1905  0.6482 -0.9506
  305MPD2    H3 4649   4.614   1.827  14.392  2.1278 -0.3021  1.7995
  305MPD2     N 4650   4.624   1.448  14.138  0.7087  0.0080 -0.1739
  305MPD2    H5 4651   4.590   1.505  14.062  0.5557  0.6581  0.3869
  305MPD2    N1 4652   4.666   1.446  14.629 -0.7775 -0.0024  0.5209
  305MPD2    H7 4653   4.662   1.499  14.715  0.3500  0.8526  0.0414
  306TMC3    C1 4654   0.027   1.288  14.755  0.1714  0.3542 -0.2500
  306TMC3    C2 4655   0.119   1.186  14.749 -0.1175 -0.5833 -0.1354
  306TMC3    C3 4656   0.203   1.162  14.853  0.3946  0.2473 -0.4091
  306TMC3    C4 4657   0.014   1.361  14.870  0.5491 -0.3673  0.7075
  306TMC3    C5 4658   0.106   1.337  14.972  0.1825 -0.2733 -0.4169
  306TMC3    C6 4659   0.196   1.233  14.966 -0.3995 -0.3125 -0.4388
  306TMC3     C 4660   4.696   1.313  14.638  0.4651  0.2610 -0.3983
  306TMC3     O 4661   4.680   1.223  14.557  0.6840  0.1560  0.6816
  306TMC3     H 4662   0.136   1.128  14.659 -1.4106 -0.8481 -0.2044
  306TMC3    H1 4663   4.680   1.442  14.871 -0.8971 -1.6333 -0.2656
  306TMC3    H2 4664   0.266   1.226  15.048 -0.2308 -0.6452 -0.6087
  306TMC3    C7 4665   0.095   1.427  15.086  0.2880 -0.0321  0.2409
  306TMC3    C8 4666   0.302   1.054  14.828  0.9791  0.0103 -0.2582
  306TMC3    O1 4667   4.727   1.484  15.108  0.0632 -0.4515  0.3996
  306TMC3    O2 4668   0.277   0.973  14.741  0.0235 -0.0552 -0.6778
  307MPD2     C 4669   3.066   3.918   0.326 -0.1869  0.6271  0.4865
  307MPD2    C1 4670   3.037   4.054   0.336  0.0404  0.4149 -0.7090
  307MPD2    C2 4671   3.023   4.110   0.461  0.2907 -0.8883 -0.7184
  307MPD2    C3 4672   3.020   4.035   0.574 -0.2040 -0.5221 -0.5378
  307MPD2    C4 4673   3.059   3.897   0.558  0.5322 -0.2306 -0.2624
  307MPD2    C5 4674   3.070   3.840   0.437  0.1511 -0.0624 -0.3815
  307MPD2     H 4675   3.008   4.217   0.470 -0.4251 -1.0695  0.2555
  307MPD2    H1 4676   3.057   3.834   0.647  0.5845  1.1776  0.7336
  307MPD2    H2 4677   3.084   3.868   0.232 -1.1603 -0.2033  0.7432
  307MPD2    H3 4678   3.102   3.736   0.436 -0.1372 -0.1633  2.1375
  307MPD2     N 4679   2.999   4.095   0.705  0.0874  0.0447  0.6739
  307MPD2    H5 4680   2.963   4.190   0.707 -0.1927 -0.0643  0.8068
  307MPD2    N1 4681   3.021   4.145   0.229  0.1278  0.1568  0.3617
  307MPD2    H7 4682   3.010   4.241   0.259 -0.5787  0.4320 -0.7311
  308TMC3    C1 4683   2.701   4.043   1.015  0.3433 -0.0946 -0.8454
  308TMC3    C2 4684   2.674   4.174   1.020  0.4412 -0.5027 -0.6977
  308TMC3    C3 4685   2.756   4.269   0.957 -0.4603 -0.6987 -0.2498
  308TMC3    C4 4686   2.833   4.012   0.989  0.1848 -0.5558  0.4762
  308TMC3    C5 4687   2.919   4.105   0.928  0.5400 -0.4064 -0.2463
  308TMC3    C6 4688   2.880   4.233   0.906 -0.0212  1.0628  0.5170
  308TMC3     C 4689   2.601   3.952   0.962 -0.4744  0.0632 -0.0861
  308TMC3     O 4690   2.634   3.836   0.936  0.0579  0.0591 -0.1026
  308TMC3     H 4691   2.575   4.198   1.058  0.5951  1.4862 -1.5587
  308TMC3    H1 4692   2.861   3.908   1.000 -0.4685 -0.7044  0.7338
  308TMC3    H2 4693   2.946   4.313   0.874 -0.7058  0.8116 -1.5828
  308TMC3    C7 4694   3.004   4.036   0.825 -0.4621  0.7030  0.1311
  308TMC3    C8 4695   2.737   4.407   0.998 -0.8921 -0.4137  0.8422
  308TMC3    O1 4696   3.042   3.923   0.860 -1.1123 -0.3631 -0.2399
  308TMC3    O2 4697   2.709   4.415   1.120 -0.0544 -0.2863  0.2053
  309MPD2     C 4698   2.242   4.673  17.564  0.0894  0.3806 -0.1111
  309MPD2    C1 4699   2.162   4.686  17.455  0.1630  0.4014 -0.6783
  309MPD2    C2 4700   2.042   0.006  17.471  0.2924 -0.0381  0.2162
  309MPD2    C3 4701   2.000   0.067  17.587 -0.7841  0.1714  0.1655
  309MPD2    C4 4702   2.079   0.051  17.695  0.2323 -0.5390  0.0988
  309MPD2    C5 4703   2.204   4.726  17.685 -0.3006 -0.1918 -0.2729
  309MPD2     H 4704   1.978   0.002  17.384 -1.0594  0.0093  1.1898
  309MPD2    H1 4705   2.041   0.094   0.038 -1.8061  0.2832 -1.1361
  309MPD2    H2 4706   2.339   4.625  17.556  0.7911  2.1189 -2.0916
  309MPD2    H3 4707   2.259   4.729   0.030  2.0100  0.0288 -1.6599
  309MPD2     N 4708   1.867   0.125  17.591 -0.4445  0.3693 -0.0433
  309MPD2    H5 4709   1.833   0.154  17.682 -0.0940  1.9229 -0.3985
  309MPD2    N1 4710   2.190   4.625  17.333  0.4758 -0.3852 -0.6502
  309MPD2    H7 4711   2.120   4.641  17.261  0.8274  1.8109 -0.4977
  310TMC3    C1 4712   2.254   4.490  17.167 -0.6996  0.3017 -0.3307
  310TMC3    C2 4713   2.131   4.502  17.108  0.3003 -0.0959  0.0722
  310TMC3    C3 4714   2.125   4.479  16.970  0.2539  0.7890 -0.3285
  310TMC3    C4 4715   2.367   4.440  17.096  0.0945  0.1092  0.8728
  310TMC3    C5 4716   2.343   4.403  16.963 -0.0031 -0.7380 -0.3896
  310TMC3    C6 4717   2.227   4.421  16.895 -0.3615 -0.1295 -1.1454
  310TMC3     C 4718   2.281   4.541  17.296  0.3440  0.3721  0.3996
  310TMC3     O 4719   2.392   4.517  17.346  0.1386 -0.2548 -0.4575
  310TMC3     H 4720   2.037   4.540  17.147  0.8169  0.4594  0.7733
  310TMC3    H1 4721   2.462   4.425  17.147  0.1758  0.0061  0.6901
  310TMC3    H2 4722   2.213   4.386  16.793 -2.4276 -0.7609 -0.6500
  310TMC3    C7 4723   2.448   4.317  16.896 -0.3578  0.5519  0.5756
  310TMC3    C8 4724   2.005   4.508  16.885 -0.2971  0.2290  0.2328
  310TMC3    O1 4725   2.410   4.260  16.795  0.5358 -0.7631 -0.0278
  310TMC3    O2 4726   1.998   4.430  16.793  0.2277  0.1139 -0.0068
  311MPD2     C 4727   3.508   1.386  12.630 -0.8465  0.0121  0.1696
  311MPD2    C1 4728   3.559   1.390  12.761  0.0373 -0.1339  0.4590
  311MPD2    C2 4729   3.487   1.330  12.856 -0.8970  0.2506 -0.0934
  311MPD2    C3 4730   3.369   1.262  12.828  0.4027 -0.7380 -0.0606
  311MPD2    C4 4731   3.315   1.264  12.706  0.4416 -0.8412  0.2320
  311MPD2    C5 4732   3.392   1.315  12.605  0.6307 -0.3431 -0.2794
  311MPD2     H 4733   3.521   1.329  12.959 -2.1487  1.8499  0.3159
  311MPD2    H1 4734   3.215   1.227  12.688  1.3289 -3.6672  1.0866
  311MPD2    H2 4735   3.555   1.436  12.546 -2.1750 -1.5130 -1.4655
  311MPD2    H3 4736   3.358   1.310  12.502  1.1269  3.0829 -0.6128
  311MPD2     N 4737   3.318   1.185  12.941  0.1149 -0.3629  0.8311
  311MPD2    H5 4738   3.367   1.203  13.028 -0.6870 -2.3600  1.6762
  311MPD2    N1 4739   3.688   1.458  12.783  0.0075 -0.1886 -0.6369
  311MPD2    H7 4740   3.718   1.483  12.877 -0.9053  0.8000 -0.6055
  312TMC3    C1 4741   3.157   1.056  13.060  0.1666 -0.1070  0.7376
  312TMC3    C2 4742   3.037   0.997  13.070  0.3944  0.1685  0.3822
  312TMC3    C3 4743   3.002   0.930  13.187 -0.2027 -0.1288 -0.3451
  312TMC3    C4 4744   3.254   1.038  13.157  0.4192 -0.1506  0.0664
  312TMC3    C5 4745   3.212   0.975  13.275  0.0497  0.0375 -0.2828
  312TMC3    C6 4746   3.093   0.908  13.282 -0.2475 -0.4110 -0.0350
  312TMC3     C 4747   3.205   1.108  12.931  0.5662 -0.1984  0.6313
  312TMC3     O 4748   3.125   1.088  12.840  0.3183 -0.0317 -0.2000
  312TMC3     H 4749   2.964   1.012  12.991  0.5545  0.2244  0.2433
  312TMC3    H1 4750   3.353   1.080  13.166  0.1118  0.7432 -0.6543
  312TMC3    H2 4751   3.077   0.833  13.359  2.1590 -1.1640 -0.2894
  312TMC3    C7 4752   3.321   0.910  13.334 -0.5243  0.4810 -0.1750
  312TMC3    C8 4753   2.865   0.897  13.211 -0.0463  0.0301  0.4558
  312TMC3    O1 4754   3.399   0.879  13.250  0.3933 -0.4139 -0.2514
  312TMC3    O2 4755   2.788   0.885  13.118 -0.4571 -0.5326 -0.0011
  313MPD2     C 4756   3.365   1.213  11.191 -0.2906  0.3352  0.1787
  313MPD2    C1 4757   3.232   1.257  11.162 -0.0936  0.6778 -0.0108
  313MPD2    C2 4758   3.165   1.196  11.060 -0.1543 -0.5857  0.2004
  313MPD2    C3 4759   3.225   1.104  10.977  0.0484 -0.3489  0.1206
  313MPD2    C4 4760   3.357   1.077  10.995 -0.1005  0.1299 -0.2126
  313MPD2    C5 4761   3.426   1.127  11.101 -0.1188 -0.0574 -1.0279
  313MPD2     H 4762   3.059   1.218  11.057 -0.1473 -0.5150  0.4718
  313MPD2    H1 4763   3.408   1.008  10.929  2.6682  0.8242  1.1678
  313MPD2    H2 4764   3.424   1.239  11.279  0.4887 -0.3040 -0.1541
  313MPD2    H3 4765   3.530   1.108  11.123 -0.1883 -1.7131 -2.0991
  313MPD2     N 4766   3.148   1.035  10.887 -0.2454  0.0507 -0.3085
  313MPD2    H5 4767   3.052   1.067  10.884 -0.2553  0.1284  0.7935
  313MPD2    N1 4768   3.166   1.357  11.240 -0.5020  0.0713  0.3083
  313MPD2    H7 4769   3.084   1.395  11.195 -1.5526 -0.1347  2.0502
  314TMC3    C1 4770   3.136   1.536  11.396  0.2185  0.6961 -0.1476
  314TMC3    C2 4771   3.219   1.632  11.446 -0.7324 -0.4765 -0.2756
  314TMC3    C3 4772   3.172   1.761  11.437  0.3951 -0.4139 -0.7741
  314TMC3    C4 4773   3.018   1.562  11.333 -0.2699  0.8289  0.5590
  314TMC3    C5 4774   2.973   1.693  11.331 -0.2901 -0.0950 -0.1724
  314TMC3    C6 4775   3.053   1.791  11.378 -0.1559  0.4102  0.1629
  314TMC3     C 4776   3.214   1.421  11.353  0.6807 -0.0212  0.9034
  314TMC3     O 4777   3.301   1.379  11.427  0.5319  0.1326 -0.5561
  314TMC3     H 4778   3.323   1.608  11.462 -0.1273  1.0985 -1.8038
  314TMC3    H1 4779   2.953   1.481  11.303 -0.7003  1.4218 -0.0966
  314TMC3    H2 4780   3.020   1.893  11.363 -1.7148 -0.2266 -0.6686
  314TMC3    C7 4781   2.853   1.731  11.263 -0.0503 -0.3676  0.3696
  314TMC3    C8 4782   3.267   1.875  11.426 -0.1955  0.5746 -0.2398
  314TMC3    O1 4783   2.810   1.842  11.294  0.5503 -0.1827 -0.6305
  314TMC3    O2 4784   3.245   1.964  11.349 -0.4377  0.0901  0.1177
  315MPD2     C 4785   3.167   3.754  17.609 -0.0707 -0.1083 -0.2747
  315MPD2    C1 4786   3.223   3.770  17.735  0.2340 -0.5448 -0.0011
  315MPD2    C2 4787   3.272   3.900   0.016  0.0075  0.1780  0.3178
  315MPD2    C3 4788   3.286   3.990  17.655 -0.5127 -0.1818 -0.3857
  315MPD2    C4 4789   3.243   3.961  17.529  0.4300  0.7721  0.1456
  315MPD2    C5 4790   3.174   3.843  17.512  0.7465  0.3280 -0.1455
  315MPD2     H 4791   3.290   3.936   0.116 -0.5125 -0.9944  0.8378
  315MPD2    H1 4792   3.260   4.026  17.443  2.5034  0.8855  0.6400
  315MPD2    H2 4793   3.114   3.661  17.588 -2.9478  1.8065 -1.4679
  315MPD2    H3 4794   3.120   3.822  17.420 -1.0399  1.4328  0.6522
  315MPD2     N 4795   3.343   4.120  17.683  0.1703 -0.5771  0.4397
  315MPD2    H5 4796   3.370   4.131   0.032 -0.9417 -0.7578  0.7732
  315MPD2    N1 4797   3.220   3.669   0.095  0.0811  0.0392  0.4658
  315MPD2    H7 4798   3.264   3.704   0.180 -0.5242  0.9931  0.3941
  316TMC3    C1 4799   3.436   4.334  17.684 -0.3106  0.3036  0.0303
  316TMC3    C2 4800   3.502   4.301   0.049 -0.8252 -0.4642  0.6999
  316TMC3    C3 4801   3.498   4.399   0.147 -0.8822  0.0491  0.1220
  316TMC3    C4 4802   3.386   4.460  17.656  0.2445  0.7751  0.0434
  316TMC3    C5 4803   3.383   4.554   0.010  0.1190 -0.6022  0.6316
  316TMC3    C6 4804   3.443   4.523   0.129  0.0508  0.4486 -0.0126
  316TMC3     C 4805   3.355   4.235  17.609  0.4548  0.3673 -0.4078
  316TMC3     O 4806   3.316   4.262  17.496 -0.2247  0.2684  0.5397
  316TMC3     H 4807   3.534   4.200   0.071  1.0904 -0.6470 -2.8144
  316TMC3    H1 4808   3.339   4.481  17.560 -1.7243  1.1463  1.0764
  316TMC3    H2 4809   3.461   4.604   0.199  1.6066  1.2873 -1.3620
  316TMC3    C7 4810   3.343   4.692  17.741  0.5498  0.0645 -0.2604
  316TMC3    C8 4811   3.556   4.379   0.280 -0.3021 -0.7656  0.2862
  316TMC3    O1 4812   3.313   0.013   0.097  0.5608  0.4026  0.6674
  316TMC3    O2 4813   3.518   4.452   0.370 -0.0562 -0.6996  0.6354
  317MPD2     C 4814   0.149   2.968  13.141 -0.3268  0.1014 -0.0590
  317MPD2    C1 4815   0.141   2.849  13.069  0.3938  0.6587  0.2003
  317MPD2    C2 4816   0.201   2.739  13.134  1.3049  0.1557 -0.3464
  317MPD2    C3 4817   0.261   2.745  13.254  0.2215  0.1266  0.2888
  317MPD2    C4 4818   0.273   2.865  13.320  0.0250  0.0411 -0.2192
  317MPD2    C5 4819   0.220   2.976  13.260  0.0067 -0.2306 -0.9556
  317MPD2     H 4820   0.203   2.644  13.080 -0.2478  0.0067 -0.1501
  317MPD2    H1 4821   0.312   2.879  13.420  1.1018 -3.8247 -0.1000
  317MPD2    H2 4822   0.124   3.061  13.093  1.4859 -0.2935 -1.7540
  317MPD2    H3 4823   0.240   3.073  13.304 -0.6390 -0.4246 -0.2382
  317MPD2     N 4824   0.282   2.622  13.322 -0.2219  0.0046 -0.8625
  317MPD2    H5 4825   0.258   2.539  13.269 -1.6617  1.2695 -2.1981
  317MPD2    N1 4826   0.101   2.835  12.935  0.6274 -0.0887  0.4491
  317MPD2    H7 4827   0.107   2.738  12.906 -0.9954 -0.3240  0.9376
  318TMC3    C1 4828   0.352   2.460  13.476  0.3076 -0.6460  0.0578
  318TMC3    C2 4829   0.238   2.387  13.452  0.6998  0.4014 -0.0148
  318TMC3    C3 4830   0.237   2.254  13.477  0.3982  0.1827  0.5278
  318TMC3    C4 4831   0.456   2.402  13.552 -0.0654 -0.5243 -0.4867
  318TMC3    C5 4832   0.447   2.266  13.582  0.4141 -0.0014 -0.1735
  318TMC3    C6 4833   0.338   2.191  13.544 -0.4476 -0.0702 -0.2199
  318TMC3     C 4834   0.358   2.604  13.436  0.2434 -0.8422 -0.3876
  318TMC3     O 4835   0.430   2.678  13.496 -0.2254 -0.2859  0.5189
  318TMC3     H 4836   0.152   2.426  13.399  0.9490 -0.5446 -1.1260
  318TMC3    H1 4837   0.544   2.460  13.578 -0.4363  0.1626 -0.7492
  318TMC3    H2 4838   0.325   2.086  13.569 -2.0423 -0.5195 -2.9702
  318TMC3    C7 4839   0.554   2.203  13.655  0.0357  0.2662  0.8734
  318TMC3    C8 4840   0.099   2.214  13.504  0.6560 -0.3044  0.6409
  318TMC3    O1 4841   0.559   2.080  13.643 -0.2266 -0.1825  0.1474
  318TMC3    O2 4842   0.011   2.296  13.498  0.3117  0.3112  0.1776
  319MPD2     C 4843   1.205   3.941  16.431  0.2630 -0.8875  0.1341
  319MPD2    C1 4844   1.112   3.960  16.526 -0.9721 -0.1795  0.1449
  319MPD2    C2 4845   0.987   3.915  16.499  0.3785  0.9618 -0.3827
  319MPD2    C3 4846   0.953   3.868  16.375 -0.2405 -0.1661 -0.4476
  319MPD2    C4 4847   1.044   3.875  16.268 -0.1471 -0.0456 -0.1775
  319MPD2    C5 4848   1.172   3.904  16.303 -0.2342 -0.0156 -0.1641
  319MPD2     H 4849   0.902   3.918  16.567  0.8983 -0.6201  0.3479
  319MPD2    H1 4850   1.021   3.842  16.168  0.6171 -0.9490 -0.0559
  319MPD2    H2 4851   1.309   3.961  16.454 -0.0078  0.5488  0.1235
  319MPD2    H3 4852   1.254   3.893  16.234 -1.8306  0.0745 -2.0616
  319MPD2     N 4853   0.823   3.808  16.344 -0.4842 -1.0569  0.5436
  319MPD2    H5 4854   0.803   3.784  16.247 -0.1182 -0.0420  0.2159
  319MPD2    N1 4855   1.144   4.012  16.653  0.0323 -0.0328  0.7212
  319MPD2    H7 4856   1.067   4.021  16.718 -0.3095 -1.0711  0.4673
  320TMC3    C1 4857   0.610   3.728  16.368 -0.3929  0.6468 -0.3546
  320TMC3    C2 4858   0.543   3.816  16.295 -0.1837  0.1022 -0.4346
  320TMC3    C3 4859   0.435   3.768  16.224 -0.5308  0.1954  0.0181
  320TMC3    C4 4860   0.593   3.597  16.348 -0.5189 -0.5685  0.3209
  320TMC3    C5 4861   0.488   3.551  16.277 -0.5812 -0.4983  0.6280
  320TMC3    C6 4862   0.401   3.640  16.216 -0.7216 -0.2396  0.5143
  320TMC3     C 4863   0.728   3.773  16.436 -0.5593 -1.2312 -0.8076
  320TMC3     O 4864   0.726   3.763  16.556 -0.1959 -0.3026 -0.2070
  320TMC3     H 4865   0.559   3.923  16.309 -1.4304  0.4988 -2.0086
  320TMC3    H1 4866   0.670   3.533  16.390 -2.0065  0.0380  3.9723
  320TMC3    H2 4867   0.306   3.611  16.173  0.5333 -1.7926 -1.1788
  320TMC3    C7 4868   0.475   3.407  16.251 -0.1332  0.9358  0.0418
  320TMC3    C8 4869   0.379   3.855  16.121  0.0100  0.6101  0.1954
  320TMC3    O1 4870   0.408   3.381  16.150  0.3896  1.0574 -0.3397
  320TMC3    O2 4871   0.418   3.972  16.122 -0.1350 -0.5928 -0.3669
  321TMC3    C1 4872   1.259   4.130  16.821  0.0851  0.0751 -0.0931
  321TMC3    C2 4873   1.220   4.047  16.928  0.7513 -0.0828 -0.2028
  321TMC3    C3 4874   1.260   4.090  17.053  0.0505 -0.3553 -0.1050
  321TMC3    C4 4875   1.342   4.233  16.836  0.4025  0.0171 -0.2493
  321TMC3    C5 4876   1.369   4.286  16.960 -0.1971  0.6246  0.1992
  321TMC3    C6 4877   1.313   4.218  17.068  0.5441  0.4250  0.5034
  321TMC3     C 4878   1.262   4.070  16.690 -0.0926 -0.1102  1.0192
  321TMC3     O 4879   1.373   4.069  16.633 -0.4537 -0.4483  0.8193
  321TMC3     H 4880   1.174   3.953  16.902 -0.4365 -0.5502  3.5557
  321TMC3    H1 4881   1.407   4.272  16.758  0.4849 -1.9530 -1.1520
  321TMC3    H2 4882   1.363   4.224  17.164  0.9865  0.1978  0.2865
  321TMC3    C7 4883   1.507   4.308  16.985  0.2358 -0.3438 -0.0357
  321TMC3    C8 4884   1.339   3.990  17.130 -0.2519  0.6409 -0.1610
  321TMC3    O1 4885   1.586   4.240  16.922  0.5254 -0.1083 -0.3266
  321TMC3    O2 4886   1.378   4.013  17.247 -0.0864 -0.2953  0.0749
  322MPD2     C 4887   4.573   0.847  13.820 -0.1482  0.2378 -0.5647
  322MPD2    C1 4888   4.630   0.771  13.921  0.1260 -0.9687 -0.0661
  322MPD2    C2 4889   4.693   0.653  13.879 -0.0080  0.1851  1.0619
  322MPD2    C3 4890   4.697   0.616  13.745  0.7124  0.1042 -0.5154
  322MPD2    C4 4891   4.650   0.704  13.645 -0.3123  0.0877 -0.8532
  322MPD2    C5 4892   4.590   0.820  13.688  0.5707  0.4122  0.4983
  322MPD2     H 4893   0.011   0.605  13.959 -2.5780 -2.6172  1.1549
  322MPD2    H1 4894   4.667   0.687  13.540 -1.1397  1.0086 -1.1368
  322MPD2    H2 4895   4.526   0.940  13.851 -0.5682 -0.6309  1.3678
  322MPD2    H3 4896   4.561   0.899  13.620 -3.2905 -0.8166  0.7492
  322MPD2     N 4897   0.043   0.509  13.706  0.0157 -0.0425 -0.4051
  322MPD2    H5 4898   0.077   0.445  13.777  0.5720  0.9740  0.2352
  322MPD2    N1 4899   4.623   0.805  14.052  0.3618 -0.6993 -0.0987
  322MPD2    H7 4900   4.567   0.886  14.074  1.8406  0.4253 -0.4407
  323TMC3    C1 4901   4.644   0.803  14.283  0.1543  0.1491  0.7415
  323TMC3    C2 4902   4.716   0.922  14.279 -0.3382 -0.3846 -0.0305
  323TMC3    C3 4903   0.054   0.959  14.389  0.1983  0.1348  0.5141
  323TMC3    C4 4904   4.643   0.730  14.395  0.6752 -0.3018 -0.7332
  323TMC3    C5 4905   4.719   0.767  14.497 -0.4976  0.5334 -0.3189
  323TMC3    C6 4906   0.052   0.883  14.499 -0.2689 -0.1783 -0.3335
  323TMC3     C 4907   4.634   0.724  14.163 -0.2491 -0.1306  0.0138
  323TMC3     O 4908   4.642   0.600  14.168 -0.5703  0.3140  0.5091
  323TMC3     H 4909   0.003   0.969  14.184 -0.0365  1.7808  1.1180
  323TMC3    H1 4910   4.576   0.645  14.401  2.1185 -1.3775  0.3789
  323TMC3    H2 4911   0.102   0.916  14.590 -1.0292  0.4753 -0.1567
  323TMC3    C7 4912   4.728   0.677  14.609  0.0299  0.4198 -0.5116
  323TMC3    C8 4913   0.194   0.991  14.356 -0.4094  0.6017 -0.6004
  323TMC3    O1 4914   4.666   0.573  14.600 -0.8234  0.1632 -0.1446
  323TMC3    O2 4915   0.280   0.932  14.420  0.0730  0.2951  0.4229
  324MPD2     C 4916   2.040   1.368  14.575 -0.4540  0.0973 -0.1731
  324MPD2    C1 4917   2.017   1.502  14.569 -0.2489 -0.0980  0.3216
  324MPD2    C2 4918   1.885   1.538  14.568  0.1410  0.5501  0.3911
  324MPD2    C3 4919   1.785   1.442  14.596  0.4399 -0.0022 -1.3442
  324MPD2    C4 4920   1.817   1.305  14.597 -0.4540 -0.0227  0.1734
  324MPD2    C5 4921   1.946   1.271  14.585 -0.7350 -1.0025  0.2563
  324MPD2     H 4922   1.851   1.640  14.557  0.7036  0.7132  0.1355
  324MPD2    H1 4923   1.759   1.217  14.624  2.2423 -1.3875  1.4987
  324MPD2    H2 4924   2.140   1.330  14.590 -1.2449 -1.3812  1.5027
  324MPD2    H3 4925   1.979   1.169  14.601 -1.8207 -1.3672  0.1448
  324MPD2     N 4926   1.650   1.471  14.638 -0.2028 -0.1341  0.0515
  324MPD2    H5 4927   1.606   1.386  14.673 -0.8523  0.2278  0.1175
  324MPD2    N1 4928   2.114   1.606  14.576 -0.1892  0.0012  0.7423
  324MPD2    H7 4929   2.082   1.702  14.582 -1.4779 -0.3075 -1.1992
  325TMC3    C1 4930   1.451   1.572  14.690  0.4161  0.5610 -0.9759
  325TMC3    C2 4931   1.386   1.459  14.652  0.1197  0.1335  0.1476
  325TMC3    C3 4932   1.254   1.460  14.677 -0.4611 -0.2562  0.4529
  325TMC3    C4 4933   1.390   1.684  14.731  0.1715 -0.5643 -0.0181
  325TMC3    C5 4934   1.250   1.686  14.741 -0.8000 -0.1140  0.0747
  325TMC3    C6 4935   1.180   1.569  14.715  0.4971  0.6702 -0.3632
  325TMC3     C 4936   1.583   1.589  14.636 -0.2661  0.2604 -0.2817
  325TMC3     O 4937   1.633   1.703  14.620  0.1288  0.1299 -0.2349
  325TMC3     H 4938   1.440   1.371  14.621  1.6983  0.2272  2.6722
  325TMC3    H1 4939   1.443   1.779  14.739 -0.4587 -0.1197 -1.0706
  325TMC3    H2 4940   1.073   1.563  14.730  0.1976  2.3272 -1.9297
  325TMC3    C7 4941   1.179   1.809  14.751  0.0252 -0.1664  0.5454
  325TMC3    C8 4942   1.184   1.357  14.605  0.3513 -0.0618  0.1119
  325TMC3    O1 4943   1.237   1.916  14.733 -0.0088 -0.5203  0.3790
  325TMC3    O2 4944   1.249   1.257  14.580 -0.8885  0.2749  0.2124
  326MPD2     C 4945   3.016   3.580  11.331  0.1129 -0.2697 -1.0520
  326MPD2    C1 4946   2.961   3.610  11.205 -0.0340 -0.0326  0.5822
  326MPD2    C2 4947   3.024   3.710  11.135  0.3660 -0.0244 -0.6713
  326MPD2    C3 4948   3.142   3.766  11.175 -0.1096  0.1556 -0.1632
  326MPD2    C4 4949   3.203   3.722  11.286 -0.2516 -0.2177 -0.0850
  326MPD2    C5 4950   3.135   3.636  11.369  0.5694 -0.0575  0.6779
  326MPD2     H 4951   2.982   3.735  11.038 -1.3936  0.1373  0.1330
  326MPD2    H1 4952   3.299   3.762  11.318 -1.2500  0.2317  2.4109
  326MPD2    H2 4953   2.980   3.502  11.397  0.4962 -0.5747 -1.2093
  326MPD2    H3 4954   3.178   3.612  11.465  1.7998 -1.0128 -0.0968
  326MPD2     N 4955   3.217   3.856  11.098  0.0603 -0.1684  0.1740
  326MPD2    H5 4956   3.302   3.899  11.133 -0.6136  0.4728  1.0289
  326MPD2    N1 4957   2.840   3.554  11.158 -0.1382 -0.3951 -0.3593
  326MPD2    H7 4958   2.804   3.589  11.070 -0.4445  0.6619  0.1941
  327TMC3    C1 4959   2.670   3.400  11.116  0.8217 -0.8063  0.8364
  327TMC3    C2 4960   2.596   3.498  11.057 -0.0462  0.5947  0.1042
  327TMC3    C3 4961   2.554   3.488  10.922 -0.6060 -0.5341  0.3700
  327TMC3    C4 4962   2.717   3.295  11.038 -0.7937  0.2263  0.8396
  327TMC3    C5 4963   2.689   3.297  10.902 -0.2333 -0.5256  0.2098
  327TMC3    C6 4964   2.606   3.388  10.843  0.3163 -0.1580 -0.3051
  327TMC3     C 4965   2.777   3.443  11.208  0.3562 -0.0475 -0.7558
  327TMC3     O 4966   2.812   3.358  11.288 -0.2440 -0.1868  0.8746
  327TMC3     H 4967   2.571   3.586  11.115  0.8762  0.5114  0.6270
  327TMC3    H1 4968   2.779   3.221  11.088 -0.5324 -0.4233 -0.4371
  327TMC3    H2 4969   2.580   3.389  10.737  1.0328  0.2096 -0.4734
  327TMC3    C7 4970   2.811   3.301  10.828  0.2961  0.3993  0.2356
  327TMC3    C8 4971   2.462   3.589  10.876 -0.7474 -0.6225  0.6015
  327TMC3    O1 4972   2.795   3.344  10.713 -0.2222 -0.2980  0.2278
  327TMC3    O2 4973   2.475   3.623  10.757 -0.6269 -0.1058  0.3699
  328MPD2     C 4974   0.253   2.082  16.918  0.2129 -0.6079 -0.3819
  328MPD2    C1 4975   0.125   2.116  16.887  0.0071  0.6736 -0.3524
  328MPD2    C2 4976   0.099   2.235  16.824 -0.2713  0.7490  0.0472
  328MPD2    C3 4977   0.196   2.326  16.803  0.1026 -0.2526  0.2072
  328MPD2    C4 4978   0.326   2.285  16.813 -0.9305  0.3031  0.4139
  328MPD2    C5 4979   0.356   2.165  16.878  0.2563 -0.7789 -0.5462
  328MPD2     H 4980   4.734   2.269  16.816 -0.6446 -0.0909  1.3140
  328MPD2    H1 4981   0.416   2.345  16.805 -0.6017 -0.3983 -1.0486
  328MPD2    H2 4982   0.270   1.996  16.982 -2.9030 -1.0630 -0.2097
  328MPD2    H3 4983   0.459   2.143  16.903  0.5510 -1.3174 -2.1858
  328MPD2     N 4984   0.160   2.451  16.751 -0.1907  0.5994  0.1911
  328MPD2    H5 4985   0.064   2.460  16.720 -1.1108  1.2213  3.3098
  328MPD2    N1 4986   0.012   2.033  16.922 -0.2052 -0.1476 -0.3389
  328MPD2    H7 4987   0.028   1.957  16.987  2.7329 -0.2796 -1.2004
  329TMC3    C1 4988   4.517   1.992  16.955 -0.0768  0.7928  0.0626
  329TMC3    C2 4989   4.410   2.082  16.962 -0.0120 -0.0512 -0.4848
  329TMC3    C3 4990   4.357   2.118  17.083 -0.0659 -0.4894  0.2184
  329TMC3    C4 4991   4.564   1.930  17.072 -0.2916 -1.2020 -0.1241
  329TMC3    C5 4992   4.503   1.961  17.189  0.5676  0.0111  0.3970
  329TMC3    C6 4993   4.410   2.056  17.198 -0.0154  0.5841 -0.3710
  329TMC3     C 4994   4.620   2.047  16.869 -0.5172 -0.0024  0.1862
  329TMC3     O 4995   4.582   2.108  16.771 -0.1363 -0.1176 -0.7339
  329TMC3     H 4996   4.372   2.137  16.877 -0.3950  0.2874 -0.1000
  329TMC3    H1 4997   4.652   1.868  17.061 -0.3538 -1.6889  2.1234
  329TMC3    H2 4998   4.361   2.088  17.289 -4.1655 -1.1283 -1.9857
  329TMC3    C7 4999   4.556   1.903  17.317  0.2429  0.6272 -0.3018
  329TMC3    C8 5000   4.308   2.257  17.100 -0.8896 -0.7677 -0.2701
  329TMC3    O1 5001   4.511   1.948  17.419  0.1810  0.6921  0.4261
  329TMC3    O2 5002   4.209   2.288  17.036 -0.0616  0.2846 -0.4570
  330TMC3    C1 5003   2.533   2.462   9.310  0.5916 -0.3278  0.1456
  330TMC3    C2 5004   2.484   2.330   9.301 -0.3930 -0.0801 -0.2338
  330TMC3    C3 5005   2.485   2.246   9.410 -0.0543  0.8389 -0.3740
  330TMC3    C4 5006   2.597   2.505   9.420 -0.6197 -0.1301  0.1507
  330TMC3    C5 5007   2.611   2.419   9.527  0.2342  0.0982  0.2758
  330TMC3    C6 5008   2.546   2.296   9.526  0.2025  0.0851 -0.1995
  330TMC3     C 5009   2.458   2.552   9.226  0.0335 -0.3251  0.2782
  330TMC3     O 5010   2.400   2.497   9.136  0.4198 -0.2159  0.0853
  330TMC3     H 5011   2.442   2.288   9.210  0.9017 -1.0879 -0.3586
  330TMC3    H1 5012   2.638   2.606   9.421  1.1560 -0.8568  1.4755
  330TMC3    H2 5013   2.560   2.220   9.603 -0.8397  0.1825  0.0800
  330TMC3    C7 5014   2.685   2.472   9.642 -0.3753 -0.1533  0.4726
  330TMC3    C8 5015   2.417   2.112   9.399  0.1576  0.2551 -0.5899
  330TMC3    O1 5016   2.741   2.578   9.623 -0.1319 -0.2609  0.5400
  330TMC3    O2 5017   2.388   2.069   9.291  0.3306 -0.3022 -0.1921
  331MPD2     C 5018   1.291   1.437  13.215 -0.5125  0.0318 -0.0270
  331MPD2    C1 5019   1.395   1.349  13.191 -0.0206  0.3972  0.4542
  331MPD2    C2 5020   1.383   1.213  13.231 -0.1124  0.3215  0.4749
  331MPD2    C3 5021   1.272   1.176  13.304 -0.3099 -0.2713  0.2132
  331MPD2    C4 5022   1.176   1.266  13.337  0.5115 -0.2149 -0.1971
  331MPD2    C5 5023   1.186   1.392  13.294 -0.2036  0.4113  0.1266
  331MPD2     H 5024   1.459   1.140  13.208  0.7843  1.1386  0.8682
  331MPD2    H1 5025   1.095   1.242  13.405  0.0558  2.8253  0.3197
  331MPD2    H2 5026   1.291   1.538  13.176  0.1680 -0.1292 -0.4408
  331MPD2    H3 5027   1.108   1.459  13.327  1.3785  2.3821 -0.1516
  331MPD2     N 5028   1.256   1.035  13.342 -0.6141 -0.1462  0.1535
  331MPD2    H5 5029   1.318   0.973  13.291 -0.9290 -0.4874  0.1832
  331MPD2    N1 5030   1.500   1.399  13.109 -0.1437 -0.5326 -0.4669
  331MPD2    H7 5031   1.503   1.498  13.089  0.1679 -0.0949  1.7314
  332TMC3    C1 5032   1.172   0.841  13.405  0.4803  0.1755  0.2199
  332TMC3    C2 5033   1.160   0.788  13.277 -0.4360  0.1117  0.1243
  332TMC3    C3 5034   1.182   0.658  13.266  0.0365 -0.4819 -0.4723
  332TMC3    C4 5035   1.190   0.768  13.522 -0.7710 -0.2903  0.0082
  332TMC3    C5 5036   1.219   0.634  13.499  0.1272 -1.0061 -0.1809
  332TMC3    C6 5037   1.218   0.578  13.376 -0.5995 -0.0274  0.2760
  332TMC3     C 5038   1.159   0.981  13.422  0.3330  0.4548  0.0728
  332TMC3     O 5039   1.080   1.035  13.501  0.0464  0.4532 -0.0024
  332TMC3     H 5040   1.138   0.849  13.190 -0.6320 -1.1119 -0.6908
  332TMC3    H1 5041   1.188   0.814  13.620 -0.4122 -1.4243  0.5464
  332TMC3    H2 5042   1.235   0.471  13.368  0.4070  0.2811 -1.7014
  332TMC3    C7 5043   1.303   0.573  13.596  0.2223  0.1626 -0.7496
  332TMC3    C8 5044   1.202   0.599  13.143 -0.2845 -0.0637 -0.1640
  332TMC3    O1 5045   1.287   0.623  13.708  0.0118  0.2506 -0.1127
  332TMC3    O2 5046   1.261   0.487  13.141  0.3321  0.4761 -0.1663
  333MPD2     C 5047   1.060   1.924  11.176 -0.0184  0.1898  0.1226
  333MPD2    C1 5048   1.188   1.863  11.162  0.4134  1.1103  0.2949
  333MPD2    C2 5049   1.180   1.720  11.178  0.6200  0.0800  0.5494
  333MPD2    C3 5050   1.065   1.644  11.193  0.4888  0.5442 -0.1186
  333MPD2    C4 5051   0.947   1.708  11.196 -0.1588  0.9753 -0.2125
  333MPD2    C5 5052   0.942   1.852  11.189 -0.2801 -1.3578 -0.5326
  333MPD2     H 5053   1.269   1.658  11.179 -0.3693 -1.3298 -0.2510
  333MPD2    H1 5054   0.854   1.657  11.220 -0.0523  0.3959 -1.0372
  333MPD2    H2 5055   1.057   2.029  11.205 -4.4016 -0.4483  1.9005
  333MPD2    H3 5056   0.848   1.903  11.202  1.2948  1.4694 -0.3116
  333MPD2     N 5057   1.064   1.505  11.214  0.2789 -0.2928 -0.2778
  333MPD2    H5 5058   1.157   1.475  11.240  0.1171 -2.0709 -1.7225
  333MPD2    N1 5059   1.302   1.939  11.137  0.0163 -0.0176  0.4158
  333MPD2    H7 5060   1.295   2.039  11.123 -1.0433 -0.0770  0.4999
  334TMC3    C1 5061   1.526   1.989  11.091  0.0681 -0.1723  0.5114
  334TMC3    C2 5062   1.647   1.968  11.145  0.7049  0.5670  0.0114
  334TMC3    C3 5063   1.745   2.062  11.123 -0.5044  0.0144  0.0666
  334TMC3    C4 5064   1.493   2.108  11.024  0.4588 -0.0285 -0.6628
  334TMC3    C5 5065   1.593   2.202  11.025 -0.0470  0.2525 -0.6384
  334TMC3    C6 5066   1.717   2.182  11.067 -0.4047  0.2030  0.0453
  334TMC3     C 5067   1.427   1.888  11.116  0.1988 -0.2644 -0.7571
  334TMC3     O 5068   1.474   1.774  11.133 -0.5627  0.6542 -0.0398
  334TMC3     H 5069   1.675   1.873  11.190 -1.5998 -0.8379 -1.5143
  334TMC3    H1 5070   1.392   2.123  10.987  1.4647  0.8293 -3.0410
  334TMC3    H2 5071   1.791   2.260  11.056 -0.4983  0.5577  1.9712
  334TMC3    C7 5072   1.563   2.338  10.997 -0.9495  0.3469 -0.1723
  334TMC3    C8 5073   1.877   2.014  11.169  0.3678  0.0919 -0.3365
  334TMC3    O1 5074   1.655   2.401  10.948  0.2633  0.2144 -0.2781
  334TMC3    O2 5075   1.885   1.910  11.232  0.2163  1.3047 -0.2975
  335TMC3    C1 5076   1.166   2.999  17.354  0.2558 -0.1323  0.2288
  335TMC3    C2 5077   1.107   2.915  17.262  0.1866  0.4481 -0.1769
  335TMC3    C3 5078   1.186   2.846  17.172 -0.0467  1.0493  0.4794
  335TMC3    C4 5079   1.303   3.017  17.357 -0.1820  0.9650 -0.6546
  335TMC3    C5 5080   1.377   2.968  17.253  0.0659 -0.3153  0.2416
  335TMC3    C6 5081   1.320   2.888  17.153 -0.0265 -0.8371  0.7610
  335TMC3     C 5082   1.073   3.089  17.425 -1.1412 -0.0523 -0.6784
  335TMC3     O 5083   0.965   3.046  17.457 -0.3432 -0.4687 -0.6462
  335TMC3     H 5084   0.998   2.910  17.261  0.2280 -0.2950 -0.9650
  335TMC3    H1 5085   1.347   3.097  17.416  0.8767  0.9563 -1.4286
  335TMC3    H2 5086   1.371   2.837  17.071 -0.4119  0.8297 -0.5109
  335TMC3    C7 5087   1.517   2.981  17.265  0.7941  0.0409  0.1258
  335TMC3    C8 5088   1.111   2.788  17.062  0.7040  0.3449  0.0989
  335TMC3    O1 5089   1.582   2.962  17.164  0.6657  0.6661 -0.3597
  335TMC3    O2 5090   1.155   2.807  16.948  0.2440  0.1044  0.1610
  336MPD2     C 5091   0.521   0.020  15.790  0.5198 -0.1149 -0.0340
  336MPD2    C1 5092   0.628   0.067  15.868  0.1737  0.2035 -0.1724
  336MPD2    C2 5093   0.703   4.716  15.940 -0.4475  0.2751  0.0374
  336MPD2    C3 5094   0.668   4.582  15.941  0.1293  0.4568  0.2716
  336MPD2    C4 5095   0.562   4.539  15.866 -0.2096  0.1367  0.0773
  336MPD2    C5 5096   0.482   4.625  15.805  0.0432  0.2313 -0.0239
  336MPD2     H 5097   0.785   0.024  15.993 -0.8429  0.1041  0.8020
  336MPD2    H1 5098   0.530   4.435  15.866 -0.1052  0.1111  1.9599
  336MPD2    H2 5099   0.466   0.091  15.728  0.3642 -0.3452 -0.1604
  336MPD2    H3 5100   0.394   4.584  15.756 -0.7524  0.5327  1.1519
  336MPD2     N 5101   0.743   4.485  16.005 -0.5834  0.3646 -0.2122
  336MPD2    H5 5102   0.732   4.386  15.986  0.7974  0.4861 -1.6279
  336MPD2    N1 5103   0.656   0.207  15.874 -0.0725 -0.2857  0.1255
  336MPD2    H7 5104   0.619   0.265  15.799 -0.1336  1.2347  1.3457
  337TMC3    C1 5105   0.730   0.420  15.960 -0.8777  0.0710  0.3087
  337TMC3    C2 5106   0.624   0.486  15.894 -0.1532  0.0549  0.1128
  337TMC3    C3 5107   0.637   0.619  15.892 -0.5285  0.4567  0.4060
  337TMC3    C4 5108   0.831   0.494  16.025 -0.4249  0.1570 -0.3213
  337TMC3    C5 5109   0.833   0.628  16.009 -0.8838  0.2261 -0.0728
  337TMC3    C6 5110   0.738   0.693  15.941  0.4478 -0.1049  0.0943
  337TMC3     C 5111   0.732   0.277  15.969 -0.1847  0.3597  0.6139
  337TMC3     O 5112   0.795   0.239  16.065 -0.2205 -0.5591 -0.2585
  337TMC3     H 5113   0.553   0.421  15.846 -3.2118  1.5695  2.6038
  337TMC3    H1 5114   0.891   0.441  16.099  1.7576  3.7032  0.4818
  337TMC3    H2 5115   0.733   0.801  15.934 -0.1681 -0.0732  0.9292
  337TMC3    C7 5116   0.930   0.711  16.082 -0.5048  0.2983 -0.3069
  337TMC3    C8 5117   0.549   0.686  15.795  0.5852  0.2612 -0.3734
  337TMC3    O1 5118   0.950   0.679  16.202  0.3665  0.1880  0.2977
  337TMC3    O2 5119   0.533   0.807  15.811  0.2001  0.2298 -0.1073
  338MPD2     C 5120   1.976   0.012   0.983 -0.7419  0.8923 -0.3337
  338MPD2    C1 5121   1.848   4.704   0.967 -0.3735 -0.4555  0.1804
  338MPD2    C2 5122   1.748   0.041   1.031  0.1173  0.3206 -0.8851
  338MPD2    C3 5123   1.774   0.133   1.124 -0.2477  0.1063 -0.0049
  338MPD2    C4 5124   1.905   0.162   1.149 -0.7017  0.2603 -0.0809
  338MPD2    C5 5125   1.999   0.094   1.079 -0.0115  0.4959  0.8698
  338MPD2     H 5126   1.643   0.014   1.022 -0.0772  0.6128  0.5383
  338MPD2    H1 5127   1.936   0.225   1.231 -0.0212  1.1461 -1.0051
  338MPD2    H2 5128   2.065   4.709   0.937 -2.0832  1.0035 -3.0166
  338MPD2    H3 5129   2.104   0.115   1.096  0.6539 -1.7141 -0.5576
  338MPD2     N 5130   1.673   0.205   1.201  0.0148  0.1445 -0.2977
  338MPD2    H5 5131   1.577   0.177   1.187 -0.1548  0.7569 -0.3420
  338MPD2    N1 5132   1.808   4.601   0.877  0.0085 -0.2029 -0.2997
  338MPD2    H7 5133   1.710   4.586   0.854 -0.2317 -0.3054  0.7984
  339TMC3    C1 5134   1.564   0.356   1.309 -0.4204 -0.1898  0.2298
  339TMC3    C2 5135   1.504   0.306   1.413  0.5449  0.2440 -0.4780
  339TMC3    C3 5136   1.370   0.271   1.398 -0.3056 -0.1118 -0.6400
  339TMC3    C4 5137   1.493   0.378   1.190  0.0949  1.1540 -0.2038
  339TMC3    C5 5138   1.358   0.339   1.181  0.0490  0.3628  0.6248
  339TMC3    C6 5139   1.293   0.284   1.281 -0.1275 -0.0326  0.5301
  339TMC3     C 5140   1.694   0.308   1.288  0.5000  0.8953 -0.0871
  339TMC3     O 5141   1.788   0.362   1.343 -0.4372  0.4309  0.5135
  339TMC3     H 5142   1.560   0.267   1.497 -0.2958 -0.5180 -0.2813
  339TMC3    H1 5143   1.540   0.404   1.096  1.6944 -1.7318 -0.2051
  339TMC3    H2 5144   1.196   0.240   1.266  0.6932 -2.2699  1.7597
  339TMC3    C7 5145   1.310   0.282   1.061  0.0872 -0.0239  0.0763
  339TMC3    C8 5146   1.321   0.181   1.496 -0.0523 -0.1351 -0.1365
  339TMC3    O1 5147   1.396   0.242   0.983  0.2708  0.5503 -0.3795
  339TMC3    O2 5148   1.333   0.214   1.614 -0.2934 -0.5274  0.6548
  340MPD2     C 5149   0.983   3.450  10.438 -0.0059  0.1462  0.0684
  340MPD2    C1 5150   0.981   3.313  10.418 -0.0749  0.0851 -0.0774
  340MPD2    C2 5151   1.039   3.232  10.508  0.9359  0.6332  0.4065
  340MPD2    C3 5152   1.133   3.287  10.595 -0.0138  0.0371 -0.6972
  340MPD2    C4 5153   1.151   3.425  10.605  0.0427 -0.1667 -0.8718
  340MPD2    C5 5154   1.069   3.506  10.531 -0.1516  0.2526 -0.6207
  340MPD2     H 5155   1.027   3.124  10.499 -0.0057  0.7632  0.1128
  340MPD2    H1 5156   1.232   3.468  10.662 -0.2379  0.7565 -1.1642
  340MPD2    H2 5157   0.936   3.524  10.374 -2.4712 -2.2736 -0.8803
  340MPD2    H3 5158   1.082   3.613  10.532  0.2406  0.2149 -1.8738
  340MPD2     N 5159   1.221   3.201  10.671  0.3143  0.4618 -0.3551
  340MPD2    H5 5160   1.311   3.245  10.687  0.7491  0.8928 -4.0986
  340MPD2    N1 5161   0.923   3.264  10.299  0.0895 -0.8487  0.5907
  340MPD2    H7 5162   0.882   3.336  10.240 -0.9669 -1.0916  1.0324
  341TMC3    C1 5163   0.877   3.105  10.132 -0.5219  0.0927  0.7915
  341TMC3    C2 5164   0.836   2.977  10.110 -0.0410  0.5934 -0.1702
  341TMC3    C3 5165   0.840   2.923   9.985 -0.0429  0.5164  0.3341
  341TMC3    C4 5166   0.927   3.179  10.034  0.4613  0.6920  0.0433
  341TMC3    C5 5167   0.931   3.123   9.908 -0.3659  0.1354  0.4893
  341TMC3    C6 5168   0.892   2.992   9.880  0.2772  0.6457  0.2576
  341TMC3     C 5169   0.919   3.133  10.268  0.8251  0.5725 -0.0509
  341TMC3     O 5170   0.969   3.035  10.321 -0.2733  0.6089 -0.0155
  341TMC3     H 5171   0.803   2.925  10.199  0.2143  3.5583  1.6786
  341TMC3    H1 5172   0.970   3.276  10.053 -0.0366  1.4085 -2.5740
  341TMC3    H2 5173   0.898   2.942   9.784  0.9581  3.2547 -1.0705
  341TMC3    C7 5174   0.976   3.197   9.795 -0.2921  0.3446 -0.3461
  341TMC3    C8 5175   0.815   2.783   9.979 -0.2512 -1.0490  0.1694
  341TMC3    O1 5176   1.020   3.132   9.706 -0.0322 -0.0246  0.4488
  341TMC3    O2 5177   0.748   2.738  10.069  0.3291  0.1966  0.2763
  342MPD2     C 5178   4.020   0.765  17.713 -0.1811 -0.6820 -0.1299
  342MPD2    C1 5179   4.122   0.740  17.632 -0.0118  0.4176  0.1036
  342MPD2    C2 5180   4.213   0.839  17.611  0.3051 -0.2829 -0.4718
  342MPD2    C3 5181   4.195   0.968  17.665 -0.2013 -0.0155  0.4079
  342MPD2    C4 5182   4.089   0.992   0.001 -1.3038  0.3431 -0.5417
  342MPD2    C5 5183   4.009   0.884   0.033  0.0079  0.8654  0.2016
  342MPD2     H 5184   4.293   0.816  17.541  3.6116  0.8827  2.9084
  342MPD2    H1 5185   4.059   1.095   0.016 -1.0233  0.2408  0.7235
  342MPD2    H2 5186   3.935   0.698  17.723  0.3608 -1.1585  1.3066
  342MPD2    H3 5187   3.916   0.906   0.085  0.6298  0.8133  1.3342
  342MPD2     N 5188   4.287   1.070  17.650  0.5487 -0.1048 -0.1211
  342MPD2    H5 5189   4.259   1.160  17.688 -0.5855 -0.6203  0.2716
  342MPD2    N1 5190   4.130   0.628  17.551 -0.1799  0.1157 -0.0624
  342MPD2    H7 5191   4.202   0.641  17.481  0.1053 -0.0034  0.2095
  343TMC3    C1 5192   4.099   0.402  17.472  0.4911  0.1685  0.0759
  343TMC3    C2 5193   4.169   0.429  17.358  0.6675  0.3117  0.1678
  343TMC3    C3 5194   4.217   0.329  17.281 -0.2862 -0.5452  0.5390
  343TMC3    C4 5195   4.077   0.265  17.501 -0.1476  0.0831  0.4102
  343TMC3    C5 5196   4.116   0.170  17.410  0.2426 -0.3143 -0.0234
  343TMC3    C6 5197   4.193   0.202  17.304 -0.7005 -0.2870 -0.5351
  343TMC3     C 5198   4.077   0.505  17.575  0.6576 -0.0246 -0.1505
  343TMC3     O 5199   4.008   0.466  17.670 -0.1999 -0.3094  0.5848
  343TMC3     H 5200   4.176   0.531  17.322 -0.5869  1.1765  2.3330
  343TMC3    H1 5201   4.010   0.234  17.580  0.0535  1.3187  1.0669
  343TMC3    H2 5202   4.213   0.130  17.226 -0.8072 -0.0560 -0.7752
  343TMC3    C7 5203   4.078   0.033  17.430 -0.5395  0.3445  0.6260
  343TMC3    C8 5204   4.314   0.362  17.180  0.1566 -0.0752  0.0771
  343TMC3    O1 5205   4.049   4.703  17.331 -0.5368  0.3732  0.5443
  343TMC3    O2 5206   4.320   0.483  17.158  0.4774  0.1492  0.3032
  344MPD2     C 5207   0.055   0.850  10.932  1.2433 -0.0679  0.1177
  344MPD2    C1 5208   4.662   0.892  10.922  0.5211  0.2635  0.8085
  344MPD2    C2 5209   4.636   1.022  10.870  0.4928 -0.4242  0.2434
  344MPD2    C3 5210   0.007   1.101  10.826 -0.3953  0.5588  0.2783
  344MPD2    C4 5211   0.134   1.049  10.827  0.5666 -0.2898 -0.4072
  344MPD2    C5 5212   0.160   0.924  10.880  0.0698  0.3134 -0.3969
  344MPD2     H 5213   4.533   1.056  10.866  0.2761 -1.1960 -0.5570
  344MPD2    H1 5214   0.214   1.114  10.791  0.8146 -1.4451 -1.9285
  344MPD2    H2 5215   0.090   0.756  10.974 -0.1745 -0.1076  1.2111
  344MPD2    H3 5216   0.262   0.888  10.869 -0.0861  0.3390 -1.9347
  344MPD2     N 5217   0.002   1.240  10.784  0.0839 -0.0042  0.2135
  344MPD2    H5 5218   0.094   1.280  10.766 -1.2013  2.2149 -1.3912
  344MPD2    N1 5219   4.549   0.814  10.969  0.5344  0.8592 -0.4567
  344MPD2    H7 5220   4.458   0.836  10.928 -0.0141  0.3934  0.5045
  345TMC3    C1 5221   4.672   1.457  10.742  0.3744  0.0607 -0.1883
  345TMC3    C2 5222   0.061   1.494  10.787 -0.4408  0.2584 -0.0249
  345TMC3    C3 5223   0.092   1.624  10.760  0.2118  0.3295 -0.0474
  345TMC3    C4 5224   4.600   1.535  10.653  0.0884  0.4891 -0.0691
  345TMC3    C5 5225   4.645   1.658  10.614  0.2044 -1.0225  0.1062
  345TMC3    C6 5226   0.023   1.705  10.677  0.5486 -0.3018 -0.6152
  345TMC3     C 5227   4.628   1.322  10.766 -0.5282 -1.0617  0.1234
  345TMC3     O 5228   4.510   1.298  10.744  0.6312  0.1709  0.5807
  345TMC3     H 5229   0.129   1.433  10.846  1.1892  0.9644 -1.1671
  345TMC3    H1 5230   4.503   1.504  10.615  0.0171  2.5848 -1.5502
  345TMC3    H2 5231   0.069   1.802  10.660 -0.7944  0.2775 -0.9329
  345TMC3    C7 5232   4.564   1.753  10.545 -0.3748 -0.2243  0.3504
  345TMC3    C8 5233   0.229   1.663  10.770 -0.3792  0.1495 -0.2539
  345TMC3    O1 5234   4.634   1.846  10.504 -0.9321  0.0043 -0.0413
  345TMC3    O2 5235   0.267   1.738  10.681 -0.3570  0.3897  0.6220
  346MPD2     C 5236   4.529   2.097  14.540 -0.4302 -0.4069 -0.3435
  346MPD2    C1 5237   4.656   2.088  14.488  0.3364  0.3525  0.0134
  346MPD2    C2 5238   0.024   2.057  14.576  0.1938 -0.0536  0.0998
  346MPD2    C3 5239   4.735   2.012  14.708  0.0665 -0.6046  0.0547
  346MPD2    C4 5240   4.602   2.030  14.757 -0.7737 -0.7651 -0.4586
  346MPD2    C5 5241   4.507   2.066  14.668  0.5660  0.6434  0.4418
  346MPD2     H 5242   0.126   2.046  14.542  0.5469 -0.7993  1.3780
  346MPD2    H1 5243   4.585   2.010  14.862 -2.1956  0.7839 -0.3813
  346MPD2    H2 5244   4.440   2.109  14.480 -0.5109 -2.5919 -0.6809
  346MPD2    H3 5245   4.406   2.071  14.707  0.1535 -3.9891 -0.0324
  346MPD2     N 5246   0.103   1.963  14.787 -0.1100  0.1545 -0.0376
  346MPD2    H5 5247   0.190   1.977  14.737  0.2296 -2.7012 -0.2460
  346MPD2    N1 5248   4.679   2.094  14.351  0.6018  0.6750  0.0444
  346MPD2    H7 5249   0.032   2.087  14.305  0.7839 -0.1573  0.5334
  347TMC3    C1 5250   0.202   1.872  14.988 -0.2321 -0.0193  0.5515
  347TMC3    C2 5251   0.316   1.855  14.922  0.3757  0.6615 -0.9486
  347TMC3    C3 5252   0.424   1.844  15.009  0.1013 -0.3133 -0.4787
  347TMC3    C4 5253   0.188   1.882  15.117 -0.2066 -0.8978 -0.4502
  347TMC3    C5 5254   0.294   1.878  15.196  0.8323 -0.1960  0.3231
  347TMC3    C6 5255   0.416   1.847  15.145 -0.2227 -0.1742 -0.4555
  347TMC3     C 5256   0.085   1.904  14.910 -0.0980  0.9426 -0.1002
  347TMC3     O 5257   4.715   1.874  14.966  0.3416 -0.1868  0.1117
  347TMC3     H 5258   0.321   1.860  14.814 -2.3398 -0.2612 -1.1042
  347TMC3    H1 5259   0.091   1.902  15.161  1.0013 -0.2968  1.9594
  347TMC3    H2 5260   0.513   1.844  15.193 -0.9702 -1.0223  1.0029
  347TMC3    C7 5261   0.283   1.930  15.327  0.3103 -0.2282  0.4370
  347TMC3    C8 5262   0.552   1.824  14.951 -0.4653  0.1985  0.0453
  347TMC3    O1 5263   0.169   1.947  15.375  0.0248  0.1885 -0.3652
  347TMC3    O2 5264   0.632   1.767  15.025  0.1548  0.4108 -0.0705
  348MPD2     C 5265   4.178   2.129  11.926 -0.8282  0.2540  0.0141
  348MPD2    C1 5266   4.043   2.151  11.909 -0.2216 -0.2465 -0.0232
  348MPD2    C2 5267   4.003   2.286  11.882  0.0551  0.6262 -0.5336
  348MPD2    C3 5268   4.093   2.389  11.849 -0.4563 -0.5384  0.6690
  348MPD2    C4 5269   4.227   2.359  11.856  0.1682  0.2777  0.4428
  348MPD2    C5 5270   4.268   2.231  11.892  0.1383  0.0570  1.0556
  348MPD2     H 5271   3.898   2.310  11.882 -0.7670 -2.9381 -2.4329
  348MPD2    H1 5272   4.303   2.432  11.832 -1.4169  1.7203 -0.2217
  348MPD2    H2 5273   4.221   2.031  11.944 -0.3447  0.6938  1.2267
  348MPD2    H3 5274   4.374   2.208  11.891  0.0590 -0.2639 -0.2426
  348MPD2     N 5275   4.046   2.512  11.828 -0.4145  0.5431 -0.4177
  348MPD2    H5 5276   3.944   2.517  11.829 -0.4816 -0.9488  0.1535
  348MPD2    N1 5277   3.948   2.050  11.918 -0.0130 -0.3633 -0.1007
  348MPD2    H7 5278   3.853   2.085  11.920  0.5080  1.0302  0.9149
  349TMC3    C1 5279   3.847   1.840  11.985 -0.2249  0.2036  0.2889
  349TMC3    C2 5280   3.868   1.715  12.036 -0.3985 -0.0193  0.7012
  349TMC3    C3 5281   3.755   1.636  12.056 -0.7266 -0.4358 -1.1413
  349TMC3    C4 5282   3.722   1.886  11.942 -0.1377  0.0632  0.2109
  349TMC3    C5 5283   3.614   1.801  11.981  0.2316  0.5123 -0.4002
  349TMC3    C6 5284   3.633   1.678  12.039 -0.4521  0.0010  0.0025
  349TMC3     C 5285   3.970   1.921  11.946 -0.6328 -0.0886 -0.1021
  349TMC3     O 5286   4.082   1.868  11.936  0.0244 -0.1318  0.2792
  349TMC3     H 5287   3.968   1.676  12.051  0.7351  1.7413 -2.3595
  349TMC3    H1 5288   3.711   1.978  11.885  0.3703 -1.1281 -1.8170
  349TMC3    H2 5289   3.542   1.625  12.064  0.4273 -1.3870  0.2473
  349TMC3    C7 5290   3.487   1.840  11.916 -0.0184 -0.3323  0.3564
  349TMC3    C8 5291   3.772   1.533  12.155 -0.2716  0.6076  0.4979
  349TMC3    O1 5292   3.397   1.757  11.918  0.0395 -1.0707  0.2746
  349TMC3    O2 5293   3.725   1.557  12.267 -0.3185  0.1642 -0.4854
  350MPD2     C 5294   2.444   0.894  10.124 -0.3467  0.0775  0.1181
  350MPD2    C1 5295   2.460   0.771  10.188 -0.4741 -0.4580  0.3241
  350MPD2    C2 5296   2.554   0.751  10.285  0.2126  0.1798  1.1064
  350MPD2    C3 5297   2.635   0.851  10.334  0.5234 -0.3420 -0.0287
  350MPD2    C4 5298   2.622   0.973  10.278  0.0568  0.2262  0.1346
  350MPD2    C5 5299   2.522   0.998  10.178 -0.0049  0.2048 -0.0977
  350MPD2     H 5300   2.569   0.659  10.340  1.5205 -0.4257 -0.2750
  350MPD2    H1 5301   2.666   1.063  10.317 -0.1649  0.3707  0.0553
  350MPD2    H2 5302   2.374   0.914  10.043 -2.9038  2.9193  3.0558
  350MPD2    H3 5303   2.519   1.096  10.132 -1.5757 -0.4910 -1.5046
  350MPD2     N 5304   2.724   0.829  10.447 -0.7759  0.5158  0.5682
  350MPD2    H5 5305   2.731   0.734  10.481  1.6874  1.1452  1.7812
  350MPD2    N1 5306   2.378   0.657  10.161 -0.8842  0.5972 -0.4272
  350MPD2    H7 5307   2.394   0.573  10.217  0.2765  0.3876 -1.0647
  351TMC3    C1 5308   2.199   0.529  10.077 -0.1506 -0.1851  0.5890
  351TMC3    C2 5309   2.264   0.405  10.093  0.3519 -0.1969 -0.0246
  351TMC3    C3 5310   2.195   0.301  10.042 -0.5989  0.6362  0.4696
  351TMC3    C4 5311   2.074   0.532  10.022  0.5694  0.4076  1.0681
  351TMC3    C5 5312   2.006   0.423   9.972  0.0163 -0.7259 -0.5138
  351TMC3    C6 5313   2.077   0.299   9.988 -0.1550 -0.4955  0.3240
  351TMC3     C 5314   2.264   0.656  10.082  0.3209 -0.0892  0.7868
  351TMC3     O 5315   2.223   0.748  10.013 -0.4107 -0.3472 -0.1721
  351TMC3     H 5316   2.368   0.392  10.120  0.3176 -0.8095 -0.2048
  351TMC3    H1 5317   2.026   0.629  10.028 -0.5240  0.0103 -1.4044
  351TMC3    H2 5318   2.035   0.199   9.976 -1.2470 -0.0947  0.7568
  351TMC3    C7 5319   1.867   0.429   9.941 -0.7382 -0.1700 -0.0436
  351TMC3    C8 5320   2.248   0.170  10.057 -0.0703  0.6897  0.3764
  351TMC3    O1 5321   1.805   0.526   9.977 -0.3103 -0.4055  0.0695
  351TMC3    O2 5322   2.263   0.111   9.949 -0.3238 -0.4648  0.5483
  352MPD2     C 5323   1.729   2.365   0.577  0.0159 -0.2632 -0.1057
  352MPD2    C1 5324   1.640   2.258   0.588 -0.3506 -0.8207 -0.2797
  352MPD2    C2 5325   1.701   2.132   0.581  0.5429 -0.9324 -0.6391
  352MPD2    C3 5326   1.835   2.118   0.542 -0.6051  0.1741  0.6455
  352MPD2    C4 5327   1.922   2.225   0.536  0.4550  0.8395  0.5172
  352MPD2    C5 5328   1.866   2.348   0.554 -1.1030  0.9517 -0.1298
  352MPD2     H 5329   1.634   2.047   0.589 -0.4299 -0.1125 -0.0180
  352MPD2    H1 5330   2.029   2.215   0.527 -0.0843 -1.3098 -3.7116
  352MPD2    H2 5331   1.692   2.466   0.594 -1.5605 -0.8296 -0.0878
  352MPD2    H3 5332   1.925   2.439   0.552 -2.2133  1.7109  1.3998
  352MPD2     N 5333   1.894   1.990   0.530  0.4249  0.0178 -0.2631
  352MPD2    H5 5334   1.995   1.984   0.518  0.4394 -0.5863  0.1631
  352MPD2    N1 5335   1.499   2.287   0.610  0.8015 -0.2100  0.0135
  352MPD2    H7 5336   1.481   2.387   0.610 -0.7466 -0.4779  0.3464
  353TMC3    C1 5337   1.908   1.758   0.499 -0.4856 -0.3102 -0.7665
  353TMC3    C2 5338   2.015   1.739   0.584 -1.2199  0.0663  0.1965
  353TMC3    C3 5339   2.061   1.612   0.598  0.1381 -0.8591 -0.0382
  353TMC3    C4 5340   1.857   1.645   0.431  0.2913  0.1422  0.3386
  353TMC3    C5 5341   1.900   1.523   0.462  0.0592  0.2480 -0.4235
  353TMC3    C6 5342   2.005   1.504   0.539 -0.5926  0.1414 -0.6228
  353TMC3     C 5343   1.824   1.877   0.509  0.0874  0.0390  0.2043
  353TMC3     O 5344   1.705   1.858   0.484 -0.9823  0.1445  0.0052
  353TMC3     H 5345   2.073   1.815   0.635 -0.1630  1.6913 -3.4095
  353TMC3    H1 5346   1.768   1.659   0.371  1.2220  3.2269 -0.3167
  353TMC3    H2 5347   2.037   1.402   0.557  0.0025  0.0455 -2.2352
  353TMC3    C7 5348   1.823   1.403   0.431 -0.1344 -0.1029 -0.2016
  353TMC3    C8 5349   2.190   1.590   0.668 -0.0046 -0.0865  0.3704
  353TMC3    O1 5350   1.826   1.314   0.515 -0.1193 -0.0820  0.6241
  353TMC3    O2 5351   2.282   1.670   0.659  0.4680  0.1347 -0.0411
  354TMC3    C1 5352   2.835   3.022  13.659  0.5222  0.0573 -0.5429
  354TMC3    C2 5353   2.862   3.155  13.672  0.4818 -0.5568  0.4857
  354TMC3    C3 5354   2.888   3.228  13.550 -0.0849 -0.1140 -0.0243
  354TMC3    C4 5355   2.829   2.969  13.535 -0.5617 -0.2516  0.7404
  354TMC3    C5 5356   2.886   3.034  13.431  0.0467 -0.2823  0.0843
  354TMC3    C6 5357   2.905   3.169  13.431 -0.5696 -0.4554 -0.3350
  354TMC3     C 5358   2.830   2.930  13.772 -0.3142  0.2655 -0.6452
  354TMC3     O 5359   2.756   2.835  13.754 -0.0605 -0.6682  0.3911
  354TMC3     H 5360   2.857   3.193  13.773  0.0112 -1.2182  0.7156
  354TMC3    H1 5361   2.823   2.861  13.529 -0.7987 -0.2325  0.6289
  354TMC3    H2 5362   2.922   3.233  13.345 -1.6472 -1.0287 -0.9788
  354TMC3    C7 5363   2.930   2.953  13.324  0.1689  0.0365  0.7756
  354TMC3    C8 5364   2.914   3.371  13.566 -0.0831  0.5948 -0.4850
  354TMC3    O1 5365   2.889   2.838  13.311 -0.0031  0.0121  0.2690
  354TMC3    O2 5366   2.927   3.415  13.679  0.5113 -0.0048  0.0675
  355MPD2     C 5367   3.127   4.438  12.094 -0.4178  0.1564  0.1226
  355MPD2    C1 5368   3.252   4.438  12.032 -0.6036  0.1213 -0.4255
  355MPD2    C2 5369   3.352   4.360  12.078 -0.3194  0.8950 -0.4403
  355MPD2    C3 5370   3.331   4.279  12.187 -0.4063  0.4005 -0.5694
  355MPD2    C4 5371   3.209   4.274  12.248  0.4809  0.2253 -0.3825
  355MPD2    C5 5372   3.109   4.350  12.199 -0.2638 -0.0719 -0.3506
  355MPD2     H 5373   3.450   4.361  12.030  0.5998 -0.8799  1.3983
  355MPD2    H1 5374   3.187   4.208  12.331 -0.9541 -1.0605 -1.8021
  355MPD2    H2 5375   3.040   4.492  12.060 -0.6175 -0.4737 -0.3580
  355MPD2    H3 5376   3.010   4.341  12.242 -0.7856 -0.2803 -1.6069
  355MPD2     N 5377   3.446   4.213  12.231 -0.4730 -0.3953 -0.0133
  355MPD2    H5 5378   3.527   4.238  12.175  0.7296 -0.9819  1.4581
  355MPD2    N1 5379   3.279   4.520  11.921 -0.1535  0.0932 -0.7002
  355MPD2    H7 5380   3.225   4.606  11.914  0.0890  0.3412  0.4647
  356TMC3    C1 5381   3.601   4.123  12.372 -0.2663  0.5486 -0.2565
  356TMC3    C2 5382   3.658   4.141  12.248  0.2495  0.0310 -0.2004
  356TMC3    C3 5383   3.754   4.243  12.230 -0.1041 -0.5217  0.6882
  356TMC3    C4 5384   3.637   4.192  12.486 -0.4887 -0.5292  0.1284
  356TMC3    C5 5385   3.735   4.287  12.465 -0.0462  0.8746  0.1606
  356TMC3    C6 5386   3.789   4.316  12.340 -0.1503  0.0402  0.6138
  356TMC3     C 5387   3.463   4.158  12.353  0.1900  0.7264  0.5284
  356TMC3     O 5388   3.384   4.159  12.448  0.0694  0.8682  0.1498
  356TMC3     H 5389   3.647   4.068  12.168 -0.9171 -1.9448  1.7807
  356TMC3    H1 5390   3.581   4.177  12.577  1.3836  0.8167  1.4921
  356TMC3    H2 5391   3.867   4.392  12.344  0.3272 -0.4428  0.4463
  356TMC3    C7 5392   3.798   4.328  12.588 -0.4305 -0.0235  0.0988
  356TMC3    C8 5393   3.767   4.297  12.098 -0.8530  0.4008  0.0499
  356TMC3    O1 5394   3.793   4.254  12.684 -0.1276 -0.8299 -0.3270
  356TMC3    O2 5395   3.692   4.237  12.018 -0.2815  0.2878  0.5272
  357MPD2     C 5396   3.153   4.162   1.896 -0.5729  0.4366  0.1450
  357MPD2    C1 5397   3.127   4.087   1.786 -0.0844  0.2324 -0.1841
  357MPD2    C2 5398   3.018   4.121   1.710  0.0614 -0.5170 -0.7420
  357MPD2    C3 5399   2.934   4.230   1.742 -0.7012  0.3579  0.2067
  357MPD2    C4 5400   2.960   4.301   1.860  0.1246 -0.3292 -0.3902
  357MPD2    C5 5401   3.074   4.267   1.933 -0.5606 -0.3654 -0.3741
  357MPD2     H 5402   3.000   4.062   1.620 -0.4880  2.0583 -2.3246
  357MPD2    H1 5403   2.903   4.382   1.905  2.0504  1.0157 -0.3817
  357MPD2    H2 5404   3.246   4.151   1.950 -0.1696  1.4103 -0.3356
  357MPD2    H3 5405   3.104   4.336   2.011  2.2235  0.6839 -2.3291
  357MPD2     N 5406   2.814   4.255   1.675 -0.1346  0.4559 -0.4973
  357MPD2    H5 5407   2.749   4.316   1.723 -0.0539  1.1325 -1.2481
  357MPD2    N1 5408   3.209   3.977   1.767  0.3233  0.5377  0.1132
  357MPD2    H7 5409   3.290   3.982   1.828 -0.1377  1.8274  0.6185
  358TMC3    C1 5410   3.301   3.802   1.652  0.6013  0.0925 -0.1405
  358TMC3    C2 5411   3.289   3.755   1.523  0.4778 -0.0460  0.6715
  358TMC3    C3 5412   3.312   3.630   1.492 -0.7051 -0.5728  0.1591
  358TMC3    C4 5413   3.352   3.716   1.743  0.3237  0.9242 -0.3313
  358TMC3    C5 5414   3.394   3.592   1.697 -0.3289 -0.3539 -0.3426
  358TMC3    C6 5415   3.378   3.550   1.573 -0.1571  0.2011  0.9278
  358TMC3     C 5416   3.184   3.876   1.680 -0.7711 -0.9256  0.4300
  358TMC3     O 5417   3.091   3.860   1.603 -0.2654  0.2032  0.5600
  358TMC3     H 5418   3.241   3.822   1.453  0.7649  0.2301  0.7362
  358TMC3    H1 5419   3.351   3.727   1.851  0.4815 -0.3352 -0.1950
  358TMC3    H2 5420   3.379   3.445   1.547 -2.6279  0.6709 -0.9962
  358TMC3    C7 5421   3.498   3.529   1.778  0.2914 -0.1685  0.3113
  358TMC3    C8 5422   3.215   3.572   1.399  0.1252 -0.4461 -0.3155
  358TMC3    O1 5423   3.533   3.588   1.880  0.2422  0.4502  0.3173
  358TMC3    O2 5424   3.240   3.464   1.351 -0.7911 -0.6364 -0.0759
  359MPD2     C 5425   3.384   3.363  12.470 -0.2941  0.4594  0.3161
  359MPD2    C1 5426   3.409   3.230  12.450  0.7947 -0.1241 -0.5121
  359MPD2    C2 5427   3.305   3.134  12.456 -0.7949 -0.2442  0.4514
  359MPD2    C3 5428   3.175   3.175  12.495  0.5053  0.1231 -0.2085
  359MPD2    C4 5429   3.150   3.309  12.503 -0.5124 -0.1752  0.3174
  359MPD2    C5 5430   3.253   3.405  12.498  0.0793  0.1437 -0.0992
  359MPD2     H 5431   3.338   3.032  12.442  0.8729  0.1077  1.8461
  359MPD2    H1 5432   3.051   3.341  12.535 -0.3331  0.4465  0.2541
  359MPD2    H2 5433   3.455   3.445  12.462 -0.6240  0.6890 -0.2460
  359MPD2    H3 5434   3.239   3.508  12.527  0.9430  0.1916  0.1243
  359MPD2     N 5435   3.061   3.099  12.516  0.7259  0.4503 -0.0151
  359MPD2    H5 5436   2.980   3.129  12.569  1.9154  0.8364  1.6121
  359MPD2    N1 5437   3.533   3.166  12.430  0.0857 -0.8347  0.7359
  359MPD2    H7 5438   3.529   3.067  12.409  0.2029 -1.0168  1.5701
  360TMC3    C1 5439   3.759   3.168  12.362 -0.4417 -1.0110  0.5489
  360TMC3    C2 5440   3.871   3.233  12.369  0.4720  0.2333 -0.8117
  360TMC3    C3 5441   3.975   3.180  12.301  0.4587 -0.7506  0.0763
  360TMC3    C4 5442   3.740   3.074  12.269 -0.0481  0.1132  0.7415
  360TMC3    C5 5443   3.836   3.036  12.181 -0.8685  0.2172 -0.7205
  360TMC3    C6 5444   3.963   3.082  12.204  0.4122 -0.2091  0.6439
  360TMC3     C 5445   3.648   3.234  12.428 -0.4716  0.2555 -1.3637
  360TMC3     O 5446   3.667   3.350  12.455 -0.3693 -0.4369  0.4245
  360TMC3     H 5447   3.895   3.292  12.456  1.7087 -1.4826  0.0235
  360TMC3    H1 5448   3.644   3.026  12.256 -0.8535  2.1054 -0.5258
  360TMC3    H2 5449   4.046   3.039  12.149 -0.5314 -0.8456 -0.2821
  360TMC3    C7 5450   3.800   3.028  12.043 -0.0278 -0.1416 -0.2509
  360TMC3    C8 5451   4.069   3.285  12.268  0.0548 -0.0277  0.0022
  360TMC3    O1 5452   3.869   3.095  11.966 -0.0795  0.6395 -0.2957
  360TMC3    O2 5453   4.071   3.379  12.343 -0.0246 -0.3485  0.3826
  361MPD2     C 5454   0.267   0.866  16.433  0.0267 -0.3296 -0.5712
  361MPD2    C1 5455   0.257   0.938  16.554 -0.0329 -0.1001  0.4065
  361MPD2    C2 5456   0.342   0.900  16.654  0.1166 -0.2405  0.4024
  361MPD2    C3 5457   0.433   0.801  16.640  0.7786  0.0250 -0.9113
  361MPD2    C4 5458   0.433   0.718  16.531  0.5504  0.2032  0.0825
  361MPD2    C5 5459   0.346   0.755  16.426 -0.3522 -0.7528 -0.3226
  361MPD2     H 5460   0.324   0.947  16.750 -1.1315  0.4909 -0.1842
  361MPD2    H1 5461   0.491   0.626  16.532  2.2272  1.2484 -0.7167
  361MPD2    H2 5462   0.205   0.890  16.347 -4.8654 -1.4145  2.6373
  361MPD2    H3 5463   0.348   0.698  16.334  0.5783  0.4754 -1.0656
  361MPD2     N 5464   0.545   0.772  16.726  0.2706 -0.2696  0.3187
  361MPD2    H5 5465   0.622   0.709  16.706  0.1395 -0.0401 -0.8529
  361MPD2    N1 5466   0.173   1.048  16.583 -0.0796  0.4041  0.3467
  361MPD2    H7 5467   0.184   1.094  16.673 -0.0402  1.0908 -0.0098
  362TMC3    C1 5468   0.002   1.209  16.545  0.0010 -0.3338  0.2940
  362TMC3    C2 5469   0.002   1.233  16.678 -0.0919 -0.4465  0.4826
  362TMC3    C3 5470   4.681   1.357  16.723  0.1123  0.4787 -0.6242
  362TMC3    C4 5471   4.677   1.282  16.452 -0.2067  0.8801 -0.2285
  362TMC3    C5 5472   4.635   1.403  16.497  0.3350  0.2314  0.3455
  362TMC3    C6 5473   4.632   1.443  16.630  0.6236  0.2981  0.2322
  362TMC3     C 5474   0.082   1.100  16.495 -0.5609  0.0807 -0.2701
  362TMC3     O 5475   0.080   1.080  16.374  0.1657  0.4728  0.3821
  362TMC3     H 5476   0.037   1.158  16.748 -2.2456 -1.7666  0.1218
  362TMC3    H1 5477   4.699   1.262  16.347  1.0972  0.7772  0.0636
  362TMC3    H2 5478   4.595   1.541  16.661  0.9964  0.2354  0.8663
  362TMC3    C7 5479   4.591   1.506  16.395 -0.5173 -0.1985 -1.1889
  362TMC3    C8 5480   4.678   1.381  16.870  0.2572  0.2278 -0.0634
  362TMC3    O1 5481   4.592   1.625  16.427 -0.1760 -0.4070 -0.3272
  362TMC3    O2 5482   4.730   1.298  16.939  0.4078  0.2434 -0.2322
  363TMC3    C1 5483   2.546   4.354   9.350 -0.2919  0.2910  0.2051
  363TMC3    C2 5484   2.620   4.366   9.462 -0.3627  0.1739 -0.5793
  363TMC3    C3 5485   2.577   4.475   9.543  0.1543  0.4857  0.4020
  363TMC3    C4 5486   2.442   4.437   9.312 -0.3767  0.0055  0.2942
  363TMC3    C5 5487   2.418   4.546   9.387 -0.1899  0.2876 -0.0004
  363TMC3    C6 5488   2.488   4.566   9.508 -0.1602 -0.1494 -0.2577
  363TMC3     C 5489   2.577   4.245   9.256  0.4089 -0.1312 -0.4657
  363TMC3     O 5490   2.480   4.211   9.191  0.1383 -0.0231 -0.3221
  363TMC3     H 5491   2.679   4.286   9.505 -0.0174  0.7145 -0.0438
  363TMC3    H1 5492   2.394   4.427   9.215 -1.3887  0.4756  0.7396
  363TMC3    H2 5493   2.463   4.652   9.570  0.9615 -0.6344  0.8737
  363TMC3    C7 5494   2.358   4.662   9.329 -0.0451 -0.0542  0.0619
  363TMC3    C8 5495   2.641   4.494   9.673 -0.2524 -0.3885 -0.3360
  363TMC3    O1 5496   2.403   0.033   9.361  0.1605 -0.7203 -0.1283
  363TMC3    O2 5497   2.582   4.546   9.766  0.4970  0.1220  0.6175
  364MPD2     C 5498   2.073   3.909  10.950  0.5438  0.4465  0.1427
  364MPD2    C1 5499   2.166   3.900  10.850  0.4357  0.3671  0.6057
  364MPD2    C2 5500   2.270   3.808  10.856 -0.2702 -0.0005 -0.3086
  364MPD2    C3 5501   2.270   3.717  10.959  0.7539  0.7158  0.0466
  364MPD2    C4 5502   2.180   3.728  11.057  0.7173 -0.3060  0.7039
  364MPD2    C5 5503   2.081   3.822  11.054  0.4471  0.0826  0.3069
  364MPD2     H 5504   2.355   3.812  10.789  0.8852 -1.0148  1.0987
  364MPD2    H1 5505   2.174   3.667  11.146 -1.4864  1.4053  1.7280
  364MPD2    H2 5506   1.991   3.980  10.945  0.2967  0.1684  0.2325
  364MPD2    H3 5507   2.010   3.823  11.136  0.8701 -0.3906  0.6775
  364MPD2     N 5508   2.367   3.613  10.970  0.5104  0.7404 -0.3644
  364MPD2    H5 5509   2.371   3.554  11.052 -1.3235 -0.7449 -1.3553
  364MPD2    N1 5510   2.148   3.981  10.744  0.2387 -0.4442 -0.1326
  364MPD2    H7 5511   2.073   4.049  10.739  1.9094  1.4019 -0.1267
  365TMC3    C1 5512   2.182   4.057  10.513 -0.6532  0.5631 -0.2342
  365TMC3    C2 5513   2.199   4.022  10.383  0.7921 -0.0836 -0.1104
  365TMC3    C3 5514   2.175   4.118  10.281  0.3831  0.2845  0.1215
  365TMC3    C4 5515   2.153   4.184  10.546  0.1920 -0.7207 -0.2549
  365TMC3    C5 5516   2.144   4.279  10.449  0.0463 -0.9515 -0.0343
  365TMC3    C6 5517   2.131   4.243  10.319  1.4636  0.2632  0.5549
  365TMC3     C 5518   2.222   3.970  10.622 -0.1493 -0.4181  0.1470
  365TMC3     O 5519   2.300   3.888  10.577  0.4697 -0.0566  0.5148
  365TMC3     H 5520   2.218   3.917  10.364  1.9892 -0.0807  1.0047
  365TMC3    H1 5521   2.162   4.211  10.650  1.0841 -1.3667 -0.1712
  365TMC3    H2 5522   2.122   4.320  10.244 -0.9589 -0.9495 -0.4075
  365TMC3    C7 5523   2.117   4.419  10.491  0.3428 -0.6720  0.3020
  365TMC3    C8 5524   2.198   4.091  10.141  0.8652 -0.6340  0.2265
  365TMC3    O1 5525   2.084   4.504  10.411 -0.0189 -0.5097  0.0888
  365TMC3    O2 5526   2.177   4.185  10.068  0.0557  0.1670  0.1400
  366MPD2     C 5527   0.813   4.066  15.090 -0.2989 -0.5772  0.2470
  366MPD2    C1 5528   0.890   4.048  15.207  0.4573 -0.5824 -0.2317
  366MPD2    C2 5529   1.030   4.020  15.201 -0.1547 -0.5580 -0.2900
  366MPD2    C3 5530   1.093   4.037  15.076 -0.2400 -0.3132 -0.0564
  366MPD2    C4 5531   1.012   4.050  14.962  0.9720 -0.0059  0.0063
  366MPD2    C5 5532   0.875   4.047  14.967  0.4696 -0.3622  0.1184
  366MPD2     H 5533   1.088   4.025  15.293 -0.5735 -4.2905  0.1582
  366MPD2    H1 5534   1.054   4.045  14.862 -0.4433 -1.5349 -0.5180
  366MPD2    H2 5535   0.707   4.089  15.086 -0.0885  0.0649 -1.7806
  366MPD2    H3 5536   0.820   4.062  14.875  0.8441 -1.6842 -0.3107
  366MPD2     N 5537   1.232   4.028  15.067 -0.5059 -0.6081 -0.4359
  366MPD2    H5 5538   1.284   4.010  15.152  0.4206 -0.9718 -1.0806
  366MPD2    N1 5539   0.841   4.073  15.334  0.0659  0.3831  0.1009
  366MPD2    H7 5540   0.915   4.055  15.401  0.3458  1.6525  0.1474
  367TMC3    C1 5541   0.704   4.185  15.494  0.0402 -0.6775 -0.1880
  367TMC3    C2 5542   0.818   4.251  15.534 -0.5315 -0.5263  0.1005
  367TMC3    C3 5543   0.808   4.372  15.586 -0.2707 -0.6416  0.4230
  367TMC3    C4 5544   0.581   4.237  15.507  0.1685 -0.2275 -0.2745
  367TMC3    C5 5545   0.567   4.368  15.553  0.0315  0.6436  0.2892
  367TMC3    C6 5546   0.681   4.432  15.600 -0.5533  0.4925  0.4948
  367TMC3     C 5547   0.717   4.125  15.363 -0.1865  0.2511  0.1609
  367TMC3     O 5548   0.619   4.140  15.292  0.0337  0.7608  0.1335
  367TMC3     H 5549   0.914   4.201  15.530 -0.9207 -1.0433 -2.8287
  367TMC3    H1 5550   0.498   4.169  15.490 -0.7487  0.8370 -0.0158
  367TMC3    H2 5551   0.666   4.533  15.637 -1.1323  0.3499  0.6555
  367TMC3    C7 5552   0.484   4.450  15.460 -0.0575 -0.7305 -0.1727
  367TMC3    C8 5553   0.922   4.421  15.664 -0.2825  0.9431 -0.3694
  367TMC3    O1 5554   0.463   4.569  15.489  0.5391  0.8140  0.1400
  367TMC3    O2 5555   1.007   4.338  15.702  0.6748  0.5349 -0.0603
  368MPD2     C 5556   2.454   1.357  13.089  0.5187 -0.3511 -0.5175
  368MPD2    C1 5557   2.406   1.485  13.116  0.4518 -0.5875  0.5083
  368MPD2    C2 5558   2.496   1.587  13.095  0.2892  0.4940  0.7119
  368MPD2    C3 5559   2.629   1.569  13.043  0.2399  0.0933  0.3470
  368MPD2    C4 5560   2.676   1.436  13.029  0.0141  0.1685  0.2478
  368MPD2    C5 5561   2.582   1.334  13.053 -0.3490  0.4747  0.2386
  368MPD2     H 5562   2.460   1.689  13.099  3.2870  1.6637 -1.7351
  368MPD2    H1 5563   2.777   1.410  13.000 -0.2504 -0.6297  0.0462
  368MPD2    H2 5564   2.383   1.276  13.090  0.2377 -0.1007 -0.2993
  368MPD2    H3 5565   2.619   1.232  13.043 -1.1852  0.3218 -1.3890
  368MPD2     N 5566   2.703   1.689  13.020 -1.0021  0.1609 -0.2390
  368MPD2    H5 5567   2.653   1.775  13.039  1.5290  2.0754 -2.1191
  368MPD2    N1 5568   2.277   1.514  13.159 -0.4691  0.5786 -0.2795
  368MPD2    H7 5569   2.261   1.612  13.180 -1.2993  0.4115 -0.1558
  369TMC3    C1 5570   2.055   1.514  13.206  0.0882  0.1991  0.6148
  369TMC3    C2 5571   2.061   1.651  13.170 -0.6877  1.0700 -0.2732
  369TMC3    C3 5572   1.959   1.734  13.208  0.3235  0.7646 -0.2083
  369TMC3    C4 5573   1.948   1.461  13.280  0.2815  0.9012  0.1719
  369TMC3    C5 5574   1.853   1.552  13.325 -0.8320 -0.6342 -0.1031
  369TMC3    C6 5575   1.857   1.685  13.283 -0.1773  0.5778  0.8728
  369TMC3     C 5576   2.170   1.431  13.178 -0.0192 -0.1005 -0.0858
  369TMC3     O 5577   2.154   1.312  13.170 -0.5955 -0.0113  0.5313
  369TMC3     H 5578   2.105   1.678  13.075 -1.4830  0.6864 -0.7570
  369TMC3    H1 5579   1.950   1.367  13.334  0.5899 -0.2311 -1.7962
  369TMC3    H2 5580   1.779   1.756  13.310 -2.6607 -1.0840 -1.9840
  369TMC3    C7 5581   1.751   1.498  13.415 -0.6639 -0.3055 -0.0287
  369TMC3    C8 5582   1.943   1.854  13.145 -0.4713  0.5763 -0.3386
  369TMC3    O1 5583   1.779   1.396  13.480  0.0283 -0.6505  0.4066
  369TMC3    O2 5584   1.837   1.912  13.146 -0.5822 -0.1265  0.0945
  370TMC3    C1 5585   1.425   2.245  16.258 -0.1761 -0.4467 -0.1261
  370TMC3    C2 5586   1.338   2.192  16.352 -1.4173 -0.6176 -0.4819
  370TMC3    C3 5587   1.316   2.058  16.354  0.4246 -0.6459 -0.2397
  370TMC3    C4 5588   1.485   2.168  16.166  0.4894 -0.0207  0.2261
  370TMC3    C5 5589   1.469   2.032  16.179  0.5005 -0.6963  0.5836
  370TMC3    C6 5590   1.382   1.974  16.270  0.1870 -0.6507  0.6402
  370TMC3     C 5591   1.513   2.353  16.309  0.1312  0.7838 -0.4431
  370TMC3     O 5592   1.526   2.351  16.430  0.2109 -0.3953 -0.7885
  370TMC3     H 5593   1.312   2.256  16.435  1.1853  0.4768 -0.5156
  370TMC3    H1 5594   1.537   2.206  16.079  2.5522  0.6746  1.7537
  370TMC3    H2 5595   1.387   1.868  16.288 -1.5419 -0.7183  0.7033
  370TMC3    C7 5596   1.511   1.951  16.069 -0.0142 -0.5540 -0.4819
  370TMC3    C8 5597   1.254   1.998  16.472  0.1185 -0.0328 -0.7374
  370TMC3    O1 5598   1.474   1.993  15.960  0.1629 -0.5788 -0.2207
  370TMC3    O2 5599   1.269   1.878  16.481  0.1035  0.3274 -0.6365
  371TMC3    C1 5600   2.787   0.371  15.629  0.5462  0.6269 -0.1827
  371TMC3    C2 5601   2.685   0.387  15.724  0.2016  0.1815 -0.0839
  371TMC3    C3 5602   2.655   0.512  15.759  0.0922 -0.2481  0.1917
  371TMC3    C4 5603   2.851   0.480  15.571  0.0022 -0.7432 -0.2131
  371TMC3    C5 5604   2.821   0.603  15.619 -0.0632 -0.1458  0.3044
  371TMC3    C6 5605   2.716   0.622  15.711 -0.2641 -0.4376  0.4689
  371TMC3     C 5606   2.830   0.240  15.580 -0.0131 -0.3444  0.3147
  371TMC3     O 5607   2.915   0.249  15.490  0.2158 -0.3978 -0.3418
  371TMC3     H 5608   2.627   0.302  15.759  2.0103 -0.9842  0.1017
  371TMC3    H1 5609   2.941   0.461  15.513 -0.1669 -0.3942 -0.5872
  371TMC3    H2 5610   2.722   0.710  15.773 -2.0148  0.6601 -0.9049
  371TMC3    C7 5611   2.911   0.718  15.599 -0.5646 -0.0744 -0.6822
  371TMC3    C8 5612   2.577   0.520  15.885  0.1616  0.1839 -0.0126
  371TMC3    O1 5613   2.851   0.825  15.600  0.0491  0.2329  0.5743
  371TMC3    O2 5614   2.574   0.420  15.956  0.0857 -0.0109 -0.1930
  372MPD2     C 5615   2.256   1.938  14.271  0.1298  0.4724  0.6114
  372MPD2    C1 5616   2.352   1.841  14.253 -0.2789 -0.2900  0.5691
  372MPD2    C2 5617   2.307   1.710  14.242 -0.6403 -0.4156 -0.5837
  372MPD2    C3 5618   2.167   1.674  14.235  0.0426 -0.4985 -0.0706
  372MPD2    C4 5619   2.078   1.773  14.268 -0.6536 -0.1658 -0.5747
  372MPD2    C5 5620   2.120   1.904  14.279 -0.7425 -0.4980  0.4358
  372MPD2     H 5621   2.378   1.630  14.224 -0.4684 -0.3611 -0.1620
  372MPD2    H1 5622   1.970   1.774  14.278 -0.5690 -1.9934  0.5284
  372MPD2    H2 5623   2.281   2.044  14.276 -0.8344  0.6865  0.9264
  372MPD2    H3 5624   2.047   1.983  14.286 -1.3603 -1.1115  0.9467
  372MPD2     N 5625   2.145   1.536  14.216 -0.5588  0.2313 -0.1415
  372MPD2    H5 5626   2.229   1.484  14.193 -1.1451 -0.2381 -1.2153
  372MPD2    N1 5627   2.489   1.865  14.238  0.1111 -0.1484  0.1648
  372MPD2    H7 5628   2.544   1.791  14.195  0.7321  0.5992 -0.3179
  373TMC3    C1 5629   2.030   1.337  14.230 -0.1692 -0.4620  0.1574
  373TMC3    C2 5630   2.151   1.282  14.276 -0.2097  0.3994  0.1755
  373TMC3    C3 5631   2.145   1.147  14.283  0.2867 -0.4328  0.0737
  373TMC3    C4 5632   1.914   1.271  14.196  0.0944 -0.3601  0.2832
  373TMC3    C5 5633   1.912   1.137  14.207 -0.1397 -0.1139 -0.0476
  373TMC3    C6 5634   2.029   1.073  14.246  0.0121  0.1353  0.2132
  373TMC3     C 5635   2.022   1.479  14.225 -0.0755 -0.1524 -0.7264
  373TMC3     O 5636   1.916   1.530  14.198 -0.3637  1.1092  0.3870
  373TMC3     H 5637   2.234   1.329  14.329 -0.8471 -1.2576  2.6495
  373TMC3    H1 5638   1.827   1.317  14.152  1.1398  2.3675  1.0404
  373TMC3    H2 5639   2.029   0.966  14.235  1.8756  0.5453 -3.6690
  373TMC3    C7 5640   1.844   1.066  14.105  0.2546 -0.1184 -0.3031
  373TMC3    C8 5641   2.269   1.080  14.317 -0.0203 -0.0800 -0.4147
  373TMC3    O1 5642   1.892   1.059  13.994 -0.0423  0.1436 -0.8309
  373TMC3    O2 5643   2.372   1.148  14.325 -0.3985 -0.1148  0.6540
  374TMC3    C1 5644   2.453   2.474  10.381  0.4144 -0.2742 -0.1229
  374TMC3    C2 5645   2.510   2.599  10.384  0.5622  0.2003  0.5086
  374TMC3    C3 5646   2.532   2.665  10.268  0.0735 -0.2987  0.5531
  374TMC3    C4 5647   2.417   2.410  10.269  0.3495 -0.7843  0.0244
  374TMC3    C5 5648   2.437   2.482  10.153  0.0323 -0.7337  0.1074
  374TMC3    C6 5649   2.493   2.608  10.150  0.3305 -0.1618  0.1055
  374TMC3     C 5650   2.487   2.379  10.487 -0.3595 -0.7859 -0.4152
  374TMC3     O 5651   2.592   2.404  10.543 -0.2435  0.5173  0.0911
  374TMC3     H 5652   2.543   2.637  10.480  1.5968  1.1436 -0.2152
  374TMC3    H1 5653   2.374   2.311  10.273 -0.9048 -0.3185 -1.9703
  374TMC3    H2 5654   2.495   2.671  10.062  1.2712 -0.0993  0.1623
  374TMC3    C7 5655   2.375   2.423  10.033 -0.1276 -0.6163  0.2373
  374TMC3    C8 5656   2.609   2.786  10.259  0.1572  0.8214 -0.1666
  374TMC3    O1 5657   2.324   2.317  10.044  0.0130  0.3990 -0.3264
  374TMC3    O2 5658   2.619   2.844  10.149  0.1063  0.1741 -0.0717
  375MPD2     C 5659   2.828   2.919  16.958  0.5769 -0.0500  0.0119
  375MPD2    C1 5660   2.754   2.806  16.936  0.1706  0.0438 -0.2191
  375MPD2    C2 5661   2.789   2.707  16.849  0.7202 -0.2078 -1.0995
  375MPD2    C3 5662   2.912   2.720  16.782 -0.3381 -0.6706 -0.3085
  375MPD2    C4 5663   2.989   2.831  16.806  0.2866 -0.7391  0.1977
  375MPD2    C5 5664   2.943   2.934  16.886 -0.2952 -0.4940  0.3299
  375MPD2     H 5665   2.727   2.619  16.842 -1.4000  1.1418  0.8943
  375MPD2    H1 5666   3.078   2.853  16.749 -0.1773  2.1367  0.6167
  375MPD2    H2 5667   2.789   3.003  17.014 -1.7486 -0.7661 -0.5652
  375MPD2    H3 5668   3.009   3.020  16.891 -1.1775  0.1103  1.4210
  375MPD2     N 5669   2.965   2.619  16.701 -0.7743 -0.1142  0.0165
  375MPD2    H5 5670   3.059   2.630  16.663 -1.9975  1.7258 -2.4403
  375MPD2    N1 5671   2.625   2.796  16.994 -0.0124  0.4899 -0.1338
  375MPD2    H7 5672   2.576   2.712  16.967  1.2055 -0.6480  1.2240
  376TMC3    C1 5673   3.001   2.418  16.596 -0.3228 -0.1223  0.6244
  376TMC3    C2 5674   3.134   2.425  16.617 -0.1127 -0.7589 -0.2584
  376TMC3    C3 5675   3.217   2.345  16.534 -0.0588  0.0966 -0.9649
  376TMC3    C4 5676   2.946   2.339  16.502  0.0874  0.2303  0.3975
  376TMC3    C5 5677   3.026   2.265  16.417  0.1053  0.1746 -0.9712
  376TMC3    C6 5678   3.163   2.273  16.432  0.2069 -0.4544 -0.5256
  376TMC3     C 5679   2.911   2.493  16.675 -0.3821  0.1434 -0.0269
  376TMC3     O 5680   2.794   2.460  16.682 -0.1404  0.2779  0.5847
  376TMC3     H 5681   3.174   2.497  16.686 -0.7945 -1.2103  0.6011
  376TMC3    H1 5682   2.839   2.332  16.485 -0.0051 -2.1884  1.9298
  376TMC3    H2 5683   3.227   2.210  16.372  3.7172  2.1397  0.4980
  376TMC3    C7 5684   2.971   2.226  16.285 -0.1309 -0.1541 -0.3453
  376TMC3    C8 5685   3.352   2.400  16.507  0.0543 -0.6568  0.4411
  376TMC3    O1 5686   2.870   2.283  16.245  0.1504  0.1709  0.3926
  376TMC3    O2 5687   3.383   2.402  16.388 -0.0239  0.3291  0.1675
  377MPD2     C 5688   0.872   1.404  12.777 -0.0423  0.2475 -0.2278
  377MPD2    C1 5689   0.956   1.495  12.839  0.5559 -0.5279 -0.1412
  377MPD2    C2 5690   0.938   1.526  12.973  0.2474 -0.4206 -1.1154
  377MPD2    C3 5691   0.845   1.450  13.046  0.0059 -0.0152 -0.1011
  377MPD2    C4 5692   0.756   1.371  12.987  0.1193 -0.0559 -0.1032
  377MPD2    C5 5693   0.766   1.345  12.846  0.4577  0.4526  0.5602
  377MPD2     H 5694   1.013   1.588  13.020  0.2593  0.9622 -2.9484
  377MPD2    H1 5695   0.673   1.324  13.039 -0.0337  1.3861  0.9553
  377MPD2    H2 5696   0.888   1.379  12.673 -2.5983 -0.2076 -0.5249
  377MPD2    H3 5697   0.695   1.287  12.787  1.6197 -1.2785  0.8700
  377MPD2     N 5698   0.827   1.458  13.189  0.2188 -0.0432  0.0442
  377MPD2    H5 5699   0.770   1.386  13.232  1.0981  0.1034  1.4404
  377MPD2    N1 5700   1.057   1.550  12.760 -0.7860 -0.4982 -0.2850
  377MPD2    H7 5701   1.064   1.525  12.662  1.1960  0.4683 -0.4031
  378TMC3    C1 5702   1.240   1.761  12.467  0.4946  1.0622  0.2146
  378TMC3    C2 5703   1.169   1.703  12.569 -0.4112  0.1032  0.0393
  378TMC3    C3 5704   1.231   1.686  12.693 -0.7731  0.4581 -0.9416
  378TMC3    C4 5705   1.366   1.813  12.490  0.1807 -0.2298 -0.0426
  378TMC3    C5 5706   1.416   1.805  12.622 -0.3606 -0.2768  0.0318
  378TMC3    C6 5707   1.344   1.755  12.724  0.5791 -0.6988  0.3495
  378TMC3     C 5708   1.154   1.818  12.368  0.0953  0.1311  0.3121
  378TMC3     O 5709   1.066   1.746  12.321  0.2728 -0.6164  0.4043
  378TMC3     H 5710   1.075   1.653  12.550 -0.4820  0.5823 -0.8475
  378TMC3    H1 5711   1.413   1.859  12.404 -0.7393  0.5716 -0.1142
  378TMC3    H2 5712   1.395   1.743  12.819  0.1822  1.2775  0.8248
  378TMC3    C7 5713   1.559   1.833  12.646  0.6231  0.2512 -0.2966
  378TMC3    C8 5714   1.158   1.621  12.804 -0.1951 -0.3063 -0.4974
  378TMC3    O1 5715   1.606   1.829  12.757 -0.2818  0.0542  0.0456
  378TMC3    O2 5716   1.185   1.666  12.913 -0.1066 -0.1521  0.3697
  379MPD2     C 5717   1.555   4.727  16.784 -0.8331 -0.0300 -1.1699
  379MPD2    C1 5718   1.625   4.628  16.716  0.3731  0.8806  0.6530
  379MPD2    C2 5719   1.742   4.583  16.764  0.0897  0.6740 -0.4835
  379MPD2    C3 5720   1.785   4.619  16.885 -0.0612  0.5498  0.7379
  379MPD2    C4 5721   1.719   4.718  16.950  0.1204  0.1934 -0.3154
  379MPD2    C5 5722   1.599   0.032  16.903  0.0551  0.0881  0.4678
  379MPD2     H 5723   1.805   4.515  16.708 -2.0547 -2.9608  1.4786
  379MPD2    H1 5724   1.754   0.034  17.038 -1.8004 -0.3670  0.8185
  379MPD2    H2 5725   1.465   0.038  16.749 -1.2842  0.8173  1.1569
  379MPD2    H3 5726   1.536   0.108  16.947  1.0959  1.2341 -0.0059
  379MPD2     N 5727   1.907   4.581  16.943 -0.1026  0.3833 -0.1496
  379MPD2    H5 5728   1.930   4.624  17.032 -0.9901  0.1273  0.2012
  379MPD2    N1 5729   1.570   4.590  16.589  0.6323 -0.1068  0.9434
  379MPD2    H7 5730   1.496   4.647  16.551  2.9856  1.5331 -1.2061
  380TMC3    C1 5731   1.565   4.481  16.373  0.1076  0.1004 -0.3769
  380TMC3    C2 5732   1.658   4.435  16.283 -0.5993  0.7786 -0.1562
  380TMC3    C3 5733   1.632   4.447  16.154 -0.2308 -0.1657 -0.2045
  380TMC3    C4 5734   1.448   4.538  16.334  0.1734  0.6047 -0.1564
  380TMC3    C5 5735   1.426   4.546  16.198 -1.3141 -0.4906 -0.0996
  380TMC3    C6 5736   1.521   4.507  16.103 -0.1355 -0.6463  0.1895
  380TMC3     C 5737   1.613   4.482  16.510  0.1579  0.3947  0.3607
  380TMC3     O 5738   1.689   4.395  16.545 -0.0417 -0.4177  0.1814
  380TMC3     H 5739   1.746   4.388  16.323 -1.7185 -0.9517  0.2647
  380TMC3    H1 5740   1.373   4.562  16.409  2.3165  1.9782  1.5443
  380TMC3    H2 5741   1.512   4.545  16.002  0.9967 -0.8821  0.0057
  380TMC3    C7 5742   1.312   4.620  16.149 -0.2063  0.4705  0.2445
  380TMC3    C8 5743   1.733   4.427  16.055  0.2105 -0.1967 -0.6784
  380TMC3    O1 5744   1.268   4.701  16.233 -0.2801  0.0215  0.5002
  380TMC3    O2 5745   1.715   4.456  15.941 -0.1245  0.3012  0.0373
  381TMC3    C1 5746   1.429   1.252  16.438 -0.3580 -1.3644 -0.7433
  381TMC3    C2 5747   1.483   1.371  16.403 -0.7904 -0.1682  0.4064
  381TMC3    C3 5748   1.479   1.479  16.483 -0.4524 -0.1351  0.6783
  381TMC3    C4 5749   1.367   1.239  16.559  0.1447  0.6303  0.0655
  381TMC3    C5 5750   1.366   1.350  16.638 -1.2450  0.1618  0.0244
  381TMC3    C6 5751   1.408   1.471  16.603 -0.2423 -0.7861 -0.2563
  381TMC3     C 5752   1.484   1.132  16.376 -0.0006  0.3748  0.0578
  381TMC3     O 5753   1.592   1.146  16.321  0.7727 -0.1341 -0.2127
  381TMC3     H 5754   1.540   1.376  16.310 -0.0933 -1.0601  0.7894
  381TMC3    H1 5755   1.332   1.141  16.589  1.2830 -0.7503 -3.0769
  381TMC3    H2 5756   1.393   1.554  16.671 -0.0306 -0.4335 -0.6343
  381TMC3    C7 5757   1.294   1.324  16.763 -0.3009 -0.4548 -0.8363
  381TMC3    C8 5758   1.554   1.598  16.442  0.3277  0.3667  0.5078
  381TMC3    O1 5759   1.310   1.211  16.808  0.5964  0.3992  0.2588
  381TMC3    O2 5760   1.581   1.609  16.324 -0.1382  0.1210 -0.3068
  382MPD2     C 5761   0.979   3.196  17.078  0.1192  0.1618 -0.2298
  382MPD2    C1 5762   0.931   3.293  17.159  0.3601  0.1841 -0.4657
  382MPD2    C2 5763   0.799   3.284  17.201  0.5150 -0.1774 -0.3933
  382MPD2    C3 5764   0.724   3.172  17.179 -0.3770  0.0612 -0.7299
  382MPD2    C4 5765   0.775   3.068  17.099  0.0165  0.1458 -0.4452
  382MPD2    C5 5766   0.904   3.082  17.049  0.4314  0.4240 -0.1708
  382MPD2     H 5767   0.762   3.372  17.253 -0.8717 -0.4991 -0.8457
  382MPD2    H1 5768   0.728   2.971  17.092  1.1855 -0.6199  2.2634
  382MPD2    H2 5769   1.081   3.203  17.042  0.5300 -0.7990  0.7428
  382MPD2    H3 5770   0.942   3.006  16.981  2.8142  1.0467  0.4699
  382MPD2     N 5771   0.589   3.160  17.232  0.2397  0.3241 -0.0745
  382MPD2    H5 5772   0.524   3.098  17.185  0.0497  0.6053 -0.1837
  382MPD2    N1 5773   0.990   3.410  17.202 -0.1579 -0.2553  0.4036
  382MPD2    H7 5774   0.932   3.465  17.265  1.2209 -0.3292  1.7506
  383TMC3    C1 5775   0.390   3.259  17.327 -0.3913  0.4589  0.4534
  383TMC3    C2 5776   0.312   3.162  17.269  0.0496  0.0212 -0.6260
  383TMC3    C3 5777   0.180   3.154  17.301  1.0782  0.8418  0.8210
  383TMC3    C4 5778   0.338   3.340  17.423  0.3263 -0.3904 -0.5042
  383TMC3    C5 5779   0.204   3.352  17.426  0.4371 -0.3502  0.4851
  383TMC3    C6 5780   0.122   3.263  17.365 -0.3607 -0.2131  0.2943
  383TMC3     C 5781   0.539   3.253  17.323 -0.3374  0.5556 -0.6704
  383TMC3     O 5782   0.599   3.323  17.403 -0.1581  0.1389 -0.9331
  383TMC3     H 5783   0.344   3.110  17.179 -1.0146  0.9781 -1.5454
  383TMC3    H1 5784   0.408   3.407  17.471 -2.6640  0.6618  2.4041
  383TMC3    H2 5785   0.015   3.276  17.367 -0.0682  1.9807  1.9459
  383TMC3    C7 5786   0.156   3.482  17.438 -0.5250  0.0777  0.2407
  383TMC3    C8 5787   0.094   3.078  17.212 -0.6982  0.1295  0.7901
  383TMC3    O1 5788   0.237   3.567  17.405 -0.3051 -0.1941  0.2035
  383TMC3    O2 5789   4.713   3.107  17.220 -0.5691  0.0044  0.2162
  384MPD2     C 5790   2.234   0.317  12.207 -0.1485  0.7074  0.4979
  384MPD2    C1 5791   2.298   0.200  12.255  0.8251  0.1375  0.7696
  384MPD2    C2 5792   2.438   0.205  12.259 -0.2989  0.2623  0.4809
  384MPD2    C3 5793   2.504   0.315  12.214  0.9269 -0.9124 -0.0285
  384MPD2    C4 5794   2.438   0.418  12.152 -0.3278 -0.1097 -0.1398
  384MPD2    C5 5795   2.302   0.424  12.151 -0.2121  0.1750  0.1814
  384MPD2     H 5796   2.489   0.121  12.304  2.7938  2.3401  0.8699
  384MPD2    H1 5797   2.493   0.493  12.098 -2.0982  1.6129  0.4405
  384MPD2    H2 5798   2.125   0.315  12.204 -0.0456 -1.1348 -1.7234
  384MPD2    H3 5799   2.250   0.511  12.113  0.2242  1.4642  2.5502
  384MPD2     N 5800   2.642   0.321  12.198  0.2497 -0.1680 -0.1184
  384MPD2    H5 5801   2.671   0.387  12.126  2.6393  1.4747  2.3312
  384MPD2    N1 5802   2.235   0.084  12.303 -0.6873 -0.0793 -0.0059
  384MPD2    H7 5803   2.292   0.007  12.336 -3.0691 -2.7173 -2.0645
  385TMC3    C1 5804   2.873   0.238  12.237 -0.0957 -1.2016 -0.2582
  385TMC3    C2 5805   2.893   0.189  12.108  0.4145  0.2298  0.3270
  385TMC3    C3 5806   2.993   0.095  12.086 -0.0073  0.4908 -0.0464
  385TMC3    C4 5807   2.942   0.174  12.344  0.0901 -0.0557  0.3557
  385TMC3    C5 5808   3.031   0.073  12.316  1.1133  0.4362  0.0626
  385TMC3    C6 5809   3.070   0.041  12.190 -0.2569 -0.4491  0.0856
  385TMC3     C 5810   2.731   0.245  12.272  0.9158  0.5811 -0.1030
  385TMC3     O 5811   2.713   0.165  12.358  0.3512 -0.9114  0.3944
  385TMC3     H 5812   2.837   0.229  12.024  1.1559  1.7046  0.5191
  385TMC3    H1 5813   2.908   0.198  12.445 -1.0612 -0.3463  0.0339
  385TMC3    H2 5814   3.133   4.691  12.182 -1.7101 -1.8158  3.2792
  385TMC3    C7 5815   3.005   4.690  12.391  0.5080  0.0414  0.0012
  385TMC3    C8 5816   3.028   0.053  11.956  0.3358 -0.2453 -0.3871
  385TMC3    O1 5817   3.101   4.611  12.410 -0.1457  0.3374  0.4334
  385TMC3    O2 5818   3.142   0.014  11.936  0.2637  0.2789 -0.3895
  386TMC3    C1 5819   2.373   2.566  11.725 -0.5457  0.6987  0.3496
  386TMC3    C2 5820   2.336   2.605  11.598 -0.1834  0.1620 -0.3717
  386TMC3    C3 5821   2.199   2.623  11.577 -0.2348 -0.0608  0.2219
  386TMC3    C4 5822   2.280   2.541  11.824  0.0066  0.6585  0.2709
  386TMC3    C5 5823   2.142   2.543  11.790 -0.3326  0.5793  0.5344
  386TMC3    C6 5824   2.101   2.596  11.671 -0.2831  0.0389  0.1275
  386TMC3     C 5825   2.502   2.506  11.740  0.0318  0.0943 -0.3936
  386TMC3     O 5826   2.593   2.564  11.679  0.8326  0.7671  0.3222
  386TMC3     H 5827   2.410   2.652  11.534  1.4339 -0.0606  1.3370
  386TMC3    H1 5828   2.315   2.516  11.923  1.5628 -0.5443 -0.5732
  386TMC3    H2 5829   1.996   2.605  11.642 -0.7677 -0.1302  1.8112
  386TMC3    C7 5830   2.060   2.566  11.910  0.2401 -0.6197  0.5395
  386TMC3    C8 5831   2.151   2.711  11.473 -0.2380  0.5652 -0.0290
  386TMC3    O1 5832   2.106   2.531  12.018 -0.5251  0.3444 -0.4552
  386TMC3    O2 5833   2.040   2.756  11.486 -0.3070 -0.4794 -0.1952
  387MPD2     C 5834   4.301   3.145  10.099 -0.1729  0.3981 -0.3351
  387MPD2    C1 5835   4.422   3.089  10.141  0.3487 -0.6058  0.5220
  387MPD2    C2 5836   4.438   2.958  10.110 -0.1358 -0.4170  0.1195
  387MPD2    C3 5837   4.336   2.880  10.056  0.3458  0.1044  0.1438
  387MPD2    C4 5838   4.216   2.936  10.014  0.2740 -0.6339  0.0578
  387MPD2    C5 5839   4.206   3.072  10.030  0.4842  0.1695  0.5050
  387MPD2     H 5840   4.522   2.899  10.144 -0.3974 -0.1098  1.3236
  387MPD2    H1 5841   4.148   2.876   9.955  1.0446  0.2803 -1.7560
  387MPD2    H2 5842   4.279   3.250  10.116  1.4525  0.5549  0.7618
  387MPD2    H3 5843   4.117   3.127   9.999  0.3150  0.7976  2.1167
  387MPD2     N 5844   4.374   2.742  10.044 -0.0772 -0.6465 -0.2819
  387MPD2    H5 5845   4.471   2.720  10.062  0.0745  0.2338  0.0086
  387MPD2    N1 5846   4.530   3.154  10.210 -0.5058  0.2635  0.0158
  387MPD2    H7 5847   4.617   3.102  10.211 -0.3333  0.5343 -1.1889
  388TMC3    C1 5848   4.648   3.299  10.341 -0.2025 -0.4308  0.7682
  388TMC3    C2 5849   4.692   3.425  10.368 -0.3744 -0.1606  0.1177
  388TMC3    C3 5850   0.075   3.448  10.430 -0.2068  0.5537 -0.6309
  388TMC3    C4 5851   4.722   3.191  10.387  0.1259 -0.5082  0.0160
  388TMC3    C5 5852   0.113   3.217  10.429  0.3454 -0.0139  0.2949
  388TMC3    C6 5853   0.159   3.347  10.457 -0.0987 -0.4794  0.0775
  388TMC3     C 5854   4.520   3.274  10.273  0.1162  0.3901  0.4291
  388TMC3     O 5855   4.442   3.368  10.249 -0.1165  0.1921  0.0158
  388TMC3     H 5856   4.629   3.510  10.342 -1.3686 -0.6648  0.9173
  388TMC3    H1 5857   4.689   3.089  10.403  0.8609 -0.7198  0.1664
  388TMC3    H2 5858   0.262   3.367  10.485  0.6395 -2.0276 -1.5494
  388TMC3    C7 5859   0.216   3.118  10.419 -0.4378  0.2765 -0.0368
  388TMC3    C8 5860   0.119   3.579  10.477  0.0307  0.2490 -0.0312
  388TMC3    O1 5861   0.297   3.107  10.510  0.0249 -0.3481  0.5005
  388TMC3    O2 5862   0.202   3.576  10.565 -0.0577  0.2187  0.1043
  389MPD2     C 5863   3.788   0.904  11.067 -0.0029 -0.3812 -0.0148
  389MPD2    C1 5864   3.861   1.009  11.113  0.1059  0.0436 -0.1971
  389MPD2    C2 5865   3.891   1.027  11.252 -0.0738  0.0977 -0.4161
  389MPD2    C3 5866   3.851   0.927  11.341 -0.4847  0.3557 -0.2868
  389MPD2    C4 5867   3.780   0.820  11.298  0.4156  0.2620  0.6452
  389MPD2    C5 5868   3.747   0.813  11.165 -0.8797  0.6166  0.0014
  389MPD2     H 5869   3.948   1.114  11.283 -0.7288  0.8506 -1.3348
  389MPD2    H1 5870   3.732   0.740  11.353 -0.9964  1.3678  1.0210
  389MPD2    H2 5871   3.737   0.897  10.971 -1.6769 -3.1875  1.1075
  389MPD2    H3 5872   3.667   0.743  11.142 -1.7853  1.3580  0.8891
  389MPD2     N 5873   3.898   0.923  11.472 -0.3371  0.4563  0.1101
  389MPD2    H5 5874   3.885   0.841  11.530 -3.4058  0.0302 -1.1759
  389MPD2    N1 5875   3.903   1.103  11.023 -0.2631  0.1070 -0.6171
  389MPD2    H7 5876   3.850   1.110  10.937  0.0718 -2.6916 -1.0464
  390TMC3    C1 5877   3.999   0.990  11.674  0.3400 -0.0014 -0.5155
  390TMC3    C2 5878   4.017   0.860  11.696 -0.3748  1.0726 -0.6530
  390TMC3    C3 5879   4.000   0.822  11.821 -0.1572  0.1061 -0.4444
  390TMC3    C4 5880   3.967   1.080  11.772 -0.2378  0.3412  0.8172
  390TMC3    C5 5881   3.940   1.040  11.894  0.2827 -0.2262  0.5281
  390TMC3    C6 5882   3.959   0.903  11.923 -0.3084  0.1566  0.3329
  390TMC3     C 5883   3.949   1.030  11.542 -0.0182 -0.0662 -0.0788
  390TMC3     O 5884   3.960   1.148  11.504 -0.0235 -0.0219 -0.2496
  390TMC3     H 5885   4.057   0.800  11.616 -1.5469 -1.0400  0.3574
  390TMC3    H1 5886   3.943   1.181  11.738  3.1730  0.4234 -1.3710
  390TMC3    H2 5887   3.953   0.868  12.025 -1.4977 -3.8854 -1.1214
  390TMC3    C7 5888   3.830   1.096  11.972  0.3131 -0.5342 -0.2050
  390TMC3    C8 5889   3.972   0.680  11.835 -0.6734  0.6438  1.0355
  390TMC3    O1 5890   3.795   1.210  11.948  0.4594  0.1496 -0.9832
  390TMC3    O2 5891   3.947   0.624  11.728  0.4862 -0.4550  0.3805
  391MPD2     C 5892   3.492   2.581  11.529  0.1145 -0.3502  0.3839
  391MPD2    C1 5893   3.555   2.698  11.493  0.2846 -0.1867  0.7214
  391MPD2    C2 5894   3.507   2.776  11.391 -0.2932  0.0256 -0.6460
  391MPD2    C3 5895   3.384   2.746  11.338  0.5055  0.5596 -0.4960
  391MPD2    C4 5896   3.319   2.634  11.385  0.0971  0.3820 -0.6930
  391MPD2    C5 5897   3.371   2.549  11.474 -0.3462 -0.0185  0.1102
  391MPD2     H 5898   3.564   2.855  11.344 -1.1138  0.7139 -0.4842
  391MPD2    H1 5899   3.220   2.624  11.342 -0.1930 -1.1194  0.2962
  391MPD2    H2 5900   3.535   2.512  11.601  1.4800  0.5784  0.4615
  391MPD2    H3 5901   3.325   2.452  11.489 -0.1823 -0.7370 -3.8971
  391MPD2     N 5902   3.337   2.830  11.238  0.2684  0.0182 -0.5075
  391MPD2    H5 5903   3.398   2.907  11.211 -0.1147  0.0184 -1.3748
  391MPD2    N1 5904   3.675   2.731  11.559  0.1471 -0.2687 -0.2996
  391MPD2    H7 5905   3.698   2.674  11.640  0.0551 -1.2639 -0.9715
  392TMC3    C1 5906   3.190   2.924  11.071 -0.1494  0.3312 -0.5330
  392TMC3    C2 5907   3.077   2.917  10.987 -0.2456  0.4341  0.1478
  392TMC3    C3 5908   3.075   3.002  10.881 -0.3947  0.3821 -0.2934
  392TMC3    C4 5909   3.290   3.018  11.043  0.2715  1.3318  0.1264
  392TMC3    C5 5910   3.283   3.094  10.928 -0.2540  0.1316 -0.0385
  392TMC3    C6 5911   3.171   3.089  10.847 -0.5840 -0.6791  0.4036
  392TMC3     C 5912   3.215   2.821  11.166  0.0510  0.3803 -0.4860
  392TMC3     O 5913   3.141   2.726  11.174  0.0195  0.1880 -0.7624
  392TMC3     H 5914   2.994   2.850  11.007  1.3958 -2.1077 -1.5355
  392TMC3    H1 5915   3.378   3.023  11.106  1.6468 -1.8966 -1.4961
  392TMC3    H2 5916   3.166   3.160  10.765 -1.1423 -2.1709 -0.8579
  392TMC3    C7 5917   3.404   3.171  10.902 -0.6254 -0.1005  0.2986
  392TMC3    C8 5918   2.968   2.974  10.783 -0.9153 -0.1465 -0.3754
  392TMC3    O1 5919   3.496   3.168  10.982  0.1520 -0.2559 -0.0935
  392TMC3    O2 5920   2.873   2.906  10.819  0.1594 -0.6897  0.4658
  393TMC3    C1 5921   2.296   0.500  11.389 -0.1021  0.3843 -0.1520
  393TMC3    C2 5922   2.196   0.437  11.453  0.0027  0.2428 -0.0347
  393TMC3    C3 5923   2.184   0.305  11.423 -0.1884 -0.3891 -0.0612
  393TMC3    C4 5924   2.385   0.442  11.302  0.1334 -0.6098 -0.2434
  393TMC3    C5 5925   2.367   0.310  11.279 -0.3080  0.3915 -0.1517
  393TMC3    C6 5926   2.266   0.237  11.343  0.5387  0.6042  0.0442
  393TMC3     C 5927   2.301   0.643  11.421  0.2369 -0.6027 -0.5171
  393TMC3     O 5928   2.199   0.704  11.460  0.3482  1.0587 -0.4738
  393TMC3     H 5929   2.114   0.476  11.511  0.6947  0.5108  0.7589
  393TMC3    H1 5930   2.457   0.502  11.247  1.5172 -2.6258 -0.6399
  393TMC3    H2 5931   2.252   0.132  11.317  1.7718  0.4595 -0.0179
  393TMC3    C7 5932   2.429   0.244  11.165 -1.1971  0.3274 -0.1681
  393TMC3    C8 5933   2.079   0.240  11.490 -0.5331 -0.5690 -0.2817
  393TMC3    O1 5934   2.363   0.159  11.110  0.9614  0.0161  0.1060
  393TMC3    O2 5935   1.970   0.294  11.508 -0.0395  0.0989 -0.4280
  394TMC3    C1 5936   3.999   1.300  10.953 -0.4053 -0.4901  0.6094
  394TMC3    C2 5937   3.952   1.271  10.825  0.1493 -0.3766 -0.6411
  394TMC3    C3 5938   3.969   1.370  10.729  0.5192  0.0315  0.1080
  394TMC3    C4 5939   4.081   1.410  10.975 -0.0390 -0.2048 -0.2905
  394TMC3    C5 5940   4.112   1.491  10.869  0.2949 -0.0436 -0.0726
  394TMC3    C6 5941   4.043   1.479  10.756  0.5473 -0.7490  0.7079
  394TMC3     C 5942   3.989   1.208  11.056  0.6033  0.0792  0.4651
  394TMC3     O 5943   4.063   1.226  11.153 -0.0838 -0.4409 -0.6025
  394TMC3     H 5944   3.877   1.194  10.808 -0.5500 -0.0135  0.7580
  394TMC3    H1 5945   4.134   1.416  11.070  0.7611  3.5656 -0.9920
  394TMC3    H2 5946   4.045   1.569  10.696  0.4610 -1.3731 -0.2302
  394TMC3    C7 5947   4.229   1.572  10.874 -0.3987  0.9823  0.0080
  394TMC3    C8 5948   3.901   1.363  10.600  0.1423  0.4353  0.0057
  394TMC3    O1 5949   4.254   1.633  10.775  0.3938 -0.1289 -0.3830
  394TMC3    O2 5950   3.916   1.452  10.522 -0.2424  0.5231  0.6812
  395TMC3    C1 5951   3.650   2.183  14.464  0.9951 -0.0877  0.3046
  395TMC3    C2 5952   3.528   2.205  14.523 -0.0267 -0.6532 -0.1584
  395TMC3    C3 5953   3.509   2.315  14.601  0.1521 -0.3745  0.0574
  395TMC3    C4 5954   3.737   2.289  14.462  0.2399  0.2229  0.0690
  395TMC3    C5 5955   3.707   2.402  14.535  0.2797 -0.2987 -0.9471
  395TMC3    C6 5956   3.596   2.424  14.612  0.5344 -0.3476  0.8467
  395TMC3     C 5957   3.699   2.053  14.516 -0.0248  0.4118 -0.7362
  395TMC3     O 5958   3.780   2.051  14.609  0.3787 -0.2089  0.0538
  395TMC3     H 5959   3.448   2.133  14.508 -1.1365  0.6111 -0.2651
  395TMC3    H1 5960   3.837   2.264  14.429 -0.2919  0.9567 -2.1279
  395TMC3    H2 5961   3.587   2.508  14.679  1.3449  0.9228 -0.6521
  395TMC3    C7 5962   3.803   2.506  14.555  0.3615  0.8091 -0.2550
  395TMC3    C8 5963   3.438   2.289  14.726  0.7028  0.2249  0.6674
  395TMC3    O1 5964   3.829   2.547  14.669 -0.5044 -0.0325 -0.2380
  395TMC3    O2 5965   3.410   2.391  14.790 -0.1469 -0.6649 -0.4239
  396MPD2     C 5966   3.594   3.194  17.088  0.0489 -0.4730 -0.2141
  396MPD2    C1 5967   3.690   3.274  17.139 -0.0722 -0.0027  0.0955
  396MPD2    C2 5968   3.722   3.396  17.077 -0.5095 -0.2416  0.3543
  396MPD2    C3 5969   3.649   3.438  16.965  0.2799 -1.0081 -0.0042
  396MPD2    C4 5970   3.551   3.356  16.914  0.7037 -0.4650  0.3598
  396MPD2    C5 5971   3.528   3.236  16.979 -0.1889  0.2622  0.2964
  396MPD2     H 5972   3.799   3.457  17.124 -1.2854  2.3719 -1.7401
  396MPD2    H1 5973   3.497   3.377  16.821 -1.7669  1.4207  2.2006
  396MPD2    H2 5974   3.572   3.094  17.125 -1.8292  0.1085  0.2007
  396MPD2    H3 5975   3.459   3.160  16.942  1.6418 -1.7302  0.9241
  396MPD2     N 5976   3.689   3.560  16.914 -0.0843  0.0393 -0.5309
  396MPD2    H5 5977   3.763   3.611  16.961  0.4226 -0.7925 -0.4224
  396MPD2    N1 5978   3.756   3.229  17.249  0.4226  0.1785 -0.3506
  396MPD2    H7 5979   3.725   3.135  17.271 -0.4461  0.5691  0.0707
  397TMC3    C1 5980   3.911   3.179  17.412 -0.0850  0.1159 -0.2790
  397TMC3    C2 5981   4.033   3.147  17.368 -0.6891  0.0469 -0.0859
  397TMC3    C3 5982   4.059   3.017  17.323 -0.0999  0.0106 -0.5827
  397TMC3    C4 5983   3.823   3.076  17.449  0.0986  0.1263  0.0909
  397TMC3    C5 5984   3.863   2.947  17.426  0.3551 -0.2134 -0.5957
  397TMC3    C6 5985   3.977   2.913  17.361  0.1395 -0.2336 -0.0475
  397TMC3     C 5986   3.864   3.281  17.318 -0.0843  0.0648  0.1826
  397TMC3     O 5987   3.928   3.382  17.307 -0.2881 -0.0689  0.3609
  397TMC3     H 5988   4.091   3.226  17.321  0.2284 -0.6774 -0.1549
  397TMC3    H1 5989   3.724   3.092  17.490  0.3905  3.0358 -0.3750
  397TMC3    H2 5990   3.987   2.813  17.319  1.0641  0.4144 -1.3979
  397TMC3    C7 5991   3.759   2.842  17.453  0.2446  0.4729  0.4143
  397TMC3    C8 5992   4.068   3.016  17.180  0.2441  0.0984 -0.5237
  397TMC3    O1 5993   3.715   2.776  17.360  0.5052 -0.2180  0.3777
  397TMC3    O2 5994   3.978   2.959  17.127  0.2980  0.0275 -0.3248
  398MPD2     C 5995   1.938   0.181   0.302 -0.4282  0.0370 -0.6206
  398MPD2    C1 5996   2.046   0.108   0.332  0.0846  0.9416  0.4699
  398MPD2    C2 5997   2.163   0.169   0.377  0.4674 -0.6951  0.2117
  398MPD2    C3 5998   2.173   0.305   0.380  0.1440 -0.3296  0.2237
  398MPD2    C4 5999   2.063   0.385   0.350 -0.5883  0.3522 -0.3328
  398MPD2    C5 6000   1.956   0.318   0.307  0.6544  0.0268 -0.8357
  398MPD2     H 6001   2.240   0.104   0.416  0.9145  0.4937  1.3295
  398MPD2    H1 6002   2.058   0.492   0.367  0.6884  0.0672  1.7758
  398MPD2    H2 6003   1.846   0.144   0.258 -0.0825 -2.5780  0.8250
  398MPD2    H3 6004   1.865   0.369   0.276  0.9904  1.0516 -0.1126
  398MPD2     N 6005   2.301   0.346   0.417  0.5040 -0.4226  0.3091
  398MPD2    H5 6006   2.368   0.270   0.428  1.4173  0.5485  1.4099
  398MPD2    N1 6007   2.047   4.698   0.315  0.6243 -0.1519  0.7131
  398MPD2    H7 6008   2.134   4.654   0.344  1.6441  1.1011 -0.4177
  399TMC3    C1 6009   1.972   4.479   0.282  0.1689  0.1686 -0.0184
  399TMC3    C2 6010   2.084   4.445   0.357  0.4076 -0.0049  0.4082
  399TMC3    C3 6011   2.130   4.315   0.354 -1.0111  0.5512  0.6982
  399TMC3    C4 6012   1.909   4.393   0.194  0.6412  0.8412 -0.3643
  399TMC3    C5 6013   1.953   4.262   0.200  0.2170  0.1800  0.1154
  399TMC3    C6 6014   2.062   4.227   0.274  0.4371  0.5628  0.1437
  399TMC3     C 6015   1.943   4.622   0.264 -0.9287 -1.0427 -0.3786
  399TMC3     O 6016   1.850   4.659   0.190  0.1370 -0.0171 -0.2858
  399TMC3     H 6017   2.147   4.511   0.416  2.5420 -0.6520 -1.1371
  399TMC3    H1 6018   1.826   4.417   0.128 -0.3015  0.2837  0.6262
  399TMC3    H2 6019   2.085   4.122   0.289 -1.8741  0.4074  2.6236
  399TMC3    C7 6020   1.898   4.150   0.125  0.3087  0.3797  0.8923
  399TMC3    C8 6021   2.245   4.275   0.439 -0.0339 -0.5504 -0.4962
  399TMC3    O1 6022   1.913   4.037   0.167  0.7131  0.3127  0.2150
  399TMC3    O2 6023   2.271   4.353   0.528 -0.0832  0.1100 -0.0057
  400TMC3    C1 6024   0.183   2.684  16.708 -0.4585  0.3092 -0.6501
  400TMC3    C2 6025   0.072   2.683  16.632  0.2319 -0.3119  0.1770
  400TMC3    C3 6026   0.014   2.803  16.613  0.9305 -0.1323  0.0246
  400TMC3    C4 6027   0.234   2.789  16.759 -0.2419 -0.0155  0.3427
  400TMC3    C5 6028   0.177   2.910  16.730  0.3891  0.5060 -0.5655
  400TMC3    C6 6029   0.066   2.918  16.652  0.6770 -0.1863  0.0674
  400TMC3     C 6030   0.251   2.556  16.756 -0.0217  0.4998  0.3149
  400TMC3     O 6031   0.370   2.562  16.785 -0.3937  0.0804 -0.2326
  400TMC3     H 6032   0.030   2.585  16.610  0.0898 -0.8937  2.9428
  400TMC3    H1 6033   0.321   2.780  16.823 -0.0025 -0.0674  0.0162
  400TMC3    H2 6034   0.020   3.014  16.632 -0.8966 -1.4415 -2.3206
  400TMC3    C7 6035   0.247   3.029  16.773 -0.2274  0.0666 -0.9564
  400TMC3    C8 6036   4.612   2.802  16.565 -0.1666  0.3192  1.3387
  400TMC3    O1 6037   0.368   3.026  16.777  0.1846 -0.2191 -0.3072
  400TMC3    O2 6038   4.557   2.916  16.568  0.4037 -0.2253  0.0806
  401MPD2     C 6039   3.462   1.579   0.440  0.1332 -0.6635 -0.0763
  401MPD2    C1 6040   3.459   1.510   0.566  0.6014  0.6812 -0.4790
  401MPD2    C2 6041   3.365   1.409   0.585 -0.2678  0.4264 -0.0321
  401MPD2    C3 6042   3.284   1.369   0.480 -0.4869 -0.4933  0.0630
  401MPD2    C4 6043   3.285   1.440   0.357  0.8130 -0.2116  0.8264
  401MPD2    C5 6044   3.382   1.533   0.343  0.8989  0.1705 -0.1368
  401MPD2     H 6045   3.354   1.354   0.678  0.4361 -0.6553 -0.5920
  401MPD2    H1 6046   3.232   1.412   0.267  0.1053  1.0711  0.8456
  401MPD2    H2 6047   3.530   1.660   0.415 -1.3286 -0.0106 -1.9411
  401MPD2    H3 6048   3.394   1.590   0.251 -1.0810  1.5397  0.4389
  401MPD2     N 6049   3.188   1.273   0.502  0.5217  0.0631  0.1019
  401MPD2    H5 6050   3.161   1.242   0.595 -0.2718  0.0663 -0.1272
  401MPD2    N1 6051   3.558   1.550   0.661  0.2896  0.4204 -0.8044
  401MPD2    H7 6052   3.553   1.486   0.740  1.1675 -0.2599 -1.3040
  402TMC3    C1 6053   3.077   1.076   0.455 -0.8235 -0.8931 -0.1736
  402TMC3    C2 6054   3.050   1.073   0.589  0.0857  0.5298 -0.2335
  402TMC3    C3 6055   3.068   0.958   0.656  0.5986 -0.6096 -0.5145
  402TMC3    C4 6056   3.133   0.969   0.391  0.0867  0.4402  0.2785
  402TMC3    C5 6057   3.152   0.854   0.461  0.7090 -0.2470 -0.4488
  402TMC3    C6 6058   3.122   0.846   0.593 -0.0903  0.0963 -0.1818
  402TMC3     C 6059   3.123   1.200   0.399  0.3133 -0.4850  0.1692
  402TMC3     O 6060   3.155   1.200   0.280  0.3853  0.0344  0.3838
  402TMC3     H 6061   2.999   1.160   0.627  3.0288  2.3091 -0.3707
  402TMC3    H1 6062   3.172   0.982   0.291 -4.7502 -1.0776 -1.7794
  402TMC3    H2 6063   3.126   0.753   0.649 -1.5829  0.9592  1.3595
  402TMC3    C7 6064   3.215   0.748   0.391  0.3398 -0.7403 -0.4053
  402TMC3    C8 6065   3.092   0.968   0.797 -0.4518  0.5952 -0.3980
  402TMC3    O1 6066   3.166   0.714   0.285  0.2174  0.2962  0.0279
  402TMC3    O2 6067   3.039   1.063   0.855 -0.0346  0.1198  0.0623
  403MPD2     C 6068   1.844   4.286  13.481  0.3604 -0.0160  0.6237
  403MPD2    C1 6069   1.733   4.291  13.563 -0.5785  0.0434  0.3912
  403MPD2    C2 6070   1.749   4.334  13.694 -0.9321  0.1261 -0.1348
  403MPD2    C3 6071   1.872   4.376  13.745 -0.2263  0.4758  0.2625
  403MPD2    C4 6072   1.980   4.372  13.658 -0.1575 -0.6124  0.1456
  403MPD2    C5 6073   1.966   4.332  13.527 -0.1559  0.6161 -0.4961
  403MPD2     H 6074   1.667   4.333  13.766  0.4103  0.0767  1.3851
  403MPD2    H1 6075   2.079   4.402  13.694 -0.4324  1.7103 -1.0498
  403MPD2    H2 6076   1.841   4.256  13.377  1.5285 -1.9638  1.1674
  403MPD2    H3 6077   2.053   4.339  13.463 -0.4123 -1.9249 -1.1420
  403MPD2     N 6078   1.899   4.410  13.877  0.1505  0.3740  0.2988
  403MPD2    H5 6079   1.996   4.431  13.899 -0.5435  1.0745  2.6658
  403MPD2    N1 6080   1.608   4.241  13.513 -0.3223  0.2689 -0.0070
  403MPD2    H7 6081   1.615   4.207  13.418  0.8536  1.2064 -0.2479
  404TMC3    C1 6082   1.459   4.085  13.561 -0.2552  0.3332  0.3322
  404TMC3    C2 6083   1.483   4.020  13.674  0.1927 -0.5807 -0.0046
  404TMC3    C3 6084   1.517   3.890  13.660  0.0200 -0.4193  0.6023
  404TMC3    C4 6085   1.479   4.037  13.434  0.1196  0.2437  0.7768
  404TMC3    C5 6086   1.509   3.902  13.425 -0.1932  0.1708  0.3681
  404TMC3    C6 6087   1.530   3.829  13.541 -0.7605 -0.8693 -0.4676
  404TMC3     C 6088   1.490   4.224  13.581  0.7711  0.4642 -0.7180
  404TMC3     O 6089   1.462   4.282  13.682  0.0874  0.0763 -0.4730
  404TMC3     H 6090   1.492   4.073  13.768  0.3640  0.8607 -0.8387
  404TMC3    H1 6091   1.501   4.097  13.346 -1.2314 -1.3017 -0.6188
  404TMC3    H2 6092   1.547   3.722  13.539 -0.9435 -0.8936 -0.6977
  404TMC3    C7 6093   1.566   3.853  13.303  0.2290  0.1206  0.3304
  404TMC3    C8 6094   1.581   3.820  13.774  0.3542  0.5315  0.3174
  404TMC3    O1 6095   1.681   3.819  13.309  0.1132 -0.2402 -0.4216
  404TMC3    O2 6096   1.652   3.724  13.750 -0.4288 -0.0678  0.1970
  405MPD2     C 6097   2.002   0.488  15.161  0.1735  0.5638 -0.2632
  405MPD2    C1 6098   1.930   0.423  15.062  0.2695 -0.2755 -0.0748
  405MPD2    C2 6099   1.810   0.478  15.020 -0.3237 -0.2873  0.2237
  405MPD2    C3 6100   1.770   0.599  15.067 -0.3226 -0.3013  0.1853
  405MPD2    C4 6101   1.849   0.669  15.154  0.1873  0.0614  0.0040
  405MPD2    C5 6102   1.968   0.615  15.201 -0.5435 -0.3508  0.1247
  405MPD2     H 6103   1.733   0.422  14.967 -0.8973 -0.8858  1.6779
  405MPD2    H1 6104   1.815   0.764  15.194 -0.2006 -0.4828  0.9775
  405MPD2    H2 6105   2.091   0.445  15.204 -1.2735 -2.0207  0.1125
  405MPD2    H3 6106   2.036   0.670  15.265 -0.7355  1.6787 -1.4230
  405MPD2     N 6107   1.638   0.631  15.030  0.9965 -0.5358 -0.9531
  405MPD2    H5 6108   1.596   0.561  14.971 -1.4994  0.5887 -0.5255
  405MPD2    N1 6109   1.968   0.286  15.031 -0.5427  0.3565 -0.4740
  405MPD2    H7 6110   2.056   0.252  15.069  0.1919  1.0964 -1.5043
  406TMC3    C1 6111   1.210   0.770  15.032 -0.0131  0.6572 -0.5763
  406TMC3    C2 6112   1.179   0.646  14.976  0.1991 -0.4865 -1.1287
  406TMC3    C3 6113   1.271   0.554  14.974 -0.8849  0.0815  0.4885
  406TMC3    C4 6114   1.337   0.791  15.083  0.1581 -0.6496 -0.6184
  406TMC3    C5 6115   1.431   0.693  15.076  0.3060 -0.7300 -0.4682
  406TMC3    C6 6116   1.400   0.571  15.017 -1.3745  0.3642  0.7066
  406TMC3     C 6117   1.130   0.887  14.999  0.7631  0.4894  0.1258
  406TMC3     O 6118   1.100   0.974  15.081 -0.5210 -0.2377 -0.7458
  406TMC3     H 6119   1.077   0.621  14.951 -1.0231  1.6345  1.7578
  406TMC3    H1 6120   1.372   0.893  15.096 -1.3692 -0.1066 -0.7726
  406TMC3    H2 6121   1.455   0.485  15.053 -2.3513 -1.0841 -1.2900
  406TMC3    C7 6122   1.565   0.717  15.098  0.3828  0.1112 -0.3357
  406TMC3    C8 6123   1.224   0.421  14.922  0.4182 -0.3067 -0.3080
  406TMC3    O1 6124   1.588   0.810  15.176  0.1916 -0.6332  0.0807
  406TMC3    O2 6125   1.110   0.384  14.944 -0.3480  0.0362  0.1885
  407MPD2     C 6126   3.677   2.570   9.936  0.1500 -0.2874  0.3820
  407MPD2    C1 6127   3.812   2.594   9.964  0.1277 -0.2259  0.0760
  407MPD2    C2 6128   3.845   2.687  10.061  0.1109  0.0869 -0.5087
  407MPD2    C3 6129   3.755   2.778  10.101  0.0563  0.0974  0.2515
  407MPD2    C4 6130   3.626   2.765  10.061 -0.8966  0.1104 -0.1843
  407MPD2    C5 6131   3.585   2.659   9.986  0.3817  0.1181 -0.4477
  407MPD2     H 6132   3.949   2.692  10.091 -0.3431  0.0258  1.0508
  407MPD2    H1 6133   3.549   2.833  10.096  2.3179  3.0696  1.1433
  407MPD2    H2 6134   3.640   2.496   9.866 -0.5334  1.1782 -0.8228
  407MPD2    H3 6135   3.479   2.658   9.959  0.0430 -2.0149  0.9342
  407MPD2     N 6136   3.781   2.891  10.184 -0.3987 -0.4986  0.0049
  407MPD2    H5 6137   3.710   2.964  10.188  2.0843  1.7430  2.5660
  407MPD2    N1 6138   3.917   2.524   9.907  0.4877 -0.0556 -0.9120
  407MPD2    H7 6139   4.008   2.562   9.927 -0.6242  0.9994  2.0711
  408TMC3    C1 6140   4.014   2.420   9.732  0.3422 -0.8788 -0.1529
  408TMC3    C2 6141   4.092   2.314   9.755  0.3252 -0.1969  0.7336
  408TMC3    C3 6142   4.217   2.328   9.709  0.3645 -1.1163 -0.1061
  408TMC3    C4 6143   4.052   2.539   9.680 -0.1161  0.8044 -0.3016
  408TMC3    C5 6144   4.180   2.554   9.637  0.3726 -0.5029 -0.7668
  408TMC3    C6 6145   4.265   2.452   9.664 -0.7008  0.5876 -0.5772
  408TMC3     C 6146   3.899   2.420   9.814 -0.9325 -0.0491 -0.1944
  408TMC3     O 6147   3.807   2.347   9.785 -0.0775 -0.4324  0.1149
  408TMC3     H 6148   4.055   2.220   9.795 -1.1059 -0.2697 -0.7483
  408TMC3    H1 6149   3.982   2.621   9.673 -0.5400  0.4029 -0.6854
  408TMC3    H2 6150   4.371   2.467   9.645 -0.3708  1.8137  2.3743
  408TMC3    C7 6151   4.229   2.688   9.631  0.1736  0.0416  0.1927
  408TMC3    C8 6152   4.309   2.215   9.704 -0.0951 -0.0779  0.1530
  408TMC3    O1 6153   4.342   2.701   9.677 -0.0441 -0.4967  0.5810
  408TMC3    O2 6154   4.257   2.100   9.709  0.6406  0.4183 -0.0262
  409MPD2     C 6155   3.825   2.266  16.705  0.2413  0.2625 -0.0222
  409MPD2    C1 6156   3.906   2.292  16.812  0.0978 -0.4030  0.8995
  409MPD2    C2 6157   3.962   2.413  16.837 -0.2317 -0.1882 -0.2142
  409MPD2    C3 6158   3.952   2.512  16.741 -0.5307 -0.3916 -0.3849
  409MPD2    C4 6159   3.882   2.484  16.626 -1.4131 -0.1646  0.2264
  409MPD2    C5 6160   3.816   2.368  16.616 -0.8885  0.3647  0.0656
  409MPD2     H 6161   4.023   2.428  16.925  1.5736  0.2044 -1.5250
  409MPD2    H1 6162   3.861   2.555  16.546 -0.8027 -0.9106 -0.5955
  409MPD2    H2 6163   3.774   2.172  16.686  2.7403 -0.8395 -1.3855
  409MPD2    H3 6164   3.771   2.353  16.518  0.0224 -0.4098 -0.2282
  409MPD2     N 6165   4.001   2.643  16.755  0.1249 -0.1576 -0.1115
  409MPD2    H5 6166   3.989   2.703  16.674 -1.9855 -2.2782 -1.3786
  409MPD2    N1 6167   3.935   2.198  16.909 -0.1263 -0.4771 -0.1573
  409MPD2    H7 6168   4.013   2.212  16.972 -1.5762  0.6319  1.3741
  410TMC3    C1 6169   4.119   2.816  16.832 -0.2473 -0.5144 -0.1657
  410TMC3    C2 6170   4.237   2.844  16.891  0.1981  0.4558  0.5609
  410TMC3    C3 6171   4.323   2.934  16.827 -0.0269 -0.1205 -0.3353
  410TMC3    C4 6172   4.073   2.888  16.724  0.0987  0.6899  0.1692
  410TMC3    C5 6173   4.157   2.977  16.667 -0.1557 -0.5647 -0.2453
  410TMC3    C6 6174   4.277   3.013  16.719  0.6744  0.3210 -0.1835
  410TMC3     C 6175   4.057   2.695  16.868  0.5026 -0.0153  0.5861
  410TMC3     O 6176   4.059   2.643  16.979 -0.1690 -0.0179 -0.2221
  410TMC3     H 6177   4.270   2.788  16.978 -0.1302  0.6860  0.8340
  410TMC3    H1 6178   3.971   2.878  16.689 -0.0837  0.6281  0.7229
  410TMC3    H2 6179   4.354   3.068  16.666  0.3471 -0.5476 -1.5503
  410TMC3    C7 6180   4.107   3.036  16.538 -1.0817  0.3230 -0.2293
  410TMC3    C8 6181   4.465   2.942  16.877  0.4396 -0.3827 -0.6441
  410TMC3    O1 6182   4.018   2.975  16.482 -0.3966  0.2578  0.7044
  410TMC3    O2 6183   4.537   3.038  16.852 -0.3139  0.5124  0.5121
  411MPD2     C 6184   3.850   3.535  13.779 -0.3783 -0.5074 -0.4287
  411MPD2    C1 6185   3.908   3.577  13.899 -0.4229 -0.3561 -0.4766
  411MPD2    C2 6186   3.875   3.503  14.014  0.0106 -0.4841  0.0313
  411MPD2    C3 6187   3.773   3.407  14.017  0.0287  0.4534  0.5140
  411MPD2    C4 6188   3.703   3.386  13.903 -0.4489 -0.4395 -0.8846
  411MPD2    C5 6189   3.744   3.443  13.784  0.6089 -0.5319  0.1518
  411MPD2     H 6190   3.911   3.520  14.115 -1.1706 -1.3438  0.5926
  411MPD2    H1 6191   3.609   3.333  13.898  0.0340 -1.3812  0.0151
  411MPD2    H2 6192   3.871   3.591  13.688  2.3309  0.5580  0.8617
  411MPD2    H3 6193   3.698   3.432  13.687  2.4675  0.4235 -0.8377
  411MPD2     N 6194   3.725   3.339  14.130 -0.1593 -0.4438 -0.1303
  411MPD2    H5 6195   3.638   3.287  14.126 -1.4294  1.7537 -1.1361
  411MPD2    N1 6196   4.003   3.689  13.907  0.2894  0.6161 -0.5705
  411MPD2    H7 6197   4.041   3.698  13.813 -1.0022 -0.0954 -1.1754
  412TMC3    C1 6198   3.695   3.253  14.327  0.0882  1.1403 -0.0715
  412TMC3    C2 6199   3.561   3.265  14.301  0.1356 -0.1095  0.1831
  412TMC3    C3 6200   3.490   3.153  14.319  0.4612  0.3093 -0.1673
  412TMC3    C4 6201   3.754   3.142  14.372 -0.6559  0.5832  0.2623
  412TMC3    C5 6202   3.676   3.034  14.401  0.1040  0.1125  0.0870
  412TMC3    C6 6203   3.545   3.046  14.390 -0.4151 -0.1465 -0.0502
  412TMC3     C 6204   3.783   3.339  14.255 -0.4799  0.5021  0.5254
  412TMC3     O 6205   3.896   3.366  14.297 -0.1741  0.5762  0.4990
  412TMC3     H 6206   3.509   3.350  14.260  0.7521  0.8243  1.3526
  412TMC3    H1 6207   3.860   3.120  14.386 -0.5433  0.4536 -0.7893
  412TMC3    H2 6208   3.479   2.962  14.411  1.4674 -1.3925  0.9323
  412TMC3    C7 6209   3.720   2.931  14.306  0.3543  0.7735  0.4091
  412TMC3    C8 6210   3.443   3.102  14.197  0.0039  0.9308 -0.6268
  412TMC3    O1 6211   3.807   2.962  14.220 -0.0197  0.1304 -0.8535
  412TMC3    O2 6212   3.500   3.157  14.102  1.0625 -0.3600  0.1408
  413MPD2     C 6213   1.425   1.892  15.534 -0.9282  0.2870 -0.5854
  413MPD2    C1 6214   1.336   1.798  15.494 -0.0674 -0.1618 -0.0671
  413MPD2    C2 6215   1.382   1.668  15.462  0.1400 -0.1094  0.4053
  413MPD2    C3 6216   1.508   1.632  15.487 -0.0421  0.5046  0.4784
  413MPD2    C4 6217   1.594   1.724  15.528 -0.4422 -0.4444  0.3994
  413MPD2    C5 6218   1.554   1.855  15.549  0.1061  0.6062  0.5898
  413MPD2     H 6219   1.314   1.589  15.430 -0.3340 -0.4848  2.3732
  413MPD2    H1 6220   1.689   1.689  15.565 -0.8761 -2.8475 -0.7535
  413MPD2    H2 6221   1.401   1.994  15.561  0.3732  0.2776  0.5967
  413MPD2    H3 6222   1.630   1.918  15.595  0.8250  1.1597 -1.3564
  413MPD2     N 6223   1.548   1.499  15.459  0.2351 -0.3459  0.6770
  413MPD2    H5 6224   1.475   1.432  15.438 -1.0502  1.0719  0.6226
  413MPD2    N1 6225   1.200   1.830  15.506  0.3921  0.1990 -0.1173
  413MPD2    H7 6226   1.176   1.922  15.541  2.2124  0.4145  0.5590
  414TMC3    C1 6227   1.680   1.303  15.444  0.4509  0.3849 -0.2743
  414TMC3    C2 6228   1.732   1.215  15.532  0.1004 -0.3587  1.0792
  414TMC3    C3 6229   1.718   1.082  15.498 -0.3474 -0.9225  0.8618
  414TMC3    C4 6230   1.626   1.265  15.322 -0.4570  0.6886 -0.0989
  414TMC3    C5 6231   1.612   1.131  15.295 -0.0650  0.0319 -0.2119
  414TMC3    C6 6232   1.654   1.043  15.388 -0.5292  0.3585  0.5754
  414TMC3     C 6233   1.674   1.445  15.482 -0.3727  0.7015  0.7122
  414TMC3     O 6234   1.781   1.489  15.523  0.3671 -0.1286  0.0666
  414TMC3     H 6235   1.787   1.244  15.622  0.3141 -0.2197  0.9045
  414TMC3    H1 6236   1.606   1.335  15.242 -1.0919 -2.4026 -2.6386
  414TMC3    H2 6237   1.632   0.939  15.363 -1.3130  0.5373  0.5246
  414TMC3    C7 6238   1.672   1.103  15.167 -0.2458  0.7989  0.1562
  414TMC3    C8 6239   1.804   0.980  15.549 -0.8288 -0.7749  0.0957
  414TMC3    O1 6240   1.628   1.157  15.067 -0.3258 -0.7387  0.1010
  414TMC3    O2 6241   1.830   0.896  15.464  0.0504 -0.3140  0.2694
  415TMC3    C1 6242   1.634   0.721   9.727 -0.2600  1.0931 -0.6600
  415TMC3    C2 6243   1.757   0.674   9.691  0.6922 -0.4421 -0.4115
  415TMC3    C3 6244   1.758   0.590   9.577 -0.2417  0.0418  0.0579
  415TMC3    C4 6245   1.520   0.678   9.662 -0.0658 -0.0661  0.6545
  415TMC3    C5 6246   1.530   0.591   9.555 -0.7617  0.5217 -0.5162
  415TMC3    C6 6247   1.649   0.546   9.507 -0.3761  0.5226 -0.1376
  415TMC3     C 6248   1.604   0.796   9.846  1.1635  0.4156  0.0740
  415TMC3     O 6249   1.493   0.856   9.846  0.1850 -0.1699 -0.0349
  415TMC3     H 6250   1.849   0.703   9.741  0.4423  2.4820 -1.6173
  415TMC3    H1 6251   1.430   0.736   9.682 -0.8644 -1.4049  0.9654
  415TMC3    H2 6252   1.652   0.492   9.413  3.9074 -0.3917  0.5258
  415TMC3    C7 6253   1.415   0.560   9.474  0.0122 -1.0691 -0.8632
  415TMC3    C8 6254   1.880   0.509   9.550  0.3082 -0.4800 -0.8937
  415TMC3    O1 6255   1.428   0.503   9.365  0.5259  0.2706 -0.7011
  415TMC3    O2 6256   1.862   0.402   9.494  0.1571 -0.2253 -0.2180
  416MPD2     C 6257   3.833   4.065  11.712  0.1205 -0.7792  0.0106
  416MPD2    C1 6258   3.735   3.968  11.748 -0.2565  0.7954 -0.6889
  416MPD2    C2 6259   3.705   3.862  11.661 -1.0576  0.5916  0.7240
  416MPD2    C3 6260   3.785   3.839  11.545  0.4642 -0.6550  0.8169
  416MPD2    C4 6261   3.905   3.910  11.539 -0.2626 -0.1880 -0.0548
  416MPD2    C5 6262   3.915   4.034  11.608 -0.6121 -0.2827  0.1036
  416MPD2     H 6263   3.625   3.791  11.677 -1.7679  1.2426  0.0502
  416MPD2    H1 6264   3.973   3.894  11.456 -0.9275  1.9784 -1.0187
  416MPD2    H2 6265   3.857   4.150  11.775 -1.5838 -0.9138  0.8525
  416MPD2    H3 6266   3.999   4.103  11.597  0.4516 -1.6099 -0.1097
  416MPD2     N 6267   3.763   3.716  11.475 -0.1054 -1.1974 -0.2669
  416MPD2    H5 6268   3.835   3.678  11.416 -0.1472 -1.9619  0.1713
  416MPD2    N1 6269   3.646   3.992  11.848  0.2245 -0.0267  0.5509
  416MPD2    H7 6270   3.650   4.080  11.899  2.0764  0.5297 -0.5514
  417TMC3    C1 6271   3.465   3.970  11.994  0.3516  0.3040  0.7636
  417TMC3    C2 6272   3.403   3.890  12.086 -0.1264  0.1476  0.2791
  417TMC3    C3 6273   3.274   3.916  12.126  0.7300  0.0631  0.2614
  417TMC3    C4 6274   3.394   4.069  11.928  0.5808  0.3582  0.7425
  417TMC3    C5 6275   3.256   4.075  11.962 -0.6662 -0.7741  0.2867
  417TMC3    C6 6276   3.191   4.003  12.060  0.0236 -0.1659 -0.2012
  417TMC3     C 6277   3.569   3.903  11.910 -0.5968  0.0105 -0.4765
  417TMC3     O 6278   3.572   3.777  11.921  0.4758 -0.0901  0.0949
  417TMC3     H 6279   3.458   3.821  12.149 -0.3142 -1.6885 -1.5857
  417TMC3    H1 6280   3.437   4.131  11.850 -1.0621  0.4913 -0.0600
  417TMC3    H2 6281   3.084   3.997  12.074  0.2857  1.3444  2.4912
  417TMC3    C7 6282   3.182   4.128  11.856  0.2234  0.0864 -0.0940
  417TMC3    C8 6283   3.223   3.878  12.254 -0.0682  0.2376 -0.1151
  417TMC3    O1 6284   3.227   4.117  11.742  0.0806  0.1000 -0.3209
  417TMC3    O2 6285   3.103   3.899  12.274  0.1497 -0.9244  0.1343
  418TMC3    C1 6286   2.672   0.389   0.299 -0.1750  0.5024 -0.3554
  418TMC3    C2 6287   2.555   0.460   0.312  0.6425 -0.8452 -0.0389
  418TMC3    C3 6288   2.487   0.452   0.431 -0.2328 -0.3771 -0.4804
  418TMC3    C4 6289   2.708   0.299   0.390  0.2295 -0.0978 -0.1207
  418TMC3    C5 6290   2.632   0.291   0.505  0.0232  0.6374 -0.0731
  418TMC3    C6 6291   2.530   0.374   0.536  0.6980 -0.2048  0.6763
  418TMC3     C 6292   2.719   0.375   0.158  0.9066  0.1420 -0.2586
  418TMC3     O 6293   2.693   0.469   0.084 -0.5986  0.1640  0.0925
  418TMC3     H 6294   2.516   0.516   0.227 -0.8853 -1.3184  0.3413
  418TMC3    H1 6295   2.791   0.231   0.378 -0.3065 -1.1634  2.1883
  418TMC3    H2 6296   2.470   0.368   0.626  0.3594 -1.6858  0.3506
  418TMC3    C7 6297   2.668   0.177   0.591 -0.1867 -0.1630 -0.8672
  418TMC3    C8 6298   2.351   0.468   0.418  0.4057 -0.6646 -0.6294
  418TMC3    O1 6299   2.704   0.078   0.532 -0.1265 -0.7142  0.1529
  418TMC3    O2 6300   2.308   0.572   0.364 -0.1046  0.6876 -0.0550
  419MPD2     C 6301   0.411   2.938  12.384  0.3118  0.1952 -0.4461
  419MPD2    C1 6302   0.396   3.073  12.409 -0.1305  0.0457  0.1511
  419MPD2    C2 6303   0.386   3.119  12.539 -0.7300 -0.0208  0.3437
  419MPD2    C3 6304   0.396   3.036  12.649  0.7249  1.0208  0.1501
  419MPD2    C4 6305   0.423   2.904  12.626 -0.6676 -0.1568 -0.1037
  419MPD2    C5 6306   0.428   2.860  12.495  0.6468 -0.4020  0.3042
  419MPD2     H 6307   0.380   3.225  12.558  2.3014  0.1761  0.1149
  419MPD2    H1 6308   0.431   2.840  12.713  1.0258 -1.4526 -1.2100
  419MPD2    H2 6309   0.415   2.890  12.287 -0.9453 -2.1846  0.6971
  419MPD2    H3 6310   0.433   2.753  12.477 -0.6465 -0.4853  0.4491
  419MPD2     N 6311   0.394   3.101  12.774  0.2055 -0.2870 -0.7919
  419MPD2    H5 6312   0.380   3.201  12.773 -1.3280 -0.5019 -1.2014
  419MPD2    N1 6313   0.372   3.162  12.303  0.5598 -0.0845  0.4867
  419MPD2    H7 6314   0.355   3.257  12.334 -0.4738  0.0517 -0.5045
  420TMC3    C1 6315   0.423   3.126  13.006  0.4147  0.2099 -1.1024
  420TMC3    C2 6316   0.320   3.206  13.006 -0.3900  0.5335 -0.6420
  420TMC3    C3 6317   0.311   3.299  13.108 -0.2636  0.2295  0.0855
  420TMC3    C4 6318   0.520   3.126  13.098  0.4834 -0.3122  0.3039
  420TMC3    C5 6319   0.511   3.217  13.200  0.8763  0.4128 -0.8762
  420TMC3    C6 6320   0.406   3.311  13.204  0.3263  0.1133 -0.6132
  420TMC3     C 6321   0.430   3.038  12.894 -0.6922  0.3252 -0.7043
  420TMC3     O 6322   0.505   2.942  12.907  0.3641  0.2168 -0.1353
  420TMC3     H 6323   0.236   3.191  12.938 -0.4850  0.0488 -0.4102
  420TMC3    H1 6324   0.597   3.050  13.094  1.7986  1.1463 -1.7075
  420TMC3    H2 6325   0.386   3.364  13.296  2.5452  1.7232 -1.0678
  420TMC3    C7 6326   0.563   3.180  13.320 -0.8468  0.4676  0.5119
  420TMC3    C8 6327   0.196   3.380  13.137 -0.1607  0.2473 -0.1392
  420TMC3    O1 6328   0.563   3.060  13.346 -0.4653 -0.1006 -0.2629
  420TMC3    O2 6329   0.211   3.465  13.224 -0.0068 -0.2138  0.7889
  421TMC3    C1 6330   1.863   4.431  14.101 -0.5076 -0.1686  0.2112
  421TMC3    C2 6331   1.833   4.539  14.178  0.1661  0.0079 -0.1715
  421TMC3    C3 6332   1.917   4.569  14.280 -0.0528  0.0452 -0.9416
  421TMC3    C4 6333   1.959   4.337  14.135  0.0841 -0.3072  0.3458
  421TMC3    C5 6334   2.038   4.364  14.243 -0.7238 -0.3528 -0.3050
  421TMC3    C6 6335   2.025   4.483  14.310  0.5084  0.1256 -0.1355
  421TMC3     C 6336   1.805   4.432  13.969 -0.6686  0.0935 -0.6042
  421TMC3     O 6337   1.692   4.472  13.955 -0.0106  0.1079 -0.2978
  421TMC3     H 6338   1.766   4.615  14.139 -0.7510 -0.5580  0.2889
  421TMC3    H1 6339   1.960   4.243  14.081  0.6196  0.0122 -0.2130
  421TMC3    H2 6340   2.094   4.501  14.392 -0.0104 -0.2698  0.3794
  421TMC3    C7 6341   2.165   4.299  14.246 -0.1168  0.3157 -0.5811
  421TMC3    C8 6342   1.880   4.684  14.361 -0.0754 -0.1565  0.1836
  421TMC3    O1 6343   2.263   4.364  14.275  0.6283 -0.0610 -0.1774
  421TMC3    O2 6344   1.972   4.736  14.417  0.1793 -0.3649 -0.1457
  422TMC3    C1 6345   4.110   1.661  12.724  1.1196  0.2083  0.2449
  422TMC3    C2 6346   4.102   1.720  12.843  0.3953 -0.0595 -0.7356
  422TMC3    C3 6347   3.983   1.715  12.907  0.1174  0.0832 -0.3845
  422TMC3    C4 6348   4.007   1.586  12.671 -0.5440  0.2598 -0.2425
  422TMC3    C5 6349   3.888   1.582  12.741  0.6628 -0.2534 -0.0054
  422TMC3    C6 6350   3.872   1.654  12.856 -0.4269 -0.5443  0.7407
  422TMC3     C 6351   4.226   1.687  12.638 -0.0721  0.0280  0.5701
  422TMC3     O 6352   4.333   1.702  12.692  0.7019  0.2239 -0.2138
  422TMC3     H 6353   4.181   1.788  12.874  0.7047  0.1418 -1.9641
  422TMC3    H1 6354   4.017   1.522  12.585 -0.7600  0.0658 -0.1228
  422TMC3    H2 6355   3.775   1.667  12.904  0.0060 -0.7133  1.6502
  422TMC3    C7 6356   3.783   1.497  12.689  0.2356  0.2364  0.0200
  422TMC3    C8 6357   3.974   1.827  12.999  0.1455 -0.3326  0.0152
  422TMC3    O1 6358   3.789   1.450  12.577 -0.1634 -0.2596 -0.3228
  422TMC3    O2 6359   4.074   1.847  13.066  0.1539  0.2710  0.8943
  423MPD2     C 6360   0.765   1.934   0.528  0.0907  0.1562 -0.0755
  423MPD2    C1 6361   0.827   2.017   0.440  0.3256  0.1167  0.2215
  423MPD2    C2 6362   0.821   1.994   0.304  0.2304  0.1965 -0.0654
  423MPD2    C3 6363   0.752   1.880   0.258 -0.4068  0.2566 -0.7371
  423MPD2    C4 6364   0.691   1.796   0.348  0.9183  0.0852 -0.2913
  423MPD2    C5 6365   0.691   1.832   0.481 -0.0487  0.2018  0.8443
  423MPD2     H 6366   0.885   2.050   0.237  1.2426 -1.1621 -0.2312
  423MPD2    H1 6367   0.633   1.708   0.325  1.1755 -0.3475  0.7157
  423MPD2    H2 6368   0.753   1.960   0.633 -3.4883 -1.1650 -0.1788
  423MPD2    H3 6369   0.626   1.784   0.554  1.0748  0.6357  2.1136
  423MPD2     N 6370   0.752   1.853   0.122 -0.1830  0.3772  0.5112
  423MPD2    H5 6371   0.707   1.767   0.092 -0.4811  0.2002  1.4511
  423MPD2    N1 6372   0.915   2.119   0.488 -0.2489 -0.2397  0.2716
  423MPD2    H7 6373   0.965   2.171   0.417  0.1132  0.3818  0.9871
  424TMC3    C1 6374   1.028   2.267   0.612  0.4698 -0.6493  0.7076
  424TMC3    C2 6375   1.150   2.200   0.591  0.5666  0.4944  0.2161
  424TMC3    C3 6376   1.259   2.275   0.621 -0.1786  0.2844  0.5390
  424TMC3    C4 6377   1.017   2.389   0.676 -0.3242 -0.1417  0.6596
  424TMC3    C5 6378   1.132   2.457   0.703  0.3583 -0.5598 -0.1573
  424TMC3    C6 6379   1.256   2.397   0.680 -0.6766  0.7891 -0.5206
  424TMC3     C 6380   0.911   2.182   0.607  0.1505  0.9931  0.1028
  424TMC3     O 6381   0.829   2.188   0.699  0.3100  0.0872  0.1826
  424TMC3     H 6382   1.161   2.103   0.545 -2.0988  0.0665  0.4770
  424TMC3    H1 6383   0.921   2.439   0.677  0.5301  1.4994  0.2521
  424TMC3    H2 6384   1.340   2.453   0.719 -0.8723  1.1301 -0.5828
  424TMC3    C7 6385   1.133   2.584   0.779  0.6384  0.1678  0.8033
  424TMC3    C8 6386   1.388   2.203   0.608 -0.0626  0.0956  0.3911
  424TMC3    O1 6387   1.237   2.641   0.796  0.6764  0.0091 -0.3397
  424TMC3    O2 6388   1.384   2.088   0.582 -0.0604 -0.1208 -0.0131
  425MPD2     C 6389   0.501   0.996  17.670 -0.1429  0.7491 -0.4223
  425MPD2    C1 6390   0.427   0.967  17.561  0.0236  0.2591 -0.7649
  425MPD2    C2 6391   0.312   1.038  17.541 -0.9239 -0.5300  0.4954
  425MPD2    C3 6392   0.273   1.131  17.642  0.7891 -0.1494 -0.2826
  425MPD2    C4 6393   0.344   1.150   0.010  0.3508 -0.4241 -0.3979
  425MPD2    C5 6394   0.465   1.086   0.020 -0.0011 -0.0016 -0.0188
  425MPD2     H 6395   0.249   1.020  17.454 -1.0357 -1.0725  0.6918
  425MPD2    H1 6396   0.300   1.218   0.082 -0.9443  0.0136 -1.5918
  425MPD2    H2 6397   0.590   0.935  17.684 -0.7413  0.2020  1.0576
  425MPD2    H3 6398   0.522   1.100   0.111  0.4973 -2.7093  0.0918
  425MPD2     N 6399   0.147   1.185  17.619 -0.0148  0.0889  0.1152
  425MPD2    H5 6400   0.099   1.152  17.536  0.2233  1.9470 -0.7456
  425MPD2    N1 6401   0.478   0.864  17.472 -0.7395  0.0201 -0.2601
  425MPD2    H7 6402   0.551   0.814  17.522 -1.8868  0.0449  1.4685
  426TMC3    C1 6403   0.476   0.713  17.305 -0.1673  0.5277 -1.1607
  426TMC3    C2 6404   0.446   0.686  17.171  0.6729  0.0177  0.6921
  426TMC3    C3 6405   0.495   0.566  17.124 -0.1526 -0.3234 -0.0299
  426TMC3    C4 6406   0.536   0.624  17.389 -0.5201 -0.0936 -0.6938
  426TMC3    C5 6407   0.585   0.509  17.330  0.0740 -0.3373 -0.0566
  426TMC3    C6 6408   0.559   0.479  17.199 -0.1919  0.2208  0.2344
  426TMC3     C 6409   0.426   0.838  17.357 -0.2009 -0.1933  0.2162
  426TMC3     O 6410   0.361   0.906  17.277  0.4123  0.0780 -0.0652
  426TMC3     H 6411   0.402   0.762  17.107  0.8030 -0.3299  0.1972
  426TMC3    H1 6412   0.550   0.642  17.495 -2.3519 -1.4754 -0.2218
  426TMC3    H2 6413   0.576   0.377  17.165  1.5733  1.5024 -2.7424
  426TMC3    C7 6414   0.611   0.399  17.417  0.0559 -0.1501  0.3957
  426TMC3    C8 6415   0.445   0.503  16.998 -0.0689  0.6878 -0.0190
  426TMC3    O1 6416   0.683   0.306  17.377  0.5207 -0.4399 -0.4227
  426TMC3    O2 6417   0.488   0.390  16.968  0.2258 -0.2328 -0.3564
  427MPD2     C 6418   3.003   2.721  15.034 -0.2373 -0.7557 -0.3902
  427MPD2    C1 6419   3.092   2.826  15.063 -0.3203 -0.2566  0.1112
  427MPD2    C2 6420   3.045   2.955  15.071 -0.1842  0.0586  0.0900
  427MPD2    C3 6421   2.912   2.987  15.050  0.6839  0.2132 -0.1688
  427MPD2    C4 6422   2.830   2.887  15.009  0.3696 -0.1937  0.5432
  427MPD2    C5 6423   2.873   2.754  15.002 -0.2789  0.2501 -0.3879
  427MPD2     H 6424   3.110   3.027  15.119 -1.4816 -0.0902  2.0941
  427MPD2    H1 6425   2.729   2.919  14.982  1.1186  0.9261 -0.9160
  427MPD2    H2 6426   3.039   2.620  15.015 -2.5644 -1.7600  0.5027
  427MPD2    H3 6427   2.808   2.676  14.963  0.3501 -0.3587 -0.2228
  427MPD2     N 6428   2.867   3.117  15.065 -0.1585  0.2054 -0.4210
  427MPD2    H5 6429   2.767   3.123  15.044  0.5373  0.2813 -3.7217
  427MPD2    N1 6430   3.221   2.793  15.107  0.3161  0.2020 -0.5392
  427MPD2    H7 6431   3.280   2.873  15.129  0.4215 -0.1822  0.5882
  428TMC3    C1 6432   3.396   2.654  15.190  1.0979 -0.2373 -0.0123
  428TMC3    C2 6433   3.422   2.526  15.243 -0.2655 -0.0776  0.0648
  428TMC3    C3 6434   3.555   2.474  15.236 -0.7657 -0.5782 -0.4547
  428TMC3    C4 6435   3.498   2.716  15.123  0.4252  0.4300 -0.1341
  428TMC3    C5 6436   3.621   2.662  15.123 -0.7829 -0.2216  0.1380
  428TMC3    C6 6437   3.649   2.543  15.176  0.2550 -0.0579 -0.2408
  428TMC3     C 6438   3.256   2.673  15.159 -0.1367 -0.5965 -0.2163
  428TMC3     O 6439   3.185   2.576  15.180 -0.0984 -0.1096 -0.0171
  428TMC3     H 6440   3.339   2.475  15.290 -0.8650 -1.0478 -2.0103
  428TMC3    H1 6441   3.489   2.818  15.088  3.4351  0.9318  0.5494
  428TMC3    H2 6442   3.753   2.512  15.188  0.2775  0.1138  0.0114
  428TMC3    C7 6443   3.734   2.730  15.070 -0.2050  0.2464  0.4511
  428TMC3    C8 6444   3.600   2.351  15.298 -0.4974  0.1778 -0.0882
  428TMC3    O1 6445   3.838   2.716  15.129 -0.2355 -0.1992 -0.0403
  428TMC3    O2 6446   3.678   2.285  15.228  0.2385 -0.1312 -0.0027
  429MPD2     C 6447   4.270   3.242   0.048 -0.1176 -1.1558 -0.0680
  429MPD2    C1 6448   4.326   3.164  17.698  0.7430  0.3571 -0.0267
  429MPD2    C2 6449   4.318   3.212  17.568 -0.8383  0.7049  0.2903
  429MPD2    C3 6450   4.263   3.337  17.537  0.5197  0.7186 -0.0611
  429MPD2    C4 6451   4.213   3.413  17.641 -0.3811  0.7302  0.1490
  429MPD2    C5 6452   4.214   3.368   0.017 -0.1371 -0.3029  0.1435
  429MPD2     H 6453   4.343   3.150  17.482 -0.3295 -1.8333  2.2718
  429MPD2    H1 6454   4.162   3.506  17.620 -0.7684  0.8883  1.7704
  429MPD2    H2 6455   4.274   3.207   0.150 -2.1105  1.1344  0.7844
  429MPD2    H3 6456   4.169   3.430   0.093  2.4070  2.3416 -0.5311
  429MPD2     N 6457   4.280   3.377  17.407 -0.3074 -0.1575  0.0457
  429MPD2    H5 6458   4.351   3.329  17.352 -0.0388  0.9175 -0.5381
  429MPD2    N1 6459   4.374   3.031  17.721  0.0714 -0.1860 -0.0374
  429MPD2    H7 6460   4.385   2.975  17.637  2.2479 -0.1280  0.1967
  430TMC3    C1 6461   4.329   3.547  17.249 -0.1861  0.3558 -0.3642
  430TMC3    C2 6462   4.289   3.637  17.155 -0.5288  0.5384  0.1923
  430TMC3    C3 6463   4.390   3.702  17.086 -0.2240 -0.3811 -0.1722
  430TMC3    C4 6464   4.459   3.514  17.259  0.5774  0.4027  0.1325
  430TMC3    C5 6465   4.560   3.579  17.193 -0.1239 -0.4341  0.1752
  430TMC3    C6 6466   4.524   3.675  17.101 -0.3153  0.2166 -0.3929
  430TMC3     C 6467   4.238   3.496  17.350 -0.0048  0.0101  0.0474
  430TMC3     O 6468   4.160   3.584  17.381  0.4239 -0.0029  0.0274
  430TMC3     H 6469   4.188   3.672  17.138 -0.1284  1.5444 -0.1290
  430TMC3    H1 6470   4.492   3.441  17.331 -2.4519 -2.7336 -1.6733
  430TMC3    H2 6471   4.592   3.719  17.029  0.3095  0.5602  0.4161
  430TMC3    C7 6472   4.649   3.472  17.146  0.4463  0.3908  0.3344
  430TMC3    C8 6473   4.350   3.774  16.966 -0.2355 -0.1801  0.4239
  430TMC3    O1 6474   4.603   3.355  17.139  0.2001 -0.2447  0.4898
  430TMC3    O2 6475   4.247   3.740  16.906 -0.0528  0.5338 -0.0876
  431MPD2     C 6476   0.543   3.835  12.611 -0.2795  0.4641 -0.0489
  431MPD2    C1 6477   0.609   3.847  12.494 -0.3194  0.6399 -0.4489
  431MPD2    C2 6478   0.559   3.779  12.383 -0.1926 -0.3627 -0.6037
  431MPD2    C3 6479   0.453   3.694  12.401 -0.3893 -0.2151 -0.0489
  431MPD2    C4 6480   0.401   3.666  12.524 -0.5050  0.3923 -0.2757
  431MPD2    C5 6481   0.436   3.750  12.628  0.2288 -0.1435  0.1487
  431MPD2     H 6482   0.595   3.811  12.285 -1.5898 -0.0353 -1.0151
  431MPD2    H1 6483   0.311   3.607  12.537 -0.7602  1.0811  1.1416
  431MPD2    H2 6484   0.580   3.887  12.698 -1.4545  0.5254  0.4077
  431MPD2    H3 6485   0.398   3.730  12.727  1.2925  1.1679  0.8199
  431MPD2     N 6486   0.392   3.620  12.293 -0.0576  0.6209  0.1271
  431MPD2    H5 6487   0.329   3.546  12.319 -0.9439  1.1562 -0.4773
  431MPD2    N1 6488   0.731   3.922  12.485 -0.0230  0.3197 -0.3892
  431MPD2    H7 6489   0.784   3.923  12.398 -1.5983  1.7684 -1.3407
  432TMC3    C1 6490   0.396   3.501  12.089  1.0293  0.0835  0.7092
  432TMC3    C2 6491   0.442   3.481  11.959 -0.0023 -0.2615  0.7662
  432TMC3    C3 6492   0.444   3.362  11.896  0.5449  0.4098  0.2282
  432TMC3    C4 6493   0.374   3.386  12.160 -0.7742 -0.5803 -0.6532
  432TMC3    C5 6494   0.372   3.264  12.094 -0.2142  0.4541 -0.2262
  432TMC3    C6 6495   0.399   3.248  11.960 -0.1758  0.2607  0.6185
  432TMC3     C 6496   0.437   3.619  12.162 -0.0339  0.1357  0.0424
  432TMC3     O 6497   0.511   3.692  12.102  0.3628  0.2408  0.4623
  432TMC3     H 6498   0.465   3.568  11.897  1.5027  0.5140  2.4232
  432TMC3    H1 6499   0.323   3.394  12.255  0.1947  0.1333 -0.1935
  432TMC3    H2 6500   0.407   3.156  11.903 -2.3634  1.1433 -1.1230
  432TMC3    C7 6501   0.355   3.139  12.167 -0.0724  0.6327  0.7106
  432TMC3    C8 6502   0.559   3.334  11.819  0.0766  0.4059  0.3183
  432TMC3    O1 6503   0.341   3.028  12.119  0.2511 -0.5298 -1.0264
  432TMC3    O2 6504   0.563   3.231  11.755 -0.1233  1.0222  0.1629
  433MPD2     C 6505   4.099   3.027  10.904  0.7093  0.4034 -0.9031
  433MPD2    C1 6506   4.174   2.930  10.949  0.3629 -0.6335  0.0995
  433MPD2    C2 6507   4.252   2.962  11.061  0.0729 -0.8068 -0.3149
  433MPD2    C3 6508   4.265   3.085  11.111  0.3361 -0.2324  0.1635
  433MPD2    C4 6509   4.195   3.188  11.053  0.4345  0.9959 -0.3995
  433MPD2    C5 6510   4.114   3.157  10.945 -0.8726 -0.0802  0.9029
  433MPD2     H 6511   4.310   2.888  11.115  1.4322 -0.2043 -0.9456
  433MPD2    H1 6512   4.201   3.290  11.089  1.7403  0.9110 -0.3804
  433MPD2    H2 6513   4.037   3.007  10.817 -0.0613 -1.9350  0.1885
  433MPD2    H3 6514   4.061   3.232  10.887 -1.5464 -1.0563  0.2394
  433MPD2     N 6515   4.340   3.091  11.231  0.4122 -0.6641  1.3454
  433MPD2    H5 6516   4.359   3.000  11.270 -0.2856 -1.4672 -0.1926
  433MPD2    N1 6517   4.149   2.798  10.895 -0.1874 -0.0638 -0.1058
  433MPD2    H7 6518   4.098   2.777  10.809  1.7912  1.8476 -1.7316
  434TMC3    C1 6519   4.191   2.567  10.872  0.1019  0.2015  0.0073
  434TMC3    C2 6520   4.272   2.457  10.887 -0.1946 -0.0110  0.2613
  434TMC3    C3 6521   4.208   2.341  10.907  0.3960  0.2083  0.4462
  434TMC3    C4 6522   4.059   2.556  10.833  0.2337 -0.2173 -0.5912
  434TMC3    C5 6523   4.002   2.431  10.856  0.5023 -0.7513  0.5316
  434TMC3    C6 6524   4.075   2.321  10.890  0.4840  0.2092  0.1556
  434TMC3     C 6525   4.237   2.692  10.924 -0.1350  0.2576 -0.6986
  434TMC3     O 6526   4.351   2.695  10.964 -0.2991  0.2777  0.0490
  434TMC3     H 6527   4.380   2.466  10.894 -0.0327 -2.3428  0.5239
  434TMC3    H1 6528   3.991   2.640  10.839  2.2770  1.4461 -1.0335
  434TMC3    H2 6529   4.036   2.220  10.900  1.2475 -0.2795 -1.8879
  434TMC3    C7 6530   3.863   2.418  10.824 -0.2772 -0.4651 -0.0264
  434TMC3    C8 6531   4.276   2.249  10.997 -0.4852 -0.1341  0.0090
  434TMC3    O1 6532   3.810   2.509  10.763 -0.3042 -0.5664  0.5127
  434TMC3    O2 6533   4.387   2.281  11.032  0.0589 -0.6451 -0.4399
  435MPD2     C 6534   1.718   2.194  15.493 -0.0778 -0.2213  0.4624
  435MPD2    C1 6535   1.680   2.216  15.628 -0.6344 -0.5551  0.2870
  435MPD2    C2 6536   1.762   2.167  15.732  0.1358 -0.3802 -0.9907
  435MPD2    C3 6537   1.887   2.118  15.704  0.4464  0.8444 -0.4232
  435MPD2    C4 6538   1.923   2.100  15.573 -0.8085  0.0709 -0.1151
  435MPD2    C5 6539   1.835   2.134  15.472 -0.0723  0.4420 -0.5457
  435MPD2     H 6540   1.739   2.168  15.839  0.3605  0.5073 -0.9513
  435MPD2    H1 6541   2.011   2.051  15.532 -0.7675  0.0650 -0.0196
  435MPD2    H2 6542   1.656   2.234  15.413  0.6887  0.4409  0.1941
  435MPD2    H3 6543   1.858   2.104  15.371  0.1191  1.0337 -0.6792
  435MPD2     N 6544   1.969   2.079  15.810 -0.7257 -0.0958 -1.1651
  435MPD2    H5 6545   1.934   2.097  15.903  2.2670 -0.0939 -0.0334
  435MPD2    N1 6546   1.554   2.262  15.663  0.2995  0.5681 -0.2281
  435MPD2    H7 6547   1.537   2.273  15.763 -0.5627  1.7520 -0.5053
  436TMC3    C1 6548   1.223   2.350  15.838 -0.1591 -0.2968  0.4148
  436TMC3    C2 6549   1.346   2.376  15.781 -0.5575  0.1986  0.5417
  436TMC3    C3 6550   1.347   2.371  15.648 -0.5013  0.0647 -1.1503
  436TMC3    C4 6551   1.106   2.323  15.776  0.1572 -0.1591 -0.3220
  436TMC3    C5 6552   1.107   2.331  15.639  0.0595 -0.3680  0.0358
  436TMC3    C6 6553   1.231   2.349  15.578 -0.1305 -0.1570 -0.1516
  436TMC3     C 6554   1.219   2.401  15.977  0.2743 -0.1874 -0.0896
  436TMC3     O 6555   1.326   2.420  16.027  1.1303  0.9601 -0.6211
  436TMC3     H 6556   1.424   2.434  15.829  0.2970 -0.7299  0.2781
  436TMC3    H1 6557   1.014   2.305  15.830  1.1710 -3.5011  0.2303
  436TMC3    H2 6558   1.236   2.354  15.470  0.9238 -1.0233 -0.1442
  436TMC3    C7 6559   1.005   2.261  15.570  0.0669  0.0431  0.5203
  436TMC3    C8 6560   1.466   2.320  15.581 -0.8372 -0.1036 -0.5745
  436TMC3    O1 6561   0.933   2.188  15.633  0.2037  0.0262  1.1696
  436TMC3    O2 6562   1.466   2.327  15.459  0.1932  0.6273  0.1519
  437TMC3    C1 6563   0.341   4.618  12.737 -0.6197  0.8481 -0.1426
  437TMC3    C2 6564   0.238   4.634  12.646 -0.4270 -0.6251  0.2535
  437TMC3    C3 6565   0.259   4.669  12.516 -0.0104  0.2946 -0.3880
  437TMC3    C4 6566   0.465   4.640  12.682  0.0229 -0.4174 -0.1463
  437TMC3    C5 6567   0.484   4.687  12.554  0.1556  0.9849 -0.1569
  437TMC3    C6 6568   0.383   4.704  12.470  0.7284 -0.7326 -0.0502
  437TMC3     C 6569   0.327   4.517  12.835 -0.0804 -0.3428 -0.0633
  437TMC3     O 6570   0.428   4.449  12.846 -0.2123 -0.0879  0.3865
  437TMC3     H 6571   0.136   4.618  12.678 -0.0367 -0.7799  1.4266
  437TMC3    H1 6572   0.551   4.641  12.748 -0.9483  0.4739  1.1114
  437TMC3    H2 6573   0.401   4.729  12.366  0.9266  2.1893  0.6850
  437TMC3    C7 6574   0.613   4.735  12.511 -0.1478 -0.1060  0.0934
  437TMC3    C8 6575   0.158   0.001  12.457 -0.5043  0.2598 -0.6065
  437TMC3    O1 6576   0.618   0.066  12.409 -0.0537 -0.4355 -0.5502
  437TMC3    O2 6577   0.163   0.000  12.332 -0.4306 -0.1975  0.2939
  438MPD2     C 6578   2.679   0.288  16.781  0.0888  0.1287  0.3827
  438MPD2    C1 6579   2.776   0.211  16.847  0.8221 -0.4089  0.6612
  438MPD2    C2 6580   2.779   0.212  16.985  0.1750 -0.2454 -0.1541
  438MPD2    C3 6581   2.684   0.291  17.063  0.4457 -0.2341  0.2948
  438MPD2    C4 6582   2.600   0.382  17.000  0.3746  0.2505  0.2501
  438MPD2    C5 6583   2.597   0.372  16.858  0.3708  0.3805 -0.2011
  438MPD2     H 6584   2.852   0.147  17.033  0.3112 -1.4303 -1.9547
  438MPD2    H1 6585   2.539   0.451  17.057 -0.4341  0.0587 -0.3796
  438MPD2    H2 6586   2.675   0.289  16.673 -2.6111  2.7665  0.5201
  438MPD2    H3 6587   2.534   0.450  16.816  1.1135  1.1789  0.1869
  438MPD2     N 6588   2.664   0.274  17.203 -0.1337  0.0445 -0.6223
  438MPD2    H5 6589   2.592   0.338  17.234  0.7090  0.9209 -0.4659
  438MPD2    N1 6590   2.874   0.126  16.785  0.2855 -0.4137 -0.0008
  438MPD2    H7 6591   2.921   0.057  16.842  0.9142  0.6300  0.7483
  439TMC3    C1 6592   2.997   0.015  16.609  0.3817 -0.0702 -0.2491
  439TMC3    C2 6593   3.044   0.018  16.483 -0.1133  0.2499 -0.3529
  439TMC3    C3 6594   3.138   4.677  16.448  0.0992 -0.0498 -0.3756
  439TMC3    C4 6595   3.044   4.655  16.699  0.1274  0.0368 -0.5235
  439TMC3    C5 6596   3.145   4.576  16.654 -0.2637  0.4333 -0.8398
  439TMC3    C6 6597   3.189   4.575  16.523  0.5945 -0.0709  0.1017
  439TMC3     C 6598   2.889   0.110  16.647  0.4433 -0.2341 -0.9067
  439TMC3     O 6599   2.848   0.182  16.560 -0.7349 -0.2348  0.6793
  439TMC3     H 6600   3.007   0.096  16.417 -1.5445  0.6179  0.8943
  439TMC3    H1 6601   3.001   4.644  16.798  0.9307  2.2743  0.0643
  439TMC3    H2 6602   3.284   4.526  16.507  0.7756  0.3030  0.0389
  439TMC3    C7 6603   3.181   4.473  16.747  0.7095  0.1154 -0.3557
  439TMC3    C8 6604   3.179   4.657  16.311 -0.0943  0.7822 -0.4844
  439TMC3    O1 6605   3.178   4.500  16.867  0.2757 -0.4810 -0.1603
  439TMC3    O2 6606   3.246   4.559  16.285 -0.0567 -0.2216  0.5088
  440MPD2     C 6607   1.437   0.347  15.296 -0.1578 -0.1732  0.1291
  440MPD2    C1 6608   1.496   0.430  15.393  0.8743  0.4811 -0.6742
  440MPD2    C2 6609   1.620   0.397  15.438 -0.8653  0.7178 -0.3247
  440MPD2    C3 6610   1.686   0.276  15.391 -0.5071  0.6210  0.4404
  440MPD2    C4 6611   1.627   0.197  15.297 -0.1500 -0.5442  0.2958
  440MPD2    C5 6612   1.503   0.229  15.252  0.0686 -0.8592 -0.1523
  440MPD2     H 6613   1.656   0.456  15.521 -1.6871 -1.0584  1.3033
  440MPD2    H1 6614   1.661   0.101  15.259  1.4807 -0.2428  0.9792
  440MPD2    H2 6615   1.337   0.373  15.263 -0.0394 -1.6460 -1.3582
  440MPD2    H3 6616   1.448   0.182  15.171  0.4791 -1.0568 -0.3174
  440MPD2     N 6617   1.818   0.242  15.433 -1.0241  0.2582  0.4363
  440MPD2    H5 6618   1.860   0.152  15.413 -0.8380  0.1769  1.1729
  440MPD2    N1 6619   1.449   0.560  15.418  0.0209 -0.1162  0.0770
  440MPD2    H7 6620   1.515   0.627  15.455  0.8470  0.2271 -2.0490
  441TMC3    C1 6621   2.036   0.280  15.536 -0.2071  0.5007  0.2265
  441TMC3    C2 6622   2.101   0.381  15.593  0.3227 -0.5264 -0.0825
  441TMC3    C3 6623   2.146   0.364  15.722  0.3483 -0.0965 -0.0063
  441TMC3    C4 6624   2.027   0.165  15.606 -0.1003 -0.1108 -0.3555
  441TMC3    C5 6625   2.078   0.146  15.721 -0.1758 -0.2630  0.0398
  441TMC3    C6 6626   2.151   0.243  15.787  0.3156  0.0160 -0.1399
  441TMC3     C 6627   1.908   0.332  15.490  0.2355  0.0397  0.2550
  441TMC3     O 6628   1.893   0.448  15.526 -0.0003 -0.0231 -0.6104
  441TMC3     H 6629   2.134   0.467  15.537  1.0269  0.9121  2.5164
  441TMC3    H1 6630   1.961   0.086  15.573 -0.7827 -0.4541  1.8504
  441TMC3    H2 6631   2.152   0.236  15.895  1.2610  0.3039 -0.1294
  441TMC3    C7 6632   2.023   0.040  15.803 -0.0477 -0.1134  0.3949
  441TMC3    C8 6633   2.134   0.487  15.800 -0.2596  0.2263  0.8682
  441TMC3    O1 6634   1.903   0.020  15.793 -0.4350 -0.0039 -0.0623
  441TMC3    O2 6635   2.179   0.491  15.916 -0.5348 -0.3499 -0.2531
  442MPD2     C 6636   4.470   0.944  16.668 -0.1347  0.2046  0.4761
  442MPD2    C1 6637   4.443   0.856  16.766 -0.3636  0.6201 -0.0025
  442MPD2    C2 6638   4.449   0.722  16.742  0.1065 -0.5242  0.1570
  442MPD2    C3 6639   4.498   0.669  16.619  0.2049 -0.2657 -0.2373
  442MPD2    C4 6640   4.526   0.759  16.522 -0.0054  0.5889  0.0104
  442MPD2    C5 6641   4.511   0.897  16.546 -0.0282 -0.2080 -0.1961
  442MPD2     H 6642   4.423   0.649  16.818 -2.4415  1.1227  0.8468
  442MPD2    H1 6643   4.572   0.727  16.429 -0.8838 -2.1579  0.5203
  442MPD2    H2 6644   4.462   1.051  16.684 -1.3059  0.2617 -0.4995
  442MPD2    H3 6645   4.530   0.974  16.473 -0.0204 -1.2307 -1.2668
  442MPD2     N 6646   4.509   0.531  16.586  0.0174  0.1393  0.6522
  442MPD2    H5 6647   4.533   0.496  16.494 -0.8445 -1.5884  1.0846
  442MPD2    N1 6648   4.394   0.902  16.887 -0.1246  0.3367  0.2926
  442MPD2    H7 6649   4.335   0.846  16.948 -1.0465 -2.3728 -3.1078
  443TMC3    C1 6650   4.333   1.080  17.039  0.2741  0.2373 -0.0038
  443TMC3    C2 6651   4.299   1.212  17.049  0.0762  0.2256 -0.0377
  443TMC3    C3 6652   4.176   1.259  17.097  1.1877  0.2418  0.6067
  443TMC3    C4 6653   4.246   0.991  17.097  0.3696 -0.5157  0.3922
  443TMC3    C5 6654   4.133   1.044  17.154  0.4135 -0.8244 -0.0452
  443TMC3    C6 6655   4.091   1.169  17.152  0.0320  0.2597 -0.6876
  443TMC3     C 6656   4.419   1.033  16.931  0.5231 -0.0476  0.8373
  443TMC3     O 6657   4.488   1.125  16.885  0.3334  0.0235  0.0977
  443TMC3     H 6658   4.352   1.293  17.000 -0.5157 -0.2088 -1.3853
  443TMC3    H1 6659   4.274   0.887  17.107  2.1996 -0.1306 -0.7707
  443TMC3    H2 6660   3.986   1.194  17.155  0.3091  1.4643 -0.8623
  443TMC3    C7 6661   4.067   0.953  17.244 -0.7834  0.3891 -0.0758
  443TMC3    C8 6662   4.122   1.386  17.070 -0.1599  0.3455 -0.4172
  443TMC3    O1 6663   4.080   0.834  17.221 -0.3142  0.2901  0.3257
  443TMC3    O2 6664   4.063   1.442  17.164 -0.0222  0.6270  0.3772
  444MPD2     C 6665   4.577   0.399  17.036  0.0439 -0.3686  0.1469
  444MPD2    C1 6666   4.527   0.279  17.067 -0.8263 -0.3535 -0.6483
  444MPD2    C2 6667   4.599   0.164  17.038 -0.0332  0.1303  1.1204
  444MPD2    C3 6668   4.726   0.167  16.996  0.4510 -0.2179 -0.3386
  444MPD2    C4 6669   0.049   0.293  16.989  0.3530  0.0192  0.4654
  444MPD2    C5 6670   4.710   0.407  16.995 -0.0454 -0.9736 -0.5240
  444MPD2     H 6671   4.564   0.067  17.071 -0.1981 -0.7562 -1.6374
  444MPD2    H1 6672   0.155   0.311  16.976 -0.0278  2.0926  0.1966
  444MPD2    H2 6673   4.528   0.495  17.043  0.9678  0.0298  1.0759
  444MPD2    H3 6674   0.020   0.503  16.978 -2.0720  0.1904  0.4012
  444MPD2     N 6675   0.057   0.043  16.985 -0.3232  0.4216  0.5201
  444MPD2    H5 6676   0.011   4.701  17.027  1.6702  0.2410  2.3642
  444MPD2    N1 6677   4.399   0.259  17.136  0.7399  0.3518 -0.0770
  444MPD2    H7 6678   4.379   0.164  17.163 -0.6617  0.5429 -0.4406
  445TMC3    C1 6679   0.253   4.639  16.948  0.0191 -0.9240 -0.1483
  445TMC3    C2 6680   0.235   4.570  17.073 -0.2116 -0.5173 -0.8173
  445TMC3    C3 6681   0.343   4.494  17.117 -0.3573 -0.1825 -0.4536
  445TMC3    C4 6682   0.367   4.634  16.872  0.3481 -0.2175  0.2453
  445TMC3    C5 6683   0.472   4.571  16.932  0.8195 -0.1157  0.4791
  445TMC3    C6 6684   0.461   4.494  17.043 -0.2549 -0.1464  0.0203
  445TMC3     C 6685   0.187   0.029  16.924 -0.4310  0.0608 -0.0583
  445TMC3     O 6686   0.251   0.112  16.862 -0.3195 -0.3286  0.0719
  445TMC3     H 6687   0.151   4.588  17.139 -0.1725  0.5457 -1.0555
  445TMC3    H1 6688   0.385   4.694  16.783  0.8022  0.2905  0.6786
  445TMC3    H2 6689   0.539   4.427  17.078 -1.6500 -1.3963  0.8059
  445TMC3    C7 6690   0.575   4.535  16.847 -0.6361 -0.8415  0.3484
  445TMC3    C8 6691   0.325   4.416  17.233 -0.0791  0.4551  0.0240
  445TMC3    O1 6692   0.541   4.522  16.729 -0.1422  0.7346 -0.3447
  445TMC3    O2 6693   0.239   4.455  17.310 -0.7409 -0.3234 -0.6394
  446MPD2     C 6694   4.174   2.490  11.473 -0.1797 -0.0972 -0.1343
  446MPD2    C1 6695   4.136   2.545  11.355 -0.0049 -0.1357 -0.0748
  446MPD2    C2 6696   4.237   2.583  11.266  0.4782 -0.4489 -0.0474
  446MPD2    C3 6697   4.371   2.580  11.301  0.7628 -0.0408  0.0092
  446MPD2    C4 6698   4.403   2.528  11.422  0.3688  0.4986  0.0016
  446MPD2    C5 6699   4.305   2.474  11.504 -0.6254 -0.0512  0.2834
  446MPD2     H 6700   4.207   2.632  11.174 -0.1644 -0.6591  0.0544
  446MPD2    H1 6701   4.502   2.544  11.463  0.1603  0.4371  0.5366
  446MPD2    H2 6702   4.094   2.464  11.541  0.5540 -0.9174  0.4071
  446MPD2    H3 6703   4.332   2.426  11.598 -0.0817  0.7278  0.5279
  446MPD2     N 6704   4.473   2.621  11.204  0.5561  0.3371 -0.4440
  446MPD2    H5 6705   4.445   2.674  11.122 -0.8651 -1.6464 -1.2270
  446MPD2    N1 6706   3.997   2.553  11.333  0.1081 -0.0783  0.7200
  446MPD2    H7 6707   3.941   2.518  11.409  0.4064 -1.4827  0.3006
  447TMC3    C1 6708   4.683   2.629  11.100  0.4513 -0.3480  0.5954
  447TMC3    C2 6709   4.639   2.726  11.021  0.5077 -1.1572 -0.5798
  447TMC3    C3 6710   4.703   2.747  10.901 -0.1612  0.0428  0.2998
  447TMC3    C4 6711   0.035   2.537  11.052  0.0069 -0.8315 -0.5059
  447TMC3    C5 6712   0.097   2.559  10.933 -0.3779 -0.9949 -0.2423
  447TMC3    C6 6713   0.068   2.670  10.857  0.8423  0.7737  0.7089
  447TMC3     C 6714   4.607   2.590  11.221 -0.0704  0.0344  0.0643
  447TMC3     O 6715   4.663   2.512  11.297 -0.1208 -0.6216 -0.0372
  447TMC3     H 6716   4.574   2.807  11.054  1.6718 -1.0485  1.4707
  447TMC3    H1 6717   0.065   2.455  11.117 -0.4080 -0.2169  0.4546
  447TMC3    H2 6718   0.116   2.677  10.760 -1.2191 -0.4098 -0.3972
  447TMC3    C7 6719   0.188   2.465  10.881  0.4168  0.9431 -0.6986
  447TMC3    C8 6720   4.695   2.875  10.845 -0.8192 -0.1676  0.2416
  447TMC3    O1 6721   0.251   2.492  10.780 -0.0194 -0.1313 -0.3515
  447TMC3    O2 6722   0.055   2.919  10.792  0.4131 -0.2412  0.0110
  448TMC3    C1 6723   3.151   1.570  17.257 -0.9646 -0.4155 -0.1595
  448TMC3    C2 6724   3.130   1.442  17.217  0.0711 -0.1480 -0.1659
  448TMC3    C3 6725   3.052   1.361  17.293  0.1711 -0.1323 -0.6695
  448TMC3    C4 6726   3.094   1.617  17.370  0.3384  0.0075  0.3641
  448TMC3    C5 6727   3.038   1.527  17.457  1.0722  0.1155 -0.1190
  448TMC3    C6 6728   3.010   1.399  17.417 -0.2950 -0.7513  0.4783
  448TMC3     C 6729   3.189   1.664  17.155  0.0450  0.9102  0.9158
  448TMC3     O 6730   3.116   1.763  17.147 -0.0062 -0.2844 -0.3943
  448TMC3     H 6731   3.157   1.408  17.118  2.2469 -1.0392  0.7172
  448TMC3    H1 6732   3.098   1.723  17.392  1.0850  0.1141 -0.3144
  448TMC3    H2 6733   2.962   1.323  17.478 -1.1971  0.6055  1.4495
  448TMC3    C7 6734   3.029   1.567  17.594  0.2982 -0.2757 -0.2244
  448TMC3    C8 6735   3.005   1.234  17.235 -0.1874  0.0418  0.2931
  448TMC3    O1 6736   3.066   1.680  17.622  0.1236  0.5967 -0.5415
  448TMC3    O2 6737   3.085   1.164  17.173 -0.4680  0.2122 -0.2304
  449MPD2     C 6738   4.001   0.084  14.274  0.1213  0.0158 -0.4488
  449MPD2    C1 6739   3.895   0.076  14.187 -0.1768 -0.9755 -0.5136
  449MPD2    C2 6740   3.789   4.730  14.207  0.7713 -0.1785 -0.5059
  449MPD2    C3 6741   3.789   4.643  14.313 -0.2470  0.6799 -0.0338
  449MPD2    C4 6742   3.902   4.639  14.394  0.9525  0.6086  0.4494
  449MPD2    C5 6743   4.003   4.726  14.374  0.5002  1.2601 -0.5330
  449MPD2     H 6744   3.708   4.722  14.136 -0.1425  1.4242  0.3523
  449MPD2    H1 6745   3.919   4.565  14.471 -1.2538 -0.1556  0.2126
  449MPD2    H2 6746   4.085   0.149  14.251 -1.6246  3.2605  2.2942
  449MPD2    H3 6747   4.095   4.706  14.428  0.7880 -0.8461 -1.7865
  449MPD2     N 6748   3.678   4.563  14.325 -0.1506  0.1131  0.1803
  449MPD2    H5 6749   3.602   4.592  14.264  0.0069  2.1054  0.9294
  449MPD2    N1 6750   3.885   0.163  14.076  0.4657 -0.1517  0.3776
  449MPD2    H7 6751   3.795   0.160  14.030 -0.4309  0.4506  2.0951
  450TMC3    C1 6752   3.932   0.300  13.897 -0.0317 -0.0565  0.5608
  450TMC3    C2 6753   3.997   0.245  13.784 -0.2031  0.3392  0.3307
  450TMC3    C3 6754   3.915   0.218  13.682 -0.4854 -0.6106  0.6199
  450TMC3    C4 6755   3.798   0.320  13.897  0.2782  0.2804 -0.3669
  450TMC3    C5 6756   3.724   0.292  13.785  0.1729 -0.2815  0.9387
  450TMC3    C6 6757   3.782   0.237  13.679  0.4598  0.0929 -0.0121
  450TMC3     C 6758   3.979   0.241  14.022 -0.2452 -0.0334  0.0609
  450TMC3     O 6759   4.093   0.263  14.061 -0.4625  0.0925 -0.9330
  450TMC3     H 6760   4.103   0.224  13.791  0.1803  2.3302  0.2912
  450TMC3    H1 6761   3.749   0.362  13.984 -0.1317  0.5833 -0.7458
  450TMC3    H2 6762   3.729   0.201  13.592 -1.0271  0.2876  0.8209
  450TMC3    C7 6763   3.616   0.215  13.834  0.0067 -0.2625  0.0746
  450TMC3    C8 6764   3.977   0.183  13.553  0.3621  0.4382  0.0954
  450TMC3    O1 6765   3.644   0.171  13.945 -0.3573  0.0600 -0.2212
  450TMC3    O2 6766   3.903   0.205  13.462  0.0207  0.0093 -0.3696
  451MPD2     C 6767   0.292   3.363   1.113  0.0563 -0.1840  0.6724
  451MPD2    C1 6768   0.412   3.424   1.101  0.1098 -0.0352  0.0020
  451MPD2    C2 6769   0.499   3.372   1.004  0.1752  0.6741 -0.6834
  451MPD2    C3 6770   0.476   3.261   0.931  0.5124 -0.7860 -0.1111
  451MPD2    C4 6771   0.353   3.191   0.950 -0.3464 -0.2069 -0.5759
  451MPD2    C5 6772   0.270   3.244   1.038 -0.1319  0.2967  0.5949
  451MPD2     H 6773   0.584   3.433   0.974  0.2723  0.2173 -1.3242
  451MPD2    H1 6774   0.335   3.094   0.906  1.7960 -2.7451  4.1819
  451MPD2    H2 6775   0.215   3.393   1.184 -1.9505 -0.9167 -1.2062
  451MPD2    H3 6776   0.170   3.202   1.046  0.7212 -1.8167  0.2753
  451MPD2     N 6777   0.580   3.203   0.846 -0.1812 -0.5494  0.0673
  451MPD2    H5 6778   0.548   3.126   0.788  2.3400 -1.2352 -0.4586
  451MPD2    N1 6779   0.438   3.543   1.169 -0.1851  0.9164  0.4707
  451MPD2    H7 6780   0.362   3.588   1.220  0.0082  1.1922  0.5152
  452TMC3    C1 6781   0.785   3.185   0.736  0.2464  0.2224 -0.9605
  452TMC3    C2 6782   0.760   3.052   0.740  0.3621  0.7639  0.6567
  452TMC3    C3 6783   0.821   2.984   0.633  0.0531  0.2528  0.5867
  452TMC3    C4 6784   0.864   3.249   0.644 -0.0049  0.4213  0.4951
  452TMC3    C5 6785   0.928   3.170   0.552  0.8422 -0.0276 -0.1733
  452TMC3    C6 6786   0.909   3.033   0.543 -0.2991  0.0208 -0.4228
  452TMC3     C 6787   0.696   3.271   0.813  0.3032  0.0919 -0.1876
  452TMC3     O 6788   0.733   3.386   0.834  0.1980  0.4500  0.3831
  452TMC3     H 6789   0.707   2.999   0.819 -0.1122  1.4883  0.8208
  452TMC3    H1 6790   0.876   3.357   0.642  0.2042  0.4007  0.6651
  452TMC3    H2 6791   0.958   2.977   0.464 -0.7174 -1.8259  0.6321
  452TMC3    C7 6792   1.058   3.215   0.502  0.0333  0.1673  0.5032
  452TMC3    C8 6793   0.765   2.854   0.616  0.2277 -0.2878 -0.3616
  452TMC3    O1 6794   1.093   3.165   0.394  0.1022  0.4372 -0.6252
  452TMC3    O2 6795   0.673   2.829   0.691  0.6838 -0.3688  0.6445
  453TMC3    C1 6796   1.388   0.786  12.068  0.1694 -0.3389  0.1249
  453TMC3    C2 6797   1.307   0.690  12.127  0.8695  0.7561  0.6005
  453TMC3    C3 6798   1.175   0.696  12.106  0.4546 -0.3415 -0.1810
  453TMC3    C4 6799   1.344   0.882  11.985  0.4257 -0.4641  0.6118
  453TMC3    C5 6800   1.207   0.888  11.962  0.2796  0.0674  0.0824
  453TMC3    C6 6801   1.123   0.792  12.017 -0.2872  0.0557 -0.2402
  453TMC3     C 6802   1.522   0.806  12.110 -0.3587  0.7316 -0.4565
  453TMC3     O 6803   1.563   0.921  12.115  0.3555 -0.4494 -0.2441
  453TMC3     H 6804   1.345   0.607  12.185 -0.6308  0.4511  1.1538
  453TMC3    H1 6805   1.417   0.952  11.947  0.4594  0.3113  2.0798
  453TMC3    H2 6806   1.015   0.803  12.014 -0.4443 -1.3697  0.2172
  453TMC3    C7 6807   1.144   0.990  11.884  0.0877 -0.2685  0.2465
  453TMC3    C8 6808   1.086   0.588  12.140  0.4191  0.2222  0.0630
  453TMC3    O1 6809   1.027   0.966  11.859  0.0123 -0.2728 -0.5224
  453TMC3    O2 6810   0.977   0.617  12.185  0.3638  0.1610 -0.0426
  454MPD2     C 6811   0.110   0.182  15.572 -0.3387  0.0691 -0.4784
  454MPD2    C1 6812   0.150   0.058  15.617 -0.4016  0.6133  0.2802
  454MPD2    C2 6813   0.211   0.052  15.736 -0.8338 -0.2415  0.1224
  454MPD2    C3 6814   0.212   0.157  15.825  0.1530  0.1986  0.2394
  454MPD2    C4 6815   0.189   0.286  15.779  0.3901 -0.0438  0.0364
  454MPD2    C5 6816   0.130   0.293  15.652 -0.1100 -0.4758 -0.5404
  454MPD2     H 6817   0.228   4.693  15.781 -2.2522 -1.1106 -1.1932
  454MPD2    H1 6818   0.190   0.368  15.851 -1.9245  0.1344 -0.1198
  454MPD2    H2 6819   0.061   0.201  15.477 -1.2375  0.4244  0.0622
  454MPD2    H3 6820   0.091   0.384  15.610 -2.5476  0.2312  3.1861
  454MPD2     N 6821   0.248   0.131  15.961 -0.2383 -0.2260 -0.0764
  454MPD2    H5 6822   0.270   0.211  16.020  1.3283  0.2894 -1.3628
  454MPD2    N1 6823   0.132   4.680  15.545 -0.2738 -0.7460  0.3986
  454MPD2    H7 6824   0.178   4.600  15.587  3.5169  0.4358 -1.4790
  455TMC3    C1 6825   0.270   0.015  16.168  0.2310 -0.2884 -0.7358
  455TMC3    C2 6826   0.265   0.136  16.229  0.1401  0.6964  0.1481
  455TMC3    C3 6827   0.254   0.140  16.361 -0.6814  0.0968  0.2076
  455TMC3    C4 6828   0.270   4.639  16.236 -0.1505  0.8222  0.6468
  455TMC3    C5 6829   0.258   4.646  16.371 -0.4080  0.4955 -0.5746
  455TMC3    C6 6830   0.254   0.029  16.442  0.4407 -0.1608 -0.4472
  455TMC3     C 6831   0.251   0.009  16.024 -0.3498 -0.0576  0.7417
  455TMC3     O 6832   0.220   4.635  15.989 -0.0816 -0.0276 -0.3405
  455TMC3     H 6833   0.250   0.227  16.172  1.8250  0.9508  0.0950
  455TMC3    H1 6834   0.303   4.546  16.191  2.4230  3.7139 -3.4252
  455TMC3    H2 6835   0.235   0.034  16.549  1.0155 -0.5692 -0.3227
  455TMC3    C7 6836   0.197   4.534  16.432 -0.2908  0.0552 -0.1110
  455TMC3    C8 6837   0.220   0.268  16.417 -0.4397 -0.1418  0.5009
  455TMC3    O1 6838   0.193   4.516  16.555 -0.3951 -0.2773  0.0070
  455TMC3    O2 6839   0.134   0.330  16.355 -0.6074 -1.3220  0.3357
  456MPD2     C 6840   3.420   0.205  16.378  0.3813  0.6283  0.0779
  456MPD2    C1 6841   3.415   0.119  16.481 -0.7648  0.1947 -0.4376
  456MPD2    C2 6842   3.355   0.159  16.600 -0.1359  0.2012 -0.0741
  456MPD2    C3 6843   3.302   0.284  16.616 -0.0460 -0.1632 -0.3877
  456MPD2    C4 6844   3.296   0.376  16.506  0.0411 -0.2177 -0.1010
  456MPD2    C5 6845   3.355   0.327  16.386 -0.9354 -0.1575 -0.1675
  456MPD2     H 6846   3.346   0.093  16.686 -0.0617 -3.7759 -3.1019
  456MPD2    H1 6847   3.260   0.478  16.509 -0.3144 -0.3649  0.5181
  456MPD2    H2 6848   3.474   0.177  16.289  0.2357 -0.4941  0.3445
  456MPD2    H3 6849   3.358   0.392  16.299 -0.9209  0.5956  0.3964
  456MPD2     N 6850   3.222   0.307  16.731 -0.1789 -0.0214 -0.6404
  456MPD2    H5 6851   3.218   0.235  16.802 -0.6733  2.3513  1.7219
  456MPD2    N1 6852   3.497   0.006  16.465 -0.5385 -0.0995  0.1065
  456MPD2    H7 6853   3.547   4.735  16.377 -0.2017  1.1398  0.1795
  457TMC3    C1 6854   3.084   0.417  16.893  1.0319 -0.3036  0.2697
  457TMC3    C2 6855   2.971   0.499  16.895 -0.1742 -0.2522 -0.5572
  457TMC3    C3 6856   2.935   0.550  17.013 -0.6028 -0.6146 -0.1374
  457TMC3    C4 6857   3.156   0.392  17.008 -0.5428 -0.4858 -0.4118
  457TMC3    C5 6858   3.096   0.426  17.129  0.4102 -0.1988  0.1814
  457TMC3    C6 6859   2.990   0.517  17.131 -0.4512  0.0679 -0.2447
  457TMC3     C 6860   3.141   0.416  16.753 -0.5677  0.3382  0.2068
  457TMC3     O 6861   3.089   0.495  16.673 -0.1062  0.5202 -0.5000
  457TMC3     H 6862   2.919   0.528  16.804 -1.5812 -1.2950 -0.1001
  457TMC3    H1 6863   3.252   0.342  17.017 -0.4365  0.1431  1.8947
  457TMC3    H2 6864   2.940   0.538  17.224 -0.6131 -1.9574  0.1313
  457TMC3    C7 6865   3.185   0.449  17.239  0.9152 -0.5367  0.2069
  457TMC3    C8 6866   2.844   0.664  17.000 -0.6067  0.3107 -0.6050
  457TMC3    O1 6867   3.153   0.549  17.303  0.3610  0.3719 -0.0036
  457TMC3    O2 6868   2.778   0.668  16.898 -0.0389 -0.2285 -0.4177
  458MPD2     C 6869   1.084   0.129  12.658  0.1176  0.3602 -0.1696
  458MPD2    C1 6870   1.049   0.021  12.733 -0.1338 -0.2912 -0.2257
  458MPD2    C2 6871   0.925   4.700  12.694  0.0863 -0.1801 -0.5835
  458MPD2    C3 6872   0.840   0.016  12.599 -0.1299  0.5274  0.0720
  458MPD2    C4 6873   0.875   0.129  12.540 -0.3097 -0.0203  0.7451
  458MPD2    C5 6874   0.994   0.185  12.573 -0.5499  0.1252 -1.0041
  458MPD2     H 6875   0.880   4.623  12.755 -1.7285  2.7327  1.7587
  458MPD2    H1 6876   0.823   0.174  12.456  0.1045  1.0506  1.0599
  458MPD2    H2 6877   1.175   0.182  12.682  0.9399 -0.1068 -2.2712
  458MPD2    H3 6878   1.031   0.275  12.524  1.0839  0.5183  0.9308
  458MPD2     N 6879   0.714   4.692  12.586 -0.5700  0.2411  0.1619
  458MPD2    H5 6880   0.695   4.611  12.643 -0.6480 -0.0580 -0.2845
  458MPD2    N1 6881   1.140   4.717  12.836 -0.9167  0.0112  0.0753
  458MPD2    H7 6882   1.219   0.039  12.857 -0.0681 -0.5905 -1.3800
  459TMC3    C1 6883   1.211   4.574  13.012  0.6535 -0.7584 -0.3922
  459TMC3    C2 6884   1.341   4.619  13.000  0.8658  0.2617 -0.2302
  459TMC3    C3 6885   1.434   4.564  13.082 -0.7308 -0.0238 -0.1120
  459TMC3    C4 6886   1.170   4.497  13.116  0.0352 -0.2009 -0.2146
  459TMC3    C5 6887   1.271   4.444  13.192  0.8626 -0.1029 -0.0626
  459TMC3    C6 6888   1.405   4.476  13.181 -0.7521  0.0661 -0.2266
  459TMC3     C 6889   1.110   4.610  12.915  0.8276  0.3676 -0.4718
  459TMC3     O 6890   1.007   4.542  12.913 -0.2148 -0.0246  0.1160
  459TMC3     H 6891   1.362   4.680  12.912  1.8591 -0.7820 -0.7210
  459TMC3    H1 6892   1.066   4.468  13.129  0.0145 -0.5358 -1.1887
  459TMC3    H2 6893   1.482   4.427  13.241  0.3385  2.4959  0.3542
  459TMC3    C7 6894   1.237   4.342  13.293  0.3216 -0.1024 -0.7509
  459TMC3    C8 6895   1.569   4.580  13.038  0.3473 -0.1806 -0.7376
  459TMC3    O1 6896   1.327   4.270  13.332 -0.3732  0.5279 -0.4622
  459TMC3    O2 6897   1.580   4.629  12.924 -1.0084  0.1458  0.3056
  460MPD2     C 6898   4.592   3.130  10.723 -0.2878 -0.1369  0.1286
  460MPD2    C1 6899   4.521   3.015  10.743 -0.0947 -0.1073  0.0067
  460MPD2    C2 6900   4.392   3.009  10.685  0.1714  0.2737  0.2515
  460MPD2    C3 6901   4.335   3.120  10.619  0.6011 -0.0898 -0.9388
  460MPD2    C4 6902   4.407   3.239  10.620  0.3846 -0.9027  0.4702
  460MPD2    C5 6903   4.535   3.236  10.662 -0.5590  0.7600 -0.4970
  460MPD2     H 6904   4.325   2.924  10.696  1.3338 -0.4909  1.4060
  460MPD2    H1 6905   4.366   3.336  10.593 -1.3155 -2.0570 -1.0902
  460MPD2    H2 6906   4.693   3.142  10.760 -0.7696 -4.3427  2.8022
  460MPD2    H3 6907   4.585   3.332  10.656  0.4989  0.4657  3.8453
  460MPD2     N 6908   4.200   3.109  10.574  0.1745 -0.7553  0.0342
  460MPD2    H5 6909   4.162   3.015  10.576 -1.7277  0.0508  1.4595
  460MPD2    N1 6910   4.563   2.901  10.817 -0.0032  0.1934  0.7175
  460MPD2    H7 6911   4.492   2.832  10.842  1.1485 -0.7158  1.4951
  461TMC3    C1 6912   3.999   3.177  10.477 -1.4286 -0.5797  0.5564
  461TMC3    C2 6913   4.004   3.061  10.404  0.0061  0.4686  0.5880
  461TMC3    C3 6914   3.909   3.048  10.301  0.5766 -0.0264  0.1138
  461TMC3    C4 6915   3.920   3.283  10.444 -0.2090 -0.4111 -0.4222
  461TMC3    C5 6916   3.831   3.271  10.337  0.2685  0.0758 -0.1471
  461TMC3    C6 6917   3.828   3.149  10.262  0.0092  0.2516  0.2626
  461TMC3     C 6918   4.122   3.211  10.532  0.3873 -0.4246 -0.2524
  461TMC3     O 6919   4.142   3.334  10.531 -0.1704 -1.1289 -0.5183
  461TMC3     H 6920   4.076   2.983  10.426  1.8311  1.4659 -1.9250
  461TMC3    H1 6921   3.920   3.374  10.502  0.2512 -1.1208  0.6800
  461TMC3    H2 6922   3.759   3.141  10.178 -0.8662  0.6812  0.9300
  461TMC3    C7 6923   3.751   3.382  10.289 -0.6506 -1.1502  0.3800
  461TMC3    C8 6924   3.902   2.914  10.235  0.2064 -0.6371 -0.6212
  461TMC3    O1 6925   3.666   3.350  10.207  0.0456  0.6522 -0.2692
  461TMC3    O2 6926   4.003   2.852  10.230 -0.0062  0.3013 -0.2226
  462TMC3    C1 6927   0.014   3.046  17.678 -0.5437  0.2644 -0.1788
  462TMC3    C2 6928   4.662   3.021  17.569  0.1823  0.2045  0.1837
  462TMC3    C3 6929   4.666   2.886  17.532  0.3513 -0.3273 -0.1711
  462TMC3    C4 6930   0.097   2.960  17.738  0.3646  0.1960 -0.5644
  462TMC3    C5 6931   0.099   2.831  17.680  0.7840  0.6565  0.5249
  462TMC3    C6 6932   0.019   2.792  17.580 -0.1303 -0.3783 -0.3381
  462TMC3     C 6933   0.039   3.188  17.710 -0.3346 -1.1976 -0.2852
  462TMC3     O 6934   4.692   3.271  17.678 -0.8882  0.4362  0.4405
  462TMC3     H 6935   4.593   3.089  17.521  2.4155  2.0677 -0.3842
  462TMC3    H1 6936   0.154   2.988   0.077  2.1753  0.5935 -1.8812
  462TMC3    H2 6937   0.003   2.685  17.573 -1.5870 -0.1393 -0.7090
  462TMC3    C7 6938   0.146   2.715   0.016 -0.0297 -0.7636  0.1910
  462TMC3    C8 6939   4.558   2.849  17.445  0.6634  0.3228  0.4375
  462TMC3    O1 6940   0.101   2.600  17.743 -0.3988 -0.0323 -0.4236
  462TMC3    O2 6941   4.458   2.919  17.465  0.4617  0.0624  0.1980
  463MPD2     C 6942   1.555   1.528   0.746  0.0148 -0.0077  0.1450
  463MPD2    C1 6943   1.440   1.578   0.804  0.5181 -0.3746  0.4903
  463MPD2    C2 6944   1.446   1.702   0.863 -0.0414 -0.6030  0.4239
  463MPD2    C3 6945   1.550   1.789   0.845 -0.0648 -0.1275  0.3029
  463MPD2    C4 6946   1.663   1.741   0.778 -0.9399  0.4065 -0.2645
  463MPD2    C5 6947   1.665   1.612   0.736 -0.0698  0.2606 -0.0178
  463MPD2     H 6948   1.362   1.723   0.928  1.1282 -0.5021  1.8856
  463MPD2    H1 6949   1.755   1.797   0.766 -0.6770 -0.1169 -0.6863
  463MPD2    H2 6950   1.571   1.428   0.708 -1.0222  0.8794 -2.6806
  463MPD2    H3 6951   1.761   1.570   0.709  0.4044  0.3063  1.6170
  463MPD2     N 6952   1.536   1.922   0.878 -0.0800  0.6919  0.2638
  463MPD2    H5 6953   1.618   1.982   0.873  1.3982 -1.3786 -0.2560
  463MPD2    N1 6954   1.326   1.493   0.832  0.4432 -0.4245  0.5332
  463MPD2    H7 6955   1.263   1.527   0.904 -0.9842 -1.3250 -0.2922
  464TMC3    C1 6956   1.184   1.306   0.828 -0.6623  0.1025 -0.1888
  464TMC3    C2 6957   1.091   1.381   0.895  0.1576 -0.0251 -0.6687
  464TMC3    C3 6958   0.966   1.326   0.923  0.9366  0.3620  0.4864
  464TMC3    C4 6959   1.154   1.180   0.792  0.5818  0.2659  1.0452
  464TMC3    C5 6960   1.039   1.123   0.837 -0.0640 -0.4883  0.2926
  464TMC3    C6 6961   0.942   1.196   0.908 -0.1372  0.0099  0.2111
  464TMC3     C 6962   1.304   1.369   0.777  0.8365 -0.2786  0.9110
  464TMC3     O 6963   1.384   1.299   0.717 -0.7743 -0.0051 -0.0509
  464TMC3     H 6964   1.101   1.488   0.900  3.0517 -0.2564 -1.6494
  464TMC3    H1 6965   1.226   1.107   0.755 -0.3270 -0.7888  1.3540
  464TMC3    H2 6966   0.853   1.149   0.949  0.1180 -0.1985  0.5268
  464TMC3    C7 6967   1.029   0.978   0.812 -0.1388 -0.1065 -0.0161
  464TMC3    C8 6968   0.869   1.398   1.001  0.3281 -0.4542 -0.4807
  464TMC3    O1 6969   1.129   0.914   0.774 -0.2637  0.0269  0.5359
  464TMC3    O2 6970   0.751   1.377   0.984  0.1411  0.0311  0.1781
  465MPD2     C 6971   1.943   0.025  16.454 -0.1102 -0.4637  0.6570
  465MPD2    C1 6972   1.989   0.116  16.547  0.0904  0.1006 -0.2273
  465MPD2    C2 6973   1.903   0.222  16.587  0.2209  0.1194  0.5660
  465MPD2    C3 6974   1.777   0.231  16.531 -0.1060  0.5222 -0.2430
  465MPD2    C4 6975   1.738   0.146  16.426  0.1491 -0.1084  0.5745
  465MPD2    C5 6976   1.825   0.044  16.391 -0.0638 -0.6207  0.3729
  465MPD2     H 6977   1.923   0.292  16.667  0.5560  0.6631  0.0087
  465MPD2    H1 6978   1.637   0.142  16.386  0.7789 -0.6332 -0.9542
  465MPD2    H2 6979   2.012   4.686  16.420  1.9825  2.1608 -1.1070
  465MPD2    H3 6980   1.792   4.705  16.322  0.5073  0.7856 -1.4543
  465MPD2     N 6981   1.704   0.339  16.579  0.0718 -0.3141 -1.1002
  465MPD2    H5 6982   1.752   0.399  16.645 -3.3438 -0.6082  1.6301
  465MPD2    N1 6983   2.108   0.107  16.616 -0.3484 -0.1356  0.0573
  465MPD2    H7 6984   2.130   0.187  16.674  0.0869  0.3834 -0.8149
  466TMC3    C1 6985   1.350   0.633  16.661 -0.0465 -0.0970 -0.4521
  466TMC3    C2 6986   1.434   0.743  16.649 -0.2664  0.9627  0.4617
  466TMC3    C3 6987   1.564   0.726  16.601 -0.9392 -0.2240  0.2214
  466TMC3    C4 6988   1.391   0.509  16.620 -0.1024 -0.1194 -0.1243
  466TMC3    C5 6989   1.529   0.495  16.580 -0.3201 -0.1608 -0.8433
  466TMC3    C6 6990   1.612   0.602  16.568  0.0560  0.2587 -0.1612
  466TMC3     C 6991   1.266   0.621  16.781 -0.9355 -0.8935 -0.3599
  466TMC3     O 6992   1.284   0.524  16.853 -0.1769  0.2182  0.1880
  466TMC3     H 6993   1.403   0.838  16.692 -1.7374 -0.1245  1.8212
  466TMC3    H1 6994   1.332   0.422  16.644 -1.6139  1.4224  1.7783
  466TMC3    H2 6995   1.716   0.590  16.540  0.7055  0.8481  2.0320
  466TMC3    C7 6996   1.572   0.365  16.549  0.7839 -0.5953  0.0576
  466TMC3    C8 6997   1.652   0.837  16.588 -0.5663  0.1971  0.2452
  466TMC3    O1 6998   1.495   0.290  16.486 -0.2668  0.7134  0.1777
  466TMC3    O2 6999   1.753   0.817  16.519 -0.2183 -0.6872  0.1616
  467TMC3    C1 7000   2.851   3.602  14.006  0.2263 -0.3828  0.2416
  467TMC3    C2 7001   2.758   3.637  13.920 -0.0191  0.5433 -0.1990
  467TMC3    C3 7002   2.630   3.675  13.963 -0.7068 -0.6182 -0.2882
  467TMC3    C4 7003   2.812   3.564  14.128 -0.4539  0.6804 -0.2547
  467TMC3    C5 7004   2.682   3.576  14.171  0.2195  0.0694 -0.0747
  467TMC3    C6 7005   2.592   3.638  14.091 -1.3875  0.3651  0.4636
  467TMC3     C 7006   2.963   3.696  14.020 -0.2944 -0.1473 -0.6091
  467TMC3     O 7007   3.016   3.689  14.128  0.2533 -0.7400 -0.1869
  467TMC3     H 7008   2.783   3.638  13.814 -1.1565  0.4486 -0.4654
  467TMC3    H1 7009   2.889   3.520  14.190 -0.6792  0.6534  0.0057
  467TMC3    H2 7010   2.498   3.676  14.128 -1.6312  0.9262 -0.7348
  467TMC3    C7 7011   2.655   3.550  14.314  0.0034 -0.0707  0.0130
  467TMC3    C8 7012   2.601   3.811  13.918  0.3551  0.3015  0.3159
  467TMC3    O1 7013   2.749   3.518  14.388  0.4798 -0.3552  0.3283
  467TMC3    O2 7014   2.542   3.885  13.992 -0.0332  0.3858 -0.3855
  468MPD2     C 7015   1.267   2.769  10.971 -0.1321 -0.2283  0.2894
  468MPD2    C1 7016   1.408   2.756  10.977 -0.4749  0.9229 -0.1539
  468MPD2    C2 7017   1.463   2.631  10.993 -0.3732  0.4334  1.2174
  468MPD2    C3 7018   1.388   2.517  10.994 -0.1429 -0.2843 -0.8262
  468MPD2    C4 7019   1.255   2.534  10.977  0.7848  0.2891  0.4314
  468MPD2    C5 7020   1.196   2.655  10.990 -0.0150  0.7363 -0.3815
  468MPD2     H 7021   1.571   2.623  11.008 -0.3259  1.1592  1.2739
  468MPD2    H1 7022   1.184   2.453  10.981  3.4196 -2.0650 -0.7691
  468MPD2    H2 7023   1.222   2.867  10.975 -2.0716 -1.0392 -1.8046
  468MPD2    H3 7024   1.088   2.651  11.004  0.2011  0.1141  1.1212
  468MPD2     N 7025   1.430   2.380  11.017  0.5723  0.1602  0.2602
  468MPD2    H5 7026   1.360   2.308  11.028  0.5791  0.2347  0.8210
  468MPD2    N1 7027   1.491   2.870  10.987 -0.6185  0.4947 -0.8572
  468MPD2    H7 7028   1.589   2.851  11.005 -0.7747  0.6387  0.1497
  469TMC3    C1 7029   1.559   3.097  11.035  0.3766 -0.2035  0.0533
  469TMC3    C2 7030   1.697   3.061  11.036  0.3950 -0.8249  0.4191
  469TMC3    C3 7031   1.789   3.134  11.097 -0.2533  0.2865  0.1508
  469TMC3    C4 7032   1.520   3.213  11.102 -0.1158 -0.1212 -0.1050
  469TMC3    C5 7033   1.618   3.282  11.164 -0.5148 -0.1971 -0.8036
  469TMC3    C6 7034   1.754   3.251  11.166 -0.0034  0.0728  0.2766
  469TMC3     C 7035   1.455   3.001  10.994  0.1780 -0.4389 -0.1496
  469TMC3     O 7036   1.341   3.044  10.977  0.6989 -0.1455  0.2427
  469TMC3     H 7037   1.720   2.972  10.978  2.6007 -0.6280  0.9991
  469TMC3    H1 7038   1.421   3.257  11.103  0.5940  1.4418  1.9510
  469TMC3    H2 7039   1.828   3.321  11.203 -1.6540  1.8309  0.1877
  469TMC3    C7 7040   1.585   3.358  11.285 -0.2362  0.7219  0.2759
  469TMC3    C8 7041   1.895   3.057  11.155  0.0476  0.7920 -0.0320
  469TMC3    O1 7042   1.469   3.401  11.286 -0.3150  0.4729  0.1380
  469TMC3    O2 7043   1.929   3.095  11.264 -0.9800 -0.9697  0.3531
  470TMC3    C1 7044   3.933   2.701   0.905  0.1673  0.8722  0.1276
  470TMC3    C2 7045   4.018   2.805   0.933 -0.1668  0.3321 -0.5840
  470TMC3    C3 7046   3.990   2.888   1.040  0.2868  0.3501  0.1537
  470TMC3    C4 7047   3.821   2.674   0.978  0.1901  0.4473 -0.0100
  470TMC3    C5 7048   3.816   2.742   1.098 -0.2631  0.0676 -0.1496
  470TMC3    C6 7049   3.887   2.855   1.120 -0.1424 -0.5300  0.0819
  470TMC3     C 7050   3.930   2.669   0.765 -0.2623  0.6584 -0.3446
  470TMC3     O 7051   4.038   2.678   0.704 -0.4282 -0.3510 -0.2024
  470TMC3     H 7052   4.102   2.818   0.865  0.1100 -0.5747 -0.4219
  470TMC3    H1 7053   3.772   2.578   0.973  0.5511  0.3272 -1.1435
  470TMC3    H2 7054   3.874   2.906   1.214  1.8894 -0.7772  0.4764
  470TMC3    C7 7055   3.796   2.653   1.211 -0.1343  0.3042  0.5728
  470TMC3    C8 7056   4.058   3.015   1.071 -0.3302  0.2010  0.2725
  470TMC3    O1 7057   3.787   2.532   1.189 -0.0791  0.0320 -0.4047
  470TMC3    O2 7058   4.009   3.086   1.159  0.3401  0.1491  0.4151
  471MPD2     C 7059   4.501   4.096  16.600 -0.7538 -0.1245 -0.1177
  471MPD2    C1 7060   4.451   3.970  16.595 -0.1551 -0.3435  0.3059
  471MPD2    C2 7061   4.428   3.893  16.708  0.0837 -0.1155 -0.1268
  471MPD2    C3 7062   4.443   3.955  16.831  0.0106  0.0966  0.1629
  471MPD2    C4 7063   4.498   4.083  16.841  0.4757 -0.4088 -0.4217
  471MPD2    C5 7064   4.523   4.153  16.724 -0.7366 -0.0881 -0.8180
  471MPD2     H 7065   4.380   3.796  16.712 -0.0173 -0.1159 -1.2232
  471MPD2    H1 7066   4.523   4.128  16.936 -0.6192 -1.0950  0.1854
  471MPD2    H2 7067   4.524   4.159  16.515 -0.1632 -0.4384 -0.1938
  471MPD2    H3 7068   4.563   4.254  16.723  1.4234 -0.9385  1.0528
  471MPD2     N 7069   4.424   3.887  16.952 -0.0946 -0.4334 -0.5241
  471MPD2    H5 7070   4.469   3.929  17.033  0.3440  2.5383 -2.3030
  471MPD2    N1 7071   4.433   3.913  16.466 -0.0869 -0.1143 -0.7003
  471MPD2    H7 7072   4.397   3.819  16.458  3.0658 -1.4824  1.2037
  472TMC3    C1 7073   4.405   3.878  16.238  0.7423  0.1465  0.4232
  472TMC3    C2 7074   4.309   3.916  16.152 -0.3308 -0.1253  0.2477
  472TMC3    C3 7075   4.266   3.835  16.058  0.3142  0.1349  0.1658
  472TMC3    C4 7076   4.458   3.761  16.242  0.3762  0.7961 -0.2331
  472TMC3    C5 7077   4.411   3.669  16.146  0.3483 -0.6862 -0.6849
  472TMC3    C6 7078   4.320   3.710  16.047 -0.6284  0.1040  0.3774
  472TMC3     C 7079   4.424   3.981  16.347 -0.5599 -0.1780 -0.2148
  472TMC3     O 7080   4.397   4.096  16.317 -0.0432  0.1090  0.0606
  472TMC3     H 7081   4.254   4.010  16.157 -0.2722 -0.0416 -0.8605
  472TMC3    H1 7082   4.526   3.731  16.321  0.5053  2.5936  0.3320
  472TMC3    H2 7083   4.278   3.645  15.971 -0.0996  0.7228 -0.4544
  472TMC3    C7 7084   4.383   3.540  16.209 -0.3645 -0.1637  0.1607
  472TMC3    C8 7085   4.124   3.832  16.013 -0.2747  0.0847 -0.3831
  472TMC3    O1 7086   4.452   3.508  16.305 -0.6752 -0.0419  0.6398
  472TMC3    O2 7087   4.111   3.849  15.896  0.5587  0.3751  0.2389
  473MPD2     C 7088   4.167   1.187  14.027 -0.0425  0.1966  0.0569
  473MPD2    C1 7089   4.165   1.316  13.978  0.5518 -0.1494  0.1982
  473MPD2    C2 7090   4.209   1.421  14.063 -0.2577 -0.4354  0.2863
  473MPD2    C3 7091   4.254   1.398  14.193  0.1628 -0.7097 -0.9499
  473MPD2    C4 7092   4.235   1.272  14.246 -0.0884  0.3035  0.0889
  473MPD2    C5 7093   4.198   1.164  14.160  0.3044  0.0463 -0.3584
  473MPD2     H 7094   4.191   1.522  14.026  0.5123 -0.1609  0.6715
  473MPD2    H1 7095   4.255   1.256  14.352 -0.1114 -0.6873 -0.0533
  473MPD2    H2 7096   4.131   1.109  13.961  0.2786 -1.5549  1.9386
  473MPD2    H3 7097   4.167   1.065  14.193 -0.0973 -0.1770 -1.4111
  473MPD2     N 7098   4.294   1.498  14.280  0.1185 -0.5751  0.0842
  473MPD2    H5 7099   4.303   1.463  14.374  1.6022  1.6452  0.7777
  473MPD2    N1 7100   4.117   1.354  13.852 -0.1319 -0.8611 -0.5020
  473MPD2    H7 7101   4.121   1.454  13.834 -0.3070 -0.8399 -0.4218
  474TMC3    C1 7102   4.287   1.727  14.361  0.1530  0.0144  0.0852
  474TMC3    C2 7103   4.262   1.851  14.317 -0.2199 -0.2150 -0.4760
  474TMC3    C3 7104   4.217   1.945  14.403  0.7410 -0.5237  0.3834
  474TMC3    C4 7105   4.268   1.688  14.489  0.0608  0.5505 -0.0600
  474TMC3    C5 7106   4.239   1.787  14.577 -0.7683 -0.0272 -0.3210
  474TMC3    C6 7107   4.199   1.913  14.534  0.1657  0.0569  0.5294
  474TMC3     C 7108   4.293   1.632  14.249  0.2104  0.9240 -0.4667
  474TMC3     O 7109   4.290   1.682  14.138 -0.6873  0.1120 -0.1460
  474TMC3     H 7110   4.281   1.880  14.215  0.6706  0.9545  0.0337
  474TMC3    H1 7111   4.296   1.588  14.521  0.5871  0.2674 -1.3894
  474TMC3    H2 7112   4.176   1.992  14.604  1.7515 -0.3241  1.4875
  474TMC3    C7 7113   4.221   1.748  14.714 -0.4515  0.9881 -0.2005
  474TMC3    C8 7114   4.133   2.050  14.348  0.1529 -0.1556 -0.4773
  474TMC3    O1 7115   4.148   1.650  14.734  0.4743  0.1026  0.6742
  474TMC3    O2 7116   4.016   2.041  14.377  0.2237  0.3434  0.2836
  475MPD2     C 7117   2.654   0.309  10.719 -0.4179  0.3358 -0.0331
  475MPD2    C1 7118   2.719   0.393  10.807  0.5824  0.2387 -0.1214
  475MPD2    C2 7119   2.681   0.386  10.939  0.7107 -1.1143 -0.1222
  475MPD2    C3 7120   2.586   0.299  10.992 -0.6318  0.7514  0.3110
  475MPD2    C4 7121   2.529   0.215  10.899 -0.9317  0.2491 -0.1147
  475MPD2    C5 7122   2.559   0.222  10.763  0.2362 -0.3437 -0.1213
  475MPD2     H 7123   2.718   0.460  11.010 -2.9405  1.2610 -0.7425
  475MPD2    H1 7124   2.458   0.137  10.922 -0.1426  0.0554  1.6941
  475MPD2    H2 7125   2.667   0.296  10.612  1.0232 -1.5965  0.3822
  475MPD2    H3 7126   2.507   0.164  10.687 -0.9809 -0.2724  0.6662
  475MPD2     N 7127   2.539   0.315  11.120  0.6900  0.4557  0.2278
  475MPD2    H5 7128   2.585   0.387  11.174  1.5783 -0.1424  0.2806
  475MPD2    N1 7129   2.809   0.483  10.754 -0.0157  0.2443  0.2937
  475MPD2    H7 7130   2.831   0.491  10.655 -2.7632 -2.4884 -0.5369
  476TMC3    C1 7131   2.927   0.683  10.755 -0.8485 -0.1037  0.0812
  476TMC3    C2 7132   2.840   0.745  10.668 -0.2405  0.3468  0.2065
  476TMC3    C3 7133   2.878   0.863  10.620  0.5107 -0.8780  0.1873
  476TMC3    C4 7134   3.042   0.738  10.792  0.0303  0.0551  0.6696
  476TMC3    C5 7135   3.079   0.859  10.739  0.6877 -0.0959  0.2630
  476TMC3    C6 7136   2.999   0.920  10.654  0.4886  0.0113  0.8907
  476TMC3     C 7137   2.883   0.570  10.828  0.3742  0.0485 -0.1057
  476TMC3     O 7138   2.919   0.556  10.943 -0.1454  0.5751  0.1196
  476TMC3     H 7139   2.737   0.712  10.664  0.5961 -2.2353 -0.2590
  476TMC3    H1 7140   3.108   0.679  10.855 -0.4914 -0.1322  1.0429
  476TMC3    H2 7141   3.025   1.020  10.621  1.5145 -0.2196  0.9938
  476TMC3    C7 7142   3.189   0.924  10.808  0.4506  0.2318  0.4022
  476TMC3    C8 7143   2.813   0.922  10.500  0.1448 -0.1728 -1.2599
  476TMC3    O1 7144   3.292   0.867  10.819 -0.3343  0.0061  0.4798
  476TMC3    O2 7145   2.847   1.032  10.462  0.0585  0.3488  0.0470
  477MPD2     C 7146   0.412   1.855  12.091  0.2352 -0.4588  0.1111
  477MPD2    C1 7147   0.317   1.788  12.020 -0.9605  0.4343  0.6523
  477MPD2    C2 7148   0.318   1.649  12.025  0.0186 -0.1851 -0.8464
  477MPD2    C3 7149   0.395   1.582  12.117 -0.2098 -0.6698 -0.0713
  477MPD2    C4 7150   0.468   1.660  12.209  0.3967  0.2655  0.3181
  477MPD2    C5 7151   0.487   1.793  12.184  0.1896 -0.2465  0.7837
  477MPD2     H 7152   0.247   1.591  11.967 -0.9535 -0.3038  0.4581
  477MPD2    H1 7153   0.532   1.607  12.279  0.2660 -0.3678 -0.0342
  477MPD2    H2 7154   0.423   1.963  12.093  0.6594 -0.4924 -0.3689
  477MPD2    H3 7155   0.561   1.855  12.234 -0.8676  1.5870  0.0763
  477MPD2     N 7156   0.383   1.443  12.121 -0.0039  0.4219  0.1114
  477MPD2    H5 7157   0.323   1.390  12.059 -0.5959  2.7596 -1.3231
  477MPD2    N1 7158   0.233   1.871  11.939  0.1885 -0.0665 -0.2607
  477MPD2    H7 7159   0.233   1.972  11.943  1.2850 -0.0589 -0.3926
  478TMC3    C1 7160   0.082   1.928  11.766  0.5644 -0.3003 -0.1670
  478TMC3    C2 7161   0.060   2.052  11.827 -0.2220  0.1444  0.7144
  478TMC3    C3 7162   4.719   2.139  11.759  0.3045  0.2385 -0.6078
  478TMC3    C4 7163   0.006   1.891  11.652 -0.4613  0.2883 -0.8364
  478TMC3    C5 7164   4.654   1.981  11.599  0.6625 -0.4195  0.1771
  478TMC3    C6 7165   4.637   2.107  11.652 -0.3429  0.0821  0.6298
  478TMC3     C 7166   0.159   1.826  11.835  0.3074 -0.1649  0.6708
  478TMC3     O 7167   0.155   1.712  11.789 -0.2976  0.4245  0.3827
  478TMC3     H 7168   0.090   2.082  11.926 -0.4365  2.9955 -0.0715
  478TMC3    H1 7169   4.727   1.787  11.629  1.2504  0.1887 -1.5739
  478TMC3    H2 7170   4.556   2.174  11.627 -0.8886 -0.3282  1.2754
  478TMC3    C7 7171   4.538   1.921  11.529  0.0053  0.8052  0.1076
  478TMC3    C8 7172   4.680   2.259  11.843  0.1257 -0.5004 -0.5153
  478TMC3    O1 7173   4.510   1.810  11.568  0.1754 -0.3832  0.5586
  478TMC3    O2 7174   4.702   2.258  11.962 -0.3125 -0.3368 -0.3637
  479MPD2     C 7175   3.727   2.958  14.779 -0.3429 -0.9442  0.3041
  479MPD2    C1 7176   3.776   2.906  14.896  0.4875 -0.4212  0.0976
  479MPD2    C2 7177   3.893   2.953  14.956 -0.1302  0.2965  0.3527
  479MPD2    C3 7178   3.953   3.057  14.891 -0.2436 -0.0185  0.2946
  479MPD2    C4 7179   3.909   3.101  14.771  0.1474 -0.1174  0.1332
  479MPD2    C5 7180   3.794   3.056  14.715  0.2573 -0.8462 -0.5094
  479MPD2     H 7181   3.929   2.924  15.054 -0.5013  0.7449  0.6229
  479MPD2    H1 7182   3.961   3.183  14.724 -4.0561  4.1096  2.8128
  479MPD2    H2 7183   3.641   2.922  14.723 -0.8390  1.0048 -0.1956
  479MPD2    H3 7184   3.755   3.099  14.623  1.4437  0.7714 -0.2478
  479MPD2     N 7185   4.060   3.126  14.940  0.4283 -0.6851  0.3886
  479MPD2    H5 7186   4.099   3.197  14.879 -0.2962  0.2287  0.9816
  479MPD2    N1 7187   3.695   2.807  14.957  0.0317  0.1640 -0.2486
  479MPD2    H7 7188   3.601   2.788  14.922  1.5924  0.4240 -4.6547
  480TMC3    C1 7189   4.281   3.309  15.314 -0.0521 -0.4767  0.1647
  480TMC3    C2 7190   4.277   3.434  15.256  0.1807 -0.3060  0.6140
  480TMC3    C3 7191   4.247   3.438  15.125 -0.3115 -0.6766 -0.0913
  480TMC3    C4 7192   4.244   3.196  15.239 -0.8653  0.2611 -1.0271
  480TMC3    C5 7193   4.218   3.205  15.104 -0.0716  0.0682  0.2925
  480TMC3    C6 7194   4.225   3.330  15.042 -0.1570 -0.4192 -0.3778
  480TMC3     C 7195   4.228   3.297  15.451  0.4577 -0.1541  0.4629
  480TMC3     O 7196   4.249   3.198  15.524  0.3540 -0.7056 -0.1973
  480TMC3     H 7197   4.304   3.522  15.314  0.3396  0.9857 -1.4361
  480TMC3    H1 7198   4.242   3.101  15.291  2.1796  0.6745 -0.1568
  480TMC3    H2 7199   4.202   3.346  14.938 -0.0246  1.8232 -0.0463
  480TMC3    C7 7200   4.128   3.101  15.056  0.2898 -0.0850  0.2402
  480TMC3    C8 7201   4.174   3.564  15.102 -0.4383 -0.2513  0.7574
  480TMC3    O1 7202   4.100   3.013  15.132 -0.6560 -0.3690 -0.3518
  480TMC3    O2 7203   4.139   3.630  15.199 -0.0445  0.2072 -0.4317
  481MPD2     C 7204   0.961   3.070  14.544  0.7526 -0.7982  0.2348
  481MPD2    C1 7205   0.901   2.948  14.519  0.2983 -0.2880 -0.5568
  481MPD2    C2 7206   0.893   2.858  14.624 -0.0152 -0.4089  0.9605
  481MPD2    C3 7207   0.931   2.900  14.755  0.2187 -0.2996  0.2111
  481MPD2    C4 7208   0.987   3.028  14.775  0.3860  0.4914  0.6152
  481MPD2    C5 7209   1.010   3.107  14.665 -0.0247 -0.2870  0.2940
  481MPD2     H 7210   0.849   2.761  14.605 -0.2541 -0.2967  0.9270
  481MPD2    H1 7211   1.025   3.061  14.871 -2.8220 -0.0289  2.0608
  481MPD2    H2 7212   0.962   3.151  14.472  0.0010  0.0951  1.2250
  481MPD2    H3 7213   1.073   3.195  14.670 -1.6918  0.8210  1.5882
  481MPD2     N 7214   0.916   2.827  14.869  0.5986 -0.7115  0.2376
  481MPD2    H5 7215   0.963   2.871  14.948  0.7771 -0.7455  0.1515
  481MPD2    N1 7216   0.870   2.920  14.389 -0.1444  0.3518 -0.1319
  481MPD2    H7 7217   0.883   2.996  14.322 -1.4201 -0.5504 -1.3989
  482TMC3    C1 7218   0.760   2.816  14.204 -0.5266 -0.2104 -0.3778
  482TMC3    C2 7219   0.653   2.737  14.172  0.6070  0.5978 -0.4801
  482TMC3    C3 7220   0.588   2.762  14.056  0.3026 -0.4860  0.6158
  482TMC3    C4 7221   0.808   2.912  14.123  0.7803  0.5240  0.3664
  482TMC3    C5 7222   0.725   2.950  14.019 -0.2438 -0.1794  0.0281
  482TMC3    C6 7223   0.615   2.878  13.994  0.0962 -0.4186 -0.0280
  482TMC3     C 7224   0.795   2.814  14.346  0.3620  0.0439  0.0823
  482TMC3     O 7225   0.768   2.712  14.406 -0.2119 -0.2389  0.2163
  482TMC3     H 7226   0.646   2.644  14.228 -1.2110  0.8512 -0.2757
  482TMC3    H1 7227   0.890   2.978  14.148  1.1471 -0.5719  2.0021
  482TMC3    H2 7228   0.546   2.917  13.920  0.1582 -0.6708 -0.2211
  482TMC3    C7 7229   0.775   3.059  13.935 -0.5083  0.1907 -0.4018
  482TMC3    C8 7230   0.482   2.668  14.005 -0.7589 -0.6754  0.0798
  482TMC3    O1 7231   0.887   3.098  13.958 -0.1796 -0.7834  0.2727
  482TMC3    O2 7232   0.474   2.555  14.049 -0.3660 -0.1538  0.7201
  483TMC3    C1 7233   3.745   1.649   0.751 -0.2557 -0.2650 -0.0112
  483TMC3    C2 7234   3.823   1.761   0.778 -0.2142 -0.3634  0.3757
  483TMC3    C3 7235   3.898   1.752   0.890 -0.3543  0.2403 -0.3847
  483TMC3    C4 7236   3.762   1.530   0.822 -0.1041 -0.5929  0.3728
  483TMC3    C5 7237   3.837   1.527   0.941  0.2705  0.2464  0.0054
  483TMC3    C6 7238   3.907   1.643   0.971 -0.4388 -0.0846 -0.3930
  483TMC3     C 7239   3.640   1.653   0.653 -0.9621  0.3033 -0.1983
  483TMC3     O 7240   3.634   1.751   0.583 -0.5186 -0.3217  0.1673
  483TMC3     H 7241   3.821   1.847   0.712 -1.5661  1.4579  2.8185
  483TMC3    H1 7242   3.720   1.436   0.787  0.1675 -0.3768 -0.5202
  483TMC3    H2 7243   3.975   1.648   1.054 -0.8347 -1.0383 -0.0115
  483TMC3    C7 7244   3.917   1.404   0.957 -0.1385  0.4800 -0.8921
  483TMC3    C8 7245   3.994   1.857   0.896 -0.0225 -0.1081 -0.1338
  483TMC3    O1 7246   4.031   1.430   0.978 -0.1949  0.2240  0.1081
  483TMC3    O2 7247   4.018   1.923   0.796  0.2892 -0.2148  0.0783
  484MPD2     C 7248   1.880   4.539  13.241 -0.4495  0.2815  0.1027
  484MPD2    C1 7249   1.804   4.551  13.126 -0.1485 -0.3152  0.0985
  484MPD2    C2 7250   1.862   4.572  13.009 -0.3382  0.2198  0.3653
  484MPD2    C3 7251   2.000   4.588  12.994  0.1297 -0.0845  0.0881
  484MPD2    C4 7252   2.074   4.574  13.109 -0.7019 -0.1353 -0.1183
  484MPD2    C5 7253   2.011   4.565  13.228 -0.2609 -0.2327 -0.4720
  484MPD2     H 7254   1.801   4.569  12.919  0.2734 -0.4937 -0.0297
  484MPD2    H1 7255   2.182   4.572  13.104 -0.7693 -1.1997 -1.3478
  484MPD2    H2 7256   1.832   4.538  13.338 -2.1956 -0.3996 -0.7791
  484MPD2    H3 7257   2.064   4.554  13.322  1.2609 -1.3798 -1.4822
  484MPD2     N 7258   2.075   4.597  12.876 -0.0266  0.5597  0.1826
  484MPD2    H5 7259   2.177   4.600  12.877 -0.0069 -0.5827  1.1552
  484MPD2    N1 7260   1.661   4.540  13.134  0.0685 -0.2819  0.7589
  484MPD2    H7 7261   1.626   4.517  13.226 -0.0704  1.0560  1.0407
  485TMC3    C1 7262   2.096   4.627  12.643  1.0573  0.3703  0.3457
  485TMC3    C2 7263   2.187   4.534  12.621  0.1114  0.2579 -0.0697
  485TMC3    C3 7264   2.234   4.524  12.494  0.3722 -0.1854 -0.2699
  485TMC3    C4 7265   2.045   4.702  12.544  0.9259 -0.5196  0.4114
  485TMC3    C5 7266   2.089   4.689  12.416 -0.2504  0.0782 -0.1117
  485TMC3    C6 7267   2.184   4.595  12.386  1.1093 -0.1130 -0.5965
  485TMC3     C 7268   2.007   4.607  12.754  0.4933  0.4074  0.1067
  485TMC3     O 7269   1.894   4.642  12.730  0.8247  0.5248 -0.2033
  485TMC3     H 7270   2.242   4.480  12.697  1.1384  0.0345 -0.9715
  485TMC3    H1 7271   1.985   0.049  12.575  0.7184 -0.1209 -1.0561
  485TMC3    H2 7272   2.207   4.570  12.283 -2.2007  0.6003 -1.5146
  485TMC3    C7 7273   2.108   0.071  12.338 -0.3526 -0.3907  0.1480
  485TMC3    C8 7274   2.379   4.539  12.479 -0.3732 -0.3291  0.7107
  485TMC3    O1 7275   2.015   0.146  12.314 -0.1385  0.1246 -0.6348
  485TMC3    O2 7276   2.408   4.627  12.399 -0.4522  0.2973  0.8436
  486MPD2     C 7277   3.363   3.754  13.227 -0.0706 -0.2940  0.7669
  486MPD2    C1 7278   3.456   3.761  13.128  0.1333 -0.3582 -0.3899
  486MPD2    C2 7279   3.504   3.884  13.093  0.3910  0.6862 -0.3782
  486MPD2    C3 7280   3.469   4.000  13.165  0.1863  0.2114  0.8661
  486MPD2    C4 7281   3.372   3.991  13.264 -0.3565 -0.3811  0.1438
  486MPD2    C5 7282   3.327   3.868  13.298  0.6146 -0.0200 -0.6314
  486MPD2     H 7283   3.577   3.892  13.013 -0.6040  1.1474 -1.2330
  486MPD2    H1 7284   3.325   4.071  13.320  1.4691  0.1424  0.9315
  486MPD2    H2 7285   3.321   3.659  13.258 -3.0396  0.5684 -0.6136
  486MPD2    H3 7286   3.245   3.865  13.369  1.7577  0.5338  0.7089
  486MPD2     N 7287   3.524   4.127  13.125  0.2952  0.3527 -0.5769
  486MPD2    H5 7288   3.578   4.129  13.039  1.1806 -1.7911 -0.0979
  486MPD2    N1 7289   3.482   3.643  13.056 -0.4264 -0.1499  0.3055
  486MPD2    H7 7290   3.432   3.556  13.070 -0.3607 -0.0572  1.1108
  487TMC3    C1 7291   3.576   3.489  12.903  0.4452  0.5562  0.5633
  487TMC3    C2 7292   3.448   3.445  12.873 -0.6965 -0.5556  0.3373
  487TMC3    C3 7293   3.434   3.312  12.827 -0.6599  0.5944 -0.6438
  487TMC3    C4 7294   3.688   3.403  12.915  1.0960 -0.3722  0.5898
  487TMC3    C5 7295   3.672   3.272  12.880  0.1142 -0.3666 -0.4150
  487TMC3    C6 7296   3.542   3.234  12.836  0.0104  0.3377  0.1210
  487TMC3     C 7297   3.584   3.625  12.965  0.7128  0.5082  1.1737
  487TMC3     O 7298   3.678   3.696  12.933 -0.3325 -0.2017 -0.3262
  487TMC3     H 7299   3.366   3.515  12.866 -0.8415 -0.7279  0.3007
  487TMC3    H1 7300   3.779   3.450  12.953  0.4127  0.3062  1.3744
  487TMC3    H2 7301   3.528   3.126  12.835 -0.8223  0.4294  1.1775
  487TMC3    C7 7302   3.738   3.173  12.959  0.5177  0.4169  0.7574
  487TMC3    C8 7303   3.313   3.260  12.891 -0.1996 -0.5457 -0.8449
  487TMC3    O1 7304   3.677   3.073  12.984 -0.2076  0.4134  0.4055
  487TMC3    O2 7305   3.260   3.328  12.979  0.6666  0.8868 -0.5167
  488MPD2     C 7306   4.116   0.298  16.822 -0.4497 -0.3107  0.1392
  488MPD2    C1 7307   4.037   0.416  16.830 -0.2563  0.2476  0.2039
  488MPD2    C2 7308   3.937   0.419  16.923  0.3636 -0.2027 -0.4956
  488MPD2    C3 7309   3.904   0.313  17.006  0.2744 -0.1971  0.0884
  488MPD2    C4 7310   3.982   0.198  16.997 -0.5090  0.1312 -0.5402
  488MPD2    C5 7311   4.083   0.197  16.908 -0.4524  0.4546 -0.0284
  488MPD2     H 7312   3.880   0.511  16.933  1.3624  0.5274 -1.4918
  488MPD2    H1 7313   3.966   0.113  17.061  0.3403 -0.3643 -0.9902
  488MPD2    H2 7314   4.204   0.292  16.759 -0.0836 -2.1628  0.8365
  488MPD2    H3 7315   4.147   0.111  16.892  2.0180  2.8974 -3.5314
  488MPD2     N 7316   3.790   0.326  17.096 -0.5427  0.0487 -1.2813
  488MPD2    H5 7317   3.757   0.419  17.119 -0.1165 -0.1315  0.0608
  488MPD2    N1 7318   4.047   0.520  16.733  0.0034  0.6410  0.2532
  488MPD2    H7 7319   3.994   0.604  16.753  1.6028  1.5067  0.8687
  489TMC3    C1 7320   3.661   0.265  17.284  0.2851 -0.1925  0.6850
  489TMC3    C2 7321   3.614   0.391  17.296  0.1518 -0.3716  0.4638
  489TMC3    C3 7322   3.627   0.455  17.417  0.4150  0.8346  0.5346
  489TMC3    C4 7323   3.677   0.186  17.395 -0.0275 -0.2391  0.0137
  489TMC3    C5 7324   3.667   0.243  17.522 -0.4075  0.2763 -0.1862
  489TMC3    C6 7325   3.648   0.384  17.530  0.5184 -0.0032 -0.0503
  489TMC3     C 7326   3.731   0.224  17.162  0.1933 -0.0175 -0.2691
  489TMC3     O 7327   3.741   0.104  17.141 -0.1460  0.3796 -0.2732
  489TMC3     H 7328   3.593   0.455  17.211  1.1508  1.2069  1.4168
  489TMC3    H1 7329   3.708   0.083  17.389 -0.3021 -0.2917 -0.4583
  489TMC3    H2 7330   3.676   0.442  17.617  1.1975  1.4687 -1.2485
  489TMC3    C7 7331   3.720   0.180  17.642 -0.1283 -0.1212 -1.1961
  489TMC3    C8 7332   3.713   0.573  17.396  0.3392  0.3263  0.2804
  489TMC3    O1 7333   3.758   0.264  17.723 -0.6359  0.1816 -0.0849
  489TMC3    O2 7334   3.760   0.588  17.288 -0.1356  0.4589 -0.5438
  490MPD2     C 7335   4.737   0.123  17.363  0.1691 -0.3518  0.3499
  490MPD2    C1 7336   4.734   4.737  17.426 -0.4178 -0.6384  0.2212
  490MPD2    C2 7337   0.109   4.685  17.496  0.7310 -0.5749 -0.2946
  490MPD2    C3 7338   0.231   0.016  17.489 -0.1185  0.0270  0.3788
  490MPD2    C4 7339   0.237   0.136  17.417 -0.0447  0.1814 -0.7903
  490MPD2    C5 7340   0.120   0.186  17.358  0.1762  0.6141 -0.3512
  490MPD2     H 7341   0.110   4.585  17.538  0.6265 -0.4481  0.0097
  490MPD2    H1 7342   0.328   0.192  17.402 -0.6643  1.0419 -1.3413
  490MPD2    H2 7343   4.649   0.175  17.327 -0.2479  0.3865  2.4325
  490MPD2    H3 7344   0.133   0.276  17.299  1.6012 -0.2416 -1.3442
  490MPD2     N 7345   0.356   4.719  17.554 -0.2811  0.0185 -0.0995
  490MPD2    H5 7346   0.440   0.031  17.526  0.7396 -1.2977  0.6096
  490MPD2    N1 7347   4.623   4.641  17.405 -0.4215  0.3193  0.0177
  490MPD2    H7 7348   4.640   4.545  17.435  2.9394  0.8121 -0.2286
  491TMC3    C1 7349   4.412   4.550  17.364 -0.0563  0.0502 -0.0013
  491TMC3    C2 7350   4.450   4.462  17.466  0.5054 -0.0660 -0.1295
  491TMC3    C3 7351   4.400   4.339  17.459 -0.1254  0.5797 -0.3353
  491TMC3    C4 7352   4.307   4.528  17.280 -0.0815  0.2306  0.3661
  491TMC3    C5 7353   4.257   4.398  17.288 -0.5121 -0.1778 -1.0099
  491TMC3    C6 7354   4.306   4.305  17.364  0.1810 -0.3682 -0.1362
  491TMC3     C 7355   4.497   4.663  17.343 -0.2933  0.0900  0.9140
  491TMC3     O 7356   4.451   0.027  17.291  0.2162 -0.1817  0.4067
  491TMC3     H 7357   4.522   4.482  17.545 -1.1847  1.4188  1.0386
  491TMC3    H1 7358   4.254   4.602  17.220 -0.5452 -0.8000 -0.4908
  491TMC3    H2 7359   4.267   4.203  17.367  0.0769 -0.3341 -0.3754
  491TMC3    C7 7360   4.165   4.353  17.188  0.1022  0.8105  0.8293
  491TMC3    C8 7361   4.437   4.245  17.563 -0.2621 -0.4765 -0.3264
  491TMC3    O1 7362   4.162   4.233  17.170  0.2358  0.3101  0.7054
  491TMC3    O2 7363   4.346   4.167  17.597 -0.0507  0.2913  0.4502
  492MPD2     C 7364   4.680   0.349  11.534  0.7929  0.2454  0.5320
  492MPD2    C1 7365   4.551   0.314  11.492 -0.0032 -0.2625  0.0018
  492MPD2    C2 7366   4.480   0.219  11.562  0.6074  0.6064  0.1839
  492MPD2    C3 7367   4.536   0.164  11.682 -0.5603  0.0161  0.7733
  492MPD2    C4 7368   4.660   0.203  11.718 -0.0835  0.1272  0.1517
  492MPD2    C5 7369   4.734   0.288  11.645  0.2609 -0.2952 -1.3837
  492MPD2     H 7370   4.373   0.205  11.550  0.9196 -0.5056 -1.2765
  492MPD2    H1 7371   4.715   0.155  11.799  0.9209 -0.2334 -0.7483
  492MPD2    H2 7372   4.736   0.427  11.483  1.9902 -0.9032  0.0781
  492MPD2    H3 7373   0.100   0.309  11.668 -0.0689 -1.6181  1.2978
  492MPD2     N 7374   4.474   0.077  11.776  0.1583 -0.2988  0.3206
  492MPD2    H5 7375   4.531   0.065  11.860  1.4078 -0.0556 -0.4837
  492MPD2    N1 7376   4.502   0.370  11.369  0.2624 -0.6306  0.4852
  492MPD2    H7 7377   4.568   0.438  11.333  0.2455  0.2114  2.0491
  493TMC3    C1 7378   4.365   0.440  11.198 -0.5257  0.4998 -0.4181
  493TMC3    C2 7379   4.444   0.554  11.189 -0.7954 -0.2697  0.0605
  493TMC3    C3 7380   4.428   0.638  11.087  0.2724  0.7064  0.2181
  493TMC3    C4 7381   4.280   0.408  11.103  0.3704 -0.4990 -0.5070
  493TMC3    C5 7382   4.266   0.495  10.993  0.5559 -0.3395 -0.0760
  493TMC3    C6 7383   4.338   0.616  10.986 -0.1594  0.1175 -0.3992
  493TMC3     C 7384   4.387   0.348  11.300  0.9127  0.2669 -0.6078
  493TMC3     O 7385   4.302   0.259  11.315 -0.2257  0.6528 -0.2230
  493TMC3     H 7386   4.513   0.597  11.261 -1.1714 -0.7547  0.7141
  493TMC3    H1 7387   4.226   0.315  11.097  0.3672 -0.6070  1.0836
  493TMC3    H2 7388   4.332   0.679  10.898  0.2621  0.3123 -0.2867
  493TMC3    C7 7389   4.184   0.450  10.878 -0.3453 -0.5516  0.6041
  493TMC3    C8 7390   4.556   0.710  11.061  0.0076 -0.3271 -0.7619
  493TMC3    O1 7391   4.172   0.525  10.788  0.1771  0.0859 -0.3681
  493TMC3    O2 7392   4.657   0.664  11.117  0.0305  0.9741 -0.1799
  494TMC3    C1 7393   0.237   1.439   0.417 -0.0771  0.3568  0.3862
  494TMC3    C2 7394   0.333   1.347   0.449 -0.9002  0.6258  0.0832
  494TMC3    C3 7395   0.439   1.321   0.367 -0.3811 -0.7070  0.6339
  494TMC3    C4 7396   0.261   1.525   0.317  0.4421 -0.0391  0.1938
  494TMC3    C5 7397   0.371   1.500   0.243  0.1823 -0.4684  0.0274
  494TMC3    C6 7398   0.463   1.404   0.267 -0.2120 -0.3222 -0.3670
  494TMC3     C 7399   0.164   1.482   0.530  0.4232  0.0699 -0.1908
  494TMC3     O 7400   0.188   1.431   0.640  0.5322 -0.7512  0.3849
  494TMC3     H 7401   0.318   1.279   0.532  2.2441 -0.5340 -0.3108
  494TMC3    H1 7402   0.202   1.612   0.292  2.9477  0.8808 -2.5643
  494TMC3    H2 7403   0.545   1.378   0.201  0.1484 -1.7423  0.6376
  494TMC3    C7 7404   0.405   1.592   0.134 -0.6567 -0.2591 -0.2429
  494TMC3    C8 7405   0.549   1.235   0.411 -0.4682 -0.7522 -0.2842
  494TMC3    O1 7406   0.474   1.554   0.037  0.3677 -0.1756 -0.1367
  494TMC3    O2 7407   0.661   1.270   0.396 -0.7307  0.0141  0.0845
  495TMC3    C1 7408   3.980   3.774  14.125 -0.5971 -0.0554  0.4469
  495TMC3    C2 7409   3.848   3.787  14.099  0.1237 -0.4945 -0.0710
  495TMC3    C3 7410   3.771   3.794  14.210  0.3362  0.1141 -0.1045
  495TMC3    C4 7411   4.046   3.777  14.248  0.2081 -0.2089 -0.8405
  495TMC3    C5 7412   3.960   3.787  14.351  0.3414 -0.3254  0.0619
  495TMC3    C6 7413   3.819   3.799  14.337 -0.2932  0.0103 -0.5862
  495TMC3     C 7414   4.064   3.749  14.010  0.7272  0.1392  0.4294
  495TMC3     O 7415   4.175   3.802  14.008 -0.2469  0.3626  0.1709
  495TMC3     H 7416   3.816   3.809  13.997 -0.8772 -1.5490  0.0210
  495TMC3    H1 7417   4.153   3.763  14.260  0.3099  0.5756 -0.7810
  495TMC3    H2 7418   3.762   3.773  14.425  0.7044 -0.1522  0.0183
  495TMC3    C7 7419   4.014   3.773  14.490  0.2001  0.2907 -0.1183
  495TMC3    C8 7420   3.639   3.744  14.190  0.6957  0.5524 -0.3875
  495TMC3    O1 7421   4.122   3.720  14.491 -0.1208 -0.3600 -0.6225
  495TMC3    O2 7422   3.575   3.718  14.293 -0.3537  0.0184  0.7383
  496MPD2     C 7423   0.752   3.812  15.610 -0.7552  0.1577  0.0933
  496MPD2    C1 7424   0.851   3.719  15.629 -0.5177  0.6974 -0.4718
  496MPD2    C2 7425   0.815   3.594  15.657  0.2016 -0.4194  0.4610
  496MPD2    C3 7426   0.680   3.566  15.669 -0.0122  0.1238  0.3469
  496MPD2    C4 7427   0.581   3.655  15.654  0.3078  0.0237  0.2854
  496MPD2    C5 7428   0.614   3.784  15.619 -0.1525 -0.6800  0.7756
  496MPD2     H 7429   0.893   3.519  15.668  2.1677  1.3798 -1.3515
  496MPD2    H1 7430   0.474   3.635  15.655  0.4981 -1.0100 -0.7380
  496MPD2    H2 7431   0.775   3.914  15.581  1.5655 -0.1943  0.6946
  496MPD2    H3 7432   0.537   3.860  15.617  1.1324  0.6027 -0.2049
  496MPD2     N 7433   0.649   3.434  15.715 -0.6121  0.6883 -0.6842
  496MPD2    H5 7434   0.568   3.419  15.774 -0.1224 -2.4770 -0.8094
  496MPD2    N1 7435   0.994   3.747  15.629 -0.1073  0.0305 -0.5777
  496MPD2    H7 7436   1.055   3.668  15.648 -1.7818 -0.5005  2.4725
  497TMC3    C1 7437   0.733   3.211  15.779  0.5515 -0.0200  0.0908
  497TMC3    C2 7438   0.830   3.124  15.736  0.0113  0.5784  0.1664
  497TMC3    C3 7439   0.932   3.090  15.823  0.4423 -0.2247  0.2328
  497TMC3    C4 7440   0.730   3.256  15.903 -0.1689  0.0549 -0.7935
  497TMC3    C5 7441   0.835   3.219  15.989 -0.4858 -0.2380  0.8263
  497TMC3    C6 7442   0.936   3.139  15.951  0.6871  0.4141 -0.6300
  497TMC3     C 7443   0.732   3.326  15.688  0.0228  0.3947 -0.0316
  497TMC3     O 7444   0.817   3.322  15.601 -0.4299 -0.1699  0.8457
  497TMC3     H 7445   0.813   3.084  15.637  1.8468  1.7707 -0.6166
  497TMC3    H1 7446   0.660   3.333  15.932 -0.7563  0.3684 -2.9993
  497TMC3    H2 7447   1.003   3.089  16.019  0.0197  0.7649  0.2780
  497TMC3    C7 7448   0.843   3.305  16.101 -0.4999 -0.2272 -0.2143
  497TMC3    C8 7449   1.065   3.082  15.761  0.7228  0.4379  0.8729
  497TMC3    O1 7450   0.754   3.385  16.116 -0.5068  0.1825  0.1369
  497TMC3    O2 7451   1.166   3.068  15.830  0.3410 -0.5177  0.1167
  498MPD2     C 7452   2.344   0.368   9.726  0.3066  0.4025  0.6429
  498MPD2    C1 7453   2.332   0.505   9.734 -0.8995 -0.1474  0.1894
  498MPD2    C2 7454   2.218   0.567   9.683 -0.1315 -0.5098  0.7587
  498MPD2    C3 7455   2.111   0.497   9.635 -0.6027  0.7671 -0.9176
  498MPD2    C4 7456   2.120   0.350   9.633 -0.7588 -0.2244  0.7007
  498MPD2    C5 7457   2.241   0.289   9.678  0.3648  0.6424  0.2380
  498MPD2     H 7458   2.212   0.676   9.679 -0.9920 -0.5296  1.5439
  498MPD2    H1 7459   2.031   0.291   9.611  1.2698 -2.9440 -0.1702
  498MPD2    H2 7460   2.432   0.320   9.765  1.3329 -1.3303 -3.7599
  498MPD2    H3 7461   2.263   0.182   9.677 -0.3154  0.4909  1.4130
  498MPD2     N 7462   1.988   0.563   9.615  0.1519 -0.0327 -0.5434
  498MPD2    H5 7463   1.989   0.662   9.634  1.8070 -0.4084  1.4371
  498MPD2    N1 7464   2.429   0.593   9.784  0.0607  0.5546 -0.4539
  498MPD2    H7 7465   2.401   0.691   9.779  0.0118  0.5909  0.4323
  499TMC3    C1 7466   2.630   0.679   9.891  0.7047  0.6912  0.5827
  499TMC3    C2 7467   2.724   0.650   9.995 -0.1678  0.1307  0.0413
  499TMC3    C3 7468   2.810   0.753  10.034  0.4045  0.5355  0.6168
  499TMC3    C4 7469   2.624   0.804   9.840  0.8586  0.5028  0.0603
  499TMC3    C5 7470   2.708   0.904   9.887  0.3564  0.3091  0.5498
  499TMC3    C6 7471   2.786   0.886   9.996  0.0728 -0.0414  0.1633
  499TMC3     C 7472   2.552   0.566   9.843  0.3477 -0.0743 -0.0681
  499TMC3     O 7473   2.590   0.456   9.879  0.2383 -0.4557 -0.1590
  499TMC3     H 7474   2.737   0.549  10.033 -1.1610  0.1467  0.4103
  499TMC3    H1 7475   2.564   0.812   9.750  0.9686  0.7000  0.0051
  499TMC3    H2 7476   2.856   0.964  10.024 -1.7116  0.9999  1.7254
  499TMC3    C7 7477   2.681   1.042   9.844  0.4788  0.3921 -0.1791
  499TMC3    C8 7478   2.887   0.718  10.156  0.3256  0.1400 -0.2753
  499TMC3    O1 7479   2.742   1.138   9.883 -0.0582  0.5132  0.4926
  499TMC3    O2 7480   2.883   0.609  10.213  0.4168  0.2862  0.2665
  500MPD2     C 7481   3.436   1.300  10.708 -0.4770  0.1495 -0.4350
  500MPD2    C1 7482   3.346   1.382  10.778  0.3870 -0.5622 -0.2434
  500MPD2    C2 7483   3.212   1.389  10.739  0.0917  0.3983 -0.6237
  500MPD2    C3 7484   3.172   1.319  10.625 -1.1712  0.2972  0.2208
  500MPD2    C4 7485   3.271   1.251  10.545  0.8026 -0.1327 -0.4676
  500MPD2    C5 7486   3.391   1.246  10.601  0.0608 -0.0685  0.0584
  500MPD2     H 7487   3.146   1.454  10.796  0.5506  1.3528 -1.1852
  500MPD2    H1 7488   3.259   1.193  10.454  0.1800 -0.4781 -0.1658
  500MPD2    H2 7489   3.541   1.299  10.736 -0.5201 -1.6934 -0.4040
  500MPD2    H3 7490   3.464   1.197  10.538  0.9051  0.3958  0.6787
  500MPD2     N 7491   3.042   1.315  10.582  0.1258  0.1542  0.0505
  500MPD2    H5 7492   3.025   1.271  10.492  1.7534  0.8805 -0.6181
  500MPD2    N1 7493   3.402   1.453  10.894 -0.0860 -0.1455 -0.1077
  500MPD2    H7 7494   3.495   1.427  10.924 -1.5009 -4.1551  0.7362
  501TMC3    C1 7495   3.414   1.610  11.069  0.3461 -0.3870 -0.2134
  501TMC3    C2 7496   3.403   1.744  11.071  0.3063  0.4915  0.2940
  501TMC3    C3 7497   3.487   1.813  11.150 -0.0166 -0.6879  0.1521
  501TMC3    C4 7498   3.512   1.537  11.137  0.2980  0.2793  0.6033
  501TMC3    C5 7499   3.586   1.610  11.223 -0.5550  0.3866 -0.8802
  501TMC3    C6 7500   3.577   1.741  11.235  0.0179 -0.1932 -0.1768
  501TMC3     C 7501   3.341   1.557  10.957  1.2454  0.0095 -0.2121
  501TMC3     O 7502   3.235   1.611  10.930  0.0956 -0.0018  0.6599
  501TMC3     H 7503   3.334   1.791  11.003 -1.4964  0.3027  1.9830
  501TMC3    H1 7504   3.508   1.430  11.119  0.6947  0.2184  0.8893
  501TMC3    H2 7505   3.635   1.807  11.298 -0.1533 -1.3517  1.1960
  501TMC3    C7 7506   3.717   1.550  11.252 -0.9268 -0.8779 -0.3891
  501TMC3    C8 7507   3.538   1.945  11.104  0.4012 -0.4487  0.0602
  501TMC3    O1 7508   3.744   1.446  11.191  0.1818  0.6544 -0.1137
  501TMC3    O2 7509   3.648   1.978  11.149 -0.5521 -0.2063 -0.1285
  502TMC3    C1 7510   3.370   4.065  14.765  0.2413  0.5415  0.1460
  502TMC3    C2 7511   3.354   4.191  14.720 -0.0426 -0.4329  0.6666
  502TMC3    C3 7512   3.251   4.267  14.770 -0.3845 -0.5209 -0.6376
  502TMC3    C4 7513   3.273   3.998  14.825 -0.4510 -0.1124  0.2000
  502TMC3    C5 7514   3.167   4.075  14.879 -0.7532 -0.2193  0.5025
  502TMC3    C6 7515   3.159   4.210  14.850 -0.4335 -0.1135 -0.2346
  502TMC3     C 7516   3.491   4.066  14.843 -0.0407 -0.0457 -0.6478
  502TMC3     O 7517   3.576   4.146  14.806  0.0632 -0.3309 -0.0898
  502TMC3     H 7518   3.429   4.234  14.654 -0.6818 -1.6933 -0.9034
  502TMC3    H1 7519   3.284   3.892  14.845 -0.3438 -0.3669 -1.2039
  502TMC3    H2 7520   3.082   4.275  14.891 -1.6328 -1.2599 -0.6691
  502TMC3    C7 7521   3.114   4.022  14.996  0.8859 -0.2232 -0.7500
  502TMC3    C8 7522   3.293   4.398  14.814  0.2142 -0.1489  0.2363
  502TMC3    O1 7523   3.181   3.933  15.050 -0.3357 -0.2647  0.1897
  502TMC3    O2 7524   3.209   4.480  14.843  0.6222 -0.2218  0.2164
  503MPD2     C 7525   0.993   0.219  16.946  0.4475 -0.7522  0.3311
  503MPD2    C1 7526   1.037   0.316  17.030 -0.1855 -0.1896 -0.3565
  503MPD2    C2 7527   1.136   0.284  17.123  0.5117  0.2913 -0.8725
  503MPD2    C3 7528   1.181   0.157  17.134 -0.5375 -0.2251 -0.0598
  503MPD2    C4 7529   1.130   0.061  17.050  0.2222  0.1872 -0.6412
  503MPD2    C5 7530   1.040   0.097  16.957 -0.6297 -0.1765 -0.6430
  503MPD2     H 7531   1.182   0.362  17.184 -0.2728 -0.2857  0.4632
  503MPD2    H1 7532   1.171   4.698  17.047 -0.0995 -0.0551  2.9728
  503MPD2    H2 7533   0.916   0.236  16.871  1.4204 -0.4469 -0.5961
  503MPD2    H3 7534   0.991   0.017  16.903 -0.3379  0.2301 -1.5055
  503MPD2     N 7535   1.279   0.125  17.226  0.2190 -0.3651  0.5197
  503MPD2    H5 7536   1.284   0.028  17.254  2.6627 -0.3167  0.2402
  503MPD2    N1 7537   0.971   0.446  17.034  0.1628  0.0852  0.2832
  503MPD2    H7 7538   1.010   0.514  17.099  1.1153  0.5467 -0.7832
  504TMC3    C1 7539   1.446   0.148  17.390  0.5704 -0.1588 -0.1824
  504TMC3    C2 7540   1.402   0.031  17.445  0.0597  0.2006  0.4089
  504TMC3    C3 7541   1.473   4.728  17.550  0.1171 -0.1970  0.4331
  504TMC3    C4 7542   1.564   0.205  17.416  0.2541  0.4729 -0.1504
  504TMC3    C5 7543   1.645   0.155  17.512 -0.2776  0.0077 -0.3271
  504TMC3    C6 7544   1.594   0.046  17.574 -0.0367 -0.3131 -0.9802
  504TMC3     C 7545   1.364   0.209  17.288  0.0314  0.0739  0.1506
  504TMC3     O 7546   1.382   0.327  17.260  0.3997 -0.1993 -0.4306
  504TMC3     H 7547   1.302   4.731  17.428  0.1332  0.4488 -0.5560
  504TMC3    H1 7548   1.600   0.292  17.363  0.2951 -0.8569 -2.2759
  504TMC3    H2 7549   1.658   4.725  17.639  0.8562  1.4258 -0.3011
  504TMC3    C7 7550   1.789   0.153  17.484 -0.8690  0.6323  0.6952
  504TMC3    C8 7551   1.449   4.598  17.590  0.1821 -0.0338  0.4033
  504TMC3    O1 7552   1.813   0.154  17.364  0.2549 -0.2105 -0.1758
  504TMC3    O2 7553   1.386   4.534  17.509  0.2079  0.5424 -0.1257
  505MPD2     C 7554   0.745   1.228   9.822  0.1533  0.2591 -0.2755
  505MPD2    C1 7555   0.721   1.137   9.918  0.1787 -0.0554  0.0522
  505MPD2    C2 7556   0.803   1.136  10.030 -0.0511 -0.2640  0.1073
  505MPD2    C3 7557   0.917   1.214  10.037  0.1359 -0.3990  0.6052
  505MPD2    C4 7558   0.946   1.312   9.941  1.3310  0.3906  0.0461
  505MPD2    C5 7559   0.852   1.310   9.836  0.4182 -1.2576  0.9209
  505MPD2     H 7560   0.788   1.064  10.110  0.5766 -0.1611  0.3251
  505MPD2    H1 7561   1.025   1.386   9.951  0.8170  0.5801  2.5689
  505MPD2    H2 7562   0.696   1.230   9.725  0.4570  2.0272 -0.3923
  505MPD2    H3 7563   0.869   1.379   9.755 -0.6982 -0.3906  1.4250
  505MPD2     N 7564   1.004   1.206  10.155  0.1237  0.1821 -0.3545
  505MPD2    H5 7565   1.091   1.259  10.157  0.0267  0.2613  2.8134
  505MPD2    N1 7566   0.617   1.048   9.886  0.1882  0.7115  0.2240
  505MPD2    H7 7567   0.567   1.064   9.799  0.9616 -0.7962 -0.5013
  506TMC3    C1 7568   0.527   0.821   9.882  0.7183 -0.0172  0.1171
  506TMC3    C2 7569   0.570   0.797   9.749  0.4030  0.0851 -0.0691
  506TMC3    C3 7570   0.629   0.675   9.728  1.2938  0.4253  0.4873
  506TMC3    C4 7571   0.514   0.715   9.970 -0.2291  0.2398 -0.1428
  506TMC3    C5 7572   0.564   0.594   9.936  0.5126 -0.4091  0.6177
  506TMC3    C6 7573   0.633   0.571   9.817 -0.3821  0.2291 -0.0952
  506TMC3     C 7574   0.585   0.931   9.962  0.0377  0.1042  0.1060
  506TMC3     O 7575   0.626   0.892  10.071 -0.7857 -0.8270  0.1343
  506TMC3     H 7576   0.571   0.871   9.670  0.2681 -0.1572 -0.2991
  506TMC3    H1 7577   0.467   0.730  10.066  1.2574 -0.5911  0.7180
  506TMC3    H2 7578   0.680   0.476   9.795 -2.5412 -0.4789 -1.5285
  506TMC3    C7 7579   0.629   0.534  10.051  0.9468 -0.0708  0.4339
  506TMC3    C8 7580   0.702   0.661   9.611  0.9561 -0.3089  0.2742
  506TMC3    O1 7581   0.661   0.414  10.048  0.4957  0.0697 -0.4568
  506TMC3    O2 7582   0.662   0.706   9.504  0.3604 -0.7400 -0.5550
  507TMC3    C1 7583   1.852   4.648  15.153  0.4404  0.3409 -0.4939
  507TMC3    C2 7584   1.790   4.567  15.059 -0.2158  0.4066 -0.6593
  507TMC3    C3 7585   1.800   4.606  14.922  0.9901  0.4753 -0.1268
  507TMC3    C4 7586   1.930   0.022  15.116 -0.4766 -0.6046 -0.0249
  507TMC3    C5 7587   1.928   0.059  14.987  0.1641  0.3140  0.2351
  507TMC3    C6 7588   1.866   4.720  14.891  0.3164 -0.3495  0.2302
  507TMC3     C 7589   1.817   4.632  15.296  0.6395  0.6836  0.3482
  507TMC3     O 7590   1.886   4.699  15.372 -0.6518 -0.6002  0.0933
  507TMC3     H 7591   1.732   4.480  15.085 -1.2619  0.5352 -2.5285
  507TMC3    H1 7592   1.969   0.090  15.190  0.6765  0.1584 -1.3396
  507TMC3    H2 7593   1.861   0.022  14.790  1.2233 -1.5794 -0.2998
  507TMC3    C7 7594   1.889   0.200  14.965  0.6247 -0.6722  0.6122
  507TMC3    C8 7595   1.672   4.608  14.859 -0.4941 -0.3618 -0.1040
  507TMC3    O1 7596   1.790   0.214  14.897  0.8209  0.0873 -0.1685
  507TMC3    O2 7597   1.600   4.508  14.878 -0.0089  0.1706 -0.3578
  508MPD2     C 7598   3.035   1.930  16.099  0.6079 -0.8158  0.3900
  508MPD2    C1 7599   3.016   2.063  16.116  0.4426  0.7043 -0.0784
  508MPD2    C2 7600   3.005   2.151  16.007 -0.1565 -0.6268  0.7758
  508MPD2    C3 7601   3.004   2.106  15.874  0.3807  0.8480  0.8220
  508MPD2    C4 7602   3.009   1.970  15.854  0.8322  0.2024 -0.5383
  508MPD2    C5 7603   3.027   1.890  15.968 -0.2672  0.0265 -0.1106
  508MPD2     H 7604   2.996   2.256  16.033  0.8790 -0.5447  0.8089
  508MPD2    H1 7605   3.004   1.926  15.755  3.6470  0.9293 -1.0207
  508MPD2    H2 7606   3.055   1.858  16.178  1.9723  0.3503  1.1232
  508MPD2    H3 7607   3.030   1.782  15.957  0.8990  0.4124 -3.7094
  508MPD2     N 7608   3.006   2.203  15.768  0.0064  0.6772  0.1372
  508MPD2    H5 7609   3.002   2.301  15.793 -0.1106  0.4089  1.1582
  508MPD2    N1 7610   3.025   2.108  16.245 -0.1807  0.9946 -0.0589
  508MPD2    H7 7611   3.078   2.058  16.316 -0.0437  0.9922 -0.1628
  509TMC3    C1 7612   2.935   2.473  15.437  0.0268 -0.0173  0.4926
  509TMC3    C2 7613   3.039   2.550  15.473  0.7256 -0.1677  0.8327
  509TMC3    C3 7614   3.133   2.497  15.556 -0.1749  0.5531 -0.2290
  509TMC3    C4 7615   2.930   2.345  15.482  0.5918 -0.1198  0.0295
  509TMC3    C5 7616   3.016   2.301  15.571  0.5177  0.6632 -0.4004
  509TMC3    C6 7617   3.129   2.369  15.598 -0.4313  0.2088  0.4249
  509TMC3     C 7618   2.815   2.522  15.367 -0.2590 -0.7809 -0.1290
  509TMC3     O 7619   2.744   2.438  15.310  0.4053 -0.6574 -0.6054
  509TMC3     H 7620   3.053   2.646  15.424  0.6359 -1.1192 -1.0457
  509TMC3    H1 7621   2.839   2.287  15.476  0.8538 -0.5053 -0.1442
  509TMC3    H2 7622   3.220   2.327  15.640 -1.8607 -1.7563  1.5602
  509TMC3    C7 7623   2.993   2.174  15.635  0.4542  0.7492 -0.5742
  509TMC3    C8 7624   3.267   2.558  15.551 -0.2972 -0.3683 -0.3491
  509TMC3    O1 7625   2.938   2.077  15.580  0.2399  0.5078 -1.0344
  509TMC3    O2 7626   3.359   2.478  15.552  0.4103  0.6661  0.2324
  510MPD2     C 7627   0.546   3.909  14.651  0.2083  0.4175 -0.4997
  510MPD2    C1 7628   0.590   3.807  14.736 -0.0658  0.0108 -0.2865
  510MPD2    C2 7629   0.728   3.791  14.753  0.4466 -0.6209  0.2830
  510MPD2    C3 7630   0.815   3.866  14.680  1.0124  0.4243 -0.0417
  510MPD2    C4 7631   0.769   3.975  14.597  0.1098 -0.0882  0.3658
  510MPD2    C5 7632   0.632   3.994  14.584  0.1000 -0.4652 -0.4258
  510MPD2     H 7633   0.774   3.703  14.797 -0.2974 -0.5867  1.1354
  510MPD2    H1 7634   0.836   4.052  14.559 -0.0806  0.9524  2.1588
  510MPD2    H2 7635   0.444   3.943  14.653 -0.2526 -1.0030  0.2391
  510MPD2    H3 7636   0.587   4.079  14.533  0.2487 -0.0751  0.0851
  510MPD2     N 7637   0.953   3.838  14.682  0.0701  0.4398  0.1100
  510MPD2    H5 7638   0.987   3.771  14.751 -0.6117  0.7229  0.7293
  510MPD2    N1 7639   0.501   3.714  14.782  0.7144  0.0299 -0.2665
  510MPD2    H7 7640   0.406   3.713  14.748  0.1819 -1.5962  1.3066
  511TMC3    C1 7641   0.412   3.531  14.899  0.6380 -0.2899 -0.4702
  511TMC3    C2 7642   0.359   3.533  15.021 -0.1147  0.1639  0.0877
  511TMC3    C3 7643   0.279   3.431  15.064 -1.3090 -0.1804 -1.0562
  511TMC3    C4 7644   0.406   3.417  14.820  0.0150 -0.0031  0.2879
  511TMC3    C5 7645   0.328   3.312  14.866  0.5693  0.0410  0.3134
  511TMC3    C6 7646   0.266   3.316  14.988 -0.0598 -0.3440  0.0220
  511TMC3     C 7647   0.532   3.616  14.874  0.7389 -0.1111  0.0251
  511TMC3     O 7648   0.636   3.588  14.935 -0.3964  0.3366 -0.0244
  511TMC3     H 7649   0.359   3.627  15.076  0.1998  0.2192 -0.0015
  511TMC3    H1 7650   0.437   3.410  14.717  2.0110 -0.8051  0.9550
  511TMC3    H2 7651   0.191   3.241  15.012  0.9057 -1.3817 -0.1949
  511TMC3    C7 7652   0.286   3.218  14.768 -0.0264  0.7462 -0.4187
  511TMC3    C8 7653   0.203   3.469  15.185 -0.0972  0.7485 -0.2475
  511TMC3    O1 7654   0.314   3.225  14.645 -0.8107  0.4343 -0.2294
  511TMC3    O2 7655   0.237   3.568  15.251 -0.4685  0.0702  0.0065
  512TMC3    C1 7656   4.554   3.517  13.430  0.1688  0.3610  0.5016
  512TMC3    C2 7657   4.587   3.530  13.562 -0.6413  0.0668  0.5539
  512TMC3    C3 7658   4.624   3.412  13.626  0.1305  0.3665  0.0253
  512TMC3    C4 7659   4.542   3.395  13.368  0.0890 -0.5323 -0.8652
  512TMC3    C5 7660   4.565   3.284  13.443  0.3530  0.6568  0.0943
  512TMC3    C6 7661   4.616   3.289  13.573  0.3229  0.6156 -0.0558
  512TMC3     C 7662   4.493   3.634  13.374 -0.2824  0.1500 -0.3416
  512TMC3     O 7663   4.524   3.744  13.416  0.4402  0.6118  0.8570
  512TMC3     H 7664   4.583   3.626  13.613  1.4912 -0.0819  1.0165
  512TMC3    H1 7665   4.500   3.389  13.268 -1.5941 -0.6412 -0.1596
  512TMC3    H2 7666   4.644   3.193  13.616 -1.2341 -0.9600 -2.5156
  512TMC3    C7 7667   4.568   3.160  13.372 -1.3051 -0.2416 -0.2759
  512TMC3    C8 7668   4.661   3.412  13.765  0.3270 -0.7893  0.0272
  512TMC3    O1 7669   4.611   3.150  13.261  0.2686  0.0952 -0.2322
  512TMC3    O2 7670   4.663   3.304  13.825 -0.1571 -0.5361  0.2544
  513MPD2     C 7671   0.897   3.728  13.286 -0.1213 -0.0335  1.1577
  513MPD2    C1 7672   0.859   3.625  13.203  0.4212  0.7947 -0.6398
  513MPD2    C2 7673   0.873   3.493  13.241 -0.1426 -0.1407 -0.1873
  513MPD2    C3 7674   0.924   3.464  13.371 -0.4697  0.0422  0.1553
  513MPD2    C4 7675   0.950   3.570  13.458  0.0321 -0.7675  0.3487
  513MPD2    C5 7676   0.934   3.703  13.418 -0.1998  0.7700 -0.0627
  513MPD2     H 7677   0.864   3.411  13.170  1.7064  0.4464 -1.1133
  513MPD2    H1 7678   0.990   3.543  13.555  0.3849 -0.1218  0.3845
  513MPD2    H2 7679   0.891   3.831  13.255 -0.4695 -0.2110  0.6377
  513MPD2    H3 7680   0.942   3.779  13.494  0.3094 -0.0699  0.7214
  513MPD2     N 7681   0.942   3.329  13.411  0.3789 -0.0910  0.2565
  513MPD2    H5 7682   0.909   3.262  13.342  1.6421 -1.9566  1.4548
  513MPD2    N1 7683   0.807   3.655  13.075 -0.1461  0.3033 -0.3086
  513MPD2    H7 7684   0.822   3.749  13.041  1.7991  1.0598  2.7272
  514TMC3    C1 7685   0.714   3.611  12.876  0.8464  1.1073 -0.0122
  514TMC3    C2 7686   0.822   3.659  12.808 -0.2607 -0.4218 -0.2481
  514TMC3    C3 7687   0.828   3.617  12.676 -0.2184  0.1189 -0.0864
  514TMC3    C4 7688   0.615   3.541  12.808 -0.6551  0.2508  0.2355
  514TMC3    C5 7689   0.631   3.491  12.681  0.6135 -0.0358  0.7892
  514TMC3    C6 7690   0.733   3.539  12.612  0.0195  0.0368 -0.7334
  514TMC3     C 7691   0.742   3.558  13.003 -0.3355  0.0045  0.6073
  514TMC3     O 7692   0.683   3.460  13.052 -0.0244  0.1866  0.2332
  514TMC3     H 7693   0.898   3.727  12.846 -0.0109 -1.8310  1.7191
  514TMC3    H1 7694   0.535   3.499  12.868 -1.1955  1.3294  0.2685
  514TMC3    H2 7695   0.749   3.511  12.508  1.0038 -1.0052 -0.2959
  514TMC3    C7 7696   0.634   3.351  12.658  0.2706 -0.3631  0.4712
  514TMC3    C8 7697   0.951   3.629  12.599  0.2984 -0.3902  0.1979
  514TMC3    O1 7698   0.628   3.311  12.539  0.7185 -0.2492  0.4747
  514TMC3    O2 7699   0.947   3.613  12.478  0.0793  0.2256  0.4296
  515MPD2     C 7700   3.979   0.438  15.135  0.0143 -0.3928 -0.7914
  515MPD2    C1 7701   4.025   0.312  15.098  0.2938 -0.1960 -0.3435
  515MPD2    C2 7702   4.159   0.284  15.094  0.1558 -0.9195  0.3139
  515MPD2    C3 7703   4.247   0.378  15.156  0.5321 -0.1812  0.0620
  515MPD2    C4 7704   4.202   0.497  15.198 -0.5404  0.2443  0.1370
  515MPD2    C5 7705   4.069   0.525  15.188 -0.1157  0.2248  0.2139
  515MPD2     H 7706   4.193   0.183  15.072 -1.3007 -1.7018  1.6790
  515MPD2    H1 7707   4.269   0.575  15.233  2.1632 -1.3608 -1.4326
  515MPD2    H2 7708   3.874   0.464  15.135  0.0424 -0.2694  2.3202
  515MPD2    H3 7709   4.034   0.613  15.239 -1.6321 -0.2097 -0.0913
  515MPD2     N 7710   4.389   0.361  15.173 -0.3327  0.3422  0.0698
  515MPD2    H5 7711   4.434   0.437  15.224  1.0740 -0.1742 -0.3931
  515MPD2    N1 7712   3.945   0.210  15.048  0.2234 -0.5159 -0.3354
  515MPD2    H7 7713   3.989   0.132  14.999  1.7960  0.1413  0.0610
  516TMC3    C1 7714   3.759   0.103  14.938 -0.4737  1.0716 -0.8169
  516TMC3    C2 7715   3.672   0.124  14.837  0.0490 -0.1927 -0.0545
  516TMC3    C3 7716   3.655   0.017  14.751  0.1940  0.5094 -0.8036
  516TMC3    C4 7717   3.828   4.722  14.954  1.3142  0.3234 -0.5251
  516TMC3    C5 7718   3.794   4.619  14.876  0.9749 -0.2070  0.4274
  516TMC3    C6 7719   3.719   4.635  14.761 -0.2127 -0.2302 -0.1048
  516TMC3     C 7720   3.810   0.222  15.016 -0.3149 -0.9527 -0.6221
  516TMC3     O 7721   3.734   0.321  15.025 -0.5653 -0.3105 -0.3718
  516TMC3     H 7722   3.606   0.209  14.826 -0.2120 -0.3076  0.5904
  516TMC3    H1 7723   3.892   4.703  15.039  0.3412 -3.5664 -0.6291
  516TMC3    H2 7724   3.695   4.551  14.696  0.7745  0.3368 -1.2153
  516TMC3    C7 7725   3.879   4.505  14.881  0.3101 -0.3987  0.0381
  516TMC3    C8 7726   3.622   0.065  14.621  0.4084  0.0387  0.0576
  516TMC3    O1 7727   3.945   4.489  14.987  0.2564 -0.1828  0.6604
  516TMC3    O2 7728   3.533   0.002  14.566 -0.3024  0.5846  0.6061
  517MPD2     C 7729   4.281   1.702   0.132  0.2247 -0.0897  0.1928
  517MPD2    C1 7730   4.414   1.717   0.104 -0.4349  0.4662 -0.8297
  517MPD2    C2 7731   4.495   1.796   0.188  0.7671  0.5248  0.2572
  517MPD2    C3 7732   4.439   1.863   0.293  0.0276 -0.1789  0.3238
  517MPD2    C4 7733   4.308   1.849   0.314 -0.4136  0.2325 -0.4326
  517MPD2    C5 7734   4.227   1.771   0.238 -0.5522 -0.7281 -0.1786
  517MPD2     H 7735   4.602   1.800   0.171  0.8009 -1.1205  0.0984
  517MPD2    H1 7736   4.261   1.894   0.401  0.5888 -0.4881  0.4773
  517MPD2    H2 7737   4.205   1.648   0.076 -0.4858 -0.2726  1.3324
  517MPD2    H3 7738   4.124   1.757   0.269  0.0254 -0.7681  1.7544
  517MPD2     N 7739   4.513   1.928   0.394 -0.0723  0.2700 -0.6700
  517MPD2    H5 7740   4.453   1.973   0.462  1.8538  0.3185  1.0173
  517MPD2    N1 7741   4.476   1.617   0.028 -0.0867 -0.4709 -0.2777
  517MPD2    H7 7742   4.577   1.610   0.014 -0.0285 -0.6841  0.2661
  518TMC3    C1 7743   4.491   1.420  17.657  0.2575  0.0591 -0.2383
  518TMC3    C2 7744   4.417   1.313  17.607  0.4483  0.1603 -0.6560
  518TMC3    C3 7745   4.482   1.192  17.590  0.3111  0.0884  0.3444
  518TMC3    C4 7746   4.624   1.415  17.673  0.6368 -0.2505  0.0001
  518TMC3    C5 7747   4.684   1.292  17.656  0.2944 -0.9650  0.0996
  518TMC3    C6 7748   4.614   1.176  17.619 -0.1633  0.1987  0.3250
  518TMC3     C 7749   4.406   1.534  17.696  0.0961 -0.7095 -0.5449
  518TMC3     O 7750   4.288   1.524  17.667  0.0890 -0.2252 -0.0027
  518TMC3     H 7751   4.309   1.320  17.596  0.4041 -0.0815 -0.3859
  518TMC3    H1 7752   4.677   1.503  17.708  1.5808 -0.7007 -0.2865
  518TMC3    H2 7753   4.659   1.078  17.614 -0.8286 -0.1257  0.6343
  518TMC3    C7 7754   0.085   1.281  17.694 -0.4533  0.1043  0.5380
  518TMC3    C8 7755   4.405   1.070  17.580  0.0992  0.7941 -0.1888
  518TMC3    O1 7756   0.136   1.366   0.021  0.4212 -0.1459 -0.2038
  518TMC3    O2 7757   4.460   0.989  17.509  0.3576  0.3835 -0.5010
  519MPD2     C 7758   0.708   0.149  14.772  0.3600  0.5346 -0.2698
  519MPD2    C1 7759   0.679   0.178  14.643  0.5898  0.5851 -0.1015
  519MPD2    C2 7760   0.755   0.119  14.539  0.8352  0.3975  0.1120
  519MPD2    C3 7761   0.865   0.032  14.563 -0.3961 -0.3388  0.0893
  519MPD2    C4 7762   0.892   0.007  14.695  0.1205  0.2421  0.1963
  519MPD2    C5 7763   0.813   0.065  14.795  0.0991 -0.3465  0.1266
  519MPD2     H 7764   0.733   0.127  14.433 -0.8409  0.0434  0.4303
  519MPD2    H1 7765   0.964   4.672  14.732 -0.7697 -0.8747 -0.2740
  519MPD2    H2 7766   0.664   0.186  14.864 -1.2162 -0.9140 -0.4310
  519MPD2    H3 7767   0.835   0.044  14.899  0.0756  0.1047  0.2246
  519MPD2     N 7768   0.928   4.689  14.460 -0.0383  0.5105  0.2970
  519MPD2    H5 7769   1.010   4.640  14.494 -1.1299 -0.7604  1.0994
  519MPD2    N1 7770   0.574   0.267  14.608  0.3014 -0.2662 -0.2553
  519MPD2    H7 7771   0.506   0.287  14.681  0.5528  2.8134 -0.8629
  520TMC3    C1 7772   0.977   4.612  14.241 -0.2200 -0.5572  0.3985
  520TMC3    C2 7773   0.962   4.647  14.107 -0.1090  0.1172  0.1465
  520TMC3    C3 7774   1.039   4.578  14.018 -0.2771 -0.3905  0.2119
  520TMC3    C4 7775   1.081   4.526  14.284 -0.2304 -0.4342 -0.1007
  520TMC3    C5 7776   1.163   4.470  14.195 -0.2323 -0.1449 -0.3500
  520TMC3    C6 7777   1.137   4.483  14.062  0.2384  0.1673 -0.5204
  520TMC3     C 7778   0.887   4.677  14.328 -0.0151  0.3098  0.7588
  520TMC3     O 7779   0.780   4.712  14.276  0.2491 -0.0472  0.1460
  520TMC3     H 7780   0.899   4.733  14.091  1.7487  1.3550 -0.5204
  520TMC3    H1 7781   1.098   4.493  14.386  0.2103 -1.8427 -0.6351
  520TMC3    H2 7782   1.198   4.436  13.986 -0.8758  1.2918 -2.1001
  520TMC3    C7 7783   1.264   4.370  14.239 -0.0927  0.0401  0.5770
  520TMC3    C8 7784   1.009   4.597  13.872 -0.1457  0.4550  0.3516
  520TMC3    O1 7785   1.289   4.372  14.360 -0.1072 -0.4278 -0.4447
  520TMC3    O2 7786   1.068   4.520  13.796  0.0649 -0.1686 -0.1308
  521MPD2     C 7787   1.712   3.043  17.582 -0.7307 -0.5164 -0.1759
  521MPD2    C1 7788   1.683   3.017  17.447  0.3912  0.4613 -0.3045
  521MPD2    C2 7789   1.796   2.987  17.363 -0.3011  0.6515 -0.2275
  521MPD2    C3 7790   1.925   2.996  17.410 -0.2928 -0.0234 -0.0842
  521MPD2    C4 7791   1.946   3.037  17.542  0.7081 -0.7672  0.0677
  521MPD2    C5 7792   1.840   3.049  17.630 -0.7653 -0.1399  0.7562
  521MPD2     H 7793   1.791   2.958  17.259  0.6858  1.8408 -0.6032
  521MPD2    H1 7794   2.044   3.033  17.587  0.4582  1.1997  0.7923
  521MPD2    H2 7795   1.634   3.063  17.655  1.5784 -1.0848  2.4713
  521MPD2    H3 7796   1.856   3.059  17.736  0.1243  0.4764  0.5635
  521MPD2     N 7797   2.031   2.963  17.319 -0.4714  0.3067  0.2762
  521MPD2    H5 7798   2.004   2.944  17.222  1.5982 -2.0179  0.1619
  521MPD2    N1 7799   1.556   2.999  17.398  0.2098  0.0194 -1.1269
  521MPD2    H7 7800   1.485   3.008  17.470  1.0207 -1.0516 -0.1910
  522TMC3    C1 7801   2.233   2.886  17.231 -0.6393  0.0837  0.0802
  522TMC3    C2 7802   2.366   2.912  17.212 -0.2372  0.3014 -0.0195
  522TMC3    C3 7803   2.431   2.855  17.108 -0.5224  0.4285 -0.0440
  522TMC3    C4 7804   2.167   2.807  17.144  0.1524 -0.6522  0.4457
  522TMC3    C5 7805   2.230   2.783  17.027  0.2650 -0.3377 -0.6764
  522TMC3    C6 7806   2.358   2.808  17.001 -0.2846  0.7863 -0.1478
  522TMC3     C 7807   2.164   2.958  17.336 -0.1347  0.0737  0.3118
  522TMC3     O 7808   2.222   3.018  17.424  0.0290 -0.0159  0.0155
  522TMC3     H 7809   2.416   2.960  17.296 -0.2357  0.5628 -0.1687
  522TMC3    H1 7810   2.062   2.782  17.157  0.1594 -2.2542 -2.6168
  522TMC3    H2 7811   2.402   2.786  16.904  0.1538  0.4449  0.1329
  522TMC3    C7 7812   2.159   2.697  16.934 -0.5743 -0.1962 -0.5298
  522TMC3    C8 7813   2.569   2.883  17.091  0.6614 -0.6431  0.3295
  522TMC3    O1 7814   2.224   2.608  16.880 -1.1267 -0.1374 -0.6220
  522TMC3    O2 7815   2.619   2.981  17.143  0.3088 -0.6926  0.0813
  523MPD2     C 7816   3.825   3.740  10.336  0.2812  0.3587  0.5235
  523MPD2    C1 7817   3.761   3.633  10.290  0.0251  0.0363  0.0464
  523MPD2    C2 7818   3.649   3.649  10.207  0.8070  0.1059  0.0394
  523MPD2    C3 7819   3.605   3.775  10.172 -0.3246  0.1322 -0.1105
  523MPD2    C4 7820   3.669   3.881  10.223  0.0820 -0.6946  0.3387
  523MPD2    C5 7821   3.778   3.868  10.304 -0.2752 -0.1819  0.1413
  523MPD2     H 7822   3.599   3.569  10.154  0.8901  0.6942 -0.9269
  523MPD2    H1 7823   3.626   3.974  10.188 -0.9075 -1.5980 -0.8499
  523MPD2    H2 7824   3.901   3.735  10.413  2.0073 -0.6804 -1.2326
  523MPD2    H3 7825   3.817   3.954  10.357 -0.2937 -1.3254  1.9884
  523MPD2     N 7826   3.490   3.788  10.095  0.0861 -0.0601  0.2974
  523MPD2    H5 7827   3.461   3.883  10.076  0.3488  0.4358  2.4002
  523MPD2    N1 7828   3.801   3.505  10.333 -0.0326  0.0656  0.3915
  523MPD2    H7 7829   3.886   3.502  10.388 -1.1046 -1.2032  1.9635
  524TMC3    C1 7830   3.289   3.734   9.978  0.5709 -0.3820  0.1585
  524TMC3    C2 7831   3.251   3.675   9.859  0.7412  0.1385  0.1150
  524TMC3    C3 7832   3.153   3.740   9.792 -0.2953 -0.1205  0.8259
  524TMC3    C4 7833   3.232   3.848  10.020 -0.1632 -0.8108  0.3630
  524TMC3    C5 7834   3.141   3.915   9.946  0.9041 -0.3402  0.0920
  524TMC3    C6 7835   3.089   3.857   9.831  0.6820 -0.2687 -0.4841
  524TMC3     C 7836   3.420   3.688  10.027 -0.0974  0.1541  0.5564
  524TMC3     O 7837   3.453   3.575   9.990 -0.3909 -0.1721  0.0714
  524TMC3     H 7838   3.278   3.572   9.840 -0.3638  0.0435 -0.9777
  524TMC3    H1 7839   3.264   3.898  10.110 -0.1609 -0.5562  0.2215
  524TMC3    H2 7840   3.012   3.908   9.773  0.4654 -2.6166 -2.2584
  524TMC3    C7 7841   3.091   4.039   9.994  0.6006 -0.0654 -0.2903
  524TMC3    C8 7842   3.115   3.666   9.669  0.2465 -0.1718 -0.4747
  524TMC3    O1 7843   3.114   4.077  10.108  0.6966 -0.2272 -0.3847
  524TMC3    O2 7844   2.996   3.668   9.638 -0.0254 -0.3605 -0.0731
  525MPD2     C 7845   2.117   4.248  14.748  0.4547 -0.0110  0.5933
  525MPD2    C1 7846   2.233   4.286  14.816  0.3630 -0.0570  0.2503
  525MPD2    C2 7847   2.280   4.414  14.809  0.7317  0.3102  0.1681
  525MPD2    C3 7848   2.209   4.517  14.747  0.3628 -0.0434  0.0050
  525MPD2    C4 7849   2.095   4.481  14.679 -0.2262  0.3390  0.3776
  525MPD2    C5 7850   2.063   4.350  14.674 -0.1973 -0.7687  0.2454
  525MPD2     H 7851   2.376   4.436  14.856  0.9253 -1.8708  0.7995
  525MPD2    H1 7852   2.037   4.563  14.638  2.6072  0.9801 -2.3994
  525MPD2    H2 7853   2.080   4.146  14.741  1.3116 -0.3052  0.3428
  525MPD2    H3 7854   1.980   4.325  14.609 -0.5468 -1.6154  1.0075
  525MPD2     N 7855   2.251   4.656  14.743 -0.4207 -0.5464  0.4517
  525MPD2    H5 7856   2.184   4.730  14.723 -0.8339 -0.8150  0.8556
  525MPD2    N1 7857   2.302   4.182  14.888 -0.1822  0.8232 -0.5712
  525MPD2    H7 7858   2.390   4.208  14.929  0.4822 -0.6851 -1.0452
  526TMC3    C1 7859   2.345   3.977  14.997 -0.1258  0.8341  0.0795
  526TMC3    C2 7860   2.318   3.951  15.125 -0.0864 -0.6221 -0.1881
  526TMC3    C3 7861   2.428   3.934  15.206  0.4642 -0.2727 -0.0853
  526TMC3    C4 7862   2.471   3.985  14.939  0.0226 -0.1044  0.9918
  526TMC3    C5 7863   2.576   3.957  15.024  0.8947 -0.6905  0.2061
  526TMC3    C6 7864   2.556   3.934  15.160  0.0170 -0.0662 -0.2869
  526TMC3     C 7865   2.249   4.057  14.920 -0.0902  0.7733 -0.0173
  526TMC3     O 7866   2.138   4.007  14.929  0.3494  0.4285  0.0142
  526TMC3     H 7867   2.216   3.947  15.162  0.9985 -1.7559  2.7153
  526TMC3    H1 7868   2.487   3.994  14.832 -2.2695  2.0175  0.8217
  526TMC3    H2 7869   2.629   3.923  15.239  0.5426  1.7827 -0.5000
  526TMC3    C7 7870   2.693   3.905  14.965 -0.2321 -0.1295  0.2085
  526TMC3    C8 7871   2.406   3.939  15.349 -0.2109  0.2664  0.0589
  526TMC3    O1 7872   2.709   3.930  14.848 -0.2456 -0.0460 -0.4682
  526TMC3    O2 7873   2.495   3.983  15.417  0.0312  0.1471 -0.5654
  527MPD2     C 7874   0.915   2.973   1.018  0.0399  0.7113  0.2827
  527MPD2    C1 7875   0.817   2.873   1.016  0.2846  0.0270 -0.8403
  527MPD2    C2 7876   0.861   2.749   0.963 -0.1332 -0.0060 -0.5068
  527MPD2    C3 7877   0.989   2.728   0.913  0.0095  0.0885 -0.4638
  527MPD2    C4 7878   1.083   2.827   0.923  0.2842  0.0126 -0.1406
  527MPD2    C5 7879   1.041   2.953   0.968 -0.0759  0.5912 -0.0504
  527MPD2     H 7880   0.781   2.681   0.936  0.7174 -0.8233 -0.9772
  527MPD2    H1 7881   1.177   2.845   0.871 -0.0117  2.2169  0.0827
  527MPD2    H2 7882   0.895   3.070   1.062 -3.8640 -1.0768  2.4031
  527MPD2    H3 7883   1.110   3.036   0.956 -1.5643  2.0819  1.5236
  527MPD2     N 7884   1.016   2.620   0.835  0.0403  0.1716 -0.1055
  527MPD2    H5 7885   0.951   2.542   0.841  0.4651 -0.1854 -0.1611
  527MPD2    N1 7886   0.689   2.896   1.064 -0.2525 -0.1780  0.0757
  527MPD2    H7 7887   0.623   2.818   1.062 -0.0597 -0.2788 -2.6850
  528TMC3    C1 7888   0.502   2.993   1.172  0.4070 -0.5950  0.3150
  528TMC3    C2 7889   0.429   2.902   1.094  0.1336 -0.7911  0.2179
  528TMC3    C3 7890   0.311   2.859   1.152 -0.2606 -0.8852 -0.9809
  528TMC3    C4 7891   0.458   3.042   1.293  0.0693  0.1355  0.1458
  528TMC3    C5 7892   0.347   2.987   1.344 -0.1739 -0.1198 -0.2683
  528TMC3    C6 7893   0.267   2.894   1.279  0.5947  0.2110 -0.6394
  528TMC3     C 7894   0.650   3.000   1.142 -0.5088 -0.0429 -0.0281
  528TMC3     O 7895   0.711   3.085   1.205 -0.0233 -0.0434 -0.2629
  528TMC3     H 7896   0.457   2.863   0.997 -0.7218 -0.3836 -0.1897
  528TMC3    H1 7897   0.511   3.123   1.342  1.4315 -1.2754  0.9876
  528TMC3    H2 7898   0.175   2.854   1.322  0.2379  1.6766 -0.0034
  528TMC3    C7 7899   0.291   3.036   1.464  0.5598  0.1330 -0.7568
  528TMC3    C8 7900   0.268   2.729   1.118 -1.0319  0.0400  0.3125
  528TMC3    O1 7901   0.171   3.021   1.477  0.1034 -0.0797 -0.2288
  528TMC3    O2 7902   0.270   2.715   0.997 -0.7480 -0.4165 -0.5066
  529MPD2     C 7903   2.384   0.530   0.929 -0.0922  0.1510  0.0548
  529MPD2    C1 7904   2.482   0.625   0.953  0.0359  0.6434  0.1726
  529MPD2    C2 7905   2.502   0.726   0.866 -0.5734  0.2408  0.5681
  529MPD2    C3 7906   2.424   0.731   0.744 -1.1662 -0.4019  0.2168
  529MPD2    C4 7907   2.329   0.637   0.722  0.2440  0.0648 -0.1998
  529MPD2    C5 7908   2.305   0.534   0.813 -0.3655  0.3230 -0.0023
  529MPD2     H 7909   2.585   0.792   0.885  1.6281 -2.1433 -0.7806
  529MPD2    H1 7910   2.287   0.627   0.622 -1.3340 -0.4248  0.5095
  529MPD2    H2 7911   2.371   0.439   0.986  2.1332  0.3036  0.8230
  529MPD2    H3 7912   2.229   0.457   0.803  0.5096 -0.4963 -0.3965
  529MPD2     N 7913   2.447   0.838   0.652 -0.1645 -0.2252 -0.4615
  529MPD2    H5 7914   2.394   0.833   0.565 -0.6565 -2.1564 -0.0405
  529MPD2    N1 7915   2.583   0.603   1.051  0.2418 -0.0753  0.1537
  529MPD2    H7 7916   2.661   0.669   1.052  0.2550 -0.0327 -2.5413
  530TMC3    C1 7917   2.702   0.483   1.226 -0.1042 -0.5004  0.4578
  530TMC3    C2 7918   2.806   0.477   1.143 -0.3158 -0.5993 -0.4609
  530TMC3    C3 7919   2.903   0.383   1.162  0.2933 -0.5147 -0.6296
  530TMC3    C4 7920   2.688   0.396   1.330  0.7657  0.3233  0.4033
  530TMC3    C5 7921   2.799   0.312   1.355 -0.0778  0.2389  0.4241
  530TMC3    C6 7922   2.901   0.297   1.267 -0.2050  0.7136  0.4211
  530TMC3     C 7923   2.582   0.513   1.157  0.3199 -0.6633 -0.3764
  530TMC3     O 7924   2.486   0.446   1.193 -0.7922  0.3821  0.5202
  530TMC3     H 7925   2.822   0.543   1.059  1.4536 -0.0474  0.3052
  530TMC3    H1 7926   2.602   0.395   1.396 -0.2005  0.8128 -0.8453
  530TMC3    H2 7927   2.973   0.216   1.273 -1.9133 -0.8372 -0.1467
  530TMC3    C7 7928   2.812   0.269   1.490 -0.1653 -0.1023  0.0370
  530TMC3    C8 7929   2.981   0.354   1.049 -0.1919  0.2288 -0.7748
  530TMC3    O1 7930   2.886   0.171   1.504  0.3404  0.1014  0.7142
  530TMC3    O2 7931   2.947   0.385   0.935 -0.1453  0.3008 -0.3589
  531MPD2     C 7932   0.836   2.918  12.837  0.5942  0.2688  0.3974
  531MPD2    C1 7933   0.831   3.015  12.940  0.8736 -0.7794  0.1144
  531MPD2    C2 7934   0.775   3.142  12.912  0.6614  0.4299  0.3063
  531MPD2    C3 7935   0.727   3.162  12.788  0.2498  0.2713  0.5043
  531MPD2    C4 7936   0.735   3.064  12.688  0.5226  0.4353 -0.2705
  531MPD2    C5 7937   0.797   2.946  12.714 -0.6439  0.1743 -0.0504
  531MPD2     H 7938   0.764   3.219  12.988 -1.8078  0.3558  0.0239
  531MPD2    H1 7939   0.702   3.084  12.587 -1.3380  0.2683  0.2906
  531MPD2    H2 7940   0.868   2.817  12.860  1.0217  0.3892  0.3280
  531MPD2    H3 7941   0.805   2.877  12.630  0.8567 -0.7027  0.8087
  531MPD2     N 7942   0.667   3.288  12.772  0.2365 -0.0863  0.1315
  531MPD2    H5 7943   0.679   3.336  12.861  3.1630 -1.0834  0.2657
  531MPD2    N1 7944   0.871   2.973  13.071  0.4390  0.5428  0.5904
  531MPD2    H7 7945   0.901   2.876  13.080 -0.0694  0.1506 -2.0329
  532TMC3    C1 7946   0.929   2.992  13.305  0.1451 -0.5515  0.4117
  532TMC3    C2 7947   0.910   3.088  13.404  0.3708 -0.5800 -0.3361
  532TMC3    C3 7948   1.004   3.122  13.492  0.4716 -0.1889  0.9524
  532TMC3    C4 7949   1.057   2.944  13.290  0.2620 -0.1420 -0.0045
  532TMC3    C5 7950   1.148   2.974  13.389 -0.6738  0.0055  0.2235
  532TMC3    C6 7951   1.125   3.059  13.491 -0.3755  0.3083 -0.0553
  532TMC3     C 7952   0.881   3.052  13.185 -0.2939  0.3585  0.4655
  532TMC3     O 7953   0.872   3.175  13.178  0.0143 -0.0030 -0.1737
  532TMC3     H 7954   0.812   3.133  13.412  0.1409 -0.8176 -1.7467
  532TMC3    H1 7955   1.091   2.894  13.200 -0.3339 -1.1215  0.3221
  532TMC3    H2 7956   1.204   3.094  13.557  0.2366 -0.4449 -0.4007
  532TMC3    C7 7957   1.284   2.927  13.373  0.2242 -0.0558 -0.6407
  532TMC3    C8 7958   1.005   3.267  13.517  0.1139  0.0117  1.0078
  532TMC3    O1 7959   1.322   2.922  13.258  0.1329 -0.3201 -0.0525
  532TMC3    O2 7960   1.076   3.314  13.606 -0.2904 -0.0392 -0.1472
  533TMC3    C1 7961   2.378   0.103  14.791  0.3268  0.3933 -0.9571
  533TMC3    C2 7962   2.504   0.150  14.790  0.0411  0.1837 -0.0120
  533TMC3    C3 7963   2.533   0.265  14.855  0.0990  0.3021  1.1261
  533TMC3    C4 7964   2.281   0.173  14.868 -0.2977  0.7507  0.3739
  533TMC3    C5 7965   2.316   0.281  14.949 -0.2110  0.4827 -0.1217
  533TMC3    C6 7966   2.439   0.337  14.931 -0.2459 -0.4332 -0.5227
  533TMC3     C 7967   2.369   4.703  14.797 -0.4765  0.4199 -0.5941
  533TMC3     O 7968   2.473   4.644  14.829  0.0534  0.0540 -0.2096
  533TMC3     H 7969   2.584   0.091  14.745  0.6780  1.4117 -0.4758
  533TMC3    H1 7970   2.188   0.122  14.887 -0.7797  0.9490 -1.4407
  533TMC3    H2 7971   2.470   0.422  14.991  0.4774  0.3901 -2.0323
  533TMC3    C7 7972   2.284   0.242  15.081  0.4778  0.2496  0.2022
  533TMC3    C8 7973   2.666   0.312  14.836 -0.2296 -0.6110  0.7791
  533TMC3    O1 7974   2.209   0.143  15.109 -0.7998 -0.1342  0.1288
  533TMC3    O2 7975   2.760   0.239  14.811  0.2730  0.1820 -0.4725
  534MPD2     C 7976   0.963   0.696   0.837  0.2803 -0.7323 -0.1019
  534MPD2    C1 7977   0.871   0.796   0.855  0.1194  0.7618  0.4092
  534MPD2    C2 7978   0.738   0.753   0.869  0.5554  0.3593  0.2365
  534MPD2    C3 7979   0.703   0.616   0.871  0.0107 -0.4757  0.2308
  534MPD2    C4 7980   0.797   0.516   0.859  0.3401 -0.0735 -0.6868
  534MPD2    C5 7981   0.930   0.558   0.845  0.1581  0.6157  0.2108
  534MPD2     H 7982   0.660   0.827   0.883  2.9239  2.5705  1.5853
  534MPD2    H1 7983   0.771   0.411   0.871  2.3128 -0.5354 -0.4051
  534MPD2    H2 7984   1.069   0.717   0.825  0.1500 -0.3332 -0.5558
  534MPD2    H3 7985   1.013   0.490   0.831  0.6249  0.8595  1.7447
  534MPD2     N 7986   0.566   0.571   0.884  0.3088  0.1381  0.5581
  534MPD2    H5 7987   0.553   0.471   0.883 -1.6711  0.3948  0.7441
  534MPD2    N1 7988   0.902   0.935   0.836 -0.9361  0.1990  0.2704
  534MPD2    H7 7989   0.823   0.998   0.828 -2.2120 -1.4353  0.2520
  535TMC3    C1 7990   0.329   0.587   0.897 -0.5244  0.1718  0.2014
  535TMC3    C2 7991   0.223   0.659   0.941 -0.1260 -0.5594 -0.3955
  535TMC3    C3 7992   0.110   0.664   0.858  0.7208 -0.3086  0.0061
  535TMC3    C4 7993   0.323   0.511   0.780 -0.6858  0.3803  0.1037
  535TMC3    C5 7994   0.215   0.524   0.701  0.6368 -0.2896 -0.7651
  535TMC3    C6 7995   0.104   0.604   0.734  0.0937 -0.1295 -0.2586
  535TMC3     C 7996   0.458   0.657   0.905 -0.2516  0.4385 -0.4548
  535TMC3     O 7997   0.452   0.771   0.950 -0.1822 -0.4914 -0.6064
  535TMC3     H 7998   0.214   0.693   1.044  0.7860  0.6290 -0.7106
  535TMC3    H1 7999   0.413   0.456   0.753 -1.8449 -1.0050 -0.9110
  535TMC3    H2 8000   0.006   0.597   0.688 -0.4845 -0.1270  0.9793
  535TMC3    C7 8001   0.236   0.496   0.558 -0.5977  0.3853  0.6135
  535TMC3    C8 8002   4.717   0.688   0.916  0.3700 -0.4555 -0.1797
  535TMC3    O1 8003   0.332   0.420   0.550  0.1411 -0.4069  0.3683
  535TMC3    O2 8004   4.624   0.619   0.883 -0.6422 -0.1144 -0.1125
  536MPD2     C 8005   3.880   4.082  16.200  0.5998  0.8014  0.6687
  536MPD2    C1 8006   3.762   4.034  16.248 -0.3181 -0.6062 -0.0197
  536MPD2    C2 8007   3.654   4.035  16.162 -0.3125  0.8839 -0.0292
  536MPD2    C3 8008   3.679   4.078  16.032 -0.5667 -0.0163  0.2799
  536MPD2    C4 8009   3.801   4.132  15.991  0.2524  0.0506 -0.6607
  536MPD2    C5 8010   3.906   4.124  16.073 -0.1812 -0.0127 -0.6241
  536MPD2     H 8011   3.558   4.005  16.202 -0.7435  1.3059 -0.7355
  536MPD2    H1 8012   3.829   4.165  15.892  1.0671  0.5641 -0.2583
  536MPD2    H2 8013   3.968   4.073  16.263  0.9434 -2.8065 -0.3380
  536MPD2    H3 8014   4.003   4.157  16.039 -0.8397  2.3584 -0.1793
  536MPD2     N 8015   3.580   4.071  15.928 -0.0025  0.0798  0.6684
  536MPD2    H5 8016   3.609   4.106  15.837  1.4681 -0.5949  0.8740
  536MPD2    N1 8017   3.749   4.009  16.390  0.2734 -0.0031 -0.2212
  536MPD2    H7 8018   3.831   4.015  16.450  0.2628  0.3552 -0.2390
  537TMC3    C1 8019   3.667   3.923  16.593 -0.0112  0.8156 -0.8401
  537TMC3    C2 8020   3.755   3.990  16.670  0.2637  0.0242  0.6941
  537TMC3    C3 8021   3.784   3.950  16.794  0.2825 -0.9112  0.1902
  537TMC3    C4 8022   3.618   3.801  16.629 -0.9010  0.0294 -0.0086
  537TMC3    C5 8023   3.660   3.748  16.754  0.5987 -0.2406 -0.3112
  537TMC3    C6 8024   3.743   3.826  16.831 -0.2612  0.2328  0.0192
  537TMC3     C 8025   3.638   3.963  16.456 -0.2869 -0.0577 -0.8734
  537TMC3     O 8026   3.522   3.940  16.420 -0.0648  0.3291 -0.3753
  537TMC3     H 8027   3.791   4.086  16.636  2.1706 -0.6804  0.6911
  537TMC3    H1 8028   3.573   3.740  16.552 -0.1661  1.8383 -1.8849
  537TMC3    H2 8029   3.773   3.798  16.931  1.5894  0.4501 -0.4797
  537TMC3    C7 8030   3.621   3.612  16.801  0.7693 -0.5655 -0.0672
  537TMC3    C8 8031   3.821   4.038  16.904  0.2849  0.2736  0.0879
  537TMC3    O1 8032   3.546   3.554  16.721 -0.6412  0.2066 -0.6084
  537TMC3    O2 8033   3.899   3.993  16.983 -0.4808  0.3104 -0.3822
  538TMC3    C1 8034   0.189   2.763  11.330  0.2152 -0.0029 -0.8508
  538TMC3    C2 8035   0.294   2.715  11.248  0.4276 -0.6124 -0.4236
  538TMC3    C3 8036   0.308   2.786  11.125  0.9953 -0.5295 -0.6290
  538TMC3    C4 8037   0.109   2.869  11.299 -0.2803 -0.2912 -0.0658
  538TMC3    C5 8038   0.129   2.937  11.184 -0.2710 -0.1602 -0.1896
  538TMC3    C6 8039   0.235   2.898  11.099  0.3484  0.1378  0.6521
  538TMC3     C 8040   0.202   2.735  11.468  0.3953 -0.3788 -0.9688
  538TMC3     O 8041   0.202   2.836  11.539  0.0334 -0.4202 -0.8233
  538TMC3     H 8042   0.351   2.626  11.273  1.9890  1.0651  2.0283
  538TMC3    H1 8043   0.032   2.900  11.368  1.8445 -0.0174  2.1743
  538TMC3    H2 8044   0.247   2.947  11.003 -2.2257 -2.4997 -0.9936
  538TMC3    C7 8045   0.042   3.044  11.135 -0.2773  0.2331 -0.0454
  538TMC3    C8 8046   0.384   2.717  11.025  1.2927  0.3814  0.2246
  538TMC3    O1 8047   4.667   3.037  11.184 -0.1954 -0.7343  0.1019
  538TMC3    O2 8048   0.386   2.595  11.035 -0.7327  0.5037 -0.1318
  539MPD2     C 8049   4.566   2.518  11.969  0.2286 -0.1439  0.3599
  539MPD2    C1 8050   4.585   2.496  11.831 -0.7243 -0.7728 -0.5990
  539MPD2    C2 8051   4.563   2.606  11.746 -0.4164  0.4365 -0.3196
  539MPD2    C3 8052   4.517   2.729  11.799 -0.0025 -0.1332  0.0889
  539MPD2    C4 8053   4.497   2.746  11.931  0.3248  0.4114 -0.1741
  539MPD2    C5 8054   4.531   2.645  12.014  0.0937  0.9711  0.6446
  539MPD2     H 8055   4.580   2.583  11.641  0.6587 -1.4638  0.2575
  539MPD2    H1 8056   4.464   2.839  11.976  1.1104  0.7651 -0.3285
  539MPD2    H2 8057   4.574   2.438  12.042  1.3604 -1.3242 -1.0440
  539MPD2    H3 8058   4.512   2.668  12.118 -1.1526  1.9087  0.2230
  539MPD2     N 8059   4.502   2.850  11.719 -0.3542  0.4902  0.4855
  539MPD2    H5 8060   4.478   2.931  11.775  1.1086  1.2874 -0.0548
  539MPD2    N1 8061   4.627   2.368  11.774 -0.2088 -0.0674  0.1640
  539MPD2    H7 8062   4.641   2.365  11.674 -1.6359  0.3470 -0.0404
  540TMC3    C1 8063   4.557   3.005  11.551  0.3437  0.4079 -0.4774
  540TMC3    C2 8064   4.498   3.053  11.439 -0.0387 -0.2092  0.0894
  540TMC3    C3 8065   4.452   3.179  11.420 -0.9477 -0.4320  0.1180
  540TMC3    C4 8066   4.564   3.089  11.657  0.4071 -0.5364  0.2152
  540TMC3    C5 8067   4.516   3.213  11.646  0.6699  0.0894  0.4910
  540TMC3    C6 8068   4.465   3.263  11.525  0.5811 -0.1838 -0.1733
  540TMC3     C 8069   4.541   2.862  11.584  0.1179  0.0806  0.3042
  540TMC3     O 8070   4.584   2.785  11.498 -0.4251  0.1912 -0.6863
  540TMC3     H 8071   4.498   2.976  11.363  0.2176  0.3451 -0.4736
  540TMC3    H1 8072   4.605   3.054  11.751  0.0262  1.4431  1.1010
  540TMC3    H2 8073   4.414   3.358  11.518  2.5503  0.8564 -0.2566
  540TMC3    C7 8074   4.450   3.239  11.773 -0.4397  0.0444  0.1273
  540TMC3    C8 8075   4.369   3.203  11.304  0.6870  0.5440 -0.5518
  540TMC3    O1 8076   4.430   3.150  11.852 -0.0564 -0.7960 -0.2507
  540TMC3    O2 8077   4.348   3.321  11.279  0.4348 -0.4459  0.0390
  541MPD2     C 8078   2.982   3.649  13.552  0.2168  1.2085 -1.0990
  541MPD2    C1 8079   2.920   3.577  13.451 -0.5624 -0.2563 -0.2002
  541MPD2    C2 8080   2.877   3.645  13.335  1.1300 -0.7460  0.0544
  541MPD2    C3 8081   2.907   3.782  13.321  0.3968  0.7350 -0.7863
  541MPD2    C4 8082   3.000   3.845  13.404 -0.3544 -0.1153 -0.9258
  541MPD2    C5 8083   3.031   3.776  13.521 -0.5065  0.8236  1.0703
  541MPD2     H 8084   2.826   3.583  13.261 -1.2009  1.1120  0.1176
  541MPD2    H1 8085   3.022   3.950  13.393 -1.6407  0.3350  0.8502
  541MPD2    H2 8086   3.020   3.603  13.643 -2.7252  1.3319  0.1934
  541MPD2    H3 8087   3.099   3.819  13.594 -0.7822 -1.4287  2.6573
  541MPD2     N 8088   2.864   3.851  13.207  0.3326 -0.3388  0.5113
  541MPD2    H5 8089   2.912   3.939  13.191 -0.1642 -0.1274  0.1830
  541MPD2    N1 8090   2.894   3.440  13.451 -0.7422  0.7697 -0.0245
  541MPD2    H7 8091   2.852   3.409  13.364  0.8313  1.6590 -1.1012
  542TMC3    C1 8092   2.763   3.889  13.005 -0.8330 -0.2508 -0.3630
  542TMC3    C2 8093   2.872   3.937  12.940 -0.1396  0.2641  0.7458
  542TMC3    C3 8094   2.861   3.997  12.816 -0.4797  1.0486 -0.6609
  542TMC3    C4 8095   2.638   3.894  12.943  0.3412  0.1937  0.9032
  542TMC3    C5 8096   2.629   3.949  12.819  0.3653 -0.0150  0.4972
  542TMC3    C6 8097   2.737   3.999  12.752  0.5016 -0.0026  0.3920
  542TMC3     C 8098   2.773   3.799  13.115  0.0946  1.0116  0.4143
  542TMC3     O 8099   2.709   3.693  13.105 -0.8998  0.1533  0.3674
  542TMC3     H 8100   2.963   3.921  12.996 -0.5756 -2.3325  0.7226
  542TMC3    H1 8101   2.553   3.841  12.985  1.9837 -3.1015  0.0280
  542TMC3    H2 8102   2.728   4.048  12.655 -0.4579 -1.4041 -0.2264
  542TMC3    C7 8103   2.515   3.915  12.740 -0.1891 -0.2306 -0.6123
  542TMC3    C8 8104   2.972   3.978  12.722  0.5253 -0.1293 -0.2514
  542TMC3    O1 8105   2.409   3.885  12.802  0.4010  0.3569 -0.2641
  542TMC3    O2 8106   2.957   4.024  12.612 -0.4558 -0.1509  0.2514
  543TMC3    C1 8107   2.663   0.143  17.403 -0.8443 -0.0684 -0.5425
  543TMC3    C2 8108   2.692   0.014  17.444  0.1464 -0.4138 -0.1788
  543TMC3    C3 8109   2.657   4.717  17.574  0.1972  0.5836  0.5268
  543TMC3    C4 8110   2.591   0.231  17.476  0.2836  0.4112  0.2018
  543TMC3    C5 8111   2.553   0.190  17.597  0.3492 -0.1045 -0.1421
  543TMC3    C6 8112   2.576   0.070  17.647  0.3204  0.3249 -0.2045
  543TMC3     C 8113   2.725   0.181  17.281  0.5957 -0.3706  0.0213
  543TMC3     O 8114   2.826   0.113  17.251 -0.2603 -0.0551  0.0443
  543TMC3     H 8115   2.747   4.682  17.382  2.2840 -0.7886  2.1405
  543TMC3    H1 8116   2.545   0.323  17.440  0.0920  0.5361  0.7755
  543TMC3    H2 8117   2.533   0.039  17.741  0.6676 -0.3346 -0.2602
  543TMC3    C7 8118   2.478   0.282  17.692  0.5548  0.0652 -0.6420
  543TMC3    C8 8119   2.655   4.574  17.606  0.6020 -0.1324 -0.3948
  543TMC3    O1 8120   2.421   0.227   0.036  0.7782  0.0350 -0.5030
  543TMC3    O2 8121   2.684   4.499  17.511  0.4430 -0.0902 -0.4801
  544MPD2     C 8122   2.688   4.166   0.153 -0.1427 -0.1334  0.2925
  544MPD2    C1 8123   2.647   4.177   0.021 -0.0651  0.5132 -0.2675
  544MPD2    C2 8124   2.636   4.296  17.708  0.2689 -1.2191  0.3244
  544MPD2    C3 8125   2.643   4.411   0.037  0.2737  0.0083 -0.3433
  544MPD2    C4 8126   2.673   4.399   0.171  0.3379  1.1541  0.2437
  544MPD2    C5 8127   2.694   4.277   0.230  0.8861 -0.0272 -0.4374
  544MPD2     H 8128   2.631   4.289  17.600  0.4104 -1.0834  0.3104
  544MPD2    H1 8129   2.679   4.485   0.236 -1.0876  1.4743 -0.0401
  544MPD2    H2 8130   2.705   4.070   0.201  0.8039 -1.7684 -3.3253
  544MPD2    H3 8131   2.711   4.279   0.337 -4.1212 -0.2190  0.3672
  544MPD2     N 8132   2.639   4.546  17.734  0.3849  0.1856 -0.1881
  544MPD2    H5 8133   2.656   4.617   0.056 -1.3985  1.3854 -0.9647
  544MPD2    N1 8134   2.639   4.050  17.704  0.5567 -0.1926  0.0972
  544MPD2    H7 8135   2.644   3.962   0.006 -1.3006 -0.1990  0.3030
  545TMC3    C1 8136   2.541   3.888  17.555 -0.4111 -0.4089  0.5929
  545TMC3    C2 8137   2.499   3.859  17.426 -0.4016  0.0021 -0.7597
  545TMC3    C3 8138   2.439   3.743  17.394  0.0654  0.2996 -0.0846
  545TMC3    C4 8139   2.512   3.798  17.658  0.2019  0.9867  0.1650
  545TMC3    C5 8140   2.461   3.680  17.622 -0.1245  0.9094 -0.2481
  545TMC3    C6 8141   2.419   3.653  17.494 -0.3481 -0.1838 -0.6145
  545TMC3     C 8142   2.573   4.026  17.585 -0.6681 -0.2953 -0.0698
  545TMC3     O 8143   2.559   4.110  17.498 -0.1025 -0.2863  1.1729
  545TMC3     H 8144   2.524   3.928  17.346  1.0856 -0.2790 -0.5348
  545TMC3    H1 8145   2.514   3.831   0.013  1.6007 -0.7796  0.7013
  545TMC3    H2 8146   2.384   3.553  17.468  0.0959 -0.9360  1.6996
  545TMC3    C7 8147   2.406   3.600  17.724 -0.3559 -0.3766  0.4673
  545TMC3    C8 8148   2.353   3.733  17.289  0.4952  0.3070 -0.0700
  545TMC3    O1 8149   2.312   3.533  17.686  0.0075 -0.1988 -0.3622
  545TMC3    O2 8150   2.306   3.621  17.262 -0.4856 -0.6414  0.1439
  546MPD2     C 8151   4.079   4.319  17.665 -0.1243  0.2423  0.1780
  546MPD2    C1 8152   3.995   4.363  17.566  0.3390 -0.0718  0.7728
  546MPD2    C2 8153   4.010   4.495  17.522  0.1190  0.7998  0.4440
  546MPD2    C3 8154   4.103   4.582  17.579  0.7614 -0.5259  0.3384
  546MPD2    C4 8155   4.172   4.540  17.688 -0.5790  0.2641 -0.0202
  546MPD2    C5 8156   4.159   4.412  17.730  0.3993  0.3802  0.7729
  546MPD2     H 8157   3.936   4.544  17.460  0.4438  1.0870  0.2863
  546MPD2    H1 8158   4.244   4.602  17.740  1.7210 -1.9309 -0.5955
  546MPD2    H2 8159   4.073   4.216  17.701  0.1316  0.8673  1.9943
  546MPD2    H3 8160   4.221   4.377   0.063  1.7907  0.1265 -0.3998
  546MPD2     N 8161   4.107   4.722  17.549  0.2872  0.0606 -0.1432
  546MPD2    H5 8162   4.148   0.051  17.613 -1.4192  1.0113 -0.0332
  546MPD2    N1 8163   3.890   4.275  17.519  0.1390 -0.1420  0.1729
  546MPD2    H7 8164   3.895   4.176  17.542 -0.7757 -0.3509 -0.5192
  547TMC3    C1 8165   3.705   4.213  17.379  0.4128 -1.0465 -0.0598
  547TMC3    C2 8166   3.612   4.249  17.286  0.3555 -0.6715 -0.2932
  547TMC3    C3 8167   3.520   4.164  17.240 -0.6909 -0.1762 -1.2594
  547TMC3    C4 8168   3.690   4.094  17.448 -0.3900  0.1269 -0.7318
  547TMC3    C5 8169   3.580   4.016  17.405  0.1452 -0.3976  0.3795
  547TMC3    C6 8170   3.502   4.046  17.300 -0.7713 -0.3390  0.4569
  547TMC3     C 8171   3.794   4.314  17.428 -0.0053 -0.1116  0.2932
  547TMC3     O 8172   3.753   4.430  17.409  0.4483 -0.1381 -0.2753
  547TMC3     H 8173   3.616   4.341  17.229  2.7714  0.2640  1.3709
  547TMC3    H1 8174   3.751   4.071  17.535  0.4122 -1.3932 -1.6966
  547TMC3    H2 8175   3.420   3.982  17.270 -2.1490  0.6162  2.2145
  547TMC3    C7 8176   3.570   3.884  17.469 -0.1199 -0.0549 -0.5056
  547TMC3    C8 8177   3.440   4.201  17.127  0.4783 -0.2888  0.6532
  547TMC3    O1 8178   3.605   3.865  17.578  0.4872 -0.3225  0.2421
  547TMC3    O2 8179   3.421   4.319  17.121  0.2024 -0.7250 -0.0487
  548MPD2     C 8180   3.604   0.980  12.630 -0.2899  0.3338  0.1171
  548MPD2    C1 8181   3.581   0.855  12.681 -0.5416  0.2147 -0.2277
  548MPD2    C2 8182   3.671   0.755  12.652  0.4522 -0.5630 -0.0521
  548MPD2    C3 8183   3.790   0.780  12.578 -0.1073 -0.4031 -1.3003
  548MPD2    C4 8184   3.817   0.911  12.542 -0.4491 -0.4550  0.0707
  548MPD2    C5 8185   3.720   1.005  12.562  0.1778 -0.7028 -0.7636
  548MPD2     H 8186   3.652   0.655  12.689 -1.4337 -1.0761 -2.4238
  548MPD2    H1 8187   3.905   0.940  12.486 -0.9913  0.7484 -0.1477
  548MPD2    H2 8188   3.530   1.057  12.646 -0.7548 -0.1557  0.3442
  548MPD2    H3 8189   3.746   1.107  12.536  1.1609 -0.8503 -0.3793
  548MPD2     N 8190   3.883   0.670  12.556 -0.0591  0.3079 -0.3131
  548MPD2    H5 8191   3.852   0.580  12.590  4.9221 -0.7969  1.2368
  548MPD2    N1 8192   3.461   0.838  12.762 -0.1692  0.4579 -0.5226
  548MPD2    H7 8193   3.397   0.916  12.775 -0.3142  0.4908 -1.3996
  549TMC3    C1 8194   3.291   0.732  12.891 -0.1471  0.5583 -0.5538
  549TMC3    C2 8195   3.195   0.776  12.811  0.9370 -0.0486 -0.7111
  549TMC3    C3 8196   3.066   0.740  12.846 -0.5365  0.1367  0.6132
  549TMC3    C4 8197   3.279   0.659  13.008  0.5316 -0.6337  0.8617
  549TMC3    C5 8198   3.149   0.624  13.034  0.1554 -0.4256  0.5028
  549TMC3    C6 8199   3.040   0.666  12.960 -0.8384 -0.6746  0.4285
  549TMC3     C 8200   3.428   0.730  12.834  0.2248 -0.2394  0.6208
  549TMC3     O 8201   3.496   0.636  12.861 -0.7371 -0.1357 -0.2424
  549TMC3     H 8202   3.222   0.817  12.715 -1.0965 -0.3273 -1.3901
  549TMC3    H1 8203   3.362   0.627  13.071  0.7289 -0.0928  0.8815
  549TMC3    H2 8204   2.945   0.621  12.985 -0.8099 -0.8587  0.1998
  549TMC3    C7 8205   3.117   0.544  13.151  0.0948  0.6072  0.6275
  549TMC3    C8 8206   2.950   0.784  12.766 -0.4083  0.0010  0.3793
  549TMC3    O1 8207   3.014   0.553  13.213 -0.1839  0.2049 -0.3947
  549TMC3    O2 8208   2.843   0.739  12.801  0.5514  0.0665 -0.7003
  550TMC3    C1 8209   2.315   3.512  12.605 -0.0147 -0.2973 -0.9338
  550TMC3    C2 8210   2.258   3.434  12.706 -0.1549  0.0708  0.8018
  550TMC3    C3 8211   2.140   3.372  12.680  0.6794  0.8449 -0.0135
  550TMC3    C4 8212   2.253   3.529  12.482 -0.3764 -0.4418  0.3979
  550TMC3    C5 8213   2.133   3.466  12.462 -0.1637 -0.1948 -0.2582
  550TMC3    C6 8214   2.075   3.390  12.559 -0.2013  0.6300  0.1467
  550TMC3     C 8215   2.450   3.554  12.627  0.1250 -0.4169 -0.2692
  550TMC3     O 8216   2.496   3.536  12.739 -0.1708 -0.1388 -0.0584
  550TMC3     H 8217   2.315   3.409  12.794  1.6408 -0.4796 -0.5173
  550TMC3    H1 8218   2.292   3.603  12.414  1.3722 -0.5114  1.3293
  550TMC3    H2 8219   1.981   3.338  12.545 -1.7504  3.2296  0.8412
  550TMC3    C7 8220   2.041   3.525  12.360 -0.1595  0.0195 -0.2582
  550TMC3    C8 8221   2.055   3.347  12.793  0.6980  0.6212  1.0880
  550TMC3    O1 8222   1.924   3.523  12.377  0.0131  0.9573 -0.1321
  550TMC3    O2 8223   1.953   3.285  12.764  0.0536  0.6297 -0.3620
  551TMC3    C1 8224   4.496   1.325  13.788  0.0937  0.0597 -0.5977
  551TMC3    C2 8225   4.570   1.230  13.719  0.0609 -0.6366 -0.1395
  551TMC3    C3 8226   4.671   1.173  13.782  0.3422  0.2830  0.1682
  551TMC3    C4 8227   4.524   1.353  13.914  0.8364 -0.2267  0.5112
  551TMC3    C5 8228   4.623   1.283  13.977  0.3306 -0.4168  0.1619
  551TMC3    C6 8229   4.702   1.188  13.914  0.3405 -0.1791 -0.0476
  551TMC3     C 8230   4.422   1.419  13.711 -0.5592 -0.2145 -0.3606
  551TMC3     O 8231   4.409   1.529  13.764  0.0979  0.3504 -0.6289
  551TMC3     H 8232   4.561   1.221  13.611 -1.7602 -0.5526  0.0019
  551TMC3    H1 8233   4.448   1.407  13.969 -0.1107  0.6057 -1.6551
  551TMC3    H2 8234   0.047   1.131  13.956  0.1455  1.3572  2.4334
  551TMC3    C7 8235   4.642   1.309  14.116 -0.3682  0.5402 -0.3745
  551TMC3    C8 8236   0.030   1.129  13.686 -0.5474  0.3941 -0.0771
  551TMC3    O1 8237   4.685   1.216  14.180 -0.1207 -0.2937  0.0572
  551TMC3    O2 8238   4.726   1.077  13.584  0.2992  0.3547  0.4110
  552MPD2     C 8239   1.554   2.916  14.110  0.2153 -0.6015 -1.0358
  552MPD2    C1 8240   1.602   2.802  14.167  0.0186 -0.2855  0.2955
  552MPD2    C2 8241   1.682   2.805  14.285  0.0452  0.3054  0.0933
  552MPD2    C3 8242   1.715   2.928  14.340  0.3546  0.1801  0.7479
  552MPD2    C4 8243   1.676   3.042  14.281  0.2599 -0.5914 -0.1923
  552MPD2    C5 8244   1.590   3.030  14.173  0.3001  0.2802  0.2588
  552MPD2     H 8245   1.709   2.706  14.319 -1.0898  0.2335  0.7727
  552MPD2    H1 8246   1.694   3.142  14.319  0.6526 -0.8291  0.2452
  552MPD2    H2 8247   1.477   2.916  14.035 -0.5599 -0.4817 -0.2437
  552MPD2    H3 8248   1.548   3.126  14.143 -1.5096 -0.4577  0.4120
  552MPD2     N 8249   1.802   2.936  14.451  0.7153 -0.9705 -0.0656
  552MPD2    H5 8250   1.829   3.027  14.488  0.1577 -0.0808 -1.9045
  552MPD2    N1 8251   1.584   2.677  14.099 -0.1329  0.4964 -0.2212
  552MPD2    H7 8252   1.655   2.608  14.119 -0.7312  0.5700  2.2582
  553TMC3    C1 8253   1.486   2.518  13.960  0.7165  0.0856  0.0841
  553TMC3    C2 8254   1.472   2.511  13.821 -0.0442  0.0800 -0.2674
  553TMC3    C3 8255   1.543   2.408  13.755  0.7979 -0.4823 -0.1431
  553TMC3    C4 8256   1.562   2.431  14.031  0.4534 -0.5047  0.2035
  553TMC3    C5 8257   1.642   2.346  13.964  0.4283  0.6921 -0.5669
  553TMC3    C6 8258   1.629   2.330  13.821  0.0964 -0.4316 -0.3048
  553TMC3     C 8259   1.476   2.650  14.012  1.0951 -0.2011 -0.9005
  553TMC3     O 8260   1.396   2.724  13.955 -0.0947 -0.2689 -0.0222
  553TMC3     H 8261   1.412   2.583  13.766 -0.6434 -0.5195 -0.4030
  553TMC3    H1 8262   1.569   2.441  14.138 -4.6945 -1.2813  0.5725
  553TMC3    H2 8263   1.686   2.256  13.768 -0.3990 -1.1968  0.2316
  553TMC3    C7 8264   1.771   2.336  14.020  0.1916 -0.0701 -0.4480
  553TMC3    C8 8265   1.546   2.412  13.606  0.2860 -0.3825  0.6173
  553TMC3    O1 8266   1.800   2.414  14.112 -0.3036  0.0903  0.5006
  553TMC3    O2 8267   1.652   2.372  13.561 -0.4544  0.7225 -0.1990
  554TMC3    C1 8268   4.042   2.747  11.761  0.4924  0.0250 -0.2676
  554TMC3    C2 8269   3.932   2.726  11.680 -0.0495  0.4675 -0.1952
  554TMC3    C3 8270   3.865   2.838  11.636  0.4587 -0.5532 -0.3741
  554TMC3    C4 8271   4.097   2.874  11.778 -0.5958 -0.6568 -0.1348
  554TMC3    C5 8272   4.030   2.975  11.718 -0.1272  0.3037 -0.0522
  554TMC3    C6 8273   3.919   2.966  11.646 -0.2435  0.1416 -0.0817
  554TMC3     C 8274   4.109   2.637  11.824 -0.0113 -0.4521  0.3365
  554TMC3     O 8275   4.223   2.660  11.866 -0.0808  0.2528  0.4349
  554TMC3     H 8276   3.893   2.627  11.657 -0.9461  1.0831 -1.3137
  554TMC3    H1 8277   4.188   2.888  11.835 -1.6893  1.0833  1.2127
  554TMC3    H2 8278   3.870   3.055  11.608  0.8538  0.4927 -0.6732
  554TMC3    C7 8279   4.104   3.096  11.676  0.1496 -0.0888 -0.2198
  554TMC3    C8 8280   3.764   2.827  11.534  0.1038  0.3931 -0.0671
  554TMC3    O1 8281   4.192   3.076  11.593  0.6147 -0.4933 -0.1467
  554TMC3    O2 8282   3.756   2.920  11.457  0.1169  0.3695 -0.2647
  555TMC3    C1 8283   3.027   1.528  15.280  0.2172  1.3028 -0.1179
  555TMC3    C2 8284   3.093   1.605  15.371  0.3088 -0.3733 -0.0361
  555TMC3    C3 8285   3.138   1.545  15.487  0.5619 -0.1308 -0.6574
  555TMC3    C4 8286   3.016   1.396  15.295  0.1615  0.1008  1.1767
  555TMC3    C5 8287   3.070   1.337  15.403 -0.6649 -0.2698  0.0361
  555TMC3    C6 8288   3.126   1.408  15.506  0.1233  0.3936 -0.4754
  555TMC3     C 8289   2.951   1.596  15.175  0.6003 -0.2404  0.3472
  555TMC3     O 8290   2.859   1.530  15.135 -0.4943 -0.4609 -0.7979
  555TMC3     H 8291   3.089   1.713  15.362 -2.4617 -0.4373  0.2539
  555TMC3    H1 8292   2.960   1.336  15.224  0.8786  0.2546  0.4803
  555TMC3    H2 8293   3.153   1.352  15.595 -1.8226  0.5475  0.2043
  555TMC3    C7 8294   3.056   1.193  15.409  0.3148  0.0470  0.0597
  555TMC3    C8 8295   3.165   1.629  15.603  0.3395 -0.4565  0.7355
  555TMC3    O1 8296   2.955   1.136  15.367  0.3632 -0.4477  0.3817
  555TMC3    O2 8297   3.160   1.749  15.582 -0.0854 -0.5087 -0.0261
  556MPD2     C 8298   0.691   3.938  10.645 -0.4997  0.0667  0.7173
  556MPD2    C1 8299   0.735   3.822  10.704 -0.4691  1.3446 -0.2506
  556MPD2    C2 8300   0.698   3.696  10.652  0.1545  0.1539  0.1217
  556MPD2    C3 8301   0.613   3.688  10.549 -0.0811  0.0175  0.6590
  556MPD2    C4 8302   0.563   3.798  10.494 -0.7227 -0.1857  0.9229
  556MPD2    C5 8303   0.605   3.922  10.538 -0.1084  0.4631 -0.9266
  556MPD2     H 8304   0.741   3.609  10.700  4.5848  0.9456 -2.3743
  556MPD2    H1 8305   0.487   3.792  10.417 -0.2524  0.1749  0.4291
  556MPD2    H2 8306   0.702   4.035  10.692  1.0994 -0.1053  0.6703
  556MPD2    H3 8307   0.554   4.011  10.504  2.0039  1.7098 -0.8068
  556MPD2     N 8308   0.585   3.560  10.502 -0.5868  0.3065  0.4320
  556MPD2    H5 8309   0.624   3.487  10.560 -0.8013  0.1098  0.3286
  556MPD2    N1 8310   0.819   3.809  10.818 -0.1704  0.0703 -0.0957
  556MPD2    H7 8311   0.840   3.720  10.861 -2.2007 -0.6326 -0.5697
  557TMC3    C1 8312   0.524   3.375  10.364 -0.3247  0.4242  0.2558
  557TMC3    C2 8313   0.488   3.343  10.240  1.1788  0.2834  0.7821
  557TMC3    C3 8314   0.496   3.214  10.198  0.4547  0.2226 -0.1023
  557TMC3    C4 8315   0.574   3.285  10.457 -0.5443  0.3471 -0.0124
  557TMC3    C5 8316   0.581   3.153  10.414  0.0153 -0.5182  0.2320
  557TMC3    C6 8317   0.534   3.111  10.289 -1.1156 -0.0368 -0.3117
  557TMC3     C 8318   0.535   3.525  10.380  0.2222  0.4652  0.0424
  557TMC3     O 8319   0.504   3.596  10.286  0.2776 -0.2615  0.6251
  557TMC3     H 8320   0.472   3.427  10.173  0.0281  0.2048  0.9558
  557TMC3    H1 8321   0.584   3.316  10.560  0.0692 -0.3340  0.1380
  557TMC3    H2 8322   0.532   3.006  10.263 -1.2244 -0.1964  0.3368
  557TMC3    C7 8323   0.606   3.058  10.521 -0.0034 -0.2681 -0.2502
  557TMC3    C8 8324   0.510   3.203  10.056 -0.1847  0.0224 -0.5879
  557TMC3    O1 8325   0.636   3.102  10.633 -0.0790 -0.6132 -0.1749
  557TMC3    O2 8326   0.492   3.310  10.003 -0.1277  0.7427 -0.1202
  558TMC3    C1 8327   2.815   1.354  10.568 -0.4610  0.6466  0.4012
  558TMC3    C2 8328   2.696   1.331  10.634 -0.4945 -0.6648 -0.1842
  558TMC3    C3 8329   2.586   1.401  10.587  0.2805  0.2623  0.3340
  558TMC3    C4 8330   2.827   1.423  10.452 -0.3506  0.2709 -0.0725
  558TMC3    C5 8331   2.716   1.488  10.410 -0.1637 -0.6757 -0.0964
  558TMC3    C6 8332   2.593   1.481  10.476 -0.2507 -0.0554 -0.2057
  558TMC3     C 8333   2.933   1.358  10.650  0.3883 -0.0187 -0.1119
  558TMC3     O 8334   2.922   1.427  10.751  0.0815 -0.3633 -0.3340
  558TMC3     H 8335   2.693   1.280  10.730  1.7053 -0.7359 -0.1463
  558TMC3    H1 8336   2.924   1.459  10.417 -0.2352 -0.3788 -0.4074
  558TMC3    H2 8337   2.502   1.532  10.446 -1.8890 -2.1949  1.0754
  558TMC3    C7 8338   2.730   1.582  10.302 -0.3440  0.2001 -0.6666
  558TMC3    C8 8339   2.504   1.466  10.694 -0.0052  0.0212  0.3061
  558TMC3    O1 8340   2.814   1.572  10.216  0.0179 -0.2141 -0.1674
  558TMC3    O2 8341   2.401   1.525  10.662  0.2239  0.3643  0.5608
  559MPD2     C 8342   3.143   2.711  10.650 -0.6990  1.2905  0.1669
  559MPD2    C1 8343   3.106   2.625  10.749 -0.1286 -0.4053  0.6342
  559MPD2    C2 8344   3.203   2.605  10.850  0.4314  0.0923 -0.8852
  559MPD2    C3 8345   3.325   2.664  10.861 -0.2016 -0.4100 -0.2922
  559MPD2    C4 8346   3.353   2.752  10.759  0.2439  0.2109  0.1823
  559MPD2    C5 8347   3.268   2.765  10.647 -0.2400  0.5036  0.1828
  559MPD2     H 8348   3.186   2.543  10.938 -2.5123  1.3932 -0.5427
  559MPD2    H1 8349   3.444   2.811  10.762  0.4818 -0.1473 -0.0245
  559MPD2    H2 8350   3.083   2.742  10.565 -0.5586 -2.9267 -1.4899
  559MPD2    H3 8351   3.300   2.837  10.573  1.5989 -1.9857 -1.4553
  559MPD2     N 8352   3.409   2.641  10.973 -0.3150 -0.4643  0.2563
  559MPD2    H5 8353   3.375   2.577  11.044  0.5441 -1.0002  0.1877
  559MPD2    N1 8354   2.974   2.572  10.759  0.3771 -0.0029 -0.4410
  559MPD2    H7 8355   2.914   2.584  10.678 -0.7941  1.6808  0.6758
  560TMC3    C1 8356   3.609   2.608  11.093  0.4936  0.6330  0.3065
  560TMC3    C2 8357   3.544   2.504  11.156  0.4045 -0.2980 -0.3888
  560TMC3    C3 8358   3.625   2.423  11.236  0.0179 -0.0901 -0.0376
  560TMC3    C4 8359   3.736   2.653  11.116  0.3813 -0.5788  0.0209
  560TMC3    C5 8360   3.805   2.583  11.204 -0.2450 -0.0676 -0.3414
  560TMC3    C6 8361   3.753   2.473  11.273 -0.3323 -0.2770  0.3371
  560TMC3     C 8362   3.543   2.680  10.983 -0.2149 -0.1831 -0.4836
  560TMC3     O 8363   3.598   2.769  10.922 -0.6460  0.6040  0.0576
  560TMC3     H 8364   3.443   2.472  11.133  0.5834 -0.9427 -0.2781
  560TMC3    H1 8365   3.775   2.740  11.064 -1.0309  0.6994  1.1266
  560TMC3    H2 8366   3.816   2.404  11.328  0.2673  0.6837  0.8384
  560TMC3    C7 8367   3.942   2.611  11.219 -0.0792 -0.3034  0.8667
  560TMC3    C8 8368   3.565   2.305  11.289  0.2098  1.1086  0.0071
  560TMC3    O1 8369   3.995   2.681  11.131  0.7015  0.2676  0.0363
  560TMC3    O2 8370   3.444   2.303  11.282 -0.3398  0.5926 -0.1054
  561TMC3    C1 8371   1.149   1.129  11.343  0.4978  0.0160  0.5214
  561TMC3    C2 8372   1.044   1.052  11.377  0.3367  0.5792  0.4073
  561TMC3    C3 8373   0.922   1.082  11.327  0.2372  0.2376 -0.1175
  561TMC3    C4 8374   1.129   1.243  11.272  0.3012 -0.9123  0.4833
  561TMC3    C5 8375   1.006   1.276  11.230  0.4176  0.1153  0.1464
  561TMC3    C6 8376   0.900   1.190  11.247  0.0444  0.1546  0.7070
  561TMC3     C 8377   1.286   1.085  11.372 -0.1379 -0.0810  0.2738
  561TMC3     O 8378   1.303   0.963  11.374 -0.4706  0.0309  0.1363
  561TMC3     H 8379   1.055   0.960  11.433 -0.8341  1.4761  2.1281
  561TMC3    H1 8380   1.212   1.291  11.221 -2.5079  0.2532 -2.9403
  561TMC3    H2 8381   0.803   1.209  11.205  0.8591  0.9057 -0.8361
  561TMC3    C7 8382   0.972   1.410  11.185 -2.0055 -0.2057 -0.3664
  561TMC3    C8 8383   0.810   1.007  11.352  0.2689 -0.5744 -0.1290
  561TMC3    O1 8384   0.861   1.420  11.133  0.3422  0.4982  0.3637
  561TMC3    O2 8385   0.728   0.987  11.263  0.0674  0.0657 -0.2831
  562TMC3    C1 8386   2.750   1.872  16.450  0.3574 -0.0013 -0.0548
  562TMC3    C2 8387   2.682   1.991  16.453  0.5764  0.0328 -0.6171
  562TMC3    C3 8388   2.599   2.017  16.347  0.5429  0.3232 -1.0231
  562TMC3    C4 8389   2.741   1.783  16.344 -0.0560 -0.5021 -0.0061
  562TMC3    C5 8390   2.662   1.823  16.236 -0.0140  0.3010 -0.3287
  562TMC3    C6 8391   2.574   1.927  16.242 -0.6349  0.2124  0.1115
  562TMC3     C 8392   2.811   1.829  16.573  0.0600  0.1456  0.3788
  562TMC3     O 8393   2.838   1.917  16.653 -0.0884 -0.0655  0.7330
  562TMC3     H 8394   2.701   2.070  16.525 -1.0156 -1.6032  1.6080
  562TMC3    H1 8395   2.815   1.704  16.333 -1.0145 -1.4824  0.5046
  562TMC3    H2 8396   2.523   1.948  16.149 -0.8365 -1.5319 -0.1879
  562TMC3    C7 8397   2.699   1.779  16.101  0.4747  0.6751  0.3114
  562TMC3    C8 8398   2.524   2.137  16.370 -0.2259 -0.2955  0.3274
  562TMC3    O1 8399   2.667   1.848  16.004  0.3526 -0.8735  0.1304
  562TMC3    O2 8400   2.532   2.195  16.475  0.4755  0.4169  0.0722
  563MPD2     C 8401   0.216   3.381  15.608  0.5377  0.4226  0.4150
  563MPD2    C1 8402   0.160   3.272  15.668  0.4149 -1.2443  0.5868
  563MPD2    C2 8403   0.221   3.154  15.670 -1.0003  0.0907 -0.1183
  563MPD2    C3 8404   0.345   3.143  15.612 -0.3405 -0.9231 -0.2558
  563MPD2    C4 8405   0.410   3.248  15.554  0.5642  0.1272 -0.3012
  563MPD2    C5 8406   0.340   3.367  15.544 -0.4005 -0.4329  0.3398
  563MPD2     H 8407   0.176   3.066  15.716 -1.9449 -0.8363 -2.8296
  563MPD2    H1 8408   0.500   3.230  15.497  0.2538  1.1278 -1.1195
  563MPD2    H2 8409   0.172   3.480  15.600 -1.6787 -0.6536 -0.5956
  563MPD2    H3 8410   0.379   3.451  15.489 -2.1645  0.5619  0.6440
  563MPD2     N 8411   0.409   3.016  15.622 -0.7218 -0.3399 -0.0905
  563MPD2    H5 8412   0.359   2.946  15.677  1.6232 -2.4789 -0.6890
  563MPD2    N1 8413   0.036   3.292  15.729 -0.3700  0.0541  0.5666
  563MPD2    H7 8414   0.014   3.390  15.743  1.2370  0.3014  1.3327
  564TMC3    C1 8415   4.568   3.265  15.815  0.5249  0.2387 -0.0280
  564TMC3    C2 8416   4.463   3.193  15.783 -0.2767  0.7489 -0.1644
  564TMC3    C3 8417   4.378   3.158  15.881  0.1623 -0.6352 -0.0898
  564TMC3    C4 8418   4.595   3.301  15.947  0.4230  0.5795  0.8559
  564TMC3    C5 8419   4.524   3.252  16.053 -0.1547 -0.3734 -0.5390
  564TMC3    C6 8420   4.407   3.189  16.013 -0.0365 -0.1093  0.4175
  564TMC3     C 8421   4.682   3.199  15.761  0.2610  0.5720 -0.1308
  564TMC3     O 8422   4.686   3.079  15.749 -0.1473  0.3787  0.2802
  564TMC3     H 8423   4.467   3.147  15.685  1.7825  0.6812 -0.0543
  564TMC3    H1 8424   4.685   3.358  15.963  1.1594 -0.1521 -0.7088
  564TMC3    H2 8425   4.333   3.168  16.090  0.6498 -0.1183  1.0764
  564TMC3    C7 8426   4.598   3.165  16.137  0.0438 -0.1149  0.3345
  564TMC3    C8 8427   4.296   3.038  15.871  0.2546  0.7911 -0.3920
  564TMC3    O1 8428   4.709   3.206  16.177 -0.5910  0.4316  0.2617
  564TMC3    O2 8429   4.288   2.972  15.972 -0.5222 -0.2982 -0.1873
  565TMC3    C1 8430   0.148   0.591  10.542 -0.2810 -0.4647  0.1842
  565TMC3    C2 8431   0.202   0.475  10.598  0.0111 -0.2934  1.1397
  565TMC3    C3 8432   0.151   0.353  10.557 -0.1228 -0.1107  0.1604
  565TMC3    C4 8433   0.047   0.588  10.452  0.5033 -0.2794  0.3549
  565TMC3    C5 8434   4.734   0.461  10.421  0.6692 -0.4511  0.0159
  565TMC3    C6 8435   0.046   0.348  10.472 -0.5130  0.1614 -0.1346
  565TMC3     C 8436   0.226   0.714  10.534  0.3239 -0.3722  0.6233
  565TMC3     O 8437   0.181   0.789  10.450  0.3796 -0.0450  0.1383
  565TMC3     H 8438   0.281   0.473  10.672 -0.4675  3.0640  1.7298
  565TMC3    H1 8439   0.006   0.679  10.410  0.8725  1.1733  3.1486
  565TMC3    H2 8440   0.001   0.256  10.434 -0.3458 -0.1033  0.3079
  565TMC3    C7 8441   4.630   0.444  10.317 -0.2339 -0.2465 -0.1513
  565TMC3    C8 8442   0.194   0.238  10.627  0.2483 -0.2547 -1.2023
  565TMC3    O1 8443   4.571   0.337  10.309  0.4150 -0.8142 -0.3006
  565TMC3    O2 8444   0.298   0.244  10.698  0.6192  0.0110 -0.1469
  566MPD2     C 8445   2.542   0.679  14.486  0.1038  0.0766  0.3577
  566MPD2    C1 8446   2.588   0.787  14.408  0.1109  0.7136  0.1053
  566MPD2    C2 8447   2.492   0.880  14.367  0.6976  0.7460 -0.3297
  566MPD2    C3 8448   2.359   0.866  14.402 -0.3594 -0.3885  0.4131
  566MPD2    C4 8449   2.317   0.761  14.480 -0.0577 -0.4405 -0.0610
  566MPD2    C5 8450   2.408   0.665  14.520 -0.9054  0.2924  0.1011
  566MPD2     H 8451   2.519   0.964  14.304  0.0406 -1.3151 -3.3715
  566MPD2    H1 8452   2.214   0.729  14.496  0.0889 -1.2509 -0.7272
  566MPD2    H2 8453   2.614   0.605  14.519 -0.1983 -0.9084 -1.1908
  566MPD2    H3 8454   2.383   0.573  14.571 -1.7906  1.9968  2.7153
  566MPD2     N 8455   2.250   0.952  14.363  0.6917  0.3570 -0.5758
  566MPD2    H5 8456   2.154   0.921  14.376  0.6651  0.4629 -0.5130
  566MPD2    N1 8457   2.723   0.805  14.379  0.9801  0.4066  0.0112
  566MPD2    H7 8458   2.780   0.738  14.430  1.0462 -0.6420 -1.4364
  567TMC3    C1 8459   2.921   0.914  14.299 -0.2109 -0.0599 -0.8286
  567TMC3    C2 8460   2.971   0.986  14.195 -0.2653 -0.1827  0.2196
  567TMC3    C3 8461   3.078   1.070  14.220  0.0370  0.0506  0.0860
  567TMC3    C4 8462   2.974   0.918  14.424  0.0903  0.1377 -0.3963
  567TMC3    C5 8463   3.081   0.998  14.441  0.0897 -0.5002 -0.5870
  567TMC3    C6 8464   3.131   1.071  14.344 -0.2752  0.1847  0.1240
  567TMC3     C 8465   2.775   0.904  14.302  0.8073  0.2277 -1.0181
  567TMC3     O 8466   2.722   0.984  14.225 -0.2016 -0.4875 -0.3102
  567TMC3     H 8467   2.910   0.989  14.106  0.6782  0.0106 -0.4247
  567TMC3    H1 8468   2.938   0.848  14.499 -0.5935 -0.1920 -1.0366
  567TMC3    H2 8469   3.199   1.153  14.364  0.3358 -0.5228  0.9282
  567TMC3    C7 8470   3.142   1.024  14.571  0.2852  0.1658 -0.5865
  567TMC3    C8 8471   3.058   1.211  14.170  0.4350 -0.5279 -0.3205
  567TMC3    O1 8472   3.259   1.007  14.586  0.6627 -0.0735  0.3010
  567TMC3    O2 8473   3.109   1.304  14.233 -0.0322 -0.4878  0.4233
  568MPD2     C 8474   4.440   1.460  16.056 -1.0838  0.1699 -0.4864
  568MPD2    C1 8475   4.489   1.532  16.164 -0.3282 -0.3274  0.6054
  568MPD2    C2 8476   4.478   1.670  16.161 -0.9601  0.0561 -0.2022
  568MPD2    C3 8477   4.430   1.738  16.050 -0.4492  0.0539 -1.0618
  568MPD2    C4 8478   4.372   1.666  15.948 -0.2778  0.3444  0.2249
  568MPD2    C5 8479   4.376   1.525  15.954 -0.0954 -0.7415 -0.4661
  568MPD2     H 8480   4.506   1.726  16.249 -0.4784 -2.3587  1.1925
  568MPD2    H1 8481   4.331   1.710  15.858 -1.9151 -2.5058 -0.4263
  568MPD2    H2 8482   4.444   1.352  16.054 -0.3404  0.1998 -0.7909
  568MPD2    H3 8483   4.338   1.467  15.870 -1.2710 -0.2883 -0.2478
  568MPD2     N 8484   4.416   1.885  16.059 -0.0755 -0.0419 -0.0979
  568MPD2    H5 8485   4.445   1.926  16.148 -0.5680  2.3152 -1.0324
  568MPD2    N1 8486   4.547   1.456  16.280  0.6788 -0.3115  0.2981
  568MPD2    H7 8487   4.519   1.359  16.284 -0.5174  0.0787  1.4198
  569TMC3    C1 8488   4.362   2.112  15.997 -0.2880 -0.1802  0.6035
  569TMC3    C2 8489   4.291   2.129  16.112  0.3645  0.2282 -0.4133
  569TMC3    C3 8490   4.200   2.235  16.104  0.1699 -0.6202 -0.8395
  569TMC3    C4 8491   4.356   2.192  15.893 -0.2774 -0.4794  0.4005
  569TMC3    C5 8492   4.261   2.292  15.887 -0.5492 -0.1314 -0.1651
  569TMC3    C6 8493   4.182   2.311  15.992  0.2577  0.4521  0.1636
  569TMC3     C 8494   4.382   1.970  15.953  0.5097  0.1259  0.3518
  569TMC3     O 8495   4.367   1.943  15.832 -0.6019  0.9143  0.2209
  569TMC3     H 8496   4.299   2.074  16.205 -2.6725 -1.9699 -1.4439
  569TMC3    H1 8497   4.435   2.168  15.823 -0.2452  0.9192 -0.0395
  569TMC3    H2 8498   4.117   2.398  15.991 -1.2132 -0.6835 -1.3973
  569TMC3    C7 8499   4.270   2.381  15.774 -0.5860  0.0345  1.2546
  569TMC3    C8 8500   4.181   2.311  16.229  0.2540  0.1788  0.4075
  569TMC3    O1 8501   4.314   2.344  15.665  0.1918 -0.4719 -0.2658
  569TMC3    O2 8502   4.068   2.352  16.240  0.0696 -0.2164 -0.9182
  570TMC3    C1 8503   4.123   0.649  16.563 -0.5327 -0.6121 -0.5024
  570TMC3    C2 8504   4.159   0.657  16.433  0.0328 -0.3762 -0.0566
  570TMC3    C3 8505   4.153   0.780  16.364  0.0206  0.3518  0.0315
  570TMC3    C4 8506   4.086   0.758  16.638  0.3068  0.2111  0.8983
  570TMC3    C5 8507   4.082   0.879  16.572  0.2356  0.1748 -0.1873
  570TMC3    C6 8508   4.105   0.892  16.435 -0.3011 -0.1464 -0.2570
  570TMC3     C 8509   4.130   0.523  16.624  0.2534 -1.2855 -1.0387
  570TMC3     O 8510   4.186   0.434  16.563  0.3120  0.4864  0.0517
  570TMC3     H 8511   4.206   0.567  16.392 -1.3617 -0.8451 -0.6073
  570TMC3    H1 8512   4.071   0.762  16.746  1.3955  2.0457  0.9848
  570TMC3    H2 8513   4.102   0.986  16.380  1.3401 -0.0025 -0.0793
  570TMC3    C7 8514   4.083   0.995  16.664  0.4727 -0.4498 -0.4817
  570TMC3    C8 8515   4.235   0.815  16.246  0.4662 -0.3428  0.1724
  570TMC3    O1 8516   4.036   0.989  16.780  0.4278  0.3255  0.1378
  570TMC3    O2 8517   4.258   0.935  16.226 -0.5670  0.2778  0.1798
  571MPD2     C 8518   1.222   2.738   0.411  0.1029 -0.2743 -0.1383
  571MPD2    C1 8519   1.333   2.764   0.328 -0.0224  0.2761  0.7159
  571MPD2    C2 8520   1.415   2.873   0.366 -0.1446  0.0161 -0.2580
  571MPD2    C3 8521   1.394   2.947   0.479 -0.1027 -0.9359 -0.2716
  571MPD2    C4 8522   1.284   2.919   0.553  0.0640  0.5035 -0.6143
  571MPD2    C5 8523   1.196   2.814   0.522 -0.0540 -0.0873 -0.0093
  571MPD2     H 8524   1.506   2.888   0.309 -0.4652  0.1856 -0.7237
  571MPD2    H1 8525   1.265   2.966   0.649 -1.3313  1.2820 -1.2833
  571MPD2    H2 8526   1.147   2.668   0.376 -1.1521  0.8051  0.3825
  571MPD2    H3 8527   1.112   2.800   0.589 -0.9310  0.2914 -1.0321
  571MPD2     N 8528   1.481   3.045   0.525 -0.1440 -0.2607 -0.5868
  571MPD2    H5 8529   1.458   3.081   0.617  0.7233 -0.3151 -0.3528
  571MPD2    N1 8530   1.350   2.688   0.206  0.0497  0.3012  0.2351
  571MPD2    H7 8531   1.295   2.603   0.210  0.2390  0.2557  1.7919
  572TMC3    C1 8532   1.651   3.212   0.506 -0.0033  0.0581  0.3073
  572TMC3    C2 8533   1.637   3.241   0.638 -0.1142  0.3792 -0.6567
  572TMC3    C3 8534   1.730   3.327   0.689  0.9252 -0.3872 -0.1671
  572TMC3    C4 8535   1.746   3.264   0.422  0.7582 -0.4541 -0.2647
  572TMC3    C5 8536   1.840   3.342   0.479  0.8723 -1.1454 -0.1450
  572TMC3    C6 8537   1.836   3.369   0.611 -0.4564 -0.1092  0.0324
  572TMC3     C 8538   1.567   3.114   0.440  0.0341 -0.0553  0.4281
  572TMC3     O 8539   1.579   3.108   0.321  0.5445  0.4176 -0.8083
  572TMC3     H 8540   1.585   3.176   0.707  0.9895 -0.0551 -0.2347
  572TMC3    H1 8541   1.751   3.239   0.316  0.0038  0.3012 -0.4830
  572TMC3    H2 8542   1.911   3.441   0.640 -0.9941 -0.4884  2.3746
  572TMC3    C7 8543   1.880   3.450   0.388 -0.5578 -0.4267 -0.8047
  572TMC3    C8 8544   1.707   3.387   0.819 -0.4811  0.6176 -0.9039
  572TMC3    O1 8545   1.816   3.458   0.289 -0.2384  0.8466  0.3555
  572TMC3    O2 8546   1.796   3.469   0.849  0.1306  0.0480  0.4300
  573MPD2     C 8547   2.897   3.739   1.306  0.0273 -0.8698 -0.4922
  573MPD2    C1 8548   2.998   3.633   1.305  0.5014  0.4790 -0.1193
  573MPD2    C2 8549   2.994   3.536   1.210 -0.5017 -0.3937  0.2526
  573MPD2    C3 8550   2.894   3.545   1.109 -0.0483 -0.0460 -0.7546
  573MPD2    C4 8551   2.803   3.647   1.116  0.0428  0.0754 -0.8292
  573MPD2    C5 8552   2.804   3.738   1.209 -0.1530  0.4746 -0.3968
  573MPD2     H 8553   3.067   3.457   1.219  0.2377  0.1225 -1.3201
  573MPD2    H1 8554   2.718   3.664   1.050 -0.4426 -3.2327 -1.0544
  573MPD2    H2 8555   2.896   3.814   1.383  2.8011  0.8808 -2.1533
  573MPD2    H3 8556   2.726   3.813   1.204  0.6024  1.3409  0.9962
  573MPD2     N 8557   2.887   3.460   0.992  0.0749  0.5009 -0.2557
  573MPD2    H5 8558   2.827   3.486   0.914 -2.7649 -0.5341  1.5807
  573MPD2    N1 8559   3.101   3.649   1.393  0.0429  0.0895 -0.0357
  573MPD2    H7 8560   3.099   3.721   1.465  3.5497 -1.1844  1.3318
  574TMC3    C1 8561   2.963   3.333   0.815  0.4590 -0.0079 -0.1439
  574TMC3    C2 8562   2.835   3.351   0.758 -0.9337  0.3593  0.4713
  574TMC3    C3 8563   2.811   3.300   0.633 -0.8653 -0.2419  0.4473
  574TMC3    C4 8564   3.067   3.278   0.739  0.3741 -0.1798  0.3446
  574TMC3    C5 8565   3.030   3.231   0.612  0.1329  0.4316  0.4233
  574TMC3    C6 8566   2.905   3.240   0.560  0.4597 -0.2909 -0.6236
  574TMC3     C 8567   2.994   3.386   0.949  0.7760  0.3019 -0.5490
  574TMC3     O 8568   3.093   3.346   1.004  0.0285 -0.3104 -0.4764
  574TMC3     H 8569   2.750   3.379   0.819 -1.1950 -0.0330  0.2915
  574TMC3    H1 8570   3.168   3.273   0.777  0.2873 -1.4935  0.3760
  574TMC3    H2 8571   2.887   3.201   0.460 -0.9647 -0.4971 -0.2908
  574TMC3    C7 8572   3.127   3.165   0.529  0.2844  0.3937 -0.4543
  574TMC3    C8 8573   2.677   3.297   0.582 -0.6702  0.4923  0.7849
  574TMC3    O1 8574   3.104   3.071   0.454 -0.5748  0.1790  0.7256
  574TMC3    O2 8575   2.590   3.253   0.658 -0.5622  0.2240  0.1701
  575TMC3    C1 8576   0.440   4.565  11.367  0.1700  0.2748  0.3227
  575TMC3    C2 8577   0.464   4.430  11.370  0.3402 -0.0378 -0.6110
  575TMC3    C3 8578   0.470   4.364  11.251  0.0272 -0.0343 -0.0938
  575TMC3    C4 8579   0.402   4.633  11.250  0.5439  0.4100 -0.3705
  575TMC3    C5 8580   0.399   4.553  11.135 -1.0825 -0.1416 -0.7205
  575TMC3    C6 8581   0.432   4.418  11.130  0.0169 -0.1114 -0.4307
  575TMC3     C 8582   0.463   4.632  11.492  0.5327 -0.0414 -0.0527
  575TMC3     O 8583   0.517   4.569  11.580 -0.4577 -0.6345 -0.2868
  575TMC3     H 8584   0.493   4.383  11.463  0.8842  1.5299  0.0090
  575TMC3    H1 8585   0.386   0.002  11.242  1.1086  0.3919 -1.8340
  575TMC3    H2 8586   0.436   4.358  11.040  1.1083  1.4544 -1.4154
  575TMC3    C7 8587   0.341   4.616  11.022 -0.5819 -0.1920  0.1276
  575TMC3    C8 8588   0.506   4.229  11.261  0.5003 -0.7640 -1.2930
  575TMC3    O1 8589   0.325   4.735  11.027  0.7112 -0.8840  0.0858
  575TMC3    O2 8590   0.515   4.184  11.374  0.3795 -0.5531 -0.1046
  576MPD2     C 8591   0.022   0.981  12.611 -0.2532 -0.1189  0.1218
  576MPD2    C1 8592   0.155   1.025  12.625 -0.0308  0.6351 -0.8929
  576MPD2    C2 8593   0.197   1.083  12.745  0.3279  0.3419  0.4770
  576MPD2    C3 8594   0.109   1.105  12.845  0.5586 -0.6436 -0.1195
  576MPD2    C4 8595   4.718   1.055  12.837  0.5585 -0.4991  0.0370
  576MPD2    C5 8596   4.677   0.998  12.719 -0.0482 -1.1915 -0.1416
  576MPD2     H 8597   0.301   1.111  12.757  0.9061 -0.5959 -2.2110
  576MPD2    H1 8598   4.656   1.073  12.924  0.6008 -0.7058  0.1102
  576MPD2    H2 8599   4.720   0.939  12.519  3.0116  0.0666 -1.3839
  576MPD2    H3 8600   4.574   0.964  12.716 -0.9471  1.4725 -0.1526
  576MPD2     N 8601   0.159   1.161  12.965  0.9092  0.7137  0.0082
  576MPD2    H5 8602   0.257   1.185  12.957  1.6305 -2.4781 -0.4323
  576MPD2    N1 8603   0.252   1.017  12.521  0.2757  0.1848 -0.6909
  576MPD2    H7 8604   0.345   1.052  12.540  0.2256  0.2043 -0.4776
  577TMC3    C1 8605   0.322   1.023  12.304  0.2937 -0.0841  0.3425
  577TMC3    C2 8606   0.348   0.951  12.188  0.3759  0.0566 -0.0408
  577TMC3    C3 8607   0.390   1.026  12.079  0.0352 -0.4271 -0.2073
  577TMC3    C4 8608   0.343   1.157  12.319  0.1853  0.1980  0.0432
  577TMC3    C5 8609   0.396   1.225  12.210 -0.3953 -0.3043 -0.6340
  577TMC3    C6 8610   0.426   1.159  12.093 -0.2142 -0.6868 -0.6295
  577TMC3     C 8611   0.230   0.965  12.392 -0.6177  0.1449  0.1660
  577TMC3     O 8612   0.140   0.893  12.341  0.3219 -0.2274  0.5680
  577TMC3     H 8613   0.319   0.848  12.172  2.2179 -0.3121 -1.0174
  577TMC3    H1 8614   0.333   1.204  12.416  0.8364  0.4039  0.0130
  577TMC3    H2 8615   0.459   1.215  12.006  0.7507  1.3521  1.0504
  577TMC3    C7 8616   0.420   1.364  12.230 -0.4880  0.7635 -0.5872
  577TMC3    C8 8617   0.391   0.959  11.956  0.5818 -0.4314  0.4627
  577TMC3    O1 8618   0.481   1.394  12.331 -0.7527 -0.2826  0.1966
  577TMC3    O2 8619   0.311   0.868  11.951 -0.2344 -0.3196  0.3053
  578MPD2     C 8620   3.199   0.963   1.068 -0.2455  0.1382  0.3274
  578MPD2    C1 8621   3.250   0.893   0.962  0.1420  0.3153 -0.0882
  578MPD2    C2 8622   3.374   0.836   0.974  0.2478  0.2446  0.0773
  578MPD2    C3 8623   3.445   0.848   1.093  0.2095  0.6563  1.0430
  578MPD2    C4 8624   3.392   0.908   1.208  0.0472  0.4151 -0.9775
  578MPD2    C5 8625   3.272   0.974   1.190  0.2871  0.1362 -0.6706
  578MPD2     H 8626   3.414   0.788   0.885  1.7156  1.6285 -0.0017
  578MPD2    H1 8627   3.452   0.914   1.298 -0.2110 -2.4437 -0.6085
  578MPD2    H2 8628   3.098   1.005   1.067 -0.5908 -0.7254 -0.6767
  578MPD2    H3 8629   3.224   1.019   1.276 -0.3370  0.1278 -1.0117
  578MPD2     N 8630   3.574   0.800   1.099  0.0287 -0.2237  0.7445
  578MPD2    H5 8631   3.594   0.731   1.028  0.4882 -0.0589  0.7163
  578MPD2    N1 8632   3.191   0.886   0.835 -0.2242  0.1512  0.0052
  578MPD2    H7 8633   3.231   0.826   0.764  0.8732 -0.1722  0.9001
  579TMC3    C1 8634   3.791   0.754   1.166 -0.1340  0.0735  0.3719
  579TMC3    C2 8635   3.899   0.831   1.197  0.5608  0.2328  0.0873
  579TMC3    C3 8636   4.015   0.781   1.146 -0.3031  0.2145 -0.3429
  579TMC3    C4 8637   3.795   0.643   1.089 -0.1859  0.2864  0.0001
  579TMC3    C5 8638   3.916   0.590   1.043 -0.9420 -0.1660  0.1500
  579TMC3    C6 8639   4.030   0.661   1.079 -0.3569  0.4028 -0.2139
  579TMC3     C 8640   3.676   0.837   1.181  0.0409  0.1772  0.1488
  579TMC3     O 8641   3.677   0.923   1.267 -0.4667  0.1134  0.4731
  579TMC3     H 8642   3.897   0.920   1.260  1.3834  0.0969  0.3085
  579TMC3    H1 8643   3.709   0.579   1.105  1.0221 -1.7223 -1.7446
  579TMC3    H2 8644   4.126   0.622   1.045  0.0607  0.6179  0.7218
  579TMC3    C7 8645   3.926   0.453   1.000 -0.0157 -0.0951 -0.3944
  579TMC3    C8 8646   4.136   0.869   1.163 -0.3720 -0.2589  0.4995
  579TMC3    O1 8647   4.037   0.405   1.010 -0.1002  0.2221 -0.0653
  579TMC3    O2 8648   4.110   0.975   1.211  0.4520  0.2468 -0.1866
  580TMC3    C1 8649   3.135   0.532  12.404 -0.3088  0.4484 -0.5745
  580TMC3    C2 8650   3.171   0.655  12.451 -0.8258 -0.3882 -0.4370
  580TMC3    C3 8651   3.302   0.683  12.466  0.3474  0.2941  1.0879
  580TMC3    C4 8652   3.224   0.431  12.402  0.0170  0.3197 -0.3365
  580TMC3    C5 8653   3.354   0.454  12.450 -0.8037 -0.3765 -0.3579
  580TMC3    C6 8654   3.390   0.581  12.491 -0.2471  0.1962  1.0254
  580TMC3     C 8655   3.005   0.535  12.335  0.8507 -0.0689  0.1272
  580TMC3     O 8656   3.003   0.503  12.221 -0.0082 -0.1420  0.2282
  580TMC3     H 8657   3.103   0.739  12.443  0.8686  1.1900  1.8169
  580TMC3    H1 8658   3.185   0.337  12.365 -0.8472  0.7765 -0.5881
  580TMC3    H2 8659   3.495   0.591  12.518  0.8294 -0.8817 -2.7922
  580TMC3    C7 8660   3.444   0.339  12.477 -0.3459 -0.0355 -0.0697
  580TMC3    C8 8661   3.341   0.812  12.441  0.4179  0.2260 -0.1371
  580TMC3    O1 8662   3.494   0.348  12.590 -0.0488  0.2880 -0.1994
  580TMC3    O2 8663   3.277   0.897  12.497  0.2477 -0.3116  0.3523
  581MPD2     C 8664   0.970   4.330  14.606 -0.1739 -0.0252 -0.2046
  581MPD2    C1 8665   0.963   4.387  14.726 -0.2936  0.0115 -0.3646
  581MPD2    C2 8666   0.838   4.441  14.762 -0.4380 -0.1366 -0.6258
  581MPD2    C3 8667   0.727   4.440  14.674 -0.2784 -0.7196  0.1488
  581MPD2    C4 8668   0.743   4.378  14.550 -0.1359  0.3373 -0.7274
  581MPD2    C5 8669   0.862   4.324  14.526  0.3697  0.2458 -0.0777
  581MPD2     H 8670   0.824   4.467  14.866 -3.8772 -0.6702 -0.9345
  581MPD2    H1 8671   0.663   4.355  14.480 -2.6287 -1.8857  2.7843
  581MPD2    H2 8672   1.066   4.285  14.583 -0.0561 -0.0543  0.3225
  581MPD2    H3 8673   0.888   4.270  14.436 -0.3702 -0.0290 -0.1296
  581MPD2     N 8674   0.604   4.502  14.713  0.2579 -0.0814  0.7333
  581MPD2    H5 8675   0.607   4.543  14.806  1.0256 -0.8978  1.0713
  581MPD2    N1 8676   1.084   4.381  14.807  0.3333  0.2088 -0.0374
  581MPD2    H7 8677   1.164   4.329  14.772  0.6962  0.1782  0.8318
  582TMC3    C1 8678   1.199   4.385  15.009 -0.7756 -1.2500  0.1641
  582TMC3    C2 8679   1.180   4.383  15.143  1.0053  0.6874 -0.1329
  582TMC3    C3 8680   1.250   4.290  15.212 -0.3115 -0.8407  1.2692
  582TMC3    C4 8681   1.288   4.303  14.950 -0.1643  0.2981 -0.1106
  582TMC3    C5 8682   1.354   4.205  15.019 -0.1913 -0.9610 -0.7949
  582TMC3    C6 8683   1.341   4.207  15.157 -0.0805  0.5772  0.2995
  582TMC3     C 8684   1.083   4.423  14.937 -0.1688 -0.2396 -0.0737
  582TMC3     O 8685   1.005   4.489  15.001  0.3820  0.3479  0.2262
  582TMC3     H 8686   1.105   4.442  15.194 -0.5629 -0.0815 -1.5541
  582TMC3    H1 8687   1.316   4.318  14.846 -0.8371  1.0639 -0.1776
  582TMC3    H2 8688   1.402   4.136  15.212  0.2790 -0.7368 -1.8193
  582TMC3    C7 8689   1.304   4.084  14.967 -1.1345  0.3466  0.7771
  582TMC3    C8 8690   1.237   4.293  15.355  0.5074 -0.2793  0.1806
  582TMC3    O1 8691   1.267   4.095  14.850 -0.5166 -0.0283  0.8065
  582TMC3    O2 8692   1.153   4.365  15.411 -0.8968 -0.3069 -0.1874
  583MPD2     C 8693   1.138   1.330  17.022 -0.2943 -0.0935  0.0314
  583MPD2    C1 8694   1.138   1.436  16.933 -0.0237 -0.2469  0.0176
  583MPD2    C2 8695   1.066   1.548  16.956  0.6474  0.1349 -0.6217
  583MPD2    C3 8696   0.979   1.557  17.074  0.1746 -0.5041  0.1592
  583MPD2    C4 8697   0.992   1.460  17.167 -0.6976 -0.0918  0.6747
  583MPD2    C5 8698   1.064   1.346  17.138 -0.5272 -0.1799 -0.0950
  583MPD2     H 8699   1.060   1.629  16.884  0.1699 -0.4694 -1.2612
  583MPD2    H1 8700   0.928   1.447  17.254 -0.6239 -0.9282  0.6064
  583MPD2    H2 8701   1.198   1.241  17.009  1.5923  0.7663  2.8453
  583MPD2    H3 8702   1.066   1.269  17.214  0.7276 -0.4532 -0.4156
  583MPD2     N 8703   0.901   1.677  17.088 -0.0671 -0.1149  0.1968
  583MPD2    H5 8704   0.907   1.753  17.022  1.7298 -0.1580  0.3290
  583MPD2    N1 8705   1.212   1.424  16.811 -0.0654 -0.2290 -0.2481
  583MPD2    H7 8706   1.200   1.506  16.751  1.6483  0.7053  0.6838
  584TMC3    C1 8707   0.753   1.839  17.190 -0.2864 -0.0222  0.2461
  584TMC3    C2 8708   0.770   1.932  17.094  0.2621 -0.4653 -1.3204
  584TMC3    C3 8709   0.739   2.063  17.126  0.5383 -0.4148  0.4080
  584TMC3    C4 8710   0.688   1.880  17.312 -0.3553  0.2529 -0.1155
  584TMC3    C5 8711   0.644   2.010  17.323  0.1889  0.7534 -0.1909
  584TMC3    C6 8712   0.663   2.108  17.229  0.0830  0.7298  0.2419
  584TMC3     C 8713   0.810   1.699  17.190 -0.5778 -0.2213  0.0517
  584TMC3     O 8714   0.759   1.623  17.273  0.3247 -0.3777  0.2990
  584TMC3     H 8715   0.818   1.906  17.000  2.2442 -0.1748 -0.3923
  584TMC3    H1 8716   0.681   1.794  17.377 -2.5153  0.0630 -0.5871
  584TMC3    H2 8717   0.650   2.213  17.252 -1.3753  0.4975  0.4648
  584TMC3    C7 8718   0.579   2.049  17.443  0.2871 -0.0561  0.7396
  584TMC3    C8 8719   0.756   2.156  17.022  0.0334 -0.0859  0.3408
  584TMC3    O1 8720   0.583   2.167  17.477  0.1649 -0.0440  0.6085
  584TMC3    O2 8721   0.748   2.115  16.905 -0.3426  0.5008 -0.0405
  585MPD2     C 8722   0.690   0.289   0.553  0.1183  0.2948  0.0051
  585MPD2    C1 8723   0.763   0.270   0.433 -0.0063  0.0593 -0.1200
  585MPD2    C2 8724   0.759   0.143   0.375 -0.0266  0.1068 -0.4420
  585MPD2    C3 8725   0.658   0.056   0.409 -1.0110 -0.3232 -0.3173
  585MPD2    C4 8726   0.579   0.087   0.517  0.5554 -0.0288  0.3666
  585MPD2    C5 8727   0.604   0.193   0.598  0.1564 -0.3510  0.3631
  585MPD2     H 8728   0.820   0.122   0.288 -0.0061  0.7076 -0.5760
  585MPD2    H1 8729   0.500   0.019   0.547  0.8622 -0.6352 -0.1928
  585MPD2    H2 8730   0.687   0.383   0.606 -0.2543  0.0698  0.3794
  585MPD2    H3 8731   0.541   0.207   0.686 -0.5892  1.1649 -0.4003
  585MPD2     N 8732   0.620   4.687   0.329  0.5064 -0.2462 -0.3505
  585MPD2    H5 8733   0.525   4.653   0.345  1.7067 -1.9695  3.2154
  585MPD2    N1 8734   0.841   0.374   0.377  0.2548  0.2735 -0.0980
  585MPD2    H7 8735   0.853   0.465   0.422 -1.6968  0.5102 -0.0430
  586TMC3    C1 8736   0.635   4.548   0.135  0.2407  0.0818 -0.0376
  586TMC3    C2 8737   0.738   4.508   0.052 -0.3859 -0.0850 -0.1835
  586TMC3    C3 8738   0.708   4.487  17.666  0.0404  0.4416 -0.0963
  586TMC3    C4 8739   0.516   4.605   0.093 -0.1195  0.0187  0.0269
  586TMC3    C5 8740   0.503   4.595  17.698 -0.5373  0.3797  0.7876
  586TMC3    C6 8741   0.589   4.534  17.609 -0.0377 -0.3119  0.1813
  586TMC3     C 8742   0.701   4.626   0.239 -0.6120  0.8098 -0.3612
  586TMC3     O 8743   0.819   4.645   0.223  0.1553  0.5857  0.0761
  586TMC3     H 8744   0.826   4.464   0.097  0.1952  1.1322 -0.1100
  586TMC3    H1 8745   0.461   4.669   0.160 -1.4599  0.4836 -1.5097
  586TMC3    H2 8746   0.550   4.514  17.510 -1.6517  0.7803  0.5963
  586TMC3    C7 8747   0.365   4.620  17.648  0.4933 -0.0866 -0.4271
  586TMC3    C8 8748   0.777   4.381  17.601 -0.3611 -0.5641  0.2328
  586TMC3    O1 8749   0.279   4.564  17.719 -0.0629  0.3540  0.1110
  586TMC3    O2 8750   0.848   4.302  17.661 -0.0256 -0.9929 -0.2147
  587TMC3    C1 8751   2.580   3.704  16.440 -0.5088 -0.8956  0.4115
  587TMC3    C2 8752   2.633   3.785  16.535  0.1151  0.2490  0.0298
  587TMC3    C3 8753   2.767   3.768  16.579  0.1146  0.2028  0.4209
  587TMC3    C4 8754   2.656   3.594  16.404 -0.1121  0.4208 -0.6553
  587TMC3    C5 8755   2.789   3.579  16.441  0.4050  0.0150  0.3631
  587TMC3    C6 8756   2.854   3.671  16.525  0.8529 -0.8191 -0.1464
  587TMC3     C 8757   2.435   3.700  16.419 -0.5192 -0.0558  0.9072
  587TMC3     O 8758   2.365   3.759  16.505 -0.0379  0.5048 -0.4475
  587TMC3     H 8759   2.582   3.878  16.557  0.0615  0.1541  0.3058
  587TMC3    H1 8760   2.605   3.523  16.340  0.7138 -0.0629 -0.7824
  587TMC3    H2 8761   2.959   3.668  16.552  0.4747 -1.9014  1.1952
  587TMC3    C7 8762   2.859   3.466  16.385  0.2191 -0.1002 -0.2239
  587TMC3    C8 8763   2.831   3.871  16.653 -0.5517  0.1744 -1.0089
  587TMC3    O1 8764   2.790   3.365  16.365  0.2318  0.4734 -0.0188
  587TMC3    O2 8765   2.949   3.876  16.650  0.3765  0.0861  0.0607
  588TMC3    C1 8766   4.362   2.508  10.045  0.8480  0.2246  0.2654
  588TMC3    C2 8767   4.271   2.425  10.108  0.4055 -0.5718 -0.5337
  588TMC3    C3 8768   4.329   2.354  10.212  0.0726 -1.1214  0.0454
  588TMC3    C4 8769   4.487   2.530  10.081 -0.0457  0.2276  0.7967
  588TMC3    C5 8770   4.546   2.448  10.178 -0.5542  0.0991 -0.1836
  588TMC3    C6 8771   4.462   2.363  10.244 -0.3853  0.0820 -0.4112
  588TMC3     C 8772   4.293   2.633  10.022  0.2923 -1.2389 -0.6145
  588TMC3     O 8773   4.180   2.629   9.981 -0.3026 -0.9136 -0.2886
  588TMC3     H 8774   4.164   2.420  10.089 -0.0636  4.2661  0.8205
  588TMC3    H1 8775   4.552   2.580  10.010 -1.5887  0.7721 -0.2616
  588TMC3    H2 8776   4.496   2.322  10.338 -1.8606  1.5172  0.7674
  588TMC3    C7 8777   4.675   2.476  10.241  0.8089 -0.0097 -0.1829
  588TMC3    C8 8778   4.246   2.244  10.258 -0.6788  0.6319  0.8639
  588TMC3    O1 8779   4.715   2.391  10.321  0.5203  0.5433 -0.4234
  588TMC3    O2 8780   4.127   2.245  10.244 -1.2125 -0.0180 -0.2004
  589TMC3    C1 8781   4.028   3.853   1.240 -0.2108 -0.0700  0.1672
  589TMC3    C2 8782   4.122   3.919   1.309 -0.4811 -0.1064 -0.1756
  589TMC3    C3 8783   4.228   3.841   1.351 -0.6194  0.3181 -0.8759
  589TMC3    C4 8784   4.045   3.724   1.206  0.0939  0.0381  0.1937
  589TMC3    C5 8785   4.148   3.650   1.254  0.3819 -0.0887  0.2625
  589TMC3    C6 8786   4.244   3.709   1.332  0.3438  0.3769  0.6202
  589TMC3     C 8787   3.940   3.920   1.157 -0.1823  0.6470 -0.5743
  589TMC3     O 8788   3.918   3.872   1.043  0.3968  0.0375 -0.2154
  589TMC3     H 8789   4.113   4.025   1.328 -1.3760 -0.2416  0.1557
  589TMC3    H1 8790   3.981   3.670   1.138  0.0468 -0.9053  0.9788
  589TMC3    H2 8791   4.317   3.645   1.381  0.2259 -1.7384 -1.9599
  589TMC3    C7 8792   4.172   3.523   1.189 -0.4987 -0.0528 -0.9213
  589TMC3    C8 8793   4.338   3.917   1.410  0.2578 -0.0855 -0.3924
  589TMC3    O1 8794   4.097   3.490   1.104  0.1792  0.1102 -0.2590
  589TMC3    O2 8795   4.295   4.008   1.484  0.1128  0.0780  1.4797
  590MPD2     C 8796   3.540   2.644  16.714 -0.1945  0.0514  0.5473
  590MPD2    C1 8797   3.498   2.581  16.597 -1.3115 -0.2398 -0.2977
  590MPD2    C2 8798   3.547   2.626  16.472 -0.6456 -0.5775 -0.0090
  590MPD2    C3 8799   3.637   2.729  16.464 -0.0779 -0.0160  0.0318
  590MPD2    C4 8800   3.679   2.786  16.582 -0.4941 -1.0703 -0.7687
  590MPD2    C5 8801   3.630   2.745  16.699 -0.6546  0.0498  0.7998
  590MPD2     H 8802   3.518   2.588  16.376  0.9996  0.8923 -1.0969
  590MPD2    H1 8803   3.742   2.874  16.579 -0.6264 -0.8956  1.5782
  590MPD2    H2 8804   3.489   2.622  16.807 -0.5507  0.0334  0.3511
  590MPD2    H3 8805   3.663   2.799  16.786  1.4121 -0.8944  0.5851
  590MPD2     N 8806   3.683   2.776  16.336  0.1014  0.5042  0.5348
  590MPD2    H5 8807   3.666   2.723  16.251 -1.1396  0.7326  0.6353
  590MPD2    N1 8808   3.406   2.474  16.610  0.3643  0.8441  0.1040
  590MPD2    H7 8809   3.381   2.443  16.703  1.4967  0.5840  0.3326
  591TMC3    C1 8810   3.753   2.914  16.164  0.1980 -0.1626 -0.9461
  591TMC3    C2 8811   3.797   2.797  16.102  0.3347  0.9118  0.7286
  591TMC3    C3 8812   3.812   2.803  15.962 -0.4435 -0.7725 -0.3164
  591TMC3    C4 8813   3.726   3.027  16.100 -0.7781  0.2266  0.1671
  591TMC3    C5 8814   3.746   3.025  15.966  0.7669  0.4123 -0.2318
  591TMC3    C6 8815   3.786   2.917  15.893  0.2489  0.9590 -0.1090
  591TMC3     C 8816   3.718   2.903  16.309  0.0780 -0.1587 -0.4038
  591TMC3     O 8817   3.698   3.012  16.370  0.3216  0.3832  0.4048
  591TMC3     H 8818   3.827   2.708  16.156 -1.4549 -0.7330 -1.0173
  591TMC3    H1 8819   3.692   3.113  16.155  3.8359  1.2503  1.4489
  591TMC3    H2 8820   3.786   2.924  15.785 -1.5527  2.5079  0.0006
  591TMC3    C7 8821   3.759   3.157  15.909  0.3468 -0.3078 -0.4044
  591TMC3    C8 8822   3.838   2.680  15.893 -0.4892 -0.0250 -0.5670
  591TMC3    O1 8823   3.693   3.247  15.962  0.1411 -1.1776 -0.7127
  591TMC3    O2 8824   3.830   2.572  15.956 -0.5060 -0.1625 -0.6726
  592MPD2     C 8825   3.906   4.624  11.732  0.2986  0.3099  0.3159
  592MPD2    C1 8826   3.946   4.674  11.851 -0.5088 -0.5636  0.1789
  592MPD2    C2 8827   3.930   4.597  11.965 -0.8550  0.0768 -0.0077
  592MPD2    C3 8828   3.851   4.486  11.970  0.3566 -0.3744  0.1807
  592MPD2    C4 8829   3.798   4.448  11.847 -0.1030 -0.1703 -0.8409
  592MPD2    C5 8830   3.839   4.512  11.732 -0.5228  0.9620 -0.1952
  592MPD2     H 8831   3.967   4.624  12.064  0.3036  0.1126 -0.4605
  592MPD2    H1 8832   3.749   4.352  11.839 -0.0692 -0.0923 -2.0512
  592MPD2    H2 8833   3.914   4.681  11.641 -2.2891 -0.0716 -0.1430
  592MPD2    H3 8834   3.801   4.469  11.640 -1.1965 -1.0872  1.0197
  592MPD2     N 8835   3.837   4.410  12.087 -0.3109  0.3864  0.4322
  592MPD2    H5 8836   3.887   4.446  12.167  1.9667 -0.9221 -0.4148
  592MPD2    N1 8837   3.996   0.070  11.845  0.2253 -0.0885 -0.5599
  592MPD2    H7 8838   4.004   0.119  11.756 -0.8795 -0.4480 -0.8510
  593TMC3    C1 8839   4.120   0.258  11.935 -1.2056  0.4316  0.5904
  593TMC3    C2 8840   4.165   0.322  12.044 -0.5944  0.1612  0.0208
  593TMC3    C3 8841   4.266   0.415  12.033  0.1440 -0.4152  0.7696
  593TMC3    C4 8842   4.161   0.293  11.806 -0.4807 -0.6340  0.7267
  593TMC3    C5 8843   4.251   0.398  11.797  0.5702 -0.0408 -0.0414
  593TMC3    C6 8844   4.311   0.460  11.907 -0.5426 -0.1419  0.4203
  593TMC3     C 8845   4.058   0.127  11.953  0.0740 -0.3230 -0.0158
  593TMC3     O 8846   4.065   0.081  12.072 -0.4707  0.0795 -0.1967
  593TMC3     H 8847   4.136   0.291  12.143  1.6993 -0.1057  0.6128
  593TMC3    H1 8848   4.125   0.253  11.713  2.1537  0.3413 -0.7142
  593TMC3    H2 8849   4.385   0.540  11.907 -1.7338  0.9710  2.3461
  593TMC3    C7 8850   4.265   0.490  11.685  0.6150  0.6245  0.3332
  593TMC3    C8 8851   4.298   0.496  12.153  0.1964 -0.2824 -0.5640
  593TMC3    O1 8852   4.358   0.571  11.691 -0.0551 -0.1706 -0.4200
  593TMC3    O2 8853   4.233   0.477  12.253 -0.9810  0.0233 -0.8204
  594MPD2     C 8854   2.389   2.871  14.260 -0.4980  0.0780 -0.7276
  594MPD2    C1 8855   2.400   2.911  14.392 -0.5695  0.1121 -0.2304
  594MPD2    C2 8856   2.514   2.980  14.437 -0.9696 -0.0676 -0.1104
  594MPD2    C3 8857   2.605   3.031  14.352 -0.8011 -0.3267  0.2747
  594MPD2    C4 8858   2.589   2.994  14.216  0.4283  0.1283 -0.0128
  594MPD2    C5 8859   2.486   2.915  14.173  0.4201 -0.5811  0.7596
  594MPD2     H 8860   2.512   3.024  14.536  0.2397 -0.9537  0.3103
  594MPD2    H1 8861   2.655   3.027  14.136  0.5439 -0.1328 -0.0280
  594MPD2    H2 8862   2.295   2.837  14.217 -1.0413 -0.8373  1.1782
  594MPD2    H3 8863   2.471   2.903  14.067  1.1828 -1.9687  0.8124
  594MPD2     N 8864   2.701   3.113  14.400 -0.0447 -0.1062  0.5543
  594MPD2    H5 8865   2.730   3.105  14.497  0.3519  0.3773  0.4771
  594MPD2    N1 8866   2.281   2.884  14.473  0.5212 -0.0055  0.0073
  594MPD2    H7 8867   2.198   2.853  14.424  0.9796 -1.0044 -0.1459
  595TMC3    C1 8868   3.101   3.376  14.365  0.0949  0.1323  0.1880
  595TMC3    C2 8869   3.001   3.299  14.304 -0.1884 -0.3503 -0.2937
  595TMC3    C3 8870   2.906   3.242  14.389 -0.1920  0.2238 -0.3805
  595TMC3    C4 8871   3.101   3.417  14.498  0.0830  0.1315  0.4932
  595TMC3    C5 8872   2.999   3.358  14.574  0.4514 -0.4621 -0.1044
  595TMC3    C6 8873   2.907   3.265  14.528 -0.6289 -0.1473 -0.0329
  595TMC3     C 8874   3.218   3.426  14.297  1.6318 -0.6972  0.4476
  595TMC3     O 8875   3.320   3.453  14.358  0.0778  0.4196 -0.3350
  595TMC3     H 8876   3.004   3.264  14.201 -1.2170 -0.7967 -0.1701
  595TMC3    H1 8877   3.173   3.478  14.552 -0.7964  2.2304 -0.7608
  595TMC3    H2 8878   2.830   3.228  14.594 -0.6030 -0.2915 -0.0846
  595TMC3    C7 8879   3.001   3.387  14.718  0.2603  0.0941  0.1639
  595TMC3    C8 8880   2.783   3.194  14.321  0.1183  0.2160 -0.5611
  595TMC3    O1 8881   2.991   3.298  14.802  0.2601  0.1397  0.2582
  595TMC3    O2 8882   2.773   3.230  14.209  0.6516 -0.0228 -0.3411
  596MPD2     C 8883   2.042   1.211  16.922 -0.0005 -0.3879 -0.1576
  596MPD2    C1 8884   2.068   1.339  16.883  0.7023 -0.4027 -0.2728
  596MPD2    C2 8885   2.121   1.348  16.757  0.2651 -0.4387 -0.2797
  596MPD2    C3 8886   2.148   1.233  16.677 -0.1983  0.2351  0.2695
  596MPD2    C4 8887   2.123   1.110  16.724  0.2743 -0.4394  0.1721
  596MPD2    C5 8888   2.065   1.104  16.846  0.7992  0.2547  0.7454
  596MPD2     H 8889   2.152   1.440  16.709  0.3854 -0.5674 -0.4445
  596MPD2    H1 8890   2.143   1.018  16.671  1.3617 -0.4795  0.6648
  596MPD2    H2 8891   2.007   1.189  17.022 -1.9687  0.2032 -0.7117
  596MPD2    H3 8892   2.061   1.012  16.902 -1.2667 -1.7547 -2.6957
  596MPD2     N 8893   2.169   1.248  16.538 -0.5302 -0.3445 -0.6173
  596MPD2    H5 8894   2.173   1.156  16.494 -0.5619 -0.5453 -0.2020
  596MPD2    N1 8895   2.054   1.454  16.963  0.0924  0.0495  0.4118
  596MPD2    H7 8896   2.073   1.537  16.908 -2.1479 -0.3215 -0.9212
  597TMC3    C1 8897   1.964   1.596  17.121 -0.8045 -0.1353 -0.2110
  597TMC3    C2 8898   2.053   1.687  17.068  0.3281  0.6335 -1.0063
  597TMC3    C3 8899   2.026   1.821  17.090 -0.1928  0.8467  0.5676
  597TMC3    C4 8900   1.846   1.625  17.184  0.3740  0.5058 -0.3041
  597TMC3    C5 8901   1.817   1.757  17.192  0.3003 -0.7687  0.3908
  597TMC3    C6 8902   1.913   1.851  17.160 -0.9545 -0.1785 -0.2946
  597TMC3     C 8903   1.985   1.462  17.081 -0.1479  0.5331 -0.0316
  597TMC3     O 8904   1.939   1.376  17.153 -0.0863 -0.3030  0.5057
  597TMC3     H 8905   2.153   1.665  17.033  0.8658  0.8755  0.3661
  597TMC3    H1 8906   1.782   1.546  17.221  0.1014  0.8418 -0.0532
  597TMC3    H2 8907   1.904   1.957  17.181 -0.5809 -0.1573 -0.2369
  597TMC3    C7 8908   1.685   1.794  17.239 -0.3922  0.9095  0.4819
  597TMC3    C8 8909   2.139   1.915  17.075 -0.1538  0.0080 -0.4305
  597TMC3    O1 8910   1.621   1.705  17.291 -0.1074 -0.4379 -0.5356
  597TMC3    O2 8911   2.131   2.011  17.148 -0.4647  0.1396 -0.6798
  598TMC3    C1 8912   0.060   2.483  15.032 -0.1067 -0.0537  0.2031
  598TMC3    C2 8913   4.661   2.466  15.028  0.7478  0.0442 -0.0863
  598TMC3    C3 8914   4.610   2.406  14.915 -0.5055 -0.3123  0.0043
  598TMC3    C4 8915   0.139   2.441  14.925  0.3166 -0.0338  0.0200
  598TMC3    C5 8916   0.081   2.409  14.808  0.4567 -0.1187 -0.2024
  598TMC3    C6 8917   4.690   2.386  14.800  0.4022  0.4872 -0.1926
  598TMC3     C 8918   0.124   2.578  15.121  0.7582 -0.4671 -0.1147
  598TMC3     O 8919   0.212   2.645  15.070 -0.4345 -0.3539 -0.2118
  598TMC3     H 8920   4.591   2.493  15.106  2.5623 -1.5929  2.1422
  598TMC3    H1 8921   0.247   2.451  14.928  0.3597 -1.1563  1.7706
  598TMC3    H2 8922   4.644   2.327  14.722 -1.7230  1.0538  0.6327
  598TMC3    C7 8923   0.100   2.520  14.718  0.3966  1.3621  0.1060
  598TMC3    C8 8924   4.475   2.354  14.921 -0.2098  0.1979 -0.1436
  598TMC3    O1 8925   0.018   2.526  14.631 -0.6639 -0.3081 -0.1084
  598TMC3    O2 8926   4.450   2.285  15.018  0.3602 -0.5521 -0.0946
  599MPD2     C 8927   4.581   0.186  15.837  0.4067  0.4051 -0.3286
  599MPD2    C1 8928   4.618   0.067  15.901  0.1058  0.3382 -0.4790
  599MPD2    C2 8929   4.637   0.073  16.040 -0.6972 -0.3313 -0.1380
  599MPD2    C3 8930   4.616   0.190  16.109 -0.7214  0.2764 -0.4627
  599MPD2    C4 8931   4.591   0.308  16.035  0.6082 -0.1426 -0.0722
  599MPD2    C5 8932   4.580   0.305  15.899  0.4133 -0.8464  0.4257
  599MPD2     H 8933   4.654   4.718  16.093  0.8434 -1.0151 -1.8717
  599MPD2    H1 8934   4.578   0.402  16.087 -0.1019  0.0293 -0.5635
  599MPD2    H2 8935   4.560   0.191  15.730 -2.7309 -1.1241  0.2097
  599MPD2    H3 8936   4.566   0.395  15.841  1.7632 -0.7561  0.2449
  599MPD2     N 8937   4.635   0.207  16.247 -0.3702  0.1499 -0.0630
  599MPD2    H5 8938   4.622   0.303  16.279  1.8210 -0.4558  2.6164
  599MPD2    N1 8939   4.619   4.692  15.816  0.0677 -0.0256  0.3445
  599MPD2    H7 8940   4.613   4.712  15.717 -1.9326  0.8953  0.6481
  600TMC3    C1 8941   4.640   0.150  16.489 -0.0125  0.3282 -0.1091
  600TMC3    C2 8942   4.617   0.045  16.577 -0.3302  0.1464  0.5557
  600TMC3    C3 8943   4.549   0.079  16.690 -0.4849 -0.5193  0.0133
  600TMC3    C4 8944   4.607   0.281  16.517 -0.4710 -0.3273  0.5143
  600TMC3    C5 8945   4.527   0.301  16.633  1.0044  0.0646  0.5994
  600TMC3    C6 8946   4.499   0.199  16.717  0.5593  0.3109  0.5000
  600TMC3     C 8947   4.651   0.109  16.348  0.7606 -0.3051 -0.1665
  600TMC3     O 8948   4.669   4.725  16.339 -0.1666  0.4412 -0.3545
  600TMC3     H 8949   4.632   4.677  16.558 -1.4948  0.2645 -1.0368
  600TMC3    H1 8950   4.628   0.362  16.448  3.0306 -2.6580 -1.1725
  600TMC3    H2 8951   4.447   0.225  16.808  1.6048 -1.8450  1.7076
  600TMC3    C7 8952   4.488   0.430  16.672 -0.6990 -0.7005 -0.2286
  600TMC3    C8 8953   4.495   4.714  16.772  0.2249 -0.1027  0.1729
  600TMC3    O1 8954   4.433   0.435  16.781 -0.1447 -0.1287 -0.4536
  600TMC3    O2 8955   4.567   4.623  16.809  0.4907  0.0470  0.4825
  601MPD2     C 8956   2.221   3.797   0.205 -0.6028  0.2248  0.2674
  601MPD2    C1 8957   2.109   3.749   0.148  0.3590  0.7175 -0.5553
  601MPD2    C2 8958   2.027   3.659   0.222 -0.2204 -0.5290  0.4936
  601MPD2    C3 8959   2.066   3.617   0.349  0.0524 -0.2561  0.3549
  601MPD2    C4 8960   2.177   3.667   0.404  0.4953 -0.1291  0.4242
  601MPD2    C5 8961   2.248   3.766   0.339  0.1083  0.0389  0.4547
  601MPD2     H 8962   1.947   3.604   0.172  0.1919 -1.7539  1.1831
  601MPD2    H1 8963   2.203   3.650   0.508  0.1447 -1.2157  0.3267
  601MPD2    H2 8964   2.283   3.876   0.162  0.1789 -0.7582 -0.4103
  601MPD2    H3 8965   2.326   3.820   0.392 -0.0123 -1.4127  2.1052
  601MPD2     N 8966   1.999   3.513   0.425 -0.0445 -0.1952  0.5408
  601MPD2    H5 8967   2.046   3.488   0.512  1.0252 -0.7570 -0.2000
  601MPD2    N1 8968   2.073   3.785   0.011 -0.0279 -0.2135 -0.3399
  601MPD2    H7 8969   1.986   3.741  17.731 -0.6411 -0.5814  2.0244
  602TMC3    C1 8970   2.071   3.897  17.562 -0.1424  0.1639 -0.3632
  602TMC3    C2 8971   2.086   4.019  17.510 -0.1934 -0.4874 -0.2817
  602TMC3    C3 8972   2.030   4.049  17.384  0.0572 -0.0449  0.7207
  602TMC3    C4 8973   2.023   3.795  17.492  0.7548  0.1721  0.9834
  602TMC3    C5 8974   1.971   3.824  17.370  0.9184  0.1564  0.1155
  602TMC3    C6 8975   1.964   3.947  17.320  0.3420 -0.2344  0.3074
  602TMC3     C 8976   2.146   3.863  17.683 -0.6908  0.0795 -0.2503
  602TMC3     O 8977   2.252   3.922  17.700  0.5484  0.5837  0.0047
  602TMC3     H 8978   2.126   4.101  17.569  0.1171 -1.1358  0.4219
  602TMC3    H1 8979   2.030   3.695  17.532 -1.6607 -0.6425 -0.6209
  602TMC3    H2 8980   1.945   3.957  17.214 -3.2135  0.7069  1.0458
  602TMC3    C7 8981   1.872   3.729  17.328 -0.0683 -0.1538  0.3002
  602TMC3    C8 8982   2.027   4.184  17.335  0.2732 -0.7753 -0.1724
  602TMC3    O1 8983   1.875   3.617  17.378 -0.6275 -0.1707  0.5019
  602TMC3    O2 8984   2.092   4.265  17.404 -0.0633  0.2175 -0.1369
  603TMC3    C1 8985   4.628   4.516  10.893  0.7634 -0.4000 -0.8523
  603TMC3    C2 8986   4.675   4.462  11.008 -0.2698 -0.1029  0.1186
  603TMC3    C3 8987   4.708   4.550  11.109 -0.5329  0.5428  0.6230
  603TMC3    C4 8988   4.616   4.648  10.874 -0.3314  0.0584  0.5088
  603TMC3    C5 8989   4.648   4.733  10.971 -0.6255 -0.2705  0.1010
  603TMC3    C6 8990   4.695   4.692  11.091  0.2555  0.2971  0.4459
  603TMC3     C 8991   4.575   4.421  10.791  0.1864  0.7594 -0.0621
  603TMC3     O 8992   4.622   4.306  10.797 -0.0696 -0.1139  0.3835
  603TMC3     H 8993   4.680   4.356  11.028  2.2228 -0.0302 -0.0966
  603TMC3    H1 8994   4.589   4.690  10.777  1.6183 -2.2809 -1.0409
  603TMC3    H2 8995   4.707   0.028  11.170 -0.1749  0.4465  0.3735
  603TMC3    C7 8996   4.654   0.138  10.939 -0.2447  0.7083  0.2824
  603TMC3    C8 8997   0.027   4.492  11.230  0.6823  0.1711  0.2624
  603TMC3    O1 8998   0.027   0.185  10.971 -0.3706  0.4700  0.0806
  603TMC3    O2 8999   0.075   4.376  11.225 -0.7024 -0.5671 -0.3866
  604MPD2     C 9000   1.004   2.644  16.390 -0.1612  0.7244  0.0760
  604MPD2    C1 9001   0.903   2.590  16.307 -0.3951  0.0156 -0.4416
  604MPD2    C2 9002   0.930   2.520  16.189 -0.8359 -0.3831  0.1983
  604MPD2    C3 9003   1.064   2.494  16.148 -0.3353 -0.1522 -0.0315
  604MPD2    C4 9004   1.164   2.537  16.237 -0.5316  0.4734 -0.0743
  604MPD2    C5 9005   1.127   2.611  16.340 -0.2665 -0.1782  0.0155
  604MPD2     H 9006   0.848   2.489  16.124  0.4971 -0.9994 -1.1871
  604MPD2    H1 9007   1.271   2.523  16.223 -0.7229 -0.6762 -0.4000
  604MPD2    H2 9008   0.999   2.704  16.480 -0.9446 -0.7600  1.0150
  604MPD2    H3 9009   1.207   2.646  16.404  0.8011  0.7740 -1.8557
  604MPD2     N 9010   1.092   2.433  16.028  0.4197 -0.1890  0.3925
  604MPD2    H5 9011   1.016   2.433  15.960 -0.2148  0.7798  1.0948
  604MPD2    N1 9012   0.774   2.615  16.357 -0.4874 -0.7870 -0.0615
  604MPD2    H7 9013   0.770   2.665  16.445  0.1876  0.1239 -0.5508
  605TMC3    C1 9014   0.545   2.629  16.370 -0.2608 -0.7353  0.4619
  605TMC3    C2 9015   0.583   2.652  16.499 -0.0466 -0.2940 -0.0270
  605TMC3    C3 9016   0.537   2.758  16.568  0.3367 -0.5364 -0.2315
  605TMC3    C4 9017   0.456   2.712  16.307  0.4437 -0.3236 -0.6824
  605TMC3    C5 9018   0.401   2.816  16.384  0.9645  0.5652  0.2076
  605TMC3    C6 9019   0.445   2.840  16.508 -0.0094 -0.3911  0.3983
  605TMC3     C 9020   0.659   2.581  16.293 -0.0205  0.6991 -0.2461
  605TMC3     O 9021   0.640   2.530  16.186 -0.1321  0.2459 -0.1615
  605TMC3     H 9022   0.627   2.574  16.560  0.8228 -0.0006 -0.2932
  605TMC3    H1 9023   0.439   2.712  16.200  0.7908  1.6486 -0.7369
  605TMC3    H2 9024   0.405   2.934  16.544  0.3568  0.5551 -1.6805
  605TMC3    C7 9025   0.271   2.868  16.344  0.9213 -0.0163 -0.0137
  605TMC3    C8 9026   0.649   2.819  16.625 -0.9199  0.7383  0.5537
  605TMC3    O1 9027   0.256   2.987  16.371 -0.1700  0.5708  0.1236
  605TMC3    O2 9028   0.755   2.753  16.602 -0.1928  0.1762  0.4411
  606TMC3    C1 9029   2.268   1.169  17.212  0.4908  0.2866 -0.0682
  606TMC3    C2 9030   2.258   1.195  17.344  0.5517 -0.5825 -0.1159
  606TMC3    C3 9031   2.185   1.108  17.419  0.4706  0.2520 -0.3156
  606TMC3    C4 9032   2.219   1.051  17.153  0.0457 -0.1055  0.7030
  606TMC3    C5 9033   2.126   0.980  17.235  0.3149 -0.5507  0.5439
  606TMC3    C6 9034   2.115   1.000  17.370 -0.1740  0.1359  0.0737
  606TMC3     C 9035   2.327   1.273  17.125 -0.5620  0.5053 -0.0847
  606TMC3     O 9036   2.356   1.236  17.015 -0.0782  0.4449 -0.1454
  606TMC3     H 9037   2.326   1.268  17.386  1.5889 -0.0150 -2.7714
  606TMC3    H1 9038   2.217   1.046  17.045 -1.1068 -0.1616  0.7198
  606TMC3    H2 9039   2.083   0.917  17.432 -0.5423  0.2377  0.0225
  606TMC3    C7 9040   2.046   0.877  17.174 -0.8688  0.4754 -0.0297
  606TMC3    C8 9041   2.184   1.124  17.558  0.3552 -0.1283 -0.3631
  606TMC3    O1 9042   2.073   0.845  17.061  0.0850  0.5062 -0.0053
  606TMC3    O2 9043   2.280   1.189  17.612  0.2293 -0.0995  0.0494
  607MPD2     C 9044   4.074   4.038  11.919 -0.1235  0.0904  0.3864
  607MPD2    C1 9045   4.078   4.131  12.013  0.2647  0.2636 -0.0589
  607MPD2    C2 9046   4.060   4.094  12.147 -0.4754 -0.4701 -0.6260
  607MPD2    C3 9047   4.016   3.973  12.183 -0.4076  0.3883 -0.6380
  607MPD2    C4 9048   4.018   3.870  12.088 -0.8820 -0.9094 -0.4834
  607MPD2    C5 9049   4.040   3.907  11.957  0.6222  0.1360 -0.5273
  607MPD2     H 9050   4.080   4.175  12.217  0.0108 -0.4376 -0.8020
  607MPD2    H1 9051   3.996   3.771  12.124 -0.5241 -0.6854  0.3553
  607MPD2    H2 9052   4.092   4.059  11.814 -2.1001  0.8984  0.2145
  607MPD2    H3 9053   4.038   3.826  11.885  3.5487 -0.9208  0.6143
  607MPD2     N 9054   4.005   3.951  12.324 -0.2796 -0.2689 -0.6613
  607MPD2    H5 9055   4.011   4.037  12.377 -0.8564 -0.0435 -0.9554
  607MPD2    N1 9056   4.121   4.259  11.994 -0.4184 -0.3075 -0.5159
  607MPD2    H7 9057   4.128   4.318  12.076 -0.9989 -1.0352  0.0604
  608TMC3    C1 9058   4.235   4.434  11.917  0.2286 -0.0067 -0.9342
  608TMC3    C2 9059   4.306   4.434  12.037  0.4106  0.0176  0.6146
  608TMC3    C3 9060   4.376   4.549  12.064 -0.7972  0.6503 -0.8793
  608TMC3    C4 9061   4.251   4.538  11.828 -0.0669 -0.5868 -0.0532
  608TMC3    C5 9062   4.332   4.644  11.856 -0.0946  0.4030 -0.4763
  608TMC3    C6 9063   4.386   4.657  11.980  0.4023  0.0915 -0.1759
  608TMC3     C 9064   4.160   4.318  11.878 -0.3565 -0.6604 -0.2882
  608TMC3     O 9065   4.156   4.295  11.760 -0.7084  0.0770  0.2939
  608TMC3     H 9066   4.322   4.349  12.103 -2.8879  0.1146  1.5496
  608TMC3    H1 9067   4.191   4.526  11.738  0.7327 -0.8000 -0.5520
  608TMC3    H2 9068   4.437   0.003  12.025  1.4531 -0.3483 -0.5448
  608TMC3    C7 9069   4.354   0.018  11.764 -0.4110  0.1966 -0.2963
  608TMC3    C8 9070   4.387   4.584  12.207  0.1251  0.3685  0.1249
  608TMC3    O1 9071   4.278   0.035  11.671 -0.2802  0.3476 -0.0934
  608TMC3    O2 9072   4.399   4.700  12.241  0.2103 -0.0097  0.0042
  609TMC3    C1 9073   2.217   3.435   9.172 -0.7338  0.1812 -0.3093
  609TMC3    C2 9074   2.211   3.454   9.039  0.0674  0.3154 -0.0613
  609TMC3    C3 9075   2.299   3.390   8.967 -0.3202 -0.1043 -0.4765
  609TMC3    C4 9076   2.300   3.355   9.233  0.2928 -0.3638  0.0071
  609TMC3    C5 9077   2.373   3.271   9.153 -0.3777  0.2297 -0.0217
  609TMC3    C6 9078   2.380   3.293   9.019 -0.3608 -0.6997 -0.0518
  609TMC3     C 9079   2.142   3.517   9.266 -0.4734  0.1921 -0.2982
  609TMC3     O 9080   2.099   3.466   9.366  0.3808 -0.5984 -0.6610
  609TMC3     H 9081   2.125   3.508   9.002 -0.5226 -0.9681 -0.5909
  609TMC3    H1 9082   2.306   3.349   9.341  1.0611  0.6852  0.0237
  609TMC3    H2 9083   2.458   3.253   8.956 -0.6270 -1.4563  0.1074
  609TMC3    C7 9084   2.492   3.211   9.222  0.0572 -0.4973 -0.5071
  609TMC3    C8 9085   2.307   3.407   8.824  0.5351 -0.5260  0.1115
  609TMC3    O1 9086   2.495   3.219   9.344  0.2475  0.3835  0.2041
  609TMC3    O2 9087   2.382   3.337   8.758 -0.3986  0.2203  0.7000
  610TMC3    C1 9088   4.631   4.180  12.917  0.1804  0.4444  0.1228
  610TMC3    C2 9089   4.727   4.215  12.825  0.7991  0.7591  0.0063
  610TMC3    C3 9090   0.108   4.137  12.825  0.1491 -0.1490 -0.6503
  610TMC3    C4 9091   4.637   4.067  12.996 -0.1573 -0.1851  0.7131
  610TMC3    C5 9092   0.007   3.984  12.975  0.1798 -0.1184 -0.5701
  610TMC3    C6 9093   0.125   4.030  12.910  0.7179  0.2547  0.4284
  610TMC3     C 9094   4.518   4.264  12.929  0.1053 -0.1650 -0.8287
  610TMC3     O 9095   4.434   4.225  13.006 -0.4190 -0.2685  0.4947
  610TMC3     H 9096   4.725   4.306  12.766 -1.1327  0.5078 -0.3119
  610TMC3    H1 9097   4.562   4.044  13.071  1.6242 -1.5271  2.0848
  610TMC3    H2 9098   0.218   3.973  12.910  0.3769 -0.3001 -1.2206
  610TMC3    C7 9099   0.012   3.851  13.032 -0.3980 -0.3586  0.0246
  610TMC3    C8 9100   0.220   4.159  12.722  0.4844  0.1384  0.4726
  610TMC3    O1 9101   0.123   3.816  13.067 -0.7547 -0.0369 -0.3418
  610TMC3    O2 9102   0.330   4.104  12.742 -0.3089  0.6743 -0.1979
  611MPD2     C 9103   3.617   0.119   9.994 -0.0601  0.3332 -0.1736
  611MPD2    C1 9104   3.638   0.126  10.127  0.0783 -0.6150 -0.2396
  611MPD2    C2 9105   3.761   0.185  10.168 -0.4851 -0.0776 -0.2749
  611MPD2    C3 9106   3.849   0.233  10.075  0.2436  0.0649  0.7190
  611MPD2    C4 9107   3.820   0.223   9.944  0.6390  0.1517  0.3508
  611MPD2    C5 9108   3.704   0.167   9.899 -0.0811  0.2307  0.2911
  611MPD2     H 9109   3.783   0.201  10.273  1.1604 -1.0215 -0.4788
  611MPD2    H1 9110   3.891   0.272   9.878  0.6594  2.8770  2.3778
  611MPD2    H2 9111   3.530   0.086   9.938  0.5857 -0.4875 -0.6902
  611MPD2    H3 9112   3.679   0.176   9.794  0.5687  2.5905  0.3428
  611MPD2     N 9113   3.957   0.308  10.115 -0.7611 -0.5145 -0.1757
  611MPD2    H5 9114   4.001   0.358  10.038 -2.0473 -2.2950 -2.0503
  611MPD2    N1 9115   3.535   0.080  10.214  0.3178  0.3403 -0.1249
  611MPD2    H7 9116   3.452   0.039  10.172 -0.8558  1.2280  1.3531
  612TMC3    C1 9117   4.076   0.452  10.249 -0.3405  0.1635  0.0434
  612TMC3    C2 9118   4.159   0.469  10.358 -0.3903  0.0336 -0.4599
  612TMC3    C3 9119   4.218   0.589  10.382  0.1917 -0.1901  0.0217
  612TMC3    C4 9120   4.034   0.560  10.179 -0.1953 -0.3337  0.1510
  612TMC3    C5 9121   4.099   0.676  10.206 -0.2410  0.1952  0.6811
  612TMC3    C6 9122   4.195   0.694  10.301  0.5310  0.2908 -0.2953
  612TMC3     C 9123   4.007   0.327  10.240 -0.1325 -0.5553  0.3146
  612TMC3     O 9124   3.994   0.255  10.337  0.3971 -0.6689 -0.7846
  612TMC3     H 9125   4.163   0.386  10.427 -0.4564 -0.5044 -1.1067
  612TMC3    H1 9126   3.962   0.561  10.099  0.6968  2.4509 -0.6335
  612TMC3    H2 9127   4.248   0.787  10.317  0.3074  0.3630  0.0207
  612TMC3    C7 9128   4.064   0.796  10.127  0.0014 -0.1420  0.0690
  612TMC3    C8 9129   4.324   0.605  10.479  0.4125 -0.7184 -0.5279
  612TMC3    O1 9130   4.013   0.778  10.018 -0.4411  0.4441  0.0689
  612TMC3    O2 9131   4.363   0.720  10.497  0.1088  0.6060  0.7467
  613MPD2     C 9132   3.008   0.941  16.673 -0.6417 -0.2536 -0.9735
  613MPD2    C1 9133   3.000   1.050  16.587  0.0087  0.2303  0.2072
  613MPD2    C2 9134   2.942   1.027  16.456  0.4449 -0.3968 -0.3935
  613MPD2    C3 9135   2.911   0.896  16.415  0.0616  0.1528  0.1996
  613MPD2    C4 9136   2.919   0.794  16.509 -0.4056  0.0141  0.5990
  613MPD2    C5 9137   2.971   0.813  16.630  0.2879 -0.1160 -0.2392
  613MPD2     H 9138   2.929   1.109  16.386 -1.7676  0.7918  1.4327
  613MPD2    H1 9139   2.884   0.695  16.480 -3.4118  1.0090  0.8370
  613MPD2    H2 9140   3.057   0.952  16.769  3.3861  0.2168 -3.0845
  613MPD2    H3 9141   2.983   0.733  16.703  0.2163  0.0447 -0.0525
  613MPD2     N 9142   2.864   0.868  16.283  0.7593 -0.0590 -0.3425
  613MPD2    H5 9143   2.858   0.768  16.270 -1.6863 -0.0298  0.5560
  613MPD2    N1 9144   3.060   1.174  16.627  0.0891  0.3347 -0.3299
  613MPD2    H7 9145   3.099   1.174  16.721 -0.7556 -1.1816  0.0048
  614TMC3    C1 9146   3.149   1.390  16.600  0.3237 -0.4754 -0.0985
  614TMC3    C2 9147   3.261   1.312  16.626 -0.2751 -0.4322 -0.0806
  614TMC3    C3 9148   3.356   1.305  16.525 -0.1570  0.3511  0.0697
  614TMC3    C4 9149   3.147   1.484  16.498 -0.1398 -0.1928  0.2744
  614TMC3    C5 9150   3.241   1.468  16.399  0.1938 -0.5376  0.1287
  614TMC3    C6 9151   3.345   1.378  16.414 -0.4201 -0.3602 -0.2508
  614TMC3     C 9152   3.046   1.294  16.563 -0.3797  0.0282  0.3710
  614TMC3     O 9153   2.973   1.310  16.464  0.3455  0.3185  0.2809
  614TMC3     H 9154   3.270   1.243  16.709 -1.8244 -1.5595 -0.8409
  614TMC3    H1 9155   3.066   1.551  16.473  1.2740  1.1018 -0.8169
  614TMC3    H2 9156   3.422   1.360  16.339 -1.0857 -0.2870 -0.9531
  614TMC3    C7 9157   3.268   1.576  16.318 -0.3233 -0.7316  0.2572
  614TMC3    C8 9158   3.421   1.169  16.508 -0.1314  0.7182  0.3664
  614TMC3    O1 9159   3.236   1.689  16.354  0.6193  0.0893 -0.1527
  614TMC3    O2 9160   3.428   1.114  16.617 -0.9293 -0.1087  0.0922
  615MPD2     C 9161   2.652   2.703  15.945  0.3463  0.6761 -0.5296
  615MPD2    C1 9162   2.552   2.775  16.011 -0.5661  0.3313  0.7329
  615MPD2    C2 9163   2.448   2.823  15.931  0.2401  0.4303  0.2276
  615MPD2    C3 9164   2.459   2.835  15.791 -0.0059  0.1762  0.4038
  615MPD2    C4 9165   2.571   2.788  15.728  0.4670  0.1970  0.6292
  615MPD2    C5 9166   2.659   2.711  15.804 -0.6528 -0.0082  0.0618
  615MPD2     H 9167   2.372   2.877  15.986  0.2418  0.7662 -0.0976
  615MPD2    H1 9168   2.576   2.796  15.620 -1.0446 -0.3584  0.5128
  615MPD2    H2 9169   2.721   2.636  15.995 -1.0527 -0.7590 -0.5018
  615MPD2    H3 9170   2.736   2.655  15.751  1.7088 -0.0421  3.5050
  615MPD2     N 9171   2.364   2.900  15.709 -0.1302  0.8610  0.5412
  615MPD2    H5 9172   2.382   2.920  15.612 -0.3060 -0.4725  0.2357
  615MPD2    N1 9173   2.548   2.803  16.145 -0.1246  0.4464 -0.1597
  615MPD2    H7 9174   2.470   2.862  16.172 -0.8068 -0.5367  0.0146
  616TMC3    C1 9175   2.645   2.846  16.359 -1.0961 -0.5176  0.2282
  616TMC3    C2 9176   2.763   2.879  16.424 -0.4737 -0.3117 -0.5317
  616TMC3    C3 9177   2.764   2.951  16.545 -1.2304 -1.4445  0.3540
  616TMC3    C4 9178   2.526   2.889  16.410 -0.1362  0.3601  0.1819
  616TMC3    C5 9179   2.531   2.945  16.535  0.5583  0.5191 -0.2231
  616TMC3    C6 9180   2.643   2.982  16.602 -0.1201 -0.1516  0.1062
  616TMC3     C 9181   2.648   2.773  16.234 -0.3820 -0.1059  0.1329
  616TMC3     O 9182   2.749   2.704  16.219  0.4598  0.3221  0.3944
  616TMC3     H 9183   2.858   2.854  16.379  0.1923  1.2393  0.0444
  616TMC3    H1 9184   2.433   2.855  16.367  0.0701 -0.3710  0.3163
  616TMC3    H2 9185   2.635   3.046  16.690  1.0244 -0.4455  0.4164
  616TMC3    C7 9186   2.413   2.985  16.607  0.1233  0.8556 -0.1205
  616TMC3    C8 9187   2.887   3.029  16.576  0.4104 -0.5568  0.4865
  616TMC3    O1 9188   2.433   3.022  16.723 -0.0710  0.4375 -0.4917
  616TMC3    O2 9189   2.987   2.984  16.520  0.1529  0.4891  0.1424
  617MPD2     C 9190   0.518   1.151  13.979  0.2843 -0.0498  0.0688
  617MPD2    C1 9191   0.522   1.033  14.062 -0.0386 -0.0116  0.5082
  617MPD2    C2 9192   0.417   1.008  14.151  0.5225 -0.2555  0.3947
  617MPD2    C3 9193   0.311   1.097  14.162 -0.3608  0.5214  0.0688
  617MPD2    C4 9194   0.307   1.205  14.077  0.0902  1.1153  0.5590
  617MPD2    C5 9195   0.408   1.230  13.989  0.1062  0.3425 -0.2367
  617MPD2     H 9196   0.425   0.921  14.215 -0.6069 -1.3124 -0.9227
  617MPD2    H1 9197   0.218   1.267  14.075 -1.0569 -0.5232  1.2081
  617MPD2    H2 9198   0.588   1.175  13.900 -0.2792  0.5709 -0.2466
  617MPD2    H3 9199   0.416   1.320  13.931 -1.1361  0.4843 -0.1962
  617MPD2     N 9200   0.205   1.086  14.257  0.1514  0.9219  0.6678
  617MPD2    H5 9201   0.128   1.149  14.237  0.0439 -0.0050 -1.9381
  617MPD2    N1 9202   0.625   0.943  14.024  0.1666  0.5566 -0.4458
  617MPD2    H7 9203   0.681   0.973  13.945  1.3872 -0.9310 -0.1519
  618TMC3    C1 9204   0.766   0.749  14.029  0.3909  0.0662 -0.7865
  618TMC3    C2 9205   0.844   0.663  14.106  0.6379 -0.3985  0.4255
  618TMC3    C3 9206   0.936   0.589  14.043  0.0814  0.4824  0.6659
  618TMC3    C4 9207   0.780   0.760  13.894  0.1002  0.3600 -0.1437
  618TMC3    C5 9208   0.870   0.676  13.832  0.3572  0.2926  0.3616
  618TMC3    C6 9209   0.943   0.591  13.904  0.3096 -0.3211  0.1581
  618TMC3     C 9210   0.660   0.824  14.091 -0.8667  0.2418  0.2173
  618TMC3     O 9211   0.627   0.788  14.205  0.1331 -0.3179 -0.2508
  618TMC3     H 9212   0.827   0.660  14.213  2.1803 -1.9928  0.6326
  618TMC3    H1 9213   0.710   0.814  13.831 -1.1431  0.5520  1.3761
  618TMC3    H2 9214   1.024   0.544  13.850 -0.3531 -1.8829  0.5390
  618TMC3    C7 9215   0.873   0.656  13.684  0.2939 -0.2855  0.6901
  618TMC3    C8 9216   0.989   0.475  14.118  0.0510 -0.0342 -0.0672
  618TMC3    O1 9217   0.955   0.575  13.639 -0.2431 -0.0715  0.3891
  618TMC3    O2 9218   0.952   0.459  14.234  0.1184 -0.0498 -0.4026
  619MPD2     C 9219   2.074   2.102  13.452 -0.2080  0.0624 -0.3789
  619MPD2    C1 9220   1.964   2.152  13.388  0.9156  0.0589  0.3497
  619MPD2    C2 9221   1.837   2.113  13.429  0.1177  0.2810  0.1150
  619MPD2    C3 9222   1.823   2.027  13.533 -0.6194  0.2941  0.4215
  619MPD2    C4 9223   1.941   1.973  13.590 -0.1950  0.4259 -0.5126
  619MPD2    C5 9224   2.060   2.001  13.541 -0.2186 -1.1239 -0.3102
  619MPD2     H 9225   1.752   2.154  13.376 -0.9738 -0.8392  0.9867
  619MPD2    H1 9226   1.939   1.905  13.674  1.2992  0.7523 -0.2103
  619MPD2    H2 9227   2.167   2.122  13.401 -0.8228  0.9120 -1.1709
  619MPD2    H3 9228   2.144   1.951  13.588 -0.0045 -1.4102 -1.0049
  619MPD2     N 9229   1.700   1.992  13.583 -0.7152  0.0523 -0.3848
  619MPD2    H5 9230   1.703   1.937  13.668 -0.0244  1.2631  0.3748
  619MPD2    N1 9231   1.975   2.255  13.290 -0.1080 -0.6668  0.3762
  619MPD2    H7 9232   1.888   2.289  13.251 -0.0267 -0.2944  0.5212
  620TMC3    C1 9233   2.038   2.436  13.165 -0.4239  0.1527 -0.1729
  620TMC3    C2 9234   1.927   2.403  13.090  0.0478  0.0475 -0.1088
  620TMC3    C3 9235   1.837   2.500  13.063  0.1023 -0.6276  0.4558
  620TMC3    C4 9236   2.051   2.567  13.196  0.4135  0.4125 -0.0122
  620TMC3    C5 9237   1.952   2.658  13.182  0.3308  0.5564  0.2472
  620TMC3    C6 9238   1.846   2.631  13.098  0.2748  0.8005 -0.9277
  620TMC3     C 9239   2.084   2.336  13.265  0.0471 -0.7183 -0.6336
  620TMC3     O 9240   2.192   2.350  13.320  0.0753 -0.1089 -0.2624
  620TMC3     H 9241   1.905   2.303  13.056 -3.7053  1.1288 -0.8295
  620TMC3    H1 9242   2.135   2.599  13.258  1.2899  0.0113 -0.9845
  620TMC3    H2 9243   1.775   2.707  13.068 -0.5406 -0.4394 -2.1396
  620TMC3    C7 9244   1.911   2.708  13.311  0.8207 -0.2794 -0.3839
  620TMC3    C8 9245   1.715   2.437  13.103  0.1651  0.1418 -0.2847
  620TMC3    O1 9246   1.995   2.719  13.398 -0.6639 -0.3006  0.2251
  620TMC3    O2 9247   1.731   2.345  13.179 -0.4702  0.3812 -0.1382
  621MPD2     C 9248   2.100   2.573  10.284 -0.7175 -0.2532  0.1349
  621MPD2    C1 9249   2.085   2.591  10.149 -0.1804 -0.6741  1.2875
  621MPD2    C2 9250   2.137   2.705  10.091 -0.5197 -0.4610  0.2315
  621MPD2    C3 9251   2.217   2.794  10.169  0.0229 -0.7490 -0.3162
  621MPD2    C4 9252   2.244   2.769  10.303 -0.0848  0.6408  0.8396
  621MPD2    C5 9253   2.178   2.656  10.359 -0.3874 -0.0000 -0.0688
  621MPD2     H 9254   2.133   2.737   9.988  1.0135 -0.9661  0.0085
  621MPD2    H1 9255   2.317   2.811  10.372  0.6513  2.3898 -1.0109
  621MPD2    H2 9256   2.072   2.479  10.330 -0.2272 -0.7329 -0.5505
  621MPD2    H3 9257   2.193   2.635  10.464 -2.1879 -0.9668 -0.0141
  621MPD2     N 9258   2.282   2.897  10.094  0.2776 -0.4634  0.1347
  621MPD2    H5 9259   2.247   2.906   9.999 -0.6187  0.2529  0.5257
  621MPD2    N1 9260   2.015   2.501  10.056 -0.5379 -0.5320 -0.3884
  621MPD2    H7 9261   2.011   2.531   9.960  0.8956  0.5361 -0.1167
  622TMC3    C1 9262   1.837   2.363   9.996 -0.3355  0.2812  0.3880
  622TMC3    C2 9263   1.712   2.346  10.041  0.0395  0.3700 -0.3102
  622TMC3    C3 9264   1.613   2.327   9.948 -0.5699 -0.0072 -0.2999
  622TMC3    C4 9265   1.865   2.390   9.864  0.4698 -0.2956 -0.1128
  622TMC3    C5 9266   1.759   2.387   9.778  0.4974 -0.2506  0.6575
  622TMC3    C6 9267   1.630   2.352   9.810 -0.3022 -0.9149 -1.1007
  622TMC3     C 9268   1.934   2.396  10.096  0.9036 -0.2149 -0.8578
  622TMC3     O 9269   1.908   2.364  10.211 -0.0750 -0.1904 -0.3392
  622TMC3     H 9270   1.693   2.324  10.146  1.5704  1.0161  0.0913
  622TMC3    H1 9271   1.968   2.389   9.828  0.2862  0.2257 -0.6407
  622TMC3    H2 9272   1.549   2.348   9.738 -0.8828  0.0618 -0.5072
  622TMC3    C7 9273   1.791   2.422   9.638  0.1069 -0.5737  0.2048
  622TMC3    C8 9274   1.475   2.339   9.989  0.9553  0.8322  0.6628
  622TMC3    O1 9275   1.784   2.335   9.553 -0.6138 -0.6160  0.3884
  622TMC3    O2 9276   1.386   2.334   9.906  0.7823  0.1052  0.3581
  623MPD2     C 9277   1.175   2.760  15.740 -0.1637 -0.7365  0.0861
  623MPD2    C1 9278   1.082   2.758  15.842 -0.5292  0.1070  0.7556
  623MPD2    C2 9279   1.112   2.793  15.971  0.2437  0.3604 -0.6922
  623MPD2    C3 9280   1.238   2.819  16.004  0.4613 -0.5670 -0.2064
  623MPD2    C4 9281   1.334   2.811  15.905  0.0590  0.4047  0.3877
  623MPD2    C5 9282   1.305   2.782  15.775 -0.1624  0.4261  0.8802
  623MPD2     H 9283   1.037   2.795  16.049 -0.7254 -2.4195 -1.5727
  623MPD2    H1 9284   1.438   2.821  15.933  0.9545 -0.3661 -2.6342
  623MPD2    H2 9285   1.158   2.747  15.633  0.4118 -0.3573 -0.0490
  623MPD2    H3 9286   1.378   2.784  15.695  0.4760 -2.2261  1.3958
  623MPD2     N 9287   1.268   2.861  16.137 -0.0142  0.0506  0.2459
  623MPD2    H5 9288   1.185   2.859  16.196  0.5934 -0.9262  1.0699
  623MPD2    N1 9289   0.944   2.736  15.806  0.3738 -0.0308 -0.0862
  623MPD2    H7 9290   0.873   2.754  15.877  0.1768 -0.4482 -0.1750
  624TMC3    C1 9291   1.469   2.906  16.548  0.5847  0.3787  0.7894
  624TMC3    C2 9292   1.369   2.987  16.601  0.9569  0.8286 -0.6339
  624TMC3    C3 9293   1.273   3.026  16.514 -0.4593 -0.2436 -0.1376
  624TMC3    C4 9294   1.483   2.884  16.413 -0.1414  0.3993  0.6190
  624TMC3    C5 9295   1.380   2.919  16.331 -0.0084 -0.5057 -0.2996
  624TMC3    C6 9296   1.283   3.000  16.380 -0.3220  0.5707 -0.3174
  624TMC3     C 9297   1.574   2.875  16.642 -0.5152  0.1415  0.1880
  624TMC3     O 9298   1.593   2.955  16.734  0.1468 -0.1185 -0.3682
  624TMC3     H 9299   1.349   2.995  16.708  0.5524 -2.3879 -0.4769
  624TMC3    H1 9300   1.569   2.824  16.387  1.2726  2.0060  1.5520
  624TMC3    H2 9301   1.191   3.026  16.329 -1.1372  0.7381  1.2371
  624TMC3    C7 9302   1.393   2.886  16.191 -0.1251  0.2797 -0.3078
  624TMC3    C8 9303   1.138   3.019  16.555 -0.3542  0.2828 -0.1372
  624TMC3    O1 9304   1.502   2.897  16.135  0.4800 -0.3752 -0.2520
  624TMC3    O2 9305   1.083   2.919  16.511 -0.1190  0.1890  0.0642
  625MPD2     C 9306   2.158   3.864   0.701 -0.3815 -0.7553  0.0357
  625MPD2    C1 9307   2.165   3.997   0.737  0.6653  0.3659 -0.1808
  625MPD2    C2 9308   2.277   4.045   0.807 -0.5326  0.1796  0.0318
  625MPD2    C3 9309   2.374   3.958   0.854  0.5638  0.3280 -0.1754
  625MPD2    C4 9310   2.361   3.826   0.824 -0.7833  0.5533 -0.0696
  625MPD2    C5 9311   2.257   3.784   0.751 -0.3846 -0.2431  0.1571
  625MPD2     H 9312   2.291   4.152   0.820  1.3211  0.1277 -1.7172
  625MPD2    H1 9313   2.419   3.746   0.869 -0.7575  0.7990  0.3418
  625MPD2    H2 9314   2.077   3.826   0.640 -3.7156 -0.3732  4.2283
  625MPD2    H3 9315   2.249   3.680   0.722 -0.7446 -0.3371  0.5763
  625MPD2     N 9316   2.480   4.015   0.935  0.2118 -0.6645  0.0934
  625MPD2    H5 9317   2.476   4.114   0.956  1.8041 -0.4427 -0.5729
  625MPD2    N1 9318   2.066   4.092   0.706 -0.0950  0.1609 -0.4620
  625MPD2    H7 9319   2.086   4.185   0.740  1.9699 -0.7345  0.8121
  626TMC3    C1 9320   1.887   4.209   0.633 -0.2923 -0.0567 -0.2196
  626TMC3    C2 9321   1.792   4.238   0.537 -0.5268 -0.9511  0.1499
  626TMC3    C3 9322   1.735   4.360   0.533  0.0109 -0.3184  0.7815
  626TMC3    C4 9323   1.898   4.295   0.738  0.4313 -0.2762 -0.1298
  626TMC3    C5 9324   1.835   4.409   0.739  0.1994 -0.3243 -0.7672
  626TMC3    C6 9325   1.752   4.453   0.637 -0.0225  0.2699  0.1965
  626TMC3     C 9326   1.956   4.077   0.631 -0.0648  0.3425  0.7130
  626TMC3     O 9327   1.911   3.982   0.559 -0.2993  0.0713  0.4385
  626TMC3     H 9328   1.782   4.155   0.467  1.7918 -0.1856 -1.1033
  626TMC3    H1 9329   1.954   4.263   0.825 -1.4229 -2.8407  0.1143
  626TMC3    H2 9330   1.729   4.559   0.638 -1.8065 -0.1198  1.2042
  626TMC3    C7 9331   1.896   4.506   0.827 -0.1675 -0.2116  0.3728
  626TMC3    C8 9332   1.643   4.396   0.430  0.1468 -0.4919 -0.7682
  626TMC3    O1 9333   2.008   4.487   0.859  0.4794 -0.0243 -0.3988
  626TMC3    O2 9334   1.627   4.517   0.419 -0.1878  0.0236 -0.2304
  627MPD2     C 9335   4.555   4.476  14.464  0.0122 -0.1531  0.0782
  627MPD2    C1 9336   4.625   4.405  14.557 -0.1197  0.0850  0.1022
  627MPD2    C2 9337   4.599   4.268  14.561  0.3757  0.0084  0.0585
  627MPD2    C3 9338   4.507   4.206  14.477 -1.5005 -0.3263 -1.0131
  627MPD2    C4 9339   4.430   4.283  14.394 -0.2423 -0.2114 -1.0320
  627MPD2    C5 9340   4.457   4.418  14.382 -0.0069 -0.3004  0.7541
  627MPD2     H 9341   4.658   4.209  14.631 -1.0640 -2.0614 -0.4855
  627MPD2    H1 9342   4.346   4.250  14.334 -1.9960  1.0890  0.6820
  627MPD2    H2 9343   4.581   4.580  14.453 -0.7381  0.0439  0.1658
  627MPD2    H3 9344   4.396   4.479  14.317 -1.0520  1.4210  3.3636
  627MPD2     N 9345   4.484   4.068  14.485 -0.6083  0.1406 -0.5588
  627MPD2    H5 9346   4.534   4.012  14.554  0.7067  2.1491  0.1156
  627MPD2    N1 9347   4.736   4.458  14.628  0.4416  0.6435 -0.6183
  627MPD2    H7 9348   0.070   4.397  14.668  1.5277  2.2143 -0.1452
  628TMC3    C1 9349   0.142   4.616  14.708 -0.0596 -0.2674 -0.6724
  628TMC3    C2 9350   0.251   4.535  14.669  0.0190 -0.5300 -0.0931
  628TMC3    C3 9351   0.377   4.569  14.711  0.9012 -0.4963 -0.4882
  628TMC3    C4 9352   0.158   4.731  14.772  0.5220 -0.8225 -0.1904
  628TMC3    C5 9353   0.287   0.020  14.816 -0.3120  0.8202  0.0618
  628TMC3    C6 9354   0.395   4.674  14.792 -0.1413  0.1138 -0.0667
  628TMC3     C 9355   0.016   4.588  14.653  0.4035 -0.3078 -0.4411
  628TMC3     O 9356   4.670   4.677  14.644 -0.2307 -0.5200  0.2864
  628TMC3     H 9357   0.240   4.455  14.596  0.9095 -0.3726 -0.4006
  628TMC3    H1 9358   0.075   0.062  14.788  0.9967 -0.0509 -1.0468
  628TMC3    H2 9359   0.498   4.703  14.810  0.9856 -2.2133 -2.6504
  628TMC3    C7 9360   0.313   0.158  14.860 -0.2297  0.1332 -0.6083
  628TMC3    C8 9361   0.484   4.503  14.640  0.5716 -0.3506  0.1937
  628TMC3    O1 9362   0.424   0.180  14.902  0.2165  0.0381  0.5373
  628TMC3    O2 9363   0.465   4.446  14.531  0.3255  0.6080 -0.1620
  629MPD2     C 9364   3.137   3.448  16.736  0.6777 -0.6110 -0.3219
  629MPD2    C1 9365   3.188   3.325  16.689  0.4221  0.4779 -0.6663
  629MPD2    C2 9366   3.097   3.218  16.669  0.2907  0.0526 -0.4007
  629MPD2    C3 9367   2.958   3.239  16.672 -0.1215  0.0350  0.2089
  629MPD2    C4 9368   2.914   3.355  16.719 -0.9882  0.0238 -0.1423
  629MPD2    C5 9369   3.004   3.456  16.757 -0.3550 -0.3748 -0.6308
  629MPD2     H 9370   3.141   3.129  16.625 -1.7274 -0.3988 -1.4797
  629MPD2    H1 9371   2.809   3.377  16.736 -1.7242 -0.2450 -4.2985
  629MPD2    H2 9372   3.218   3.516  16.758 -1.5750  1.0716  2.7581
  629MPD2    H3 9373   2.957   3.549  16.787 -0.2068  0.0833 -1.8436
  629MPD2     N 9374   2.861   3.151  16.628 -0.0385 -0.7243 -0.1931
  629MPD2    H5 9375   2.766   3.187  16.626  0.2237  0.0548  0.8872
  629MPD2    N1 9376   3.322   3.322  16.658 -0.5762  0.0994 -0.1801
  629MPD2    H7 9377   3.379   3.406  16.646  0.9074 -0.7126  1.2223
  630TMC3    C1 9378   3.525   3.237  16.579  0.3247  0.6129 -0.5574
  630TMC3    C2 9379   3.539   3.349  16.504  0.3191  0.4348 -0.4033
  630TMC3    C3 9380   3.668   3.395  16.487 -0.2771  0.2280 -0.6810
  630TMC3    C4 9381   3.627   3.164  16.631  0.0556  0.4571 -0.1116
  630TMC3    C5 9382   3.751   3.223  16.626  0.8326  0.0667 -0.4058
  630TMC3    C6 9383   3.773   3.329  16.541  0.1984  0.6705  0.8409
  630TMC3     C 9384   3.394   3.209  16.627  0.2189 -0.1288 -0.2857
  630TMC3     O 9385   3.373   3.090  16.653 -0.1150 -0.0541 -0.0223
  630TMC3     H 9386   3.448   3.397  16.470 -1.2062 -2.1726  0.0078
  630TMC3    H1 9387   3.611   3.078  16.696 -0.3779  0.8788  0.3380
  630TMC3    H2 9388   3.873   3.370  16.535  0.4168 -0.2839 -2.0191
  630TMC3    C7 9389   3.839   3.190  16.732  0.2063 -0.2013  0.1267
  630TMC3    C8 9390   3.708   3.518  16.419 -0.9044 -0.0030  0.5152
  630TMC3    O1 9391   3.826   3.086  16.793  0.1437  0.1097  0.3222
  630TMC3    O2 9392   3.810   3.573  16.463 -0.0591  0.3494  0.4172
  631MPD2     C 9393   1.461   3.288  15.811 -0.2438 -1.0285  0.5511
  631MPD2    C1 9394   1.517   3.361  15.712 -0.9239  0.2154 -0.0471
  631MPD2    C2 9395   1.612   3.293  15.634  0.5909  0.1130 -0.1898
  631MPD2    C3 9396   1.659   3.163  15.663 -0.5003  0.1682 -0.3457
  631MPD2    C4 9397   1.594   3.096  15.763 -0.0199 -1.0258  0.2105
  631MPD2    C5 9398   1.492   3.160  15.831 -0.1430  0.3814  0.1853
  631MPD2     H 9399   1.664   3.353  15.560  0.0332  3.3413  2.0645
  631MPD2    H1 9400   1.615   3.001  15.811 -0.5703 -1.7090 -0.8934
  631MPD2    H2 9401   1.374   3.324  15.866 -0.7685 -1.0370 -0.2708
  631MPD2    H3 9402   1.449   3.109  15.917 -1.2828  2.2073  0.7066
  631MPD2     N 9403   1.767   3.111  15.589  0.1412 -0.0118  0.1243
  631MPD2    H5 9404   1.819   3.174  15.528 -3.4114  2.4739 -0.3704
  631MPD2    N1 9405   1.480   3.488  15.672  0.2730  1.1017  0.0510
  631MPD2    H7 9406   1.517   3.524  15.584  0.3201 -0.6886 -0.6446
  632TMC3    C1 9407   1.354   3.690  15.676 -0.5236 -1.2756  0.2750
  632TMC3    C2 9408   1.227   3.742  15.704 -0.1437  0.2723 -0.8921
  632TMC3    C3 9409   1.192   3.849  15.628 -0.5822  0.0565  0.2626
  632TMC3    C4 9410   1.430   3.739  15.565  0.1972 -0.1253  0.3251
  632TMC3    C5 9411   1.392   3.857  15.501  0.5171 -0.1849 -0.0935
  632TMC3    C6 9412   1.269   3.906  15.533 -0.0994 -0.8350  0.1133
  632TMC3     C 9413   1.381   3.560  15.729  0.5031  0.8807  0.4228
  632TMC3     O 9414   1.323   3.533  15.834  0.0263 -0.3919  0.4857
  632TMC3     H 9415   1.175   3.714  15.795  1.7574 -0.9873 -0.1970
  632TMC3    H1 9416   1.532   3.705  15.552 -0.1570 -1.5814  1.3139
  632TMC3    H2 9417   1.233   3.992  15.477 -0.6989 -1.5942 -0.6660
  632TMC3    C7 9418   1.452   3.883  15.373  0.1313  0.4998  0.2575
  632TMC3    C8 9419   1.053   3.861  15.603 -0.1414 -0.1657  0.5386
  632TMC3    O1 9420   1.386   3.923  15.276 -0.2400 -0.0807  0.4814
  632TMC3    O2 9421   1.014   3.963  15.549 -0.2345 -0.1822  0.2003
  633MPD2     C 9422   1.281   1.446  17.612 -0.4546  0.5644  0.4042
  633MPD2    C1 9423   1.272   1.360  17.496  0.2763  0.0072  0.9428
  633MPD2    C2 9424   1.262   1.222  17.523 -0.0790 -0.2447  0.1360
  633MPD2    C3 9425   1.247   1.171  17.657 -0.4069  0.3934 -0.4167
  633MPD2    C4 9426   1.248   1.264   0.016 -1.1304  0.7922 -0.8792
  633MPD2    C5 9427   1.258   1.396  17.735 -0.1327 -0.3092 -0.6439
  633MPD2     H 9428   1.271   1.152  17.441 -0.2574 -2.7547  2.2364
  633MPD2    H1 9429   1.231   1.236   0.119  1.4139 -3.9381 -1.7048
  633MPD2    H2 9430   1.288   1.554  17.601 -1.7939  0.7456  1.3584
  633MPD2    H3 9431   1.267   1.460   0.074 -0.1664  1.4542 -1.9307
  633MPD2     N 9432   1.232   1.030  17.680  0.3277 -1.1734  0.4061
  633MPD2    H5 9433   1.250   0.995   0.025 -0.6156  1.2400  1.4776
  633MPD2    N1 9434   1.307   1.404  17.365  0.2785 -0.2057  0.3219
  633MPD2    H7 9435   1.321   1.335  17.292  0.5094  0.9966 -0.7660
  634TMC3    C1 9436   1.379   1.543  17.196  0.3103  0.4839 -0.2755
  634TMC3    C2 9437   1.480   1.449  17.164  0.0745 -0.3616  0.4998
  634TMC3    C3 9438   1.544   1.466  17.044  0.5099 -0.2632  0.6583
  634TMC3    C4 9439   1.351   1.649  17.123 -0.4118  0.7815  0.0647
  634TMC3    C5 9440   1.428   1.671  17.008 -0.2779 -0.5850 -0.0479
  634TMC3    C6 9441   1.517   1.576  16.969  0.1344  0.1747  0.1393
  634TMC3     C 9442   1.329   1.531  17.332 -0.2128 -0.3778 -0.3321
  634TMC3     O 9443   1.285   1.627  17.383  0.1585 -0.1815 -0.0321
  634TMC3     H 9444   1.509   1.369  17.231  0.2155 -1.2656 -0.6341
  634TMC3    H1 9445   1.276   1.719  17.160  0.2220  2.1629 -1.2615
  634TMC3    H2 9446   1.567   1.595  16.875  0.3330  0.0893  0.2287
  634TMC3    C7 9447   1.391   1.772  16.918 -0.1485 -0.4731  0.3092
  634TMC3    C8 9448   1.602   1.349  16.984 -0.9814 -0.3586  0.2573
  634TMC3    O1 9449   1.430   1.759  16.802 -0.0489  0.7391  0.0640
  634TMC3    O2 9450   1.571   1.241  17.032  0.6715 -0.4216 -0.1072
  635TMC3    C1 9451   1.410   2.607  17.737 -0.4462 -0.6507  0.1673
  635TMC3    C2 9452   1.328   2.501   0.013 -0.0559 -0.2351 -0.0393
  635TMC3    C3 9453   1.296   2.419  17.659  0.5660  0.1020  0.2179
  635TMC3    C4 9454   1.457   2.636  17.612  0.0513 -0.5616 -0.4359
  635TMC3    C5 9455   1.423   2.546  17.511 -0.3270  0.5159  0.3220
  635TMC3    C6 9456   1.348   2.437  17.534  0.3197 -0.4399  0.1061
  635TMC3     C 9457   1.419   2.714   0.086  0.4840 -0.9107  0.2719
  635TMC3     O 9458   1.488   2.813   0.055  0.3640  0.3213  0.3108
  635TMC3     H 9459   1.304   2.480   0.117  2.5935  0.5763  0.7475
  635TMC3    H1 9460   1.513   2.725  17.584 -1.4145  0.3960 -0.3580
  635TMC3    H2 9461   1.335   2.362  17.457 -0.6745 -0.4690  0.3091
  635TMC3    C7 9462   1.486   2.570  17.384  0.4029  0.1416  0.4097
  635TMC3    C8 9463   1.253   2.290  17.698 -0.1602  0.8885 -0.1361
  635TMC3    O1 9464   1.593   2.624  17.391 -0.2709 -0.1491  0.0395
  635TMC3    O2 9465   1.167   2.286   0.041 -0.2268 -0.5834 -0.8690
  636MPD2     C 9466   2.802   1.636  15.865 -0.5265 -0.7879  0.0004
  636MPD2    C1 9467   2.795   1.577  15.991 -0.1213  0.2691  0.1489
  636MPD2    C2 9468   2.823   1.438  16.006  0.6148 -0.1895  0.4043
  636MPD2    C3 9469   2.861   1.370  15.896 -0.2945 -0.3643 -0.0746
  636MPD2    C4 9470   2.880   1.424  15.774 -0.2209 -0.1092 -0.1186
  636MPD2    C5 9471   2.857   1.559  15.764  0.2509  0.8615 -0.0031
  636MPD2     H 9472   2.809   1.386  16.100  1.8831 -1.6950 -0.2481
  636MPD2    H1 9473   2.906   1.370  15.684 -0.0793 -1.3745  0.6825
  636MPD2    H2 9474   2.786   1.741  15.848 -0.4619 -0.7562  0.1357
  636MPD2    H3 9475   2.872   1.605  15.667 -0.7457  2.0651  0.4132
  636MPD2     N 9476   2.882   1.229  15.917 -1.1511 -0.2117 -0.3866
  636MPD2    H5 9477   2.849   1.202  16.010 -1.0161  1.9532  0.2890
  636MPD2    N1 9478   2.757   1.650  16.100  0.0353  0.5538  0.2818
  636MPD2    H7 9479   2.753   1.606  16.191  0.8474  2.7590  1.3745
  637TMC3    C1 9480   2.920   0.998  15.868  0.2879 -0.0515 -0.4658
  637TMC3    C2 9481   2.822   0.962  15.956 -0.0762 -0.0856  0.4820
  637TMC3    C3 9482   2.873   0.884  16.056  0.2801  0.3741  0.3892
  637TMC3    C4 9483   3.044   0.943  15.864  0.4437  0.0333 -0.2883
  637TMC3    C5 9484   3.073   0.834  15.946  0.5755 -0.5244 -0.2281
  637TMC3    C6 9485   2.983   0.807  16.043  0.6399 -0.2189 -0.7037
  637TMC3     C 9486   2.928   1.139  15.825 -0.4741 -0.3155 -0.3277
  637TMC3     O 9487   2.981   1.156  15.718  0.4134 -0.1031  0.0581
  637TMC3     H 9488   2.722   1.005  15.954  0.6797  1.7144  0.6480
  637TMC3    H1 9489   3.108   0.987  15.788 -0.2648  1.0335 -0.3014
  637TMC3    H2 9490   3.007   0.738  16.122  0.0197  0.0660 -0.2693
  637TMC3    C7 9491   3.209   0.854  15.995  0.0467  0.2345 -0.5139
  637TMC3    C8 9492   2.848   0.954  16.180 -0.1878  0.0033  0.0955
  637TMC3    O1 9493   3.256   0.963  15.964 -0.4041  0.1491 -0.1172
  637TMC3    O2 9494   2.823   1.074  16.184  0.4624  0.0583 -0.1439
  638MPD2     C 9495   2.399   0.362  15.393  0.2871  0.1581 -0.2552
  638MPD2    C1 9496   2.369   0.274  15.294  0.5823  0.8286  0.0788
  638MPD2    C2 9497   2.374   0.135  15.331  0.2778  0.3994 -0.6211
  638MPD2    C3 9498   2.377   0.090  15.464  0.4855  0.2203 -0.3505
  638MPD2    C4 9499   2.401   0.187  15.562  0.0532 -1.2347  0.7383
  638MPD2    C5 9500   2.418   0.314  15.519  0.1972  0.1908 -0.3986
  638MPD2     H 9501   2.379   0.057  15.257 -3.4314  2.2059 -2.8037
  638MPD2    H1 9502   2.413   0.158  15.665 -1.0445 -2.1832  0.5966
  638MPD2    H2 9503   2.403   0.469  15.374 -0.5826  0.2336 -0.0516
  638MPD2    H3 9504   2.441   0.395  15.587  2.7636 -0.7550 -0.1389
  638MPD2     N 9505   2.357   4.691  15.485  0.7860 -0.7610 -0.9740
  638MPD2    H5 9506   2.335   4.638  15.401 -2.0264 -0.3675 -0.4843
  638MPD2    N1 9507   2.345   0.319  15.165  0.2335 -0.2232 -0.4792
  638MPD2    H7 9508   2.356   0.419  15.153  0.3036 -0.0133  1.3091
  639TMC3    C1 9509   2.361   4.478  15.570  0.1790  0.5934  0.9031
  639TMC3    C2 9510   2.285   4.460  15.456  0.0937  0.5352 -0.1426
  639TMC3    C3 9511   2.312   4.350  15.383  0.2134 -0.0511 -0.3406
  639TMC3    C4 9512   2.473   4.408  15.601 -0.4355 -0.3615  0.3095
  639TMC3    C5 9513   2.503   4.314  15.504  0.5242 -0.5781 -0.2883
  639TMC3    C6 9514   2.425   4.275  15.399 -0.2244 -0.1043 -0.6419
  639TMC3     C 9515   2.385   4.622  15.598 -0.3793  1.2307 -0.3005
  639TMC3     O 9516   2.429   4.667  15.708  0.0788  0.1011  0.2169
  639TMC3     H 9517   2.189   4.509  15.449  0.7709  2.2779  2.6381
  639TMC3    H1 9518   2.539   4.433  15.683 -1.8656  1.9501  0.7483
  639TMC3    H2 9519   2.437   4.182  15.344  0.1958 -0.8236  0.6812
  639TMC3    C7 9520   2.633   4.254  15.504  0.7558 -0.2960 -0.2804
  639TMC3    C8 9521   2.203   4.302  15.295 -0.1126  0.5794  0.1741
  639TMC3    O1 9522   2.687   4.237  15.613 -0.5318  0.5810  0.1302
  639TMC3    O2 9523   2.240   4.228  15.205  0.2814 -0.4586 -0.2999
  640MPD2     C 9524   2.438   4.523  10.323 -0.1313 -0.1814 -0.4088
  640MPD2    C1 9525   2.416   4.534  10.187 -0.3406 -0.7281  0.0599
  640MPD2    C2 9526   2.360   4.652  10.136 -0.3388 -0.0381 -0.0972
  640MPD2    C3 9527   2.318   0.009  10.227 -0.1918 -0.1622  1.1508
  640MPD2    C4 9528   2.335   4.728  10.360  0.5489  0.2829  0.4880
  640MPD2    C5 9529   2.398   4.616  10.414 -0.9059 -0.4645 -0.0045
  640MPD2     H 9530   2.356   4.660  10.027 -1.1992  1.2005  0.0201
  640MPD2    H1 9531   2.293   0.057  10.434  0.2900  0.4237  0.2160
  640MPD2    H2 9532   2.476   4.433  10.370 -1.6714  1.1615  3.4049
  640MPD2    H3 9533   2.400   4.605  10.522 -1.2325  0.4431  0.0930
  640MPD2     N 9534   2.256   0.129  10.187  0.0932  1.0154  0.0533
  640MPD2    H5 9535   2.220   0.194  10.256  0.6852  0.8182  0.5506
  640MPD2    N1 9536   2.455   4.432  10.097  0.0936 -0.9015  0.5554
  640MPD2    H7 9537   2.443   4.445   9.997 -2.5467  1.9563  1.2546
  641TMC3    C1 9538   2.536   4.227  10.019 -0.9893 -0.1520 -0.1557
  641TMC3    C2 9539   2.615   4.115  10.035  0.3799  0.8124 -0.2416
  641TMC3    C3 9540   2.603   4.022   9.937 -0.7166  0.2728  0.3654
  641TMC3    C4 9541   2.463   4.248   9.905 -0.3863  0.3859 -0.4449
  641TMC3    C5 9542   2.468   4.161   9.799 -0.2761 -0.2011  0.3864
  641TMC3    C6 9543   2.550   4.051   9.812  0.0761  0.4239  1.0763
  641TMC3     C 9544   2.518   4.317  10.134 -1.0635 -0.5845  0.3680
  641TMC3     O 9545   2.563   4.276  10.242  0.4427  0.1329  0.9046
  641TMC3     H 9546   2.674   4.097  10.124  1.0021 -1.8602 -1.1958
  641TMC3    H1 9547   2.390   4.329   9.901 -1.0878 -0.2210  0.0151
  641TMC3    H2 9548   2.528   3.966   9.749 -2.4045  1.6573  0.2653
  641TMC3    C7 9549   2.395   4.192   9.679 -0.6126 -0.6983 -0.1599
  641TMC3    C8 9550   2.700   3.913   9.930 -0.2335  0.6354 -1.1232
  641TMC3    O1 9551   2.421   4.119   9.587 -0.0214 -0.4973  0.1550
  641TMC3    O2 9552   2.730   3.869   9.825 -0.6079  0.2051  0.6437
  642TMC3    C1 9553   4.094   0.574  12.533  0.1131  0.0922 -0.5303
  642TMC3    C2 9554   4.197   0.592  12.622  0.0773  0.4725 -0.2476
  642TMC3    C3 9555   4.235   0.480  12.699  0.1115  0.3422 -0.5649
  642TMC3    C4 9556   4.032   0.453  12.515 -0.4295  0.7525  0.0235
  642TMC3    C5 9557   4.077   0.347  12.594  0.3068  0.1295 -0.2777
  642TMC3    C6 9558   4.180   0.353  12.683  0.7696  0.1748 -0.0025
  642TMC3     C 9559   4.013   0.688  12.510  0.3608 -0.2997 -0.0235
  642TMC3     O 9560   4.067   0.789  12.464 -0.2302 -0.0572 -0.7135
  642TMC3     H 9561   4.238   0.692  12.636  0.3870  0.3421 -0.2221
  642TMC3    H1 9562   3.954   0.437  12.442 -0.2346 -1.4314  0.2877
  642TMC3    H2 9563   4.220   0.262  12.724  0.6875  1.0871  2.0880
  642TMC3    C7 9564   4.004   0.225  12.586 -0.6785 -0.1207 -0.0360
  642TMC3    C8 9565   4.350   0.487  12.794  0.3130 -0.2569  0.5055
  642TMC3    O1 9566   3.972   0.181  12.475  0.1206 -0.1270  0.4813
  642TMC3    O2 9567   4.377   0.384  12.853 -0.1357 -0.5363 -0.1168
  643TMC3    C1 9568   3.393   3.503   0.339  0.2066  0.1702  0.9238
  643TMC3    C2 9569   3.265   3.500   0.288  1.4011  0.0356  0.3897
  643TMC3    C3 9570   3.244   3.452   0.165 -0.2190  0.0309 -0.2217
  643TMC3    C4 9571   3.500   3.475   0.258 -0.2465 -0.3141  0.2713
  643TMC3    C5 9572   3.471   3.411   0.143 -0.7120  0.5690 -0.2974
  643TMC3    C6 9573   3.342   3.392   0.101 -0.7375 -0.3171  0.1736
  643TMC3     C 9574   3.416   3.584   0.462 -0.4505 -0.2829  0.6726
  643TMC3     O 9575   3.326   3.662   0.485 -0.1701 -0.0189  0.5829
  643TMC3     H 9576   3.180   3.530   0.349  1.0587 -1.0389  0.4465
  643TMC3    H1 9577   3.603   3.491   0.287  0.0730 -1.3084 -0.2983
  643TMC3    H2 9578   3.316   3.357   0.002  1.1945  0.7488 -0.7207
  643TMC3    C7 9579   3.556   3.458   0.039 -0.1964  0.4859  0.6062
  643TMC3    C8 9580   3.173   3.540   0.079 -0.8661 -0.3112 -0.0800
  643TMC3    O1 9581   3.633   3.551   0.063  0.0388 -0.1364 -0.6139
  643TMC3    O2 9582   3.119   3.482  17.731 -0.4539 -0.1158 -0.1969
  644MPD2     C 9583   2.039   4.639   9.151 -0.2770 -1.1474 -0.1768
  644MPD2    C1 9584   2.148   4.707   9.200 -0.2723  0.5585  0.2073
  644MPD2    C2 9585   2.160   0.107   9.205 -1.2629  0.3320  0.3781
  644MPD2    C3 9586   2.045   0.180   9.164 -0.4931 -0.0252  0.4973
  644MPD2    C4 9587   1.938   0.104   9.114 -0.0348  0.4231 -0.0269
  644MPD2    C5 9588   1.943   4.711   9.096 -0.2839 -0.4212 -0.2617
  644MPD2     H 9589   2.245   0.158   9.251  0.4435 -0.8420 -1.4930
  644MPD2    H1 9590   1.843   0.150   9.088 -0.6518 -1.2687 -0.7457
  644MPD2    H2 9591   2.041   4.530   9.158  2.1479 -0.9176  2.9341
  644MPD2    H3 9592   1.867   4.663   9.036 -2.4438  1.1604  1.2244
  644MPD2     N 9593   2.030   0.319   9.182  0.2749 -0.3545 -0.3961
  644MPD2    H5 9594   2.117   0.363   9.210 -1.9477  2.5299  1.9256
  644MPD2    N1 9595   2.248   4.622   9.258  0.9074  0.1261 -0.0625
  644MPD2    H7 9596   2.236   4.523   9.238  0.3928  0.2104 -0.1668
  645TMC3    C1 9597   1.943   0.541   9.189  0.4638 -0.1221 -0.1546
  645TMC3    C2 9598   1.833   0.621   9.195  0.0468  0.2692  0.0455
  645TMC3    C3 9599   1.854   0.747   9.235  0.6054  0.0920  0.3592
  645TMC3    C4 9600   2.073   0.584   9.213 -0.1040 -0.2274  0.5789
  645TMC3    C5 9601   2.084   0.715   9.245  1.1285  0.2971 -0.0836
  645TMC3    C6 9602   1.978   0.798   9.256 -0.9763 -0.1426  0.2236
  645TMC3     C 9603   1.916   0.399   9.169  0.2701 -0.0961 -0.4493
  645TMC3     O 9604   1.802   0.361   9.166 -0.3621  0.3605  0.2820
  645TMC3     H 9605   1.733   0.581   9.208  0.6311 -1.2327 -0.0771
  645TMC3    H1 9606   2.160   0.521   9.194  1.7383  2.1149  1.2224
  645TMC3    H2 9607   1.980   0.906   9.260  2.2910 -0.1977 -0.1851
  645TMC3    C7 9608   2.219   0.771   9.268  0.2590  0.4106  0.7088
  645TMC3    C8 9609   1.735   0.820   9.266 -0.2969  0.3204 -0.2176
  645TMC3    O1 9610   2.231   0.895   9.276 -0.3089  0.4002 -0.6729
  645TMC3    O2 9611   1.634   0.793   9.197  0.1651 -0.1004  0.0320
  646MPD2     C 9612   2.583   3.649  14.755  0.0780 -0.4196  0.3066
  646MPD2    C1 9613   2.499   3.579  14.833 -0.1313 -0.8812 -0.1811
  646MPD2    C2 9614   2.370   3.616  14.830  0.3443  0.0837 -0.8624
  646MPD2    C3 9615   2.324   3.712  14.740 -0.3246 -0.3476  0.0030
  646MPD2    C4 9616   2.419   3.778  14.659 -0.0891 -0.4721  0.2538
  646MPD2    C5 9617   2.548   3.745  14.668  0.5661 -0.5191 -0.5321
  646MPD2     H 9618   2.297   3.578  14.901  0.6280  0.5186 -0.3336
  646MPD2    H1 9619   2.406   3.866  14.597 -0.5328 -1.1673 -0.6343
  646MPD2    H2 9620   2.683   3.609  14.740 -0.4747 -1.6136 -0.1997
  646MPD2    H3 9621   2.631   3.782  14.609  0.6980  1.5818  0.9914
  646MPD2     N 9622   2.187   3.752  14.743  0.3089  0.3574 -0.4950
  646MPD2    H5 9623   2.129   3.696  14.806  1.5591  2.0671  2.1876
  646MPD2    N1 9624   2.564   3.495  14.922  0.3493  0.4050 -0.0237
  646MPD2    H7 9625   2.666   3.499  14.922  0.3974 -1.1560  0.5792
  647TMC3    C1 9626   2.594   3.357  15.099 -0.4871  1.5105 -0.6607
  647TMC3    C2 9627   2.549   3.312  15.220  0.4661 -0.1840  0.1169
  647TMC3    C3 9628   2.644   3.282  15.311 -1.1007 -0.0955  0.2004
  647TMC3    C4 9629   2.730   3.354  15.060  0.0026 -0.3248 -0.6547
  647TMC3    C5 9630   2.822   3.326  15.161 -0.0703  0.2263 -0.2993
  647TMC3    C6 9631   2.777   3.294  15.286 -0.1711 -0.3784 -0.2225
  647TMC3     C 9632   2.503   3.411  15.008  0.0209  0.3137 -0.2220
  647TMC3     O 9633   2.383   3.389  15.011  0.5149 -0.2520  0.4795
  647TMC3     H 9634   2.447   3.300  15.254  1.0597 -0.8369  1.6208
  647TMC3    H1 9635   2.760   3.342  14.956 -1.1523 -0.6825 -0.9369
  647TMC3    H2 9636   2.856   3.257  15.350 -1.6998 -0.7873  1.4288
  647TMC3    C7 9637   2.926   3.230  15.119 -0.4294  0.1164  0.0276
  647TMC3    C8 9638   2.615   3.156  15.369  0.5034 -0.7928 -0.5241
  647TMC3    O1 9639   3.037   3.241  15.175  0.2078  0.2395  0.0505
  647TMC3    O2 9640   2.687   3.124  15.463 -0.0416 -0.1791  0.0072
  648TMC3    C1 9641   2.177   1.338  16.321 -0.6191  0.4933 -0.0697
  648TMC3    C2 9642   2.245   1.231  16.275  0.1807  0.3203 -0.0616
  648TMC3    C3 9643   2.254   1.206  16.144  0.2147  0.1226 -0.3732
  648TMC3    C4 9644   2.111   1.418  16.232 -0.2279 -0.6411 -0.4089
  648TMC3    C5 9645   2.117   1.386  16.094 -0.2892  0.2397 -0.3313
  648TMC3    C6 9646   2.182   1.278  16.049  0.2718 -0.3515  0.0100
  648TMC3     C 9647   2.152   1.363  16.459  0.1857 -0.2823 -0.2146
  648TMC3     O 9648   2.115   1.473  16.497  0.3297  0.2906  0.0747
  648TMC3     H 9649   2.289   1.161  16.346  2.2642  2.1024  0.4078
  648TMC3    H1 9650   2.052   1.502  16.266 -0.5669 -0.2586 -1.9669
  648TMC3    H2 9651   2.179   1.264  15.941  0.0712 -1.1126  0.1169
  648TMC3    C7 9652   2.057   1.481  15.992  0.1209 -0.3165  0.2068
  648TMC3    C8 9653   2.309   1.087  16.098 -0.2784 -0.1408 -0.0569
  648TMC3    O1 9654   2.096   1.474  15.873  0.2853 -0.5607  0.3170
  648TMC3    O2 9655   2.316   1.073  15.976 -0.5657  0.0665 -0.1114
  649TMC3    C1 9656   0.396   2.097  13.047  0.0716 -0.5543  0.6923
  649TMC3    C2 9657   0.525   2.118  13.078 -0.0028  0.5562  0.1564
  649TMC3    C3 9658   0.587   2.042  13.169  0.8875  0.6579 -0.0882
  649TMC3    C4 9659   0.333   1.998  13.109  0.2422 -0.6222 -0.5677
  649TMC3    C5 9660   0.403   1.919  13.202  0.5275 -0.0084 -0.0340
  649TMC3    C6 9661   0.532   1.938  13.231  0.2162 -0.1383 -0.3183
  649TMC3     C 9662   0.338   2.177  12.939  1.1513  0.0845  0.4849
  649TMC3     O 9663   0.389   2.288  12.916  0.4685  0.0707  0.2415
  649TMC3     H 9664   0.581   2.203  13.041 -0.1150  1.2541  1.5791
  649TMC3    H1 9665   0.226   1.987  13.097  0.2814 -0.5297 -1.0011
  649TMC3    H2 9666   0.587   1.879  13.303 -0.5376 -0.2227  0.1863
  649TMC3    C7 9667   0.326   1.877  13.324 -0.2748  0.3315 -0.5157
  649TMC3    C8 9668   0.699   2.097  13.240  0.3945 -0.3138  0.1555
  649TMC3    O1 9669   0.229   1.940  13.357 -0.2261 -0.6150 -0.5344
  649TMC3    O2 9670   0.772   2.014  13.296 -0.0962  0.2596 -0.1403
  650TMC3    C1 9671   3.529   4.371  13.105 -0.0021 -0.2870 -0.4487
  650TMC3    C2 9672   3.519   4.493  13.170  0.4856  0.2810 -0.3706
  650TMC3    C3 9673   3.547   4.607  13.103 -0.0382  0.1500 -0.4358
  650TMC3    C4 9674   3.554   4.371  12.967  0.2633  0.3629  0.2890
  650TMC3    C5 9675   3.576   4.494  12.913 -0.3012  0.3089  0.4399
  650TMC3    C6 9676   3.591   4.605  12.976  0.2211 -0.0473  0.1780
  650TMC3     C 9677   3.500   4.248  13.190 -0.6291  0.1483 -0.5814
  650TMC3     O 9678   3.475   4.266  13.307  0.2568  0.4670  0.6794
  650TMC3     H 9679   3.480   4.501  13.271 -2.1194  2.9343 -1.5857
  650TMC3    H1 9680   3.536   4.289  12.899 -5.1940  0.7864  1.2213
  650TMC3    H2 9681   3.629   4.695  12.928 -2.8519  0.8321 -0.5826
  650TMC3    C7 9682   3.532   4.511  12.776  0.5756 -0.2792 -0.0930
  650TMC3    C8 9683   3.477   4.733  13.137  0.3491 -0.2326 -0.9169
  650TMC3    O1 9684   3.475   4.415  12.725 -0.7055 -0.3576 -0.1834
  650TMC3    O2 9685   3.505   0.097  13.075 -0.4060  0.4854  0.3672
  651MPD2     C 9686   2.165   1.986  11.227 -0.4363 -0.5168  0.5342
  651MPD2    C1 9687   2.114   2.078  11.135  0.6409 -1.0283 -0.0057
  651MPD2    C2 9688   2.201   2.151  11.063  0.2423  0.2334 -0.2607
  651MPD2    C3 9689   2.333   2.141  11.079 -0.6190 -0.4485  0.2259
  651MPD2    C4 9690   2.377   2.053  11.168 -0.2309 -0.6273  0.0373
  651MPD2    C5 9691   2.294   1.975  11.241  0.5059 -0.1028  0.2961
  651MPD2     H 9692   2.171   2.239  11.008 -1.4465 -0.0755  0.1831
  651MPD2    H1 9693   2.481   2.036  11.194  0.1333  0.0987 -0.9527
  651MPD2    H2 9694   2.099   1.924  11.287 -1.2440 -1.7256 -1.6306
  651MPD2    H3 9695   2.336   1.901  11.308 -0.4372  0.1363  1.1485
  651MPD2     N 9696   2.420   2.228  11.002  0.1199 -0.3751  0.0170
  651MPD2    H5 9697   2.379   2.296  10.939  0.4135  0.1826  0.4338
  651MPD2    N1 9698   1.977   2.091  11.114  0.4302 -0.3043 -0.5151
  651MPD2    H7 9699   1.945   2.151  11.039  1.7096  2.5414  1.1923
  652TMC3    C1 9700   2.789   2.475  10.859 -0.2797 -0.1851  0.4409
  652TMC3    C2 9701   2.740   2.362  10.910  0.2120  0.3800 -0.0933
  652TMC3    C3 9702   2.603   2.341  10.921  0.2152  0.3851 -0.4598
  652TMC3    C4 9703   2.704   2.573  10.810  0.2759 -0.1974  0.5848
  652TMC3    C5 9704   2.567   2.556  10.824  0.4136  0.2817 -0.2229
  652TMC3    C6 9705   2.518   2.443  10.875  0.3726 -0.4912  0.0207
  652TMC3     C 9706   2.929   2.494  10.863  0.4092 -0.5378 -0.0051
  652TMC3     O 9707   2.986   2.439  10.956  0.2279 -0.2951 -0.6003
  652TMC3     H 9708   2.811   2.286  10.943  0.1333 -0.9695 -3.0406
  652TMC3    H1 9709   2.741   2.669  10.776  0.8254  0.2686  2.5185
  652TMC3    H2 9710   2.410   2.435  10.880  0.4187 -1.4495 -0.4198
  652TMC3    C7 9711   2.471   2.646  10.761 -0.7662 -0.0583 -0.6558
  652TMC3    C8 9712   2.554   2.239  11.008 -0.1661 -0.5909  0.3229
  652TMC3    O1 9713   2.368   2.594  10.725 -0.4433  0.1700  0.1493
  652TMC3    O2 9714   2.635   2.189  11.084  0.3205 -0.9874  0.3479
  653MPD2     C 9715   0.853   1.220  17.632  0.7449  0.6320 -0.4909
  653MPD2    C1 9716   0.827   1.289  17.515 -0.5937 -0.2070 -0.6821
  653MPD2    C2 9717   0.808   1.212  17.397  0.3555  0.0218  0.0491
  653MPD2    C3 9718   0.819   1.074  17.401  0.2487 -0.1512  0.2016
  653MPD2    C4 9719   0.846   1.017  17.520 -0.3376 -0.5830  0.6114
  653MPD2    C5 9720   0.874   1.082  17.637  0.4535 -0.2284 -0.4986
  653MPD2     H 9721   0.796   1.272  17.308  1.5315  0.0373 -0.0959
  653MPD2    H1 9722   0.859   0.910  17.533 -1.1218 -0.4914  2.0983
  653MPD2    H2 9723   0.879   1.278  17.720 -0.4208 -1.8830  1.5308
  653MPD2    H3 9724   0.897   1.026  17.727 -3.5158 -1.4351 -0.2360
  653MPD2     N 9725   0.796   1.002  17.280  0.2544  0.3915  0.9243
  653MPD2    H5 9726   0.778   1.050  17.193  1.1770 -0.9071  0.0271
  653MPD2    N1 9727   0.859   1.428  17.504  0.4804  0.0928  1.0100
  653MPD2    H7 9728   0.854   1.475  17.414  1.4178 -0.3674  0.7140
  654TMC3    C1 9729   0.777   0.798  17.145 -0.1612  0.2044  0.3200
  654TMC3    C2 9730   0.699   0.863  17.043  0.0489 -0.3278  0.0261
  654TMC3    C3 9731   0.671   0.798  16.925 -0.6101  0.4218 -0.1115
  654TMC3    C4 9732   0.826   0.678  17.118  0.6598 -0.0719  0.0368
  654TMC3    C5 9733   0.809   0.623  16.990  0.7646 -0.4897  0.1066
  654TMC3    C6 9734   0.722   0.678  16.899  0.0699 -0.0771  0.5674
  654TMC3     C 9735   0.800   0.863  17.275  0.1378 -0.2635 -0.2548
  654TMC3     O 9736   0.818   0.775  17.362 -0.3053 -0.3641  0.2086
  654TMC3     H 9737   0.643   0.953  17.064 -0.6066 -0.2750 -1.9904
  654TMC3    H1 9738   0.881   0.622  17.192 -1.4810 -0.8994  0.9966
  654TMC3    H2 9739   0.738   0.638  16.800  1.6064  0.0142  0.7708
  654TMC3    C7 9740   0.857   0.485  16.967 -0.4473  0.4394  0.1847
  654TMC3    C8 9741   0.556   0.837  16.845 -0.3317  0.0435  0.1404
  654TMC3    O1 9742   0.791   0.420  16.885 -0.7062  0.7894  0.2670
  654TMC3    O2 9743   0.483   0.923  16.892  0.0196  0.1213 -0.1269
  655MPD2     C 9744   2.499   1.421  15.975 -0.4702 -0.4747  0.4684
  655MPD2    C1 9745   2.446   1.502  15.877 -0.7127  0.8197 -0.2345
  655MPD2    C2 9746   2.477   1.463  15.744  0.1898  0.1729 -0.6946
  655MPD2    C3 9747   2.527   1.337  15.722  0.1594  0.5065 -0.1226
  655MPD2    C4 9748   2.560   1.253  15.824  0.0102 -0.2300  0.0229
  655MPD2    C5 9749   2.543   1.294  15.950 -0.3276  0.4896  0.0939
  655MPD2     H 9750   2.444   1.522  15.659  0.8173 -1.6202 -2.1973
  655MPD2    H1 9751   2.582   1.148  15.810  1.5493 -0.0264  0.8448
  655MPD2    H2 9752   2.506   1.461  16.076  2.6041  0.0222  0.0652
  655MPD2    H3 9753   2.573   1.223  16.026 -1.0341  1.1678  1.0154
  655MPD2     N 9754   2.534   1.282  15.592  0.8795 -1.0189 -0.1034
  655MPD2    H5 9755   2.553   1.182  15.592  1.6725 -0.8697 -0.3516
  655MPD2    N1 9756   2.395   1.632  15.897 -0.3181 -0.4318  0.3223
  655MPD2    H7 9757   2.350   1.677  15.818 -0.0708 -0.9549 -0.1212
  656TMC3    C1 9758   2.263   1.782  16.035 -0.2292 -0.3952 -1.1730
  656TMC3    C2 9759   2.190   1.790  16.150  0.5866 -0.6766 -0.5763
  656TMC3    C3 9760   2.091   1.873  16.151  0.2036 -0.8244 -0.2904
  656TMC3    C4 9761   2.228   1.852  15.926 -0.6676  0.5100 -1.2888
  656TMC3    C5 9762   2.131   1.949  15.931  0.2695 -0.6172 -0.1312
  656TMC3    C6 9763   2.054   1.958  16.047 -0.5020  0.0046  0.4052
  656TMC3     C 9764   2.358   1.672  16.026  0.4358 -0.6385 -0.0079
  656TMC3     O 9765   2.386   1.620  16.133 -0.4524 -0.4505 -0.2131
  656TMC3     H 9766   2.212   1.724  16.233  1.2881  1.2106  0.7432
  656TMC3    H1 9767   2.292   1.836  15.840  0.7692 -0.6729  0.0219
  656TMC3    H2 9768   1.969   2.024  16.038  1.1478  2.2458  1.1430
  656TMC3    C7 9769   2.080   1.994  15.801 -1.1107  0.1797  0.5517
  656TMC3    C8 9770   2.000   1.854  16.265 -0.6564  0.7733  0.2384
  656TMC3    O1 9771   2.140   1.960  15.698 -0.5587 -0.2463  0.1769
  656TMC3    O2 9772   2.010   1.749  16.330  0.7922  0.1522  0.0759
  657TMC3    C1 9773   1.306   0.745  15.429  0.2306 -0.1026 -0.3513
  657TMC3    C2 9774   1.372   0.796  15.533 -0.2288 -0.4201  0.1434
  657TMC3    C3 9775   1.328   0.912  15.594  0.0006 -0.4020  1.0634
  657TMC3    C4 9776   1.193   0.811  15.382  1.1354 -0.5354  0.5536
  657TMC3    C5 9777   1.148   0.924  15.445 -0.0360  0.0145  0.4173
  657TMC3    C6 9778   1.223   0.982  15.547 -0.5060  0.5397 -0.1043
  657TMC3     C 9779   1.321   0.606  15.384 -0.0017 -0.2367  0.6473
  657TMC3     O 9780   1.231   0.554  15.321  0.1094  0.1152  0.2233
  657TMC3     H 9781   1.446   0.734  15.582 -1.7244 -0.9494  1.7511
  657TMC3    H1 9782   1.134   0.774  15.298  0.9389  0.0582  0.4290
  657TMC3    H2 9783   1.193   1.078  15.588 -1.2956 -1.3647  3.8308
  657TMC3    C7 9784   1.010   0.977  15.428 -0.2158  0.7600 -0.8859
  657TMC3    C8 9785   1.421   0.974  15.689  0.3573 -0.3789  0.2439
  657TMC3    O1 9786   0.996   1.092  15.463 -0.1375 -0.5440 -0.4142
  657TMC3    O2 9787   1.510   0.898  15.728  0.1144  0.1123 -0.0517
  658MPD2     C 9788   3.080   1.059  15.078 -0.3892 -0.5182 -0.2886
  658MPD2    C1 9789   2.958   1.068  15.022  0.1032 -0.4905 -0.7237
  658MPD2    C2 9790   2.952   1.075  14.879  0.0727  0.3163 -0.8041
  658MPD2    C3 9791   3.066   1.054  14.803 -0.3729  0.5393 -0.0673
  658MPD2    C4 9792   3.189   1.042  14.866 -0.9124  0.4441  0.0305
  658MPD2    C5 9793   3.189   1.049  15.005 -0.4220  0.0709 -0.0776
  658MPD2     H 9794   2.860   1.081  14.821 -1.4378 -0.2897  1.5225
  658MPD2    H1 9795   3.283   1.010  14.822  0.2503  3.2752  0.4981
  658MPD2    H2 9796   3.081   1.058  15.187 -1.6795 -0.5514 -0.2760
  658MPD2    H3 9797   3.284   1.037  15.055  0.3421 -3.2367 -2.3445
  658MPD2     N 9798   3.044   1.040  14.663 -0.0699 -0.1321  0.3644
  658MPD2    H5 9799   2.947   1.053  14.633 -0.3260 -0.5129  1.0154
  658MPD2    N1 9800   2.849   1.084  15.113  0.5675 -0.9505 -0.4991
  658MPD2    H7 9801   2.871   1.090  15.212 -0.3949  0.0652 -0.3575
  659TMC3    C1 9802   2.630   1.111  15.187  0.2972 -0.0059 -0.5700
  659TMC3    C2 9803   2.645   1.215  15.282  0.0009 -0.6941 -0.6745
  659TMC3    C3 9804   2.536   1.237  15.368 -0.3380 -0.8825  0.8094
  659TMC3    C4 9805   2.523   1.028  15.192  0.4030 -0.3043 -0.5635
  659TMC3    C5 9806   2.434   1.036  15.300 -0.3200  0.6037 -0.5528
  659TMC3    C6 9807   2.429   1.148  15.379  0.1487 -0.2029 -0.0218
  659TMC3     C 9808   2.721   1.095  15.076 -0.4528  0.5160  0.0274
  659TMC3     O 9809   2.671   1.064  14.968  0.4544 -0.0951  0.6584
  659TMC3     H 9810   2.723   1.286  15.261 -0.8944  1.2983  2.7263
  659TMC3    H1 9811   2.517   0.948  15.119 -1.9693  1.4776 -2.3186
  659TMC3    H2 9812   2.343   1.175  15.439  0.6778 -1.3262  1.2304
  659TMC3    C7 9813   2.301   0.983  15.268 -0.5175  0.6909  0.1900
  659TMC3    C8 9814   2.535   1.345  15.468 -0.4430 -0.2775 -0.9877
  659TMC3    O1 9815   2.223   0.976  15.361 -0.6424  0.3237  0.2721
  659TMC3    O2 9816   2.524   1.463  15.440  0.4270 -0.2732 -0.0042
  660MPD2     C 9817   0.692   0.094  12.933 -0.8975 -0.0763  0.3733
  660MPD2    C1 9818   0.568   0.133  12.894  0.4251 -0.2552  0.0543
  660MPD2    C2 9819   0.464   0.082  12.971 -0.2760 -0.2276  0.7598
  660MPD2    C3 9820   0.493   0.007  13.087 -0.1708  0.6394  0.1541
  660MPD2    C4 9821   0.620   4.697  13.111 -0.0909  0.2277 -0.4179
  660MPD2    C5 9822   0.715   0.012  13.034 -0.4605  0.5408  0.1575
  660MPD2     H 9823   0.365   0.116  12.942 -0.7075 -0.9912  1.3459
  660MPD2    H1 9824   0.657   4.632  13.190 -2.0726 -1.9307 -1.2820
  660MPD2    H2 9825   0.779   0.129  12.879 -0.4232 -1.3138  0.3378
  660MPD2    H3 9826   0.819   4.726  13.049 -0.4367 -0.0782 -0.9597
  660MPD2     N 9827   0.405   4.705  13.189 -0.3227 -0.4438 -0.2347
  660MPD2    H5 9828   0.434   4.641  13.262 -1.0170  0.5390  0.8972
  660MPD2    N1 9829   0.540   0.213  12.774 -0.3990 -0.4684  0.1047
  660MPD2    H7 9830   0.620   0.249  12.723 -0.6074  1.4988  1.1849
  661TMC3    C1 9831   0.413   0.359  12.636  0.0775 -0.9899 -0.1304
  661TMC3    C2 9832   0.498   0.361  12.529  0.1196 -0.4705 -0.2348
  661TMC3    C3 9833   0.469   0.439  12.421  0.2760  0.8216 -0.1497
  661TMC3    C4 9834   0.300   0.431  12.637 -0.1326 -0.3764 -0.5333
  661TMC3    C5 9835   0.274   0.515  12.537 -0.0979  0.5648 -0.0442
  661TMC3    C6 9836   0.360   0.516  12.427  0.8506 -0.0970  0.2872
  661TMC3     C 9837   0.418   0.253  12.727 -0.0453  0.1716 -0.2811
  661TMC3     O 9838   0.304   0.206  12.745 -0.7120  0.1932 -0.1640
  661TMC3     H 9839   0.577   0.289  12.515 -0.5843 -1.2195 -0.3199
  661TMC3    H1 9840   0.238   0.438  12.726  0.9402 -0.3169  0.2105
  661TMC3    H2 9841   0.342   0.584  12.344 -1.0445 -0.4683  0.3963
  661TMC3    C7 9842   0.153   0.594  12.538  0.2093  0.2069  0.3413
  661TMC3    C8 9843   0.573   0.473  12.329 -0.0597 -0.2090 -0.1632
  661TMC3    O1 9844   0.115   0.638  12.646 -0.2427 -0.6906 -0.1763
  661TMC3    O2 9845   0.638   0.376  12.291  0.1064 -0.1564 -0.1835
  662MPD2     C 9846   0.897   4.154  17.148  0.8335 -0.1052 -0.2406
  662MPD2    C1 9847   0.904   4.103  17.277 -0.3796  0.4936 -0.3869
  662MPD2    C2 9848   0.862   4.182  17.387  0.7889  0.8718 -0.3214
  662MPD2    C3 9849   0.799   4.302  17.364 -0.3648 -0.9103 -0.5945
  662MPD2    C4 9850   0.777   4.347  17.236  0.7109  0.3521 -0.2038
  662MPD2    C5 9851   0.828   4.270  17.133 -0.1551 -0.0081 -0.2216
  662MPD2     H 9852   0.859   4.141  17.487  0.2498 -1.7994 -1.4321
  662MPD2    H1 9853   0.741   4.448  17.224 -2.0843 -0.6167  0.1762
  662MPD2    H2 9854   0.922   4.102  17.056 -0.8931 -0.4526 -0.5228
  662MPD2    H3 9855   0.827   4.309  17.031  1.2118 -0.3282 -0.3523
  662MPD2     N 9856   0.755   4.392  17.465  1.1781 -0.1492  0.4698
  662MPD2    H5 9857   0.705   4.478  17.447 -0.3405 -1.2286 -0.4875
  662MPD2    N1 9858   0.950   3.978  17.312 -0.7336 -0.8322  0.0077
  662MPD2    H7 9859   0.954   3.949  17.409 -0.9561 -0.7477  0.0438
  663TMC3    C1 9860   1.053   3.787  17.276 -0.0436 -0.3847 -0.4907
  663TMC3    C2 9861   1.151   3.820  17.363 -0.1569 -0.2632 -0.3617
  663TMC3    C3 9862   1.257   3.733  17.377  1.0272  0.0634  0.3825
  663TMC3    C4 9863   1.056   3.671  17.199 -0.0146 -1.1986 -0.4713
  663TMC3    C5 9864   1.153   3.579  17.219 -0.3614 -0.3612  0.6837
  663TMC3    C6 9865   1.255   3.606  17.309 -0.4191  0.3764  0.4363
  663TMC3     C 9866   0.969   3.885  17.222  0.2175 -0.0394  0.1646
  663TMC3     O 9867   0.937   3.880  17.106  0.1412  0.2035  0.3191
  663TMC3     H 9868   1.166   3.925  17.387  0.1365  0.0919 -2.1184
  663TMC3    H1 9869   0.980   3.664  17.122  1.3419  1.9358 -2.0870
  663TMC3    H2 9870   1.315   3.525  17.351 -0.7219  0.5772  1.2658
  663TMC3    C7 9871   1.125   3.442  17.176 -0.4254  0.0868  0.0764
  663TMC3    C8 9872   1.302   3.718  17.516  0.1022 -0.5416  0.2162
  663TMC3    O1 9873   1.220   3.388  17.117  0.0289  0.2245  0.3660
  663TMC3    O2 9874   1.398   3.644  17.541  0.0793  0.7609  0.7171
  664MPD2     C 9875   3.525   2.686  17.577  0.1399  0.6097  0.8519
  664MPD2    C1 9876   3.607   2.783  17.640 -0.2330 -0.4329 -0.3773
  664MPD2    C2 9877   3.576   2.812   0.025 -0.0019 -0.1715  0.7843
  664MPD2    C3 9878   3.467   2.759   0.098 -0.1659  0.6055  0.3872
  664MPD2    C4 9879   3.383   2.685   0.022  0.5135 -0.5166  0.5691
  664MPD2    C5 9880   3.405   2.651  17.640  0.3225  0.3433  0.0642
  664MPD2     H 9881   3.635   2.891   0.070  0.2399  1.8307 -3.0698
  664MPD2    H1 9882   3.287   2.658   0.064 -0.1455  1.0713  0.0934
  664MPD2    H2 9883   3.551   2.653  17.478  0.6649  1.9040  0.5539
  664MPD2    H3 9884   3.323   2.588  17.607 -0.1231  2.8515 -3.6014
  664MPD2     N 9885   3.451   2.786   0.232  0.8888 -0.4170  0.2183
  664MPD2    H5 9886   3.514   2.847   0.283  0.1518 -0.7063  1.4855
  664MPD2    N1 9887   3.725   2.843  17.583 -0.2149  0.5924  0.0905
  664MPD2    H7 9888   3.773   2.908  17.644 -0.2037  0.8567 -0.1997
  665TMC3    C1 9889   3.381   2.783   0.448 -0.5575 -0.3101 -0.7951
  665TMC3    C2 9890   3.277   2.801   0.538 -0.7817  0.2056 -0.1627
  665TMC3    C3 9891   3.302   2.846   0.663  0.4693 -0.1292 -0.3612
  665TMC3    C4 9892   3.508   2.809   0.490  0.1231 -0.1589 -0.2418
  665TMC3    C5 9893   3.535   2.862   0.615  0.4309  0.0232 -0.0295
  665TMC3    C6 9894   3.434   2.871   0.710  0.2569  0.0430  0.0128
  665TMC3     C 9895   3.348   2.742   0.313  0.2905  0.5310 -0.3115
  665TMC3     O 9896   3.251   2.670   0.307  0.1073 -0.1883  0.1000
  665TMC3     H 9897   3.177   2.785   0.499  0.0616 -0.8680 -1.9052
  665TMC3    H1 9898   3.591   2.803   0.421  0.6208  1.4770  0.2342
  665TMC3    H2 9899   3.443   2.926   0.802 -0.5653  1.8622 -0.9900
  665TMC3    C7 9900   3.659   2.927   0.636 -0.2694 -0.0341 -0.5382
  665TMC3    C8 9901   3.201   2.895   0.756  0.1564 -0.7000 -0.0693
  665TMC3    O1 9902   3.739   2.903   0.543 -0.0435 -0.3518 -0.0435
  665TMC3    O2 9903   3.230   2.983   0.833  0.6373  0.4260 -0.0216
  666TMC3    C1 9904   2.371   3.105  10.045  0.4482 -0.0200  0.5016
  666TMC3    C2 9905   2.365   3.054   9.921  1.1404 -0.4085 -0.6964
  666TMC3    C3 9906   2.325   3.142   9.826  0.7842 -0.0750  0.2611
  666TMC3    C4 9907   2.320   3.230  10.082  0.5239 -0.2044 -0.4050
  666TMC3    C5 9908   2.282   3.315   9.978  0.6222  0.2397 -0.4599
  666TMC3    C6 9909   2.277   3.269   9.854  0.0050  0.3093 -0.9477
  666TMC3     C 9910   2.350   3.005  10.142  0.0268  0.5850  0.0739
  666TMC3     O 9911   2.341   3.042  10.256 -0.1140  0.2754 -0.2561
  666TMC3     H 9912   2.415   2.962   9.895  0.5074 -0.9235 -0.1027
  666TMC3    H1 9913   2.325   3.259  10.186  0.6562  0.0755 -0.4879
  666TMC3    H2 9914   2.236   3.332   9.775  0.2901  0.6972 -0.7850
  666TMC3    C7 9915   2.281   3.456  10.008 -0.4523 -0.5191 -0.3931
  666TMC3    C8 9916   2.369   3.117   9.686 -0.0211  0.1768 -0.2179
  666TMC3    O1 9917   2.271   3.489  10.124  0.2026 -0.2160  0.1131
  666TMC3    O2 9918   2.321   3.016   9.644  0.4921  0.2683  0.0975
  667MPD2     C 9919   4.157   2.795  14.348 -0.1939 -0.2348  0.5193
  667MPD2    C1 9920   4.117   2.778  14.476  0.0908  0.3719 -0.2945
  667MPD2    C2 9921   4.017   2.693  14.508  0.1091 -0.1858 -0.2679
  667MPD2    C3 9922   3.962   2.616  14.416  0.2344 -0.6246  0.1319
  667MPD2    C4 9923   3.994   2.636  14.282 -0.3655  0.7357 -0.3993
  667MPD2    C5 9924   4.091   2.726  14.250  0.3875  1.0116 -0.0863
  667MPD2     H 9925   3.976   2.692  14.609 -2.3116 -2.0516 -1.2613
  667MPD2    H1 9926   3.936   2.587  14.205  0.8202  0.7335 -1.2969
  667MPD2    H2 9927   4.230   2.868  14.316  1.6933 -2.1664  0.4320
  667MPD2    H3 9928   4.116   2.746  14.146  1.5314  0.6041  0.1061
  667MPD2     N 9929   3.861   2.525  14.436  0.5554  0.0969 -0.4700
  667MPD2    H5 9930   3.808   2.482  14.361  0.6406  1.2022 -1.1492
  667MPD2    N1 9931   4.184   2.834  14.585  0.2916 -0.4021 -0.0477
  667MPD2    H7 9932   4.147   2.812  14.677 -0.1571  1.2313  0.1554
  668TMC3    C1 9933   4.359   2.921  14.714  0.2503 -0.4861  0.3868
  668TMC3    C2 9934   4.440   3.029  14.728 -0.7802 -0.7785  0.1146
  668TMC3    C3 9935   4.466   3.067  14.854 -0.5383 -0.3563  0.4242
  668TMC3    C4 9936   4.310   2.846  14.816  0.2672 -0.9814 -0.2045
  668TMC3    C5 9937   4.351   2.881  14.937  0.4508 -0.2500  0.2011
  668TMC3    C6 9938   4.428   2.992  14.956  0.6237  0.3818 -0.6670
  668TMC3     C 9939   4.310   2.890  14.582  0.1542 -0.5807  0.0813
  668TMC3     O 9940   4.392   2.910  14.490  0.0033 -0.5866 -0.0528
  668TMC3     H 9941   4.482   3.074  14.639  0.2044 -1.4324  0.2507
  668TMC3    H1 9942   4.281   2.744  14.793  2.4265 -2.2357  2.6447
  668TMC3    H2 9943   4.470   3.013  15.053  2.3241  3.0935 -1.9912
  668TMC3    C7 9944   4.337   2.789  15.049  0.4007 -0.4547  0.4176
  668TMC3    C8 9945   4.533   3.193  14.882 -0.4627  0.0726  0.0219
  668TMC3    O1 9946   4.407   2.796  15.145 -0.5749  0.6704  0.6227
  668TMC3    O2 9947   4.529   3.228  15.000  0.2330 -0.0610  0.1128
  669TMC3    C1 9948   2.037   2.740  14.829 -0.7632  0.3582  0.5395
  669TMC3    C2 9949   1.919   2.762  14.758  0.0342 -0.1549 -0.4029
  669TMC3    C3 9950   1.927   2.837  14.644  0.7760 -0.0202 -0.0399
  669TMC3    C4 9951   2.156   2.788  14.784  0.8681 -0.1338  1.1256
  669TMC3    C5 9952   2.154   2.867  14.672 -0.5156 -0.0443  0.1990
  669TMC3    C6 9953   2.042   2.892  14.593 -0.2450  0.4121 -0.5336
  669TMC3     C 9954   2.038   2.661  14.950  0.7953  0.1946 -0.3519
  669TMC3     O 9955   1.924   2.648  14.998  0.6482  0.1720  0.3699
  669TMC3     H 9956   1.826   2.727  14.800 -0.4560  2.1069  0.4406
  669TMC3    H1 9957   2.252   2.768  14.832  0.4184  0.1578  2.1617
  669TMC3    H2 9958   2.047   2.961  14.510  0.2884 -0.2174 -1.0293
  669TMC3    C7 9959   2.286   2.880  14.610  0.5050  0.1768 -0.1302
  669TMC3    C8 9960   1.816   2.831  14.549  0.5339  0.0843  0.2297
  669TMC3    O1 9961   2.376   2.900  14.691  0.0429  0.6051  0.8231
  669TMC3    O2 9962   1.750   2.727  14.559 -0.1493  0.3910 -0.0580
  670MPD2     C 9963   0.424   0.640  13.694 -0.2150  0.6232  0.2693
  670MPD2    C1 9964   0.496   0.543  13.751 -0.1833  0.2381 -0.2913
  670MPD2    C2 9965   0.492   0.517  13.879  0.5606 -0.8167  0.0576
  670MPD2    C3 9966   0.403   0.586  13.952 -0.2254 -1.0469 -0.2361
  670MPD2    C4 9967   0.322   0.689  13.907  0.4860  0.0126  0.0845
  670MPD2    C5 9968   0.340   0.717  13.771 -0.0268 -0.3357  0.7913
  670MPD2     H 9969   0.559   0.444  13.923  2.0161 -0.5866 -1.7806
  670MPD2    H1 9970   0.261   0.753  13.970 -0.7254  0.5125 -1.6198
  670MPD2    H2 9971   0.411   0.665  13.589  1.5135  0.6855  0.0701
  670MPD2    H3 9972   0.281   0.792  13.719 -1.3149 -1.4400  0.6578
  670MPD2     N 9973   0.393   0.551  14.094  0.6898  0.0239  0.3971
  670MPD2    H5 9974   0.442   0.469  14.130  0.6083 -0.1539  0.0974
  670MPD2    N1 9975   0.579   0.455  13.682  0.7131 -0.2629 -0.2197
  670MPD2    H7 9976   0.620   0.379  13.737  1.3412  0.4946  0.3636
  671TMC3    C1 9977   0.330   0.555  14.319 -0.5205 -0.0630 -0.2659
  671TMC3    C2 9978   0.447   0.490  14.348  0.3687 -0.3520  0.8204
  671TMC3    C3 9979   0.446   0.407  14.460  0.0808 -0.7241 -0.0937
  671TMC3    C4 9980   0.212   0.521  14.379 -0.5898 -0.1540 -0.0510
  671TMC3    C5 9981   0.213   0.429  14.478  1.0109 -0.3607 -0.3956
  671TMC3    C6 9982   0.330   0.373  14.524 -0.2842 -0.8176 -0.1669
  671TMC3     C 9983   0.311   0.612  14.189  0.9041  0.0594 -0.3887
  671TMC3     O 9984   0.233   0.705  14.176 -0.8133 -0.3343 -0.1283
  671TMC3     H 9985   0.541   0.524  14.306  0.6026 -2.0486 -0.0248
  671TMC3    H1 9986   0.126   0.572  14.336 -0.6784  0.4903  0.8974
  671TMC3    H2 9987   0.335   0.291  14.595  0.5731  0.0525  0.7770
  671TMC3    C7 9988   0.109   0.331  14.466 -0.7698 -0.4676 -0.2108
  671TMC3    C8 9989   0.563   0.322  14.482 -0.1072 -0.1899 -1.0420
  671TMC3    O1 9990   0.121   0.238  14.544  0.4750  0.4632  0.2620
  671TMC3    O2 9991   0.640   0.324  14.390 -0.5727  0.0055 -0.2542
  672MPD2     C 9992   1.519   1.142   0.139  0.1585 -0.5044  0.5643
  672MPD2    C1 9993   1.533   1.130   0.274 -0.4317  0.5207  0.0767
  672MPD2    C2 9994   1.611   1.219   0.338 -0.2712 -0.1181  0.1448
  672MPD2    C3 9995   1.672   1.321   0.263  0.3077  0.0971 -0.8767
  672MPD2    C4 9996   1.653   1.339   0.126 -0.2982  0.1618 -0.3221
  672MPD2    C5 9997   1.573   1.247   0.069 -0.3479  0.2604  0.4639
  672MPD2     H 9998   1.622   1.204   0.445  0.9013  1.3239  0.2250
  672MPD2    H1 9999   1.695   1.426   0.077 -1.9926  0.6921 -0.8429
  672MPD2    H210000   1.472   1.064   0.080 -1.0244  0.4301  0.2639
  672MPD2    H310001   1.573   1.259  17.710  1.9699  0.7651  0.5032
  672MPD2     N10002   1.765   1.415   0.311 -0.6035 -0.5964 -0.3926
  672MPD2    H510003   1.792   1.493   0.252 -2.4725  0.8641  0.6922
  672MPD2    N110004   1.464   1.028   0.343 -0.4382 -0.7858 -0.0719
  672MPD2    H710005   1.471   1.026   0.445  1.0813 -0.5688 -0.1643
  673TMC3    C110006   1.302   0.873   0.402  0.0243  0.0115 -0.1211
  673TMC3    C210007   1.383   0.791   0.481  0.4690 -0.2846  0.6093
  673TMC3    C310008   1.326   0.688   0.550 -0.1340  0.1427 -0.0675
  673TMC3    C410009   1.166   0.847   0.389  0.2004 -0.0960 -0.1480
  673TMC3    C510010   1.113   0.751   0.472 -0.1057 -0.1647 -0.0706
  673TMC3    C610011   1.191   0.664   0.545  0.5325  0.7781  0.2039
  673TMC3     C10012   1.367   0.949   0.297  0.6838  0.5694 -0.5761
  673TMC3     O10013   1.309   0.956   0.192  0.0711  0.3268 -0.4634
  673TMC3     H10014   1.489   0.798   0.460  0.2939 -2.9529 -1.0805
  673TMC3    H110015   1.094   0.909   0.337  0.2049 -0.4759 -0.6141
  673TMC3    H210016   1.155   0.585   0.609 -1.0928  1.2448 -0.1235
  673TMC3    C710017   0.971   0.728   0.492  0.2317 -0.4543  0.2604
  673TMC3    C810018   1.408   0.586   0.613 -0.6976 -0.0907  0.6574
  673TMC3    O110019   0.937   0.608   0.493  0.3058  0.2645  0.2125
  673TMC3    O210020   1.360   0.476   0.617 -0.1956  0.0593  0.0497
  674MPD2     C10021   0.980   4.641  17.498  0.2442 -0.6158  0.5105
  674MPD2    C110022   1.019   4.660  17.634 -0.0686 -0.6658  0.5236
  674MPD2    C210023   0.997   0.047  17.686 -0.1155 -0.0833  0.0741
  674MPD2    C310024   0.965   0.156  17.600 -0.8579 -0.6208  0.1699
  674MPD2    C410025   0.930   0.131  17.465  0.1423  0.7775  0.0227
  674MPD2    C510026   0.939   0.001  17.415 -0.2754  0.6580 -0.0319
  674MPD2     H10027   1.010   0.069   0.043 -2.3762  0.2663  0.2932
  674MPD2    H110028   0.908   0.214  17.398 -2.1589 -0.5244 -0.8574
  674MPD2    H210029   0.980   4.543  17.453 -3.5965 -0.4157  0.1039
  674MPD2    H310030   0.909   4.721  17.312 -1.0309  1.9387 -0.0282
  674MPD2     N10031   0.972   0.286  17.659 -0.3584  0.5076 -0.0356
  674MPD2    H510032   0.989   0.287   0.011 -0.7763  0.4134  0.0326
  674MPD2    N110033   1.068   4.542  17.702 -0.2010 -0.5220  0.5469
  674MPD2    H710034   1.070   4.453  17.653  4.3703  1.7589 -3.3990
  675TMC3    C110035   1.144   4.649   0.169  0.1433  0.4888 -0.4183
  675TMC3    C210036   1.097   4.643   0.299  0.4682 -0.7525 -0.9539
  675TMC3    C310037   1.125   0.013   0.376 -0.2059  0.8456  0.4952
  675TMC3    C410038   1.232   0.006   0.126  0.3239  0.5200  0.2107
  675TMC3    C510039   1.255   0.109   0.212  0.0576  0.0755  0.5299
  675TMC3    C610040   1.201   0.121   0.333  0.2799  0.0922  0.6291
  675TMC3     C10041   1.118   4.528   0.082 -0.3182  0.2684 -0.8985
  675TMC3     O10042   1.155   4.422   0.131 -0.1770 -0.5284  0.6828
  675TMC3     H10043   1.018   4.575   0.327 -1.3345  2.1512  0.9476
  675TMC3    H110044   1.283   4.736   0.031  1.5784 -1.0800  1.0116
  675TMC3    H210045   1.195   0.215   0.387  0.0461  0.2119  0.3943
  675TMC3    C710046   1.326   0.222   0.162  0.5765 -0.2022 -0.6283
  675TMC3    C810047   1.079   0.003   0.515 -0.8994 -0.7066 -0.3284
  675TMC3    O110048   1.337   0.240   0.041 -0.1337 -0.4085 -0.0721
  675TMC3    O210049   1.011   4.644   0.551 -0.3743 -0.1684 -0.6015
  676MPD2     C10050   3.788   4.610  11.240  0.3782  0.4712  0.1835
  676MPD2    C110051   3.660   4.567  11.276 -0.4185 -0.0297  0.1355
  676MPD2    C210052   3.590   4.487  11.189  0.2164 -0.2380  0.1993
  676MPD2    C310053   3.649   4.429  11.082  0.3397  0.4966  0.8077
  676MPD2    C410054   3.773   4.476  11.044  0.2802  0.1832  0.5398
  676MPD2    C510055   3.843   4.560  11.127 -0.0185  0.5754  1.3202
  676MPD2     H10056   3.487   4.465  11.214 -0.7138  1.9189 -1.6949
  676MPD2    H110057   3.820   4.454  10.949 -1.5277  0.9849 -0.5367
  676MPD2    H210058   3.841   4.692  11.287 -1.9508  3.0524 -1.6837
  676MPD2    H310059   3.936   4.602  11.090  0.5685  0.3621  2.5578
  676MPD2     N10060   3.582   4.330  11.009 -0.5414 -0.3630  0.2324
  676MPD2    H510061   3.625   4.301  10.921  1.6153 -0.0117  1.1788
  676MPD2    N110062   3.597   4.604  11.394  0.4971  0.3726 -0.1362
  676MPD2    H710063   3.505   4.565  11.411  0.4736  0.0307 -1.0491
  677TMC3    C110064   3.572   4.699  11.606  0.1989 -0.0661 -0.3486
  677TMC3    C210065   3.488   4.602  11.644  0.4838 -0.0209 -0.5625
  677TMC3    C310066   3.414   4.622  11.762 -0.2246 -0.5073 -0.0514
  677TMC3    C410067   3.599   0.068  11.688  0.7602  0.3396 -0.0204
  677TMC3    C510068   3.535   0.080  11.805 -0.1112  0.2959 -0.7946
  677TMC3    C610069   3.435   4.735  11.841 -0.0468 -0.3052 -0.2171
  677TMC3     C10070   3.647   4.687  11.486 -0.1201  0.0847  0.2886
  677TMC3     O10071   3.747   0.023  11.479  0.0407  0.0668 -0.1852
  677TMC3     H10072   3.479   4.510  11.589  1.0818 -0.0001 -0.6942
  677TMC3    H110073   3.688   0.128  11.675 -0.2884  1.2849 -3.0618
  677TMC3    H210074   3.374   0.011  11.929 -0.0966 -0.4096 -0.2352
  677TMC3    C710075   3.588   0.156  11.920  0.4086 -0.6971  0.7840
  677TMC3    C810076   3.382   4.503  11.833  0.2372 -1.0834  0.2076
  677TMC3    O110077   3.546   0.112  12.023 -0.5963 -0.6855  0.3038
  677TMC3    O210078   3.434   4.398  11.805 -0.3832 -0.2448  0.0295
  678MPD2     C10079   0.081   4.076   1.485 -0.3573 -0.1639 -0.2578
  678MPD2    C110080   0.088   3.963   1.410  0.3078 -0.3737  0.4044
  678MPD2    C210081   4.700   3.904   1.373  1.4600  0.2797 -0.7546
  678MPD2    C310082   4.578   3.949   1.417 -0.0720 -0.1664 -0.7120
  678MPD2    C410083   4.579   4.061   1.496  0.4887 -0.3204 -0.1216
  678MPD2    C510084   4.690   4.123   1.521  0.4295  0.0555 -0.4767
  678MPD2     H10085   4.699   3.828   1.296  1.3963 -1.7259  1.2291
  678MPD2    H110086   4.491   4.108   1.539  0.2047 -0.3572 -0.6612
  678MPD2    H210087   0.168   4.130   1.519 -0.2886 -1.0169  0.8717
  678MPD2    H310088   4.687   4.223   1.562 -0.9120  0.7384 -2.2955
  678MPD2     N10089   4.465   3.877   1.370 -0.8327 -0.0955 -0.2111
  678MPD2    H510090   4.484   3.793   1.316 -0.6030  1.2579 -2.2295
  678MPD2    N110091   0.211   3.917   1.353 -0.0696 -0.0617  0.3101
  678MPD2    H710092   0.221   3.827   1.306  0.7168  1.3008 -2.1099
  679TMC3    C110093   0.561   3.730   1.227  0.2316 -0.5442 -0.2492
  679TMC3    C210094   0.448   3.793   1.279 -0.7556 -0.0184  0.0500
  679TMC3    C310095   0.436   3.927   1.276  0.2275 -0.4310 -0.1420
  679TMC3    C410096   0.669   3.812   1.195 -0.2344 -0.0583 -0.0543
  679TMC3    C510097   0.651   3.948   1.196 -0.6468 -0.5138 -0.1816
  679TMC3    C610098   0.529   4.011   1.228 -0.4279  0.6510  0.9081
  679TMC3     C10099   0.561   3.600   1.169 -0.3508  0.2647  0.0454
  679TMC3     O10100   0.670   3.559   1.136 -0.4442 -0.2080 -0.5968
  679TMC3     H10101   0.373   3.735   1.331  1.9455 -1.7426  2.0496
  679TMC3    H110102   0.759   3.759   1.167  0.0124  0.3714 -0.0872
  679TMC3    H210103   0.514   4.118   1.224 -1.9552  0.4048  0.2084
  679TMC3    C710104   0.748   4.024   1.135 -0.3734 -0.3778  0.5036
  679TMC3    C810105   0.323   3.996   1.342  0.1542 -0.5832  0.0700
  679TMC3    O110106   0.845   3.972   1.085  0.2882 -0.4474  0.6410
  679TMC3    O210107   0.354   4.103   1.389 -0.1785 -0.4675 -0.4474
  680MPD2     C10108   0.056   2.577  13.727 -0.0861 -0.6745 -0.3123
  680MPD2    C110109   0.131   2.494  13.810  0.6040  0.9365  0.4892
  680MPD2    C210110   0.253   2.540  13.865 -0.8511 -1.0100 -0.1938
  680MPD2    C310111   0.290   2.671  13.850  0.3392  0.4491 -0.4362
  680MPD2    C410112   0.223   2.744  13.759 -0.4458  0.1517  0.0216
  680MPD2    C510113   0.107   2.696  13.697  0.0490  0.2976  0.3228
  680MPD2     H10114   0.313   2.484  13.936  0.7295  0.6860 -0.1611
  680MPD2    H110115   0.267   2.839  13.729  1.8802 -1.0805 -0.4979
  680MPD2    H210116   4.708   2.531  13.679 -0.0131 -3.3562  2.1347
  680MPD2    H310117   0.061   2.758  13.621 -1.8868 -0.6816  0.7167
  680MPD2     N10118   0.408   2.726  13.907 -0.4516 -0.1940 -0.1412
  680MPD2    H510119   0.433   2.819  13.877 -2.0971  0.0650 -0.7133
  680MPD2    N110120   0.089   2.368  13.850 -0.1787  0.2186 -0.6259
  680MPD2    H710121   0.159   2.301  13.880 -0.8198  0.5301  1.6052
  681TMC3    C110122   4.691   2.200  13.936  0.2581 -0.4812  0.2614
  681TMC3    C210123   4.619   2.197  14.048  0.4897  0.3389 -0.1485
  681TMC3    C310124   4.632   2.085  14.129  0.2227  0.7614  0.1825
  681TMC3    C410125   0.045   2.101  13.900  0.0822 -0.6569 -0.7459
  681TMC3    C510126   0.051   1.989  13.979 -0.0047 -0.0457  0.3293
  681TMC3    C610127   4.731   1.984  14.100 -0.0047  0.1106  0.0153
  681TMC3     C10128   4.699   2.323  13.860 -0.0384 -0.5006  0.7315
  681TMC3     O10129   4.595   2.385  13.869  0.6658 -0.1360 -0.5516
  681TMC3     H10130   4.554   2.281  14.069 -0.0164 -0.1197  0.0986
  681TMC3    H110131   0.106   2.123  13.812  0.1400 -1.0277 -0.7983
  681TMC3    H210132   0.006   1.891  14.154  0.6182 -0.5892 -1.3173
  681TMC3    C710133   0.155   1.891  13.950  0.0214  0.7696 -0.2345
  681TMC3    C810134   4.579   2.097  14.259 -0.5109  0.0922 -0.1077
  681TMC3    O110135   0.195   1.830  14.046  0.3009 -0.0862  0.1780
  681TMC3    O210136   4.475   2.157  14.274  0.4604 -0.0459  0.2806
  682MPD2     C10137   2.073   4.679  10.664 -0.4351  0.4374  0.4070
  682MPD2    C110138   2.142   4.562  10.703 -0.3688  0.0813  0.1150
  682MPD2    C210139   2.195   4.567  10.825  0.8589  0.3942 -0.1257
  682MPD2    C310140   2.203   4.672  10.911 -0.5073  0.1233 -0.4909
  682MPD2    C410141   2.144   0.050  10.868 -0.3765 -0.0241  0.6690
  682MPD2    C510142   2.072   0.045  10.751  0.2480  0.2773 -0.9542
  682MPD2     H10143   2.258   4.482  10.850 -0.4392 -0.5817 -0.1984
  682MPD2    H110144   2.134   0.137  10.932 -1.3591  0.7656 -0.5643
  682MPD2    H210145   2.023   4.678  10.568 -1.1202  2.0555  0.7562
  682MPD2    H310146   2.009   0.132  10.739  1.7154  1.6016  0.9375
  682MPD2     N10147   2.263   4.656  11.038  0.4613 -1.0073  0.2834
  682MPD2    H510148   2.263   4.734  11.103 -1.3029  0.2972 -1.2701
  682MPD2    N110149   2.145   4.441  10.623 -0.5197 -0.1955  0.7524
  682MPD2    H710150   2.184   4.364  10.676 -1.3667 -0.4294  1.0273
  683TMC3    C110151   2.484   4.537  11.406 -0.4790 -0.3653  0.3233
  683TMC3    C210152   2.408   4.442  11.471 -0.9057  0.3684 -0.0109
  683TMC3    C310153   2.288   4.414  11.421  0.6356 -0.3778  0.2610
  683TMC3    C410154   2.451   4.598  11.289 -0.5362  0.0093  0.0361
  683TMC3    C510155   2.331   4.558  11.243  0.0307 -0.0182 -0.7489
  683TMC3    C610156   2.244   4.472  11.306  0.9611 -0.3402 -0.3954
  683TMC3     C10157   2.576   4.599  11.499  0.0392  0.5282  0.2579
  683TMC3     O10158   2.538   4.614  11.613  0.1597 -0.3497 -0.5202
  683TMC3     H10159   2.441   4.402  11.566 -0.2240 -0.4249 -0.5792
  683TMC3    H110160   2.512   4.673  11.239  2.9236 -1.5124  1.9933
  683TMC3    H210161   2.152   4.447  11.255  1.7035  0.1770 -1.9691
  683TMC3    C710162   2.298   4.545  11.101 -0.4844  0.9672  0.1434
  683TMC3    C810163   2.251   4.277  11.415 -0.4766  0.5536 -0.5278
  683TMC3    O110164   2.269   4.428  11.077 -0.4087 -0.0836 -0.0188
  683TMC3    O210165   2.156   4.243  11.343  0.3496  0.1343 -0.0427
  684MPD2     C10166   0.715   2.944  16.245 -0.5265  0.0770 -0.8530
  684MPD2    C110167   0.613   2.994  16.167  0.3581  0.6948  0.1784
  684MPD2    C210168   0.552   3.114  16.190 -0.0996  0.6279  0.4070
  684MPD2    C310169   0.590   3.188  16.305  0.4134  0.1313  0.0806
  684MPD2    C410170   0.688   3.137  16.389  0.2035  0.2360 -0.6087
  684MPD2    C510171   0.746   3.017  16.358  0.1315 -0.6110 -0.4772
  684MPD2     H10172   0.476   3.147  16.120 -1.1007 -0.3587  1.0343
  684MPD2    H110173   0.711   3.191  16.480  0.9196  1.3489 -1.4513
  684MPD2    H210174   0.758   2.844  16.238  2.8691  1.4075  0.7286
  684MPD2    H310175   0.823   2.980  16.425 -1.3973 -1.4941  0.7943
  684MPD2     N10176   0.550   3.325  16.333 -0.4854  0.0971  0.3880
  684MPD2    H510177   0.578   3.354  16.426 -1.1676  1.5187  0.1469
  684MPD2    N110178   0.582   2.931  16.044  0.4051 -0.3847  0.0092
  684MPD2    H710179   0.493   2.952  15.998 -0.0792 -1.2941  0.5418
  685TMC3    C110180   0.608   2.770  15.865  0.2408  0.2491  0.4914
  685TMC3    C210181   0.543   2.859  15.782 -0.3023  0.6921 -0.2862
  685TMC3    C310182   0.577   2.851  15.648  0.0816 -0.0215 -1.4596
  685TMC3    C410183   0.700   2.678  15.823  0.2112  0.2328  0.4748
  685TMC3    C510184   0.750   2.697  15.698  0.0711  0.1221  0.2470
  685TMC3    C610185   0.690   2.786  15.610 -0.5248 -0.0100 -0.3231
  685TMC3     C10186   0.657   2.823  15.989 -0.1136 -0.2135 -0.2643
  685TMC3     O10187   0.770   2.788  16.009 -0.1307 -0.2900 -0.4707
  685TMC3     H10188   0.466   2.925  15.819 -1.6694 -0.1689 -1.5892
  685TMC3    H110189   0.740   2.597  15.883  0.5070  0.5072  0.6469
  685TMC3    H210190   0.719   2.769  15.507  1.2876  1.4908 -0.0421
  685TMC3    C710191   0.890   2.681  15.694 -1.0876 -0.5141 -0.1536
  685TMC3    C810192   0.531   2.970  15.570 -1.0041  0.6950 -0.0306
  685TMC3    O110193   0.937   2.665  15.581  0.5137  0.8370 -0.3540
  685TMC3    O210194   0.603   3.009  15.478 -0.3530 -0.3636 -0.0245
  686MPD2     C10195   1.822   3.535  15.583  0.2507  0.4173 -0.4685
  686MPD2    C110196   1.904   3.442  15.635  0.8458  0.1544  0.5757
  686MPD2    C210197   1.996   3.373  15.557 -0.0828  0.0048  0.2854
  686MPD2    C310198   1.998   3.388  15.420  0.1899 -0.2403 -0.4088
  686MPD2    C410199   1.914   3.488  15.367 -0.1421 -0.8593 -1.3539
  686MPD2    C510200   1.829   3.564  15.450 -0.2356 -0.1526 -0.3508
  686MPD2     H10201   2.065   3.307  15.608 -0.6778 -1.7622 -1.1754
  686MPD2    H110202   1.904   3.501  15.260 -2.2138  1.0137 -0.9314
  686MPD2    H210203   1.752   3.592  15.642  1.1678  0.1314  0.8856
  686MPD2    H310204   1.777   3.648  15.404 -1.2780 -0.4736  0.2289
  686MPD2     N10205   2.086   3.315  15.330 -0.2289  0.4276  0.3696
  686MPD2    H510206   2.091   3.343  15.232 -1.6967 -1.8377 -0.3576
  686MPD2    N110207   1.876   3.401  15.767  0.0708  0.6954 -0.1144
  686MPD2    H710208   1.808   3.460  15.815 -0.6316  0.1114 -0.4013
  687TMC3    C110209   2.120   3.119  15.468 -0.1274  0.1684 -0.7207
  687TMC3    C210210   1.992   3.080  15.468  0.4344  0.2414 -0.2966
  687TMC3    C310211   1.954   2.992  15.568  0.1481  0.3898  0.3696
  687TMC3    C410212   2.210   3.060  15.548 -0.1875  0.0022  0.2651
  687TMC3    C510213   2.167   2.970  15.635 -0.5367  0.5855 -0.5247
  687TMC3    C610214   2.038   2.934  15.654  0.1889 -0.1927 -0.1059
  687TMC3     C10215   2.174   3.216  15.376 -0.1522  0.0852  0.1735
  687TMC3     O10216   2.259   3.171  15.303  0.1818 -0.0901 -0.1832
  687TMC3     H10217   1.927   3.117  15.389 -1.3608 -4.0688 -0.8773
  687TMC3    H110218   2.314   3.090  15.537 -0.1925  0.5668  1.6756
  687TMC3    H210219   2.001   2.885  15.744 -0.5799  3.8767  1.7937
  687TMC3    C710220   2.245   2.940  15.748  0.2858  0.1500  0.0320
  687TMC3    C810221   1.816   2.983  15.603 -0.3516 -0.5267 -0.2860
  687TMC3    O110222   2.188   2.935  15.858  0.9438 -0.6807  0.4682
  687TMC3    O210223   1.783   2.887  15.674  0.2963  0.6098  0.8574
  688MPD2     C10224   1.281   2.093  17.277 -0.0703  0.2098 -0.3449
  688MPD2    C110225   1.302   1.966  17.325 -0.6353 -0.5132  0.5627
  688MPD2    C210226   1.428   1.913  17.318 -0.7946 -0.5288  0.5916
  688MPD2    C310227   1.524   1.974  17.238 -0.0866 -0.3083  0.0982
  688MPD2    C410228   1.503   2.109  17.205  0.0613  0.6114  1.0099
  688MPD2    C510229   1.380   2.166  17.231  0.7017  0.1762  0.1537
  688MPD2     H10230   1.448   1.819  17.367 -0.0469  0.0712  1.4244
  688MPD2    H110231   1.567   2.174  17.147 -0.8947 -0.5309 -1.2828
  688MPD2    H210232   1.182   2.137  17.282  0.4904  1.2145  1.7680
  688MPD2    H310233   1.356   2.269  17.208 -0.7527  0.3220  2.4212
  688MPD2     N10234   1.654   1.924  17.205 -0.0317 -0.0828  0.5711
  688MPD2    H510235   1.714   1.981  17.146 -0.3305 -0.0570  0.2965
  688MPD2    N110236   1.195   1.882  17.377  0.1944  0.1857  0.2386
  688MPD2    H710237   1.229   1.794  17.415 -0.0079  0.6276  1.4221
  689TMC3    C110238   0.980   1.831  17.476 -0.7090  0.1405 -0.4170
  689TMC3    C210239   0.896   1.909  17.552 -0.5598  0.1986 -0.4798
  689TMC3    C310240   0.808   1.858  17.643  0.3870 -0.2607  0.1045
  689TMC3    C410241   0.976   1.693  17.494  0.7403 -0.0757 -0.1180
  689TMC3    C510242   0.880   1.650  17.583  0.4476  0.2279 -0.8108
  689TMC3    C610243   0.803   1.722  17.664  0.1024  0.5344  1.1805
  689TMC3     C10244   1.061   1.911  17.376  0.0210 -0.1435  0.5832
  689TMC3     O10245   1.005   2.015  17.337 -0.1016 -0.1755 -0.3537
  689TMC3     H10246   0.906   2.016  17.536 -0.5593  0.1071 -1.0849
  689TMC3    H110247   1.032   1.622  17.433 -0.2508  0.2594 -1.4202
  689TMC3    H210248   0.722   1.669  17.713 -0.5279  0.0097 -0.4176
  689TMC3    C710249   0.861   1.510  17.614  0.1393 -0.2596  0.6000
  689TMC3    C810250   0.800   1.930   0.017 -0.6572  0.1219  0.0889
  689TMC3    O110251   0.844   1.488  17.733  0.2891  0.5506 -0.4563
  689TMC3    O210252   0.845   2.044   0.013 -0.2466 -0.1536  0.0797
  690MPD2     C10253   3.754   3.857  15.615 -0.0593 -0.7875 -0.0609
  690MPD2    C110254   3.754   3.799  15.491  0.1716 -0.2574 -0.4534
  690MPD2    C210255   3.866   3.815  15.407 -0.4177  0.4606 -0.3029
  690MPD2    C310256   3.981   3.878  15.452  0.0638  0.3414 -0.0434
  690MPD2    C410257   3.974   3.943  15.572  0.2549  0.3418  0.0518
  690MPD2    C510258   3.866   3.931  15.653  0.9166 -0.6612 -0.2391
  690MPD2     H10259   3.866   3.763  15.312 -0.0447 -1.0545  0.5258
  690MPD2    H110260   4.057   4.001  15.609  0.0353  0.5051  0.2868
  690MPD2    H210261   3.670   3.855  15.683  1.9987 -1.2054  2.4664
  690MPD2    H310262   3.862   3.979  15.750  2.5343 -0.5965 -0.2043
  690MPD2     N10263   4.091   3.888  15.372  0.9349 -0.3787 -0.0997
  690MPD2    H510264   4.078   3.842  15.283 -0.4991  2.3208 -1.2752
  690MPD2    N110265   3.641   3.722  15.442 -0.6460 -0.0020  0.7536
  690MPD2    H710266   3.651   3.661  15.361  2.7785  2.3527 -0.5674
  691TMC3    C110267   3.438   3.603  15.467  0.2524 -0.6357  0.0760
  691TMC3    C210268   3.304   3.602  15.499  0.1674 -0.0551  0.1991
  691TMC3    C310269   3.239   3.484  15.484 -0.0463  0.0645  0.0929
  691TMC3    C410270   3.516   3.486  15.463 -0.1041  0.0579 -0.2781
  691TMC3    C510271   3.443   3.369  15.466  0.1945 -0.1215 -0.4488
  691TMC3    C610272   3.308   3.370  15.463  0.1679 -0.5051 -0.0377
  691TMC3     C10273   3.514   3.719  15.504 -0.6825 -0.7219 -0.1636
  691TMC3     O10274   3.470   3.783  15.599 -0.1316  0.7123 -0.0009
  691TMC3     H10275   3.266   3.703  15.510  0.3401  0.0078  0.2234
  691TMC3    H110276   3.624   3.486  15.465 -0.0643 -1.1152 -2.8763
  691TMC3    H210277   3.247   3.282  15.449  0.7307 -0.6730 -1.3578
  691TMC3    C710278   3.506   3.249  15.516  0.0266  0.1241 -1.2609
  691TMC3    C810279   3.089   3.488  15.489  0.3469  0.1602  0.3322
  691TMC3    O110280   3.630   3.246  15.502 -0.2480  0.7145 -0.2545
  691TMC3    O210281   3.014   3.403  15.440  0.6890  0.0666  0.1768
  692TMC3    C110282   4.646   4.471  15.735  0.1728 -0.5029  0.1185
  692TMC3    C210283   4.621   4.530  15.616 -0.6224 -0.2933  0.1904
  692TMC3    C310284   4.714   4.526  15.516 -0.1274  0.8054 -0.4676
  692TMC3    C410285   0.012   4.386  15.751 -0.6121 -1.0645 -0.4376
  692TMC3    C510286   0.098   4.369  15.643  0.0390 -0.3674  0.1063
  692TMC3    C610287   0.090   4.449  15.531 -0.0143  0.4908 -0.2818
  692TMC3     C10288   4.629   4.553  15.853  0.0309  0.4248 -0.7241
  692TMC3     O10289   4.650   4.505  15.963  0.7263  0.3863 -0.1230
  692TMC3     H10290   4.535   4.597  15.612 -1.3129 -1.2849 -1.3573
  692TMC3    H110291   0.015   4.319  15.835 -0.2611 -0.7335 -0.1846
  692TMC3    H210292   0.160   4.437  15.449  0.2242 -2.1012  0.2828
  692TMC3    C710293   0.164   4.236  15.625  0.0296 -1.3989  0.2189
  692TMC3    C810294   0.020   4.658  15.483  0.2143 -0.0017 -0.0262
  692TMC3    O110295   0.207   4.213  15.514 -0.2552  0.2891 -0.2426
  692TMC3    O210296   4.666   0.002  15.475  0.3541  0.5120  0.0341
  693MPD2     C10297   4.678   3.491  10.884 -0.0348  0.3382 -0.6118
  693MPD2    C110298   4.600   3.412  10.961  0.0044 -1.3052  0.0308
  693MPD2    C210299   4.647   3.293  11.027 -0.1918 -0.5498 -0.6559
  693MPD2    C310300   0.041   3.251  11.007  0.2243  0.1675  0.0303
  693MPD2    C410301   0.114   3.326  10.922 -0.4408  0.5778 -0.1964
  693MPD2    C510302   0.063   3.435  10.853  0.3118  0.0157  0.4568
  693MPD2     H10303   4.581   3.233  11.088  1.1669 -2.7182 -1.3354
  693MPD2    H110304   0.216   3.294  10.901 -0.6576  0.6957 -1.4279
  693MPD2    H210305   4.641   3.572  10.823 -1.7938  0.3930  0.5197
  693MPD2    H310306   0.129   3.490  10.787 -0.5659  0.1224 -0.3379
  693MPD2     N10307   0.103   3.132  11.054 -0.0755 -0.5679  0.2677
  693MPD2    H510308   0.201   3.116  11.031 -0.3692 -1.3747 -0.4475
  693MPD2    N110309   4.471   3.445  10.991 -0.2369  0.6935 -0.3412
  693MPD2    H710310   4.426   3.396  11.068 -0.4621  0.9728 -0.2940
  694TMC3    C110311   4.258   3.539  10.968  0.0043 -1.4713  0.4910
  694TMC3    C210312   4.162   3.536  10.876  0.2475  0.9304  0.3353
  694TMC3    C310313   4.031   3.549  10.917  0.3524 -0.6036 -0.0420
  694TMC3    C410314   4.230   3.555  11.109  0.1722 -0.3656  0.7906
  694TMC3    C510315   4.106   3.570  11.145 -0.3159  0.0403 -0.4826
  694TMC3    C610316   4.003   3.574  11.045  0.2625 -0.1766  0.4271
  694TMC3     C10317   4.389   3.529  10.921 -0.0674  0.1114  0.1631
  694TMC3     O10318   4.403   3.563  10.804 -0.5178  0.2376  1.0126
  694TMC3     H10319   4.192   3.513  10.774  1.5559  0.3535  0.8450
  694TMC3    H110320   4.313   3.573  11.176 -1.6702  2.1882  2.3756
  694TMC3    H210321   3.904   3.603  11.078  1.0129  1.0687  1.5613
  694TMC3    C710322   4.073   3.598  11.284 -0.1768 -0.4595  0.5321
  694TMC3    C810323   3.922   3.556  10.820 -0.5332  0.0379 -0.3539
  694TMC3    O110324   3.967   3.657  11.298  0.0577  0.3366  0.4541
  694TMC3    O210325   3.951   3.584  10.707 -0.3266 -0.1058 -0.2071
  695MPD2     C10326   0.872   4.647  13.606  0.2325  0.0286  0.7260
  695MPD2    C110327   0.821   4.672  13.730  0.0916  0.2408 -0.3554
  695MPD2    C210328   0.692   4.724  13.735  0.0241 -0.0641 -0.4762
  695MPD2    C310329   0.616   0.010  13.621  0.2473  0.1757  0.1820
  695MPD2    C410330   0.678   4.722  13.500 -0.0720 -0.0376 -0.2013
  695MPD2    C510331   0.804   4.675  13.493  0.1950 -0.2005 -0.5589
  695MPD2     H10332   0.652   0.010  13.833  0.6720 -3.3492  0.5755
  695MPD2    H110333   0.625   4.737  13.407 -2.5389 -0.1600  1.1720
  695MPD2    H210334   0.971   4.609  13.582 -0.1256  1.0101 -2.3766
  695MPD2    H310335   0.844   4.651  13.395  2.2686  0.7717  0.0362
  695MPD2     N10336   0.485   0.073  13.629 -0.6024  0.2377 -0.2488
  695MPD2    H510337   0.440   0.079  13.720 -1.4363 -0.5075 -0.6062
  695MPD2    N110338   0.886   4.659  13.851  0.5459 -0.1478 -0.2334
  695MPD2    H710339   0.842   4.706  13.930  0.6403 -0.2051 -0.1465
  696TMC3    C110340   0.277   0.179  13.577 -0.4759  0.2183 -0.6677
  696TMC3    C210341   0.212   0.090  13.662 -1.2490 -0.6436 -0.1766
  696TMC3    C310342   0.084   0.121  13.703 -0.3299  0.1313 -0.2162
  696TMC3    C410343   0.220   0.290  13.537  0.5284 -0.4567  0.3548
  696TMC3    C510344   0.101   0.324  13.595  0.0922  0.6270 -0.1879
  696TMC3    C610345   0.031   0.247  13.681 -0.3643 -0.1340  0.3180
  696TMC3     C10346   0.411   0.141  13.526 -1.4650 -0.3220 -0.0477
  696TMC3     O10347   0.452   0.173  13.415  0.2823 -0.2111 -0.1567
  696TMC3     H10348   0.252   4.729  13.685  3.1321  1.2829  0.2397
  696TMC3    H110349   0.258   0.358  13.461 -0.8919 -0.2529 -0.1772
  696TMC3    H210350   4.666   0.273  13.706  0.0315  3.5432 -1.8114
  696TMC3    C710351   0.070   0.460  13.585  0.0669  0.0980  1.0529
  696TMC3    C810352   0.041   0.060  13.829 -0.0145  0.2297 -0.4175
  696TMC3    O110353   0.057   0.509  13.469  0.3717 -0.2357  0.1034
  696TMC3    O210354   0.062   4.677  13.839 -0.3501  0.2161  0.0125
  697MPD2     C10355   0.060   1.733  15.997  0.3775  0.2519  0.1904
  697MPD2    C110356   0.019   1.682  15.878  0.2319 -1.0395 -0.0540
  697MPD2    C210357   4.715   1.769  15.780 -0.1892  0.6727  0.1387
  697MPD2    C310358   4.725   1.903  15.794 -0.0665  0.1398 -0.1110
  697MPD2    C410359   0.048   1.958  15.909  0.4901  0.7319  0.7420
  697MPD2    C510360   0.084   1.868  16.004 -0.0405  0.0331 -0.1858
  697MPD2     H10361   4.675   1.736  15.685 -1.0392 -1.3602  1.2033
  697MPD2    H110362   0.070   2.061  15.932  0.1747  0.7015  1.1750
  697MPD2    H210363   0.094   1.671  16.079  1.6388  1.3937  0.5420
  697MPD2    H310364   0.135   1.918  16.085 -0.1459 -2.2507  1.3022
  697MPD2     N10365   4.689   1.985  15.687 -0.0459 -0.5687  0.0617
  697MPD2    H510366   4.658   1.945  15.600  1.9726 -1.1907 -0.3679
  697MPD2    N110367   0.023   1.549  15.849  0.1082 -0.3406 -0.1181
  697MPD2    H710368   4.715   1.524  15.762 -1.1991  0.0068  0.4669
  698TMC3    C110369   4.655   2.169  15.556 -0.1986 -0.4932  0.0128
  698TMC3    C210370   0.010   2.230  15.472  0.5118 -0.0943 -0.9150
  698TMC3    C310371   4.710   2.250  15.341  0.3902  0.0813 -0.5889
  698TMC3    C410372   4.527   2.140  15.529  0.0121  0.2666 -0.3580
  698TMC3    C510373   4.489   2.157  15.400 -0.5047 -0.2952  0.3986
  698TMC3    C610374   4.579   2.218  15.313  0.1132  0.0919 -0.0318
  698TMC3     C10375   4.707   2.120  15.680  0.1851 -0.3700 -0.2605
  698TMC3     O10376   4.735   2.205  15.760  0.0375  0.4089  0.3588
  698TMC3     H10377   0.110   2.237  15.514 -0.9381  1.3026  2.3604
  698TMC3    H110378   4.462   2.102  15.607  0.4431  0.7028  0.2179
  698TMC3    H210379   4.549   2.243  15.212 -1.2643  0.6550  0.5178
  698TMC3    C710380   4.389   2.062  15.348 -0.2772  0.2641 -0.3257
  698TMC3    C810381   0.056   2.201  15.235  0.3033 -0.9111  0.5600
  698TMC3    O110382   4.334   1.989  15.434 -0.3413 -0.2017 -0.2615
  698TMC3    O210383   0.009   2.146  15.136 -0.1602 -0.2839 -0.5439
  699TMC3    C110384   0.204   4.684  13.296  0.2810  0.4296 -0.4251
  699TMC3    C210385   0.246   4.566  13.350 -0.3524 -0.1270  0.1123
  699TMC3    C310386   0.154   4.505  13.435 -0.6477 -0.8114  0.3600
  699TMC3    C410387   0.075   4.731  13.318 -0.3999  0.0752 -0.0651
  699TMC3    C510388   4.728   4.665  13.402  0.0850 -0.2130  0.2136
  699TMC3    C610389   0.030   4.553  13.468 -0.3892 -0.6455 -0.2770
  699TMC3     C10390   0.280   0.016  13.201  0.4368 -0.0710  0.0961
  699TMC3     O10391   0.234   0.122  13.156 -0.0421  0.2046 -0.3637
  699TMC3     H10392   0.321   4.509  13.296  0.8735 -0.1037  1.7862
  699TMC3    H110393   0.051   0.093  13.284  1.1177  0.3439 -0.3833
  699TMC3    H210394   4.703   4.499  13.536  1.4222 -0.6402  1.4575
  699TMC3    C710395   4.598   4.722  13.437 -0.1933  1.0869 -0.2034
  699TMC3    C810396   0.201   4.399  13.517 -0.1178 -0.7865  0.2413
  699TMC3    O110397   4.550   4.685  13.545 -0.0131  0.1935 -0.0002
  699TMC3    O210398   0.114   4.322  13.558 -0.3976  0.0312  0.4563
  700TMC3    C110399   3.928   1.999  17.040  0.6724  0.0210  0.1794
  700TMC3    C210400   3.991   1.882  17.034  0.0955  0.8728 -0.4215
  700TMC3    C310401   4.082   1.848  17.137  0.4029 -0.1614 -0.2200
  700TMC3    C410402   3.939   2.085  17.149 -0.1543  0.2403 -0.1868
  700TMC3    C510403   4.026   2.045  17.253  0.0466 -0.3171  0.3506
  700TMC3    C610404   4.104   1.926  17.242  0.1753 -0.6102 -0.1636
  700TMC3     C10405   3.899   2.064  16.909  0.2670  0.5180  0.1732
  700TMC3     O10406   3.821   2.003  16.831  0.1068 -0.1917  0.4255
  700TMC3     H10407   3.975   1.811  16.953  0.6723  1.9565 -1.4892
  700TMC3    H110408   3.860   2.158  17.159 -1.0675 -0.7711 -0.0554
  700TMC3    H210409   4.183   1.901  17.312 -2.1550 -1.2183  2.2114
  700TMC3    C710410   4.061   2.137  17.361 -0.3021  0.4605  0.8655
  700TMC3    C810411   4.188   1.758  17.090  0.6040 -0.3515 -0.0977
  700TMC3    O110412   4.161   2.109  17.424 -0.1233 -0.2715  0.1477
  700TMC3    O210413   4.178   1.725  16.973  0.3457 -0.3374 -0.2429
  701TMC3    C110414   3.923   0.890  15.974  0.0714  0.2547  0.0982
  701TMC3    C210415   3.951   0.851  15.839 -0.7794 -0.2875  0.6530
  701TMC3    C310416   4.059   0.905  15.780 -0.3882 -0.4909  0.0015
  701TMC3    C410417   3.985   0.996  16.022 -0.0513 -0.0663  0.4422
  701TMC3    C510418   4.088   1.050  15.958  0.5941  0.0900  0.8474
  701TMC3    C610419   4.129   1.003  15.840 -0.3678  0.3512 -0.6700
  701TMC3     C10420   3.897   0.784  16.072  0.0660  0.0361 -0.0877
  701TMC3     O10421   3.877   0.820  16.186  0.1935 -0.2701  0.3044
  701TMC3     H10422   3.898   0.765  15.800  0.0582  0.5209 -2.2359
  701TMC3    H110423   3.963   1.027  16.123  0.5688  1.7089  0.0326
  701TMC3    H210424   4.214   1.048  15.791 -0.3792  1.8972  0.7158
  701TMC3    C710425   4.091   1.199  15.965 -0.2198 -0.4004 -0.8587
  701TMC3    C810426   4.052   0.925  15.637  0.3537 -0.0676  0.2338
  701TMC3    O110427   4.146   1.259  15.872  0.0459 -0.3530  0.0902
  701TMC3    O210428   4.084   1.039  15.601  0.5808 -0.5457 -0.2276
  702MPD2     C10429   2.877   4.298  10.611  0.3575  0.3704  0.0951
  702MPD2    C110430   3.009   4.323  10.580 -0.1800  0.8709 -0.1686
  702MPD2    C210431   3.049   4.409  10.473 -0.1075 -0.0161 -0.7249
  702MPD2    C310432   2.952   4.488  10.411 -0.1914  0.9119  0.4763
  702MPD2    C410433   2.817   4.459  10.438  0.9578 -0.3132  0.2604
  702MPD2    C510434   2.781   4.373  10.540  0.6866  0.0495  0.1387
  702MPD2     H10435   3.154   4.418  10.448 -0.3644  0.6538 -1.5697
  702MPD2    H110436   2.741   4.518  10.389 -1.3959 -3.3155  0.2617
  702MPD2    H210437   2.848   4.233  10.693  1.7537  2.4561  2.2240
  702MPD2    H310438   2.675   4.357  10.554  0.5649 -1.0565 -2.1757
  702MPD2     N10439   2.979   4.589  10.312  0.6620  0.7393 -0.2394
  702MPD2    H510440   2.891   4.615  10.269 -1.2891 -2.0350  2.0637
  702MPD2    N110441   3.093   4.236  10.645 -0.0883  0.0990 -0.7594
  702MPD2    H710442   3.051   4.172  10.711  0.6207  0.7340  0.2987
  703TMC3    C110443   3.207   4.648  10.368  0.4026  0.1089  0.2850
  703TMC3    C210444   3.178   4.668  10.501  0.0492  0.5744  0.7453
  703TMC3    C310445   3.273   4.719  10.581 -0.1516 -0.7790  0.4482
  703TMC3    C410446   3.327   4.692  10.315 -0.3856 -0.4115 -0.1669
  703TMC3    C510447   3.412   0.022  10.403 -0.8045 -0.2630 -0.4008
  703TMC3    C610448   3.396   0.026  10.538 -0.0948  0.3521  0.1146
  703TMC3     C10449   3.095   4.649  10.272 -0.1195  0.5763 -1.0763
  703TMC3     O10450   3.104   4.719  10.172 -0.5209  0.2360 -0.1818
  703TMC3     H10451   3.074   4.677  10.529  0.0523 -1.7401  1.4987
  703TMC3    H110452   3.339   4.686  10.208  0.0165  1.9162 -0.2579
  703TMC3    H210453   3.469   0.080  10.597 -0.9829  1.6386  0.0514
  703TMC3    C710454   3.534   0.080  10.347 -0.2242 -0.2770 -0.0860
  703TMC3    C810455   3.262   4.718  10.720  0.7175 -0.3694 -0.4302
  703TMC3    O110456   3.623   0.120  10.422 -0.5677 -0.2438 -0.7191
  703TMC3    O210457   3.335   0.052  10.784  0.0664 -0.1811  0.6977
  704TMC3    C110458   1.566   1.415  12.698  0.2548  0.4627  0.8980
  704TMC3    C210459   1.668   1.330  12.653 -0.5594 -0.5358 -0.2083
  704TMC3    C310460   1.758   1.263  12.740  1.3686 -0.0861  0.0763
  704TMC3    C410461   1.559   1.441  12.836  0.2730 -0.0983  0.1364
  704TMC3    C510462   1.651   1.376  12.918  0.0665  0.3867  0.0427
  704TMC3    C610463   1.750   1.292  12.874  0.4406  0.0375  0.1982
  704TMC3     C10464   1.443   1.387  12.639 -0.2768  0.5362 -0.9582
  704TMC3     O10465   1.351   1.379  12.721  0.2433  0.2336 -0.1815
  704TMC3     H10466   1.670   1.298  12.549 -1.2232  1.9303 -0.9634
  704TMC3    H110467   1.465   1.474  12.878  1.0422  2.4191 -0.0954
  704TMC3    H210468   1.806   1.228  12.942 -1.1791 -0.6046  0.9412
  704TMC3    C710469   1.596   1.323  13.045  0.2813 -0.0684  0.6541
  704TMC3    C810470   1.797   1.126  12.700 -0.4129  0.4213 -0.0109
  704TMC3    O110471   1.632   1.206  13.078 -0.3349  1.1687 -0.6367
  704TMC3    O210472   1.732   1.083  12.607 -0.3298  0.8768  0.2060
  705MPD2     C10473   1.070   4.430  16.743  0.5778  0.5923 -0.2568
  705MPD2    C110474   0.949   4.396  16.679 -0.1474 -0.1644 -0.4993
  705MPD2    C210475   0.827   4.440  16.732 -0.4982 -0.4627 -0.3189
  705MPD2    C310476   0.820   4.500  16.851  0.5795 -0.2017 -0.1481
  705MPD2    C410477   0.936   4.518  16.925  0.5334 -0.5560 -0.2928
  705MPD2    C510478   1.057   4.494  16.864 -0.0862 -0.0040  0.4473
  705MPD2     H10479   0.732   4.425  16.683  0.2726  1.2140 -2.3103
  705MPD2    H110480   0.928   4.553  17.027 -1.5044 -1.9653  0.0213
  705MPD2    H210481   1.164   4.412  16.693  0.1580 -0.7121 -0.5850
  705MPD2    H310482   1.151   4.516  16.913  0.3205 -1.3999  0.2871
  705MPD2     N10483   0.699   4.540  16.906  0.2936 -0.4508  0.1475
  705MPD2    H510484   0.704   4.576  17.000  0.1276 -0.8426  0.3102
  705MPD2    N110485   0.946   4.347  16.543 -0.0199  0.6870 -0.7344
  705MPD2    H710486   0.857   4.330  16.499 -1.1710  1.3231  1.3229
  706TMC3    C110487   1.086   4.234  16.094 -0.2374  0.4757 -0.1207
  706TMC3    C210488   0.991   4.321  16.044  0.6234 -0.7455 -0.0243
  706TMC3    C310489   0.914   4.388  16.137  0.7765 -0.3382 -0.4496
  706TMC3    C410490   1.103   4.228  16.232 -0.5709  0.1922  0.2248
  706TMC3    C510491   1.021   4.297  16.316  0.0438 -0.1141  0.2091
  706TMC3    C610492   0.936   4.391  16.268  0.7593 -0.0465 -0.5379
  706TMC3     C10493   1.212   4.220  16.018  0.5060 -0.0196  0.4361
  706TMC3     O10494   1.313   4.220  16.086  0.3838  0.2305 -0.0822
  706TMC3     H10495   0.976   4.332  15.937 -2.8136  2.5643  0.8186
  706TMC3    H110496   1.180   4.169  16.281 -1.4288 -0.4078  0.8320
  706TMC3    H210497   0.881   4.460  16.330  3.7906  1.2139  0.7375
  706TMC3    C710498   1.058   4.322  16.460  0.4218  0.1019  0.1633
  706TMC3    C810499   0.845   4.506  16.089 -0.3086  0.3438  0.5743
  706TMC3    O110500   1.176   4.319  16.481 -0.1203  0.1469  0.2413
  706TMC3    O210501   0.866   4.610  16.148 -0.1676 -0.5771  0.0795
  707TMC3    C110502   2.636   4.233   1.538  0.7278  0.0407  0.0904
  707TMC3    C210503   2.584   4.163   1.433  0.1477  0.2193 -0.8938
  707TMC3    C310504   2.449   4.184   1.407  0.1525  0.1371 -0.0324
  707TMC3    C410505   2.565   4.327   1.614  0.6256 -0.1474  0.2347
  707TMC3    C510506   2.435   4.346   1.580  0.2170 -0.0535 -0.8001
  707TMC3    C610507   2.380   4.288   1.469 -1.2243 -0.2742  0.5154
  707TMC3     C10508   2.771   4.197   1.562  0.6931  0.3564  0.4872
  707TMC3     O10509   2.821   4.124   1.473  0.1529  0.6625 -0.0360
  707TMC3     H10510   2.639   4.095   1.369  0.1733 -0.5494 -0.0463
  707TMC3    H110511   2.605   4.390   1.693  2.2146  0.8649 -1.3807
  707TMC3    H210512   2.276   4.290   1.439 -0.9470 -0.0619 -0.4534
  707TMC3    C710513   2.356   4.448   1.651  0.0589  0.0954 -0.7169
  707TMC3    C810514   2.378   4.092   1.325  1.1619  0.1130  0.0827
  707TMC3    O110515   2.415   4.532   1.716 -0.0856 -0.2801 -0.0192
  707TMC3    O210516   2.282   4.128   1.250 -0.3560 -0.1744 -0.1416
  708MPD2     C10517   3.635   2.483  14.062  0.2295  0.3590 -0.2647
  708MPD2    C110518   3.701   2.598  14.023 -0.6678 -0.7657 -0.5418
  708MPD2    C210519   3.721   2.695  14.116  0.2467 -0.2103  0.6688
  708MPD2    C310520   3.652   2.701  14.232  0.4333 -0.2164 -0.4853
  708MPD2    C410521   3.578   2.591  14.273  0.0789 -0.4124 -0.3500
  708MPD2    C510522   3.576   2.487  14.185  0.0746 -0.3207  0.6830
  708MPD2     H10523   3.782   2.779  14.086  0.3105 -0.4656  0.0964
  708MPD2    H110524   3.528   2.597  14.369 -1.5845 -2.3415 -1.0904
  708MPD2    H210525   3.609   2.402  13.995  1.0560  1.3203 -1.7330
  708MPD2    H310526   3.516   2.401  14.215  0.8054 -0.8257  0.6823
  708MPD2     N10527   3.652   2.811  14.320  0.7586 -0.4453  0.1149
  708MPD2    H510528   3.592   2.804  14.402  0.7880 -1.6928  0.0323
  708MPD2    N110529   3.755   2.610  13.892  0.5253 -1.1224 -0.0243
  708MPD2    H710530   3.798   2.697  13.860 -1.1098 -0.5529 -0.6536
  709TMC3    C110531   3.746   2.597  13.665  0.3323 -0.1626  0.0631
  709TMC3    C210532   3.853   2.676  13.630 -0.6396  0.6852 -0.4259
  709TMC3    C310533   3.825   2.794  13.571  0.0413  0.2654  0.3612
  709TMC3    C410534   3.622   2.652  13.670 -0.4206 -0.1662 -0.7498
  709TMC3    C510535   3.600   2.780  13.630 -0.1660 -0.7311  0.1517
  709TMC3    C610536   3.698   2.850  13.576 -0.4645  0.4093  0.0129
  709TMC3     C10537   3.743   2.516  13.787  0.5214  0.0543  0.3114
  709TMC3     O10538   3.686   2.408  13.783  0.1783  0.4429  0.5271
  709TMC3     H10539   3.955   2.646  13.653 -1.4054 -1.3273  0.3143
  709TMC3    H110540   3.545   2.588  13.711 -1.8383  1.7386 -0.4485
  709TMC3    H210541   3.674   2.948  13.537  0.2768  0.8597  0.6998
  709TMC3    C710542   3.508   2.856  13.713 -0.6065 -0.3339  0.5980
  709TMC3    C810543   3.925   2.842  13.482 -0.0090 -0.2899 -0.2861
  709TMC3    O110544   3.531   2.972  13.727 -0.5458  0.0237  0.6537
  709TMC3    O210545   4.032   2.781  13.476 -0.4508  0.3731  0.1497
  710TMC3    C110546   0.765   4.265   0.393  0.2040 -0.3621  0.8186
  710TMC3    C210547   0.844   4.210   0.293 -0.4091  0.3323 -0.1208
  710TMC3    C310548   0.959   4.150   0.338 -1.0221  0.3698 -0.6307
  710TMC3    C410549   0.799   4.270   0.522 -0.1012 -0.2754 -0.0037
  710TMC3    C510550   0.919   4.212   0.557  0.6006 -0.2020 -0.5375
  710TMC3    C610551   0.997   4.141   0.467 -0.0145  0.1703  0.5441
  710TMC3     C10552   0.624   4.291   0.356  0.2172  1.2800  0.2933
  710TMC3     O10553   0.584   4.247   0.251 -0.9987  0.2335  0.3125
  710TMC3     H10554   0.815   4.222   0.189  0.8054  0.4374 -0.4398
  710TMC3    H110555   0.747   4.304   0.611  0.2345 -2.2097  0.9298
  710TMC3    H210556   1.092   4.100   0.497  0.0657  1.0342  1.4500
  710TMC3    C710557   0.960   4.217   0.695  0.1463  0.4167  0.6153
  710TMC3    C810558   1.022   4.074   0.235  0.3131  0.3602 -0.5008
  710TMC3    O110559   1.016   4.120   0.748  0.5027 -0.4119  0.0649
  710TMC3    O210560   0.969   4.071   0.126  0.1316  0.5801  0.1121
  711TMC3    C110561   4.604   0.260  15.167 -0.1748  0.0030  0.1695
  711TMC3    C210562   4.658   0.384  15.166  0.1726  0.3717  0.4568
  711TMC3    C310563   0.057   0.395  15.180 -0.3019  0.5364  0.4471
  711TMC3    C410564   4.687   0.157  15.158  0.1900  0.4799  0.3581
  711TMC3    C510565   0.084   0.174  15.154 -0.6701 -0.3528 -0.4759
  711TMC3    C610566   0.146   0.290  15.184 -0.9885 -0.0304 -0.2288
  711TMC3     C10567   4.466   0.247  15.143 -0.8319 -0.6380 -0.7070
  711TMC3     O10568   4.429   0.144  15.089 -0.3282  0.0135  0.5757
  711TMC3     H10569   4.613   0.480  15.146  0.6000  0.8753  1.8828
  711TMC3    H110570   4.640   0.060  15.163 -1.5302  1.2652 -0.3115
  711TMC3    H210571   0.251   0.302  15.161 -0.6640 -2.1988  0.0618
  711TMC3    C710572   0.162   0.059  15.189 -1.2107  0.1490 -0.1291
  711TMC3    C810573   0.098   0.516  15.249  0.1888  0.2045 -0.1032
  711TMC3    O110574   0.268   0.087  15.242 -0.3672 -0.2149 -0.4174
  711TMC3    O210575   0.031   0.614  15.222 -0.2784  0.0700 -0.4153
  712MPD2     C10576   1.311   1.401  14.238  0.0879 -0.5839 -1.1611
  712MPD2    C110577   1.352   1.387  14.102 -0.3696  0.1835 -0.0441
  712MPD2    C210578   1.358   1.501  14.017  0.2487  0.3063 -0.1446
  712MPD2    C310579   1.349   1.632  14.074 -0.1939 -0.5485  0.8000
  712MPD2    C410580   1.304   1.644  14.209  0.3142  0.3866  0.2998
  712MPD2    C510581   1.292   1.528  14.291  0.4762  0.4563  0.4585
  712MPD2     H10582   1.370   1.488  13.910  2.6429 -0.1000  0.1662
  712MPD2    H110583   1.301   1.743  14.254 -0.4371  0.0185  1.0574
  712MPD2    H210584   1.301   1.319  14.309 -2.4155  0.0085 -0.8278
  712MPD2    H310585   1.269   1.530  14.396 -0.7863 -0.8607  0.2105
  712MPD2     N10586   1.369   1.740  13.991 -0.4794  0.0589  0.3312
  712MPD2    H510587   1.323   1.826  14.016 -1.8454 -0.1856 -1.3348
  712MPD2    N110588   1.398   1.267  14.046  0.0498  0.6553  0.1976
  712MPD2    H710589   1.429   1.264  13.949 -1.0545  3.3444 -0.2456
  713TMC3    C110590   1.399   1.828  13.783 -0.2053 -0.6928 -0.1791
  713TMC3    C210591   1.491   1.849  13.684 -0.0477  1.1144 -0.1148
  713TMC3    C310592   1.471   1.964  13.612 -0.5021  0.0411 -0.0399
  713TMC3    C410593   1.280   1.899  13.800 -0.1818  0.5899 -0.1073
  713TMC3    C510594   1.262   2.001  13.713 -1.0032 -0.1497  0.8041
  713TMC3    C610595   1.357   2.042  13.623  0.2109 -0.1334 -0.1327
  713TMC3     C10596   1.429   1.724  13.869  0.7209 -0.0675 -0.1079
  713TMC3     O10597   1.513   1.640  13.836 -0.4394  0.3283  0.3686
  713TMC3     H10598   1.589   1.804  13.674 -1.1624 -1.2043 -0.5623
  713TMC3    H110599   1.207   1.873  13.875  1.2603  0.4661  1.2345
  713TMC3    H210600   1.356   2.142  13.579  0.4743  0.9112  2.2359
  713TMC3    C710601   1.174   2.106  13.761  0.1824 -0.2529  0.2495
  713TMC3    C810602   1.577   2.029  13.535 -0.0847 -0.3365  0.5318
  713TMC3    O110603   1.204   2.220  13.734  0.1861 -0.4073 -0.1947
  713TMC3    O210604   1.547   2.092  13.433  0.7267  0.2851 -1.0123
  714MPD2     C10605   3.293   0.020   0.837 -0.0261 -0.7855  0.5909
  714MPD2    C110606   3.352   0.070   0.951 -1.2303  0.6896  1.1628
  714MPD2    C210607   3.285   0.161   1.028 -0.2888  0.0737 -0.5865
  714MPD2    C310608   3.166   0.208   0.982 -0.0468 -0.3593 -0.2176
  714MPD2    C410609   3.111   0.165   0.862  0.0157 -0.4036 -0.5350
  714MPD2    C510610   3.177   0.074   0.794 -0.2449  0.2691 -0.2026
  714MPD2     H10611   3.328   0.195   1.121 -0.2389 -3.7960  0.8113
  714MPD2    H110612   3.012   0.189   0.823 -1.2367  0.3662  3.1104
  714MPD2    H210613   3.339   4.688   0.768  2.4611 -0.4709  1.9348
  714MPD2    H310614   3.133   0.039   0.701 -1.9521  1.0164  0.3182
  714MPD2     N10615   3.093   0.283   1.074 -0.2026 -0.4388  0.0802
  714MPD2    H510616   3.141   0.283   1.164 -2.5228 -0.4886  1.3387
  714MPD2    N110617   3.479   0.037   0.998 -0.6550  0.2966 -0.0330
  714MPD2    H710618   3.494   0.076   1.091 -0.4990 -0.2500  0.1719
  715TMC3    C110619   3.686   4.670   1.004  0.4508  0.0857 -0.1158
  715TMC3    C210620   3.765   4.560   0.980  0.3651  0.1760  1.0016
  715TMC3    C310621   3.894   4.554   1.038  0.4162 -0.3671  0.2987
  715TMC3    C410622   3.738   0.033   1.083 -0.1253 -0.0840 -0.5878
  715TMC3    C510623   3.863   0.019   1.134 -0.0244 -0.1475 -0.5132
  715TMC3    C610624   3.945   4.654   1.122 -0.0898  0.0390  0.2430
  715TMC3     C10625   3.559   4.683   0.937 -0.5262 -0.1320  0.0760
  715TMC3     O10626   3.546   4.628   0.830 -0.5004 -0.3893  0.1453
  715TMC3     H10627   3.733   4.482   0.911  0.4562  0.7557  0.3033
  715TMC3    H110628   3.696   0.131   1.065  1.4307  0.5598 -0.6986
  715TMC3    H210629   4.044   4.646   1.165  0.0687  1.4887  0.1317
  715TMC3    C710630   3.911   0.132   1.208 -1.0003 -0.1050 -0.0779
  715TMC3    C810631   3.974   4.433   1.018 -0.3433 -0.4600 -0.0497
  715TMC3    O110632   4.031   0.136   1.234  0.1606  0.3069  0.1819
  715TMC3    O210633   3.951   4.363   0.919  0.0580 -0.1834  0.3490
  716MPD2     C10634   2.874   3.740  10.207 -0.6309 -0.2494  0.6800
  716MPD2    C110635   2.833   3.761  10.077 -0.4782  0.1033 -0.0839
  716MPD2    C210636   2.868   3.662   9.984 -0.4178  0.0198 -0.2818
  716MPD2    C310637   2.950   3.556  10.013 -0.6296 -0.0080  0.0308
  716MPD2    C410638   2.997   3.545  10.140  0.2424  0.6829  0.8514
  716MPD2    C510639   2.949   3.628  10.239 -0.1864 -0.0705  0.0126
  716MPD2     H10640   2.842   3.683   9.881  1.3447  0.2065 -0.6975
  716MPD2    H110641   3.046   3.457  10.181  0.5819  0.2273 -0.5344
  716MPD2    H210642   2.849   3.808  10.288 -0.6637 -0.2144  0.6403
  716MPD2    H310643   2.988   3.620  10.340 -0.6038 -1.1016  0.0813
  716MPD2     N10644   2.981   3.453   9.919 -0.6201 -0.6045 -0.3595
  716MPD2    H510645   2.944   3.467   9.825 -1.9731  1.5612  0.5157
  716MPD2    N110646   2.738   3.870  10.050  0.3193 -0.1633  0.5997
  716MPD2    H710647   2.687   3.912  10.127  0.7292 -2.5447  2.1578
  717TMC3    C110648   3.101   3.294   9.801 -0.3950  0.6425  0.2380
  717TMC3    C210649   2.988   3.262   9.732  0.4178  0.2500  0.3934
  717TMC3    C310650   3.016   3.160   9.637 -0.4990 -0.4359 -1.1268
  717TMC3    C410651   3.221   3.226   9.798 -0.2098  0.1710  0.4877
  717TMC3    C510652   3.237   3.118   9.712 -0.1905  0.6390  0.2211
  717TMC3    C610653   3.141   3.090   9.618 -0.1440  0.1621 -0.2651
  717TMC3     C10654   3.083   3.367   9.926 -0.5560 -0.0292 -0.1574
  717TMC3     O10655   3.161   3.353  10.014  0.0621  0.5008  0.4992
  717TMC3     H10656   2.897   3.318   9.745  1.2383  1.5821  0.4147
  717TMC3    H110657   3.291   3.249   9.877 -0.2383  1.4799  0.1358
  717TMC3    H210658   3.180   3.031   9.536  0.0653  1.0869 -0.8337
  717TMC3    C710659   3.360   3.036   9.726  0.0215 -0.3200 -0.4220
  717TMC3    C810660   2.907   3.129   9.550 -0.2075  0.3050 -0.8922
  717TMC3    O110661   3.359   2.927   9.673  0.2253 -0.6643  0.2481
  717TMC3    O210662   2.817   3.209   9.549 -0.0053  0.4604 -0.3842
  718MPD2     C10663   2.726   2.667  13.038  0.0458 -0.3741  0.7512
  718MPD2    C110664   2.727   2.628  12.910 -0.2273 -0.8715 -0.7290
  718MPD2    C210665   2.734   2.494  12.888 -0.4907 -0.0405 -0.2239
  718MPD2    C310666   2.747   2.395  12.989 -0.3570 -0.5471 -0.1269
  718MPD2    C410667   2.744   2.438  13.117 -0.4817  0.0033 -0.2538
  718MPD2    C510668   2.740   2.575  13.141  0.0197 -0.0596 -0.4141
  718MPD2     H10669   2.748   2.461  12.786 -0.3762  2.6026 -1.0400
  718MPD2    H110670   2.761   2.368  13.199 -1.4112 -0.3884 -0.3934
  718MPD2    H210671   2.708   2.771  13.064  0.2875 -0.7061  2.2939
  718MPD2    H310672   2.749   2.619  13.239  1.7662 -0.2836 -0.4782
  718MPD2     N10673   2.768   2.265  12.956 -0.0753  0.2912  0.7024
  718MPD2    H510674   2.784   2.250  12.857  0.7555 -0.1781  0.9130
  718MPD2    N110675   2.721   2.702  12.790 -0.2594 -0.3701  0.7138
  718MPD2    H710676   2.725   2.646  12.706 -1.0313 -0.4182  0.7018
  719TMC3    C110677   2.737   2.880  12.642 -0.1543  0.4270  0.8974
  719TMC3    C210678   2.714   2.773  12.559  0.1792  0.9872  0.1817
  719TMC3    C310679   2.802   2.731  12.464  0.1508 -0.2571 -0.4538
  719TMC3    C410680   2.857   2.938  12.617  0.0829 -0.8048  0.4775
  719TMC3    C510681   2.945   2.888  12.524 -0.3848 -0.0249 -0.4003
  719TMC3    C610682   2.926   2.782  12.445  0.2504 -0.1356  0.2842
  719TMC3     C10683   2.715   2.839  12.780 -0.1304 -0.6427 -0.1356
  719TMC3     O10684   2.717   2.910  12.879  0.7481 -0.2467  0.1952
  719TMC3     H10685   2.618   2.723  12.557 -0.4984  2.3180 -0.8491
  719TMC3    H110686   2.896   3.011  12.687 -1.1431 -0.8010  1.1622
  719TMC3    H210687   2.991   2.740  12.369 -1.3365  0.7111 -1.5423
  719TMC3    C710688   3.062   2.966  12.485 -0.3261 -0.0917 -0.9723
  719TMC3    C810689   2.824   2.593  12.473  0.4296 -0.6250 -0.2939
  719TMC3    O110690   3.146   2.899  12.419  0.2677 -0.1655  0.1262
  719TMC3    O210691   2.785   2.550  12.580 -0.1977  0.0664 -0.3579
  720MPD2     C10692   1.242   3.257  14.219 -0.5882 -0.0321 -0.1982
  720MPD2    C110693   1.304   3.369  14.164 -0.2689  0.3698 -0.8690
  720MPD2    C210694   1.411   3.417  14.237 -1.3112  0.5280  0.1837
  720MPD2    C310695   1.440   3.373  14.365 -0.5561 -0.7574  0.3325
  720MPD2    C410696   1.357   3.273  14.420  0.3851 -0.6853  0.3301
  720MPD2    C510697   1.255   3.218  14.348  0.1603  0.1882 -0.0050
  720MPD2     H10698   1.474   3.495  14.195 -0.3311 -1.0606 -1.2913
  720MPD2    H110699   1.367   3.231  14.519 -2.5949  2.4881  1.9720
  720MPD2    H210700   1.158   3.206  14.173 -0.3251 -0.9024  0.2968
  720MPD2    H310701   1.193   3.145  14.399 -0.7284  0.0755 -1.2238
  720MPD2     N10702   1.547   3.430  14.438  0.1130 -0.6654  0.3923
  720MPD2    H510703   1.631   3.465  14.395  0.4714  1.2950  2.7034
  720MPD2    N110704   1.269   3.411  14.040  0.0025  0.6300  0.2769
  720MPD2    H710705   1.210   3.352  13.983  0.0460 -0.1201  1.0174
  721TMC3    C110706   1.682   3.468  14.625 -0.5920  0.3486 -0.7855
  721TMC3    C210707   1.698   3.488  14.761 -1.0618  0.7760  0.3326
  721TMC3    C310708   1.827   3.515  14.808 -0.3663 -0.5938  0.6792
  721TMC3    C410709   1.788   3.492  14.535 -0.2237 -0.1108  0.5934
  721TMC3    C510710   1.915   3.503  14.586  0.6249  0.0577 -0.1781
  721TMC3    C610711   1.934   3.508  14.720 -0.6387 -0.4007  0.2600
  721TMC3     C10712   1.553   3.421  14.577 -0.4998  0.2853 -0.2332
  721TMC3     O10713   1.469   3.389  14.660  0.2831  0.1074 -0.2982
  721TMC3     H10714   1.610   3.503  14.822 -2.1396 -1.3072 -0.7265
  721TMC3    H110715   1.790   3.476  14.428 -0.3705  0.4465  0.5082
  721TMC3    H210716   2.037   3.504  14.754 -1.0640  1.0949  1.7002
  721TMC3    C710717   2.036   3.487  14.506 -0.0179 -0.6890 -0.2083
  721TMC3    C810718   1.861   3.594  14.925  0.8705 -0.2872  0.5415
  721TMC3    O110719   2.041   3.548  14.400 -0.2050  0.0614  0.0719
  721TMC3    O210720   1.982   3.606  14.944  0.0087 -0.0157  0.7470
  722MPD2     C10721   4.675   1.889  13.528  0.0760  0.1115  0.4893
  722MPD2    C110722   4.698   2.021  13.566  0.1245 -0.2457 -0.0383
  722MPD2    C210723   4.591   2.094  13.602 -0.8572 -0.5560 -0.3006
  722MPD2    C310724   4.462   2.046  13.623 -0.0422  0.1352 -0.5319
  722MPD2    C410725   4.438   1.914  13.579 -0.5736 -0.2768 -0.9621
  722MPD2    C510726   4.549   1.839  13.539 -0.3895 -0.5811 -0.3502
  722MPD2     H10727   4.600   2.191  13.650 -1.7500  0.3663 -1.9987
  722MPD2    H110728   4.340   1.870  13.562 -1.0838  0.1131  0.9624
  722MPD2    H210729   0.017   1.825  13.491 -0.0486 -0.2163  0.7824
  722MPD2    H310730   4.531   1.747  13.484 -0.5737 -1.0766  0.5505
  722MPD2     N10731   4.359   2.140  13.650  0.1322 -0.3180 -0.0555
  722MPD2    H510732   4.382   2.239  13.651 -2.1314  0.2216  0.8332
  722MPD2    N110733   0.079   2.081  13.517  0.2348  0.4964 -1.0787
  722MPD2    H710734   0.144   2.007  13.492 -0.5309  0.7280 -3.7462
  723TMC3    C110735   4.151   2.221  13.694 -0.4086  0.6269  0.0493
  723TMC3    C210736   4.037   2.223  13.620 -0.2765  0.2535  0.6555
  723TMC3    C310737   4.012   2.335  13.551  0.2026  0.0987 -0.1088
  723TMC3    C410738   4.232   2.330  13.717 -0.6827  0.4597 -0.6271
  723TMC3    C510739   4.206   2.438  13.644  0.0773 -0.2855 -0.2491
  723TMC3    C610740   4.095   2.447  13.564  0.6293 -0.3020 -0.1583
  723TMC3     C10741   4.228   2.106  13.668  0.2951 -0.1104  0.6105
  723TMC3     O10742   4.185   1.994  13.686 -0.1864 -0.0749 -0.0362
  723TMC3     H10743   3.994   2.126  13.599  0.0563  0.1110  0.6265
  723TMC3    H110744   4.326   2.325  13.771 -0.7427  0.5531 -0.5148
  723TMC3    H210745   4.085   2.529  13.494 -2.4089 -0.1331  0.4431
  723TMC3    C710746   4.320   2.493  13.572  0.1705  0.9942  0.1976
  723TMC3    C810747   3.935   2.336  13.424 -0.3205  0.2925  0.5504
  723TMC3    O110748   4.400   2.406  13.534 -0.8958 -0.1143 -0.3820
  723TMC3    O210749   3.887   2.439  13.383 -0.3440 -0.0756 -0.5393
  724TMC3    C110750   0.544   1.237  10.912  0.1244  0.2557 -0.4109
  724TMC3    C210751   0.451   1.234  10.805 -0.1834  0.0136  0.2049
  724TMC3    C310752   0.491   1.291  10.683 -0.1978 -0.0229  0.1466
  724TMC3    C410753   0.669   1.287  10.888  0.0499 -0.0035 -0.0155
  724TMC3    C510754   0.705   1.325  10.762 -0.3855 -0.3232  0.8086
  724TMC3    C610755   0.616   1.326  10.658 -0.0206 -0.2241  0.4562
  724TMC3     C10756   0.488   1.213  11.041 -0.4752 -0.5800  0.5576
  724TMC3     O10757   0.384   1.148  11.049 -0.1436  0.2148  0.7948
  724TMC3     H10758   0.348   1.225  10.839 -0.4171  0.7484 -0.3145
  724TMC3    H110759   0.736   1.256  10.967 -0.0336  1.0700  0.4725
  724TMC3    H210760   0.637   1.364  10.558  1.5930 -1.7225  0.2245
  724TMC3    C710761   0.850   1.336  10.729 -0.2739  0.8955  0.0842
  724TMC3    C810762   0.387   1.310  10.579 -0.3659  0.0425 -0.4238
  724TMC3    O110763   0.883   1.369  10.614 -0.6479  0.0163  0.2087
  724TMC3    O210764   0.287   1.246  10.592  0.4339  0.2420  0.3323
  725TMC3    C110765   2.117   4.135  13.100  0.2535  0.0615  0.5180
  725TMC3    C210766   1.988   4.190  13.105  0.0869 -0.3688  0.2755
  725TMC3    C310767   1.892   4.121  13.165  0.0168  0.0692  0.0656
  725TMC3    C410768   2.146   4.019  13.165 -0.7097  0.4113 -0.0895
  725TMC3    C510769   2.048   3.956  13.228  0.2340 -0.4439  0.0899
  725TMC3    C610770   1.917   4.005  13.231 -1.2368 -0.0568  0.1321
  725TMC3     C10771   2.215   4.202  13.011  0.0246 -0.3281  0.7734
  725TMC3     O10772   2.168   4.286  12.938 -0.5975 -0.9179  0.1840
  725TMC3     H10773   1.963   4.284  13.056 -0.9093 -1.3454 -1.0930
  725TMC3    H110774   2.248   3.981  13.155 -0.6052  0.7146 -0.1658
  725TMC3    H210775   1.837   3.957  13.286 -2.1865  0.5890 -0.6856
  725TMC3    C710776   2.064   3.813  13.230 -0.2493  0.3934 -0.2032
  725TMC3    C810777   1.756   4.151  13.148  0.6928  1.1244  0.0246
  725TMC3    O110778   2.170   3.772  13.189 -0.2958 -0.0700 -0.4049
  725TMC3    O210779   1.689   4.132  13.254 -0.6870  0.4211  0.6308
  726MPD2     C10780   4.669   1.734  11.077  0.0346  0.5233  0.0650
  726MPD2    C110781   4.595   1.796  10.982 -0.2753 -0.1005  0.3325
  726MPD2    C210782   4.476   1.739  10.944  0.1425 -0.0052 -0.3013
  726MPD2    C310783   4.435   1.624  11.000 -0.4444 -0.0335 -0.3201
  726MPD2    C410784   4.515   1.569  11.102 -0.0889 -0.8186 -0.2541
  726MPD2    C510785   4.629   1.622  11.141 -0.6929 -0.4152  0.3604
  726MPD2     H10786   4.412   1.786  10.869  1.8225 -1.7667 -2.8332
  726MPD2    H110787   4.472   1.478  11.143 -2.2553  1.0923  1.7210
  726MPD2    H210788   0.019   1.780  11.121  1.0656 -0.4245 -0.9960
  726MPD2    H310789   4.676   1.588  11.233 -0.4282  0.7059  0.6392
  726MPD2     N10790   4.319   1.548  10.976  0.0425  0.1249  0.3896
  726MPD2    H510791   4.306   1.467  11.035 -0.8945  0.4254  0.6013
  726MPD2    N110792   4.642   1.922  10.924  0.0233  0.3122  0.4992
  726MPD2    H710793   0.003   1.935  10.944  0.6329 -3.4595 -0.1354
  727TMC3    C110794   4.640   2.114  10.791  0.3015  0.0276 -0.4911
  727TMC3    C210795   0.020   2.096  10.728  0.0714  0.1600  1.3318
  727TMC3    C310796   0.074   2.197  10.652 -0.4409  0.1172  0.5046
  727TMC3    C410797   4.569   2.227  10.772 -0.3834  0.1335  0.3119
  727TMC3    C510798   4.626   2.331  10.707 -0.1030 -0.5621 -0.4698
  727TMC3    C610799   0.007   2.314  10.640 -0.1352 -0.0220 -0.9008
  727TMC3     C10800   4.565   2.006  10.843 -0.1017 -0.4827  0.3630
  727TMC3     O10801   4.447   2.006  10.812 -0.1051 -0.4225  0.0126
  727TMC3     H10802   0.051   1.993  10.716  2.0142  0.5852  2.6554
  727TMC3    H110803   4.478   2.242  10.830 -1.5149 -3.2154 -0.5908
  727TMC3    H210804   0.034   2.390  10.567  0.0411  1.3049  0.5453
  727TMC3    C710805   4.524   2.406  10.632 -0.2200 -0.0026  0.3036
  727TMC3    C810806   0.198   2.176  10.591 -0.1128  0.0265 -0.3225
  727TMC3    O110807   4.412   2.354  10.631 -0.4457  0.0643  0.3249
  727TMC3    O210808   0.226   2.063  10.574 -0.0043  0.1754 -0.0093
  728TMC3    C110809   4.302   3.935  15.296  0.1076  0.2732  0.4632
  728TMC3    C210810   4.425   3.874  15.315 -0.3546 -0.3436  0.8101
  728TMC3    C310811   4.508   3.874  15.210 -0.5340 -1.2177 -1.3329
  728TMC3    C410812   4.255   3.986  15.175 -0.5547 -0.3199  0.0980
  728TMC3    C510813   4.345   3.990  15.073 -0.3157  0.6598  0.0265
  728TMC3    C610814   4.464   3.928  15.086 -0.2246 -0.4335 -0.3464
  728TMC3     C10815   4.218   3.924  15.413 -0.2001  0.0894 -0.0806
  728TMC3     O10816   4.271   3.900  15.523  0.9406 -0.0235  0.1250
  728TMC3     H10817   4.459   3.837  15.411 -1.2842 -1.4201  0.7142
  728TMC3    H110818   4.155   4.028  15.175  0.1268  1.3142  0.3260
  728TMC3    H210819   4.531   3.938  15.002  1.4738  0.2818  1.1148
  728TMC3    C710820   4.290   4.020  14.940  0.1361  0.3899 -0.5662
  728TMC3    C810821   4.645   3.875  15.255 -0.9078  0.1915  0.3185
  728TMC3    O110822   4.367   3.981  14.849  0.0441  0.1407  0.1212
  728TMC3    O210823   4.665   3.875  15.374 -0.0659  0.4107 -0.4557
  729MPD2     C10824   1.093   0.928  16.902  0.4802  0.2470 -1.1543
  729MPD2    C110825   1.144   0.796  16.917 -0.1749 -0.0407 -0.1335
  729MPD2    C210826   1.151   0.738  17.038 -0.4114 -0.1294  0.3438
  729MPD2    C310827   1.128   0.809  17.155  0.7552  0.2214  0.7072
  729MPD2    C410828   1.079   0.942  17.138 -0.0163  0.0495  0.7801
  729MPD2    C510829   1.068   0.997  17.016 -0.0575  0.3888  0.0250
  729MPD2     H10830   1.187   0.636  17.038 -2.7348 -0.9266 -0.8657
  729MPD2    H110831   1.060   1.009  17.221 -0.6800  0.2422  0.4691
  729MPD2    H210832   1.077   0.965  16.802  1.1219 -2.8107 -2.3890
  729MPD2    H310833   1.044   1.103  17.004 -0.4521  0.1328 -1.4657
  729MPD2     N10834   1.133   0.757  17.288 -0.2855 -0.8029 -0.1544
  729MPD2    H510835   1.109   0.819  17.364  1.4991 -0.3410  0.0370
  729MPD2    N110836   1.186   0.734  16.795  0.3360 -0.3252  0.1972
  729MPD2    H710837   1.180   0.788  16.709  0.2411  1.1973  1.1528
  730TMC3    C110838   1.175   0.616  17.466 -0.1280 -0.2310  0.0791
  730TMC3    C210839   1.302   0.568  17.491 -0.8550 -0.2780 -0.0214
  730TMC3    C310840   1.381   0.648  17.567  0.1373 -0.2963  0.1156
  730TMC3    C410841   1.134   0.725  17.540  0.3339 -0.0906 -0.1393
  730TMC3    C510842   1.212   0.797  17.619  0.2517  1.0451 -0.2953
  730TMC3    C610843   1.342   0.757  17.641  0.5529  0.7814  0.2249
  730TMC3     C10844   1.169   0.632  17.322  0.8168  0.1850 -0.6371
  730TMC3     O10845   1.239   0.562  17.251  0.0037  0.1666 -0.0564
  730TMC3     H10846   1.329   0.480  17.434 -0.4252 -1.0196  1.3289
  730TMC3    H110847   1.034   0.754  17.512  0.3401  0.3296  0.2797
  730TMC3    H210848   1.411   0.824  17.690  1.0982  0.0170  0.5033
  730TMC3    C710849   1.187   0.939  17.588  0.0948 -0.4114  0.0574
  730TMC3    C810850   1.512   0.664  17.512  1.1221  0.3113  0.4808
  730TMC3    O110851   1.152   0.954  17.470 -0.1122 -0.0749 -0.2738
  730TMC3    O210852   1.591   0.735  17.572  0.0570 -0.2154 -0.5516
  731MPD2     C10853   1.447   3.638  12.510  0.1276  1.1253  0.2318
  731MPD2    C110854   1.346   3.691  12.429 -0.0516 -0.0810  0.8339
  731MPD2    C210855   1.220   3.680  12.476 -0.1115 -0.8213 -0.2508
  731MPD2    C310856   1.195   3.638  12.607 -0.3649  0.1224 -0.0074
  731MPD2    C410857   1.293   3.591  12.685 -0.0446 -0.0707  0.2461
  731MPD2    C510858   1.422   3.590  12.632  0.2401 -0.1107  0.9426
  731MPD2     H10859   1.145   3.731  12.415  1.2929  0.3243 -1.0249
  731MPD2    H110860   1.278   3.562  12.788 -2.2983  1.7991  0.4601
  731MPD2    H210861   1.552   3.638  12.484 -0.2407 -0.3984 -1.3206
  731MPD2    H310862   1.506   3.554  12.691  1.1006 -0.4284 -0.4861
  731MPD2     N10863   1.064   3.638  12.671 -0.3955 -0.2600 -0.1111
  731MPD2    H510864   1.066   3.624  12.772  2.1827  0.2607 -0.0985
  731MPD2    N110865   1.373   3.731  12.292 -0.0208 -0.1007  0.0849
  731MPD2    H710866   1.466   3.711  12.256  0.4275 -0.0774  1.2363
  732TMC3    C110867   1.335   3.797  12.077 -0.4121 -0.6858 -0.0227
  732TMC3    C210868   1.246   3.769  11.980  0.6701 -0.1879 -0.1803
  732TMC3    C310869   1.288   3.760  11.853 -0.3551  0.9093  0.1770
  732TMC3    C410870   1.464   3.837  12.042 -0.3566  0.4803 -0.1793
  732TMC3    C510871   1.509   3.808  11.917  0.0417 -0.0256  0.5379
  732TMC3    C610872   1.422   3.778  11.812 -0.1575 -0.6986 -0.8184
  732TMC3     C10873   1.288   3.787  12.206  0.3074  0.5631  0.2254
  732TMC3     O10874   1.171   3.818  12.218  0.2754  0.0800 -0.6200
  732TMC3     H10875   1.141   3.752  12.000  0.1721  1.6325 -1.1710
  732TMC3    H110876   1.529   3.868  12.123  1.6846  1.0251 -2.0256
  732TMC3    H210877   1.456   3.757  11.711  0.0555  3.6079 -1.6228
  732TMC3    C710878   1.651   3.787  11.900  0.0466 -0.4940 -0.2147
  732TMC3    C810879   1.208   3.687  11.757  0.4155  0.0754 -0.0808
  732TMC3    O110880   1.697   3.844  11.800  0.4743 -0.3451 -0.0886
  732TMC3    O210881   1.268   3.640  11.664  0.1609  0.4030 -0.2020
  733TMC3    C110882   2.872   1.820  12.918 -0.5749 -0.4554  0.9257
  733TMC3    C210883   2.824   1.924  12.988  0.1895  0.8329  0.4031
  733TMC3    C310884   2.852   2.053  12.959  0.9159  0.4180 -0.0330
  733TMC3    C410885   2.943   1.837  12.802  0.0919  0.5477 -0.3752
  733TMC3    C510886   2.958   1.969  12.767 -0.0268 -0.4781  0.3500
  733TMC3    C610887   2.919   2.079  12.841 -0.2105  0.0124 -0.0471
  733TMC3     C10888   2.830   1.692  12.967 -0.6765  0.2689 -0.4293
  733TMC3     O10889   2.901   1.595  12.946  0.4098  0.2517 -0.0902
  733TMC3     H10890   2.784   1.911  13.088 -1.8553 -2.2284 -0.8016
  733TMC3    H110891   2.967   1.750  12.741  0.5430  0.3515  0.0788
  733TMC3    H210892   2.952   2.180  12.822 -1.3196  0.5790  0.9593
  733TMC3    C710893   2.996   1.995  12.633 -0.0717 -0.2960 -0.6121
  733TMC3    C810894   2.788   2.157  13.036 -0.7924  0.9642 -0.4154
  733TMC3    O110895   3.083   1.928  12.585 -0.2503  0.3797 -0.0774
  733TMC3    O210896   2.788   2.145  13.159 -0.4331 -0.0710 -0.0887
  734MPD2     C10897   4.212   4.501  12.681  0.8935 -0.0987  0.4927
  734MPD2    C110898   4.214   4.379  12.617  0.2150  0.4335  0.0899
  734MPD2    C210899   4.277   4.371  12.495 -0.3743  0.1691  0.0869
  734MPD2    C310900   4.321   4.488  12.424 -0.5982 -0.2402 -0.3720
  734MPD2    C410901   4.318   4.610  12.499  0.2659  0.1864  1.1422
  734MPD2    C510902   4.266   4.608  12.623  0.7569  0.0550  0.3839
  734MPD2     H10903   4.281   4.277  12.440  0.8687 -1.0348  2.2505
  734MPD2    H110904   4.347   4.707  12.460 -2.6420  0.6581  0.1380
  734MPD2    H210905   4.178   4.505  12.784  0.8126  0.9150  0.4287
  734MPD2    H310906   4.252   4.701  12.678 -1.0561  0.4284 -0.7231
  734MPD2     N10907   4.365   4.475  12.288 -0.5144  0.1050 -0.4055
  734MPD2    H510908   4.374   4.378  12.259 -0.9562 -0.1971  0.4586
  734MPD2    N110909   4.162   4.266  12.677  0.0809  0.2366 -0.3074
  734MPD2    H710910   4.130   4.276  12.773  2.5020  1.3373  0.3680
  735TMC3    C110911   4.061   4.059  12.680 -0.4474 -0.7440  0.0294
  735TMC3    C210912   3.996   3.980  12.581  0.3248  0.3048 -0.1108
  735TMC3    C310913   4.062   3.873  12.531  0.0738  0.4457  0.1056
  735TMC3    C410914   4.174   4.013  12.736 -0.1205 -0.7888 -0.5668
  735TMC3    C510915   4.237   3.897  12.684  0.5893 -0.8672  0.8982
  735TMC3    C610916   4.185   3.826  12.577  0.0837  0.1547  0.3823
  735TMC3     C10917   4.092   4.176  12.598  0.6529 -0.1670 -0.3664
  735TMC3     O10918   4.079   4.168  12.479 -0.8981 -0.3156  0.3496
  735TMC3     H10919   3.904   4.010  12.533 -0.0990 -0.2418  0.3650
  735TMC3    H110920   4.233   4.073  12.805 -1.2919 -1.2519  0.8305
  735TMC3    H210921   4.239   3.748  12.526  0.3591 -0.3127  1.3749
  735TMC3    C710922   4.385   3.904  12.696 -0.3551  1.0926 -0.4410
  735TMC3    C810923   4.027   3.834  12.398  0.1551  0.4988  0.6087
  735TMC3    O110924   4.435   3.927  12.804 -0.2019  0.4601  0.4340
  735TMC3    O210925   4.068   3.726  12.357 -0.3343  0.2169 -0.5007
  736MPD2     C10926   4.671   3.834  12.663 -0.1696  0.3545  0.2119
  736MPD2    C110927   4.586   3.889  12.565  0.3282  0.1255  0.4184
  736MPD2    C210928   4.637   3.926  12.441 -0.7402 -0.6862  0.1543
  736MPD2    C310929   0.031   3.919  12.419  0.0211  0.1660 -0.3196
  736MPD2    C410930   0.114   3.862  12.510  0.3571  0.0249  0.0466
  736MPD2    C510931   0.066   3.826  12.636 -0.7745 -0.5072  0.3902
  736MPD2     H10932   4.567   3.975  12.374 -1.0747 -0.9881  0.2847
  736MPD2    H110933   0.220   3.850  12.488  0.3839 -1.4351  0.8859
  736MPD2    H210934   4.632   3.807  12.761  1.8257 -0.5842  0.7463
  736MPD2    H310935   0.135   3.790  12.710 -0.8698  1.0907  1.2560
  736MPD2     N10936   0.092   3.945  12.296  0.5593  0.0117  0.1807
  736MPD2    H510937   0.193   3.936  12.285  0.6474  0.5580  0.5170
  736MPD2    N110938   4.449   3.907  12.581  0.3081 -0.6090  0.0229
  736MPD2    H710939   4.397   3.915  12.494  1.4665  0.5984 -0.5511
  737TMC3    C110940   0.121   4.033  12.081 -0.2170 -0.5873  0.0178
  737TMC3    C210941   0.107   4.152  12.022  1.3224 -0.6736  0.0981
  737TMC3    C310942   0.167   4.167  11.897  0.1651  0.1287 -0.4199
  737TMC3    C410943   0.182   3.927  12.026  0.6928  0.2135 -0.6164
  737TMC3    C510944   0.228   3.946  11.901  0.2927  0.1823  0.2763
  737TMC3    C610945   0.222   4.057  11.826 -0.5491 -0.4951  0.8858
  737TMC3     C10946   0.033   4.009  12.190 -0.0949 -0.0613 -0.5760
  737TMC3     O10947   4.661   4.065  12.176 -0.0658 -0.0053 -0.1036
  737TMC3     H10948   0.059   4.236  12.070  1.0239  0.1701 -1.6595
  737TMC3    H110949   0.191   3.829  12.072 -0.1039 -0.1957 -1.3277
  737TMC3    H210950   0.253   4.060  11.723 -2.7375  2.5160  0.3112
  737TMC3    C710951   0.299   3.826  11.848  0.3010  0.9417  0.2371
  737TMC3    C810952   0.185   4.302  11.850 -1.0799 -0.3258 -0.2114
  737TMC3    O110953   0.272   3.717  11.902  0.5265  0.5486 -0.7118
  737TMC3    O210954   0.197   4.380  11.941  0.6638  0.2924  0.1261
  738MPD2     C10955   0.272   2.179  15.034  0.5195 -0.6041  0.1285
  738MPD2    C110956   0.292   2.225  15.162 -0.3395  0.0487 -0.2719
  738MPD2    C210957   0.422   2.268  15.197 -0.4190 -0.0490 -0.1735
  738MPD2    C310958   0.514   2.287  15.100 -0.1009 -0.6789 -0.0282
  738MPD2    C410959   0.499   2.231  14.972 -0.3046 -0.4337 -0.7241
  738MPD2    C510960   0.377   2.185  14.942  0.5880  0.6338 -0.0340
  738MPD2     H10961   0.440   2.301  15.299 -0.7708 -1.7412  0.4296
  738MPD2    H110962   0.570   2.237  14.891 -1.0331  5.2206 -0.9804
  738MPD2    H210963   0.173   2.157  14.996  0.3103  0.0132  0.3113
  738MPD2    H310964   0.358   2.148  14.842 -0.3929 -1.2134  0.8352
  738MPD2     N10965   0.622   2.378  15.116 -0.3378 -0.3513  0.3428
  738MPD2    H510966   0.690   2.382  15.041 -0.1081  0.5933  0.6135
  738MPD2    N110967   0.187   2.232  15.260  0.1228  0.0593  0.5379
  738MPD2    H710968   0.214   2.257  15.355  3.0539  0.0751 -0.2837
  739TMC3    C110969   0.767   2.541  15.192  0.2239 -0.5114 -0.3889
  739TMC3    C210970   0.760   2.589  15.065  0.1526 -0.8437  0.4517
  739TMC3    C310971   0.871   2.653  15.020  0.0634  0.8489  0.4952
  739TMC3    C410972   0.869   2.547  15.278 -0.7961 -0.2618  0.0814
  739TMC3    C510973   0.979   2.610  15.229  0.0269  0.3698 -0.6196
  739TMC3    C610974   0.987   2.668  15.099  0.2740  0.2557 -0.7388
  739TMC3     C10975   0.652   2.457  15.223 -0.0932  0.4141  0.2297
  739TMC3     O10976   0.597   2.470  15.333  0.2232 -0.4142  0.0760
  739TMC3     H10977   0.674   2.596  14.999  0.5251 -0.0520  0.0442
  739TMC3    H110978   0.869   2.493  15.372 -0.8752  0.9179  0.7575
  739TMC3    H210979   1.082   2.694  15.053  1.3179 -1.3362  0.5059
  739TMC3    C710980   1.104   2.590  15.287 -0.8528 -0.1640 -0.5653
  739TMC3    C810981   0.881   2.694  14.879 -0.3170  0.1687  0.3408
  739TMC3    O110982   1.132   2.476  15.316  0.0422 -0.0048 -0.8401
  739TMC3    O210983   0.854   2.611  14.795  0.2306 -0.9063  0.5876
  740TMC3    C110984   1.185   3.847  14.655  0.4775 -0.5232  0.1497
  740TMC3    C210985   1.199   3.800  14.782  1.3668  0.0473  0.3665
  740TMC3    C310986   1.314   3.745  14.807  0.4017 -0.5986  0.8204
  740TMC3    C410987   1.282   3.847  14.559 -0.5396 -0.6201 -0.1740
  740TMC3    C510988   1.398   3.788  14.593 -0.0075  0.9676  0.3329
  740TMC3    C610989   1.410   3.729  14.709  0.4193 -0.5958  0.4936
  740TMC3     C10990   1.053   3.889  14.602 -0.7827 -0.1274 -0.2851
  740TMC3     O10991   1.036   3.956  14.501 -0.4288  0.4821  0.4068
  740TMC3     H10992   1.143   3.847  14.862 -2.3560 -0.8344 -1.7350
  740TMC3    H110993   1.266   3.890  14.460  1.4049 -0.7220 -0.5213
  740TMC3    H210994   1.493   3.661  14.718 -0.0183 -1.4433 -1.7765
  740TMC3    C710995   1.511   3.786  14.493 -1.1273 -0.0327 -0.1047
  740TMC3    C810996   1.359   3.693  14.941  0.4151 -0.5521 -0.2594
  740TMC3    O110997   1.615   3.740  14.538 -0.8988 -0.3819 -0.3429
  740TMC3    O210998   1.471   3.639  14.945 -0.0512 -0.2207  0.2184
  741TMC3    C110999   0.586   3.168  14.348  0.4057  0.6714 -0.3055
  741TMC3    C211000   0.484   3.108  14.280  0.6691 -0.8133  0.0215
  741TMC3    C311001   0.435   2.996  14.344 -0.0519  0.2945 -0.1198
  741TMC3    C411002   0.623   3.132  14.480  0.1840 -0.1822 -0.1119
  741TMC3    C511003   0.548   3.037  14.544 -0.2529 -0.4628  0.2835
  741TMC3    C611004   0.453   2.965  14.474  0.6459 -0.3094 -0.0701
  741TMC3     C11005   0.680   3.255  14.286  0.0867 -0.2591  0.4503
  741TMC3     O11006   0.796   3.217  14.292 -0.0694  0.1901  0.1139
  741TMC3     H11007   0.450   3.138  14.181 -0.7216  0.2160  0.8036
  741TMC3    H111008   0.707   3.180  14.530  1.3057 -2.7058  0.4041
  741TMC3    H211009   0.385   2.893  14.516  1.9657 -0.4799  1.7785
  741TMC3    C711010   0.577   3.004  14.679 -0.3816  0.6372 -0.3338
  741TMC3    C811011   0.326   2.922  14.276 -0.1079  0.3839  0.5227
  741TMC3    O111012   0.553   2.886  14.707  0.2449 -0.2734 -0.6319
  741TMC3    O211013   0.285   2.985  14.180  0.5616 -0.5333 -0.0034
  742TMC3    C111014   0.821   1.868  15.670  0.4853  0.2068  0.0135
  742TMC3    C211015   0.718   1.811  15.600  0.2756 -0.3382  0.0109
  742TMC3    C311016   0.748   1.737  15.488 -0.1661  0.0979 -0.7910
  742TMC3    C411017   0.952   1.863  15.623 -0.2887  0.0937  0.2040
  742TMC3    C511018   0.973   1.799  15.508 -0.1907 -0.0022 -0.5681
  742TMC3    C611019   0.870   1.731  15.437 -0.2568 -0.1481 -0.0702
  742TMC3     C11020   0.793   1.894  15.807 -0.2407 -0.4048 -0.1591
  742TMC3     O11021   0.688   1.859  15.857 -0.4599 -0.4232  0.2862
  742TMC3     H11022   0.622   1.794  15.648  1.9056 -3.3926  2.1079
  742TMC3    H111023   1.039   1.917  15.661 -0.0160 -0.4720  0.3815
  742TMC3    H211024   0.887   1.672  15.347  1.1595  0.3225 -0.1143
  742TMC3    C711025   1.097   1.736  15.483  0.0923 -0.0238  0.1476
  742TMC3    C811026   0.633   1.701  15.396 -0.0465 -0.2471  0.0120
  742TMC3    O111027   1.103   1.619  15.446 -0.0564  0.5653 -0.7905
  742TMC3    O211028   0.662   1.683  15.278 -0.7692 -0.6778 -0.0434
  743MPD2     C11029   3.039   3.528   1.851 -0.4461  0.2209 -0.3469
  743MPD2    C111030   3.051   3.409   1.783 -0.2482 -0.2103  0.2583
  743MPD2    C211031   3.141   3.315   1.838  0.6116 -0.4760  0.4518
  743MPD2    C311032   3.217   3.331   1.951  0.0087 -0.3241 -0.0193
  743MPD2    C411033   3.196   3.445   2.013 -1.0542 -0.1051 -0.0971
  743MPD2    C511034   3.111   3.539   1.970 -0.0807  0.2070 -0.2239
  743MPD2     H11035   3.142   3.227   1.774  0.7869 -1.0284  1.2242
  743MPD2    H111036   3.254   3.469   2.101 -1.4865 -1.3741  0.5273
  743MPD2    H211037   2.968   3.604   1.822  1.2439  2.1677  0.6164
  743MPD2    H311038   3.092   3.621   2.038 -0.1130 -1.1902  1.4432
  743MPD2     N11039   3.310   3.236   1.991  0.3661 -0.4959  0.4068
  743MPD2    H511040   3.319   3.156   1.930 -2.3142  0.4918 -1.2651
  743MPD2    N111041   2.958   3.383   1.675 -0.6403  0.2479  0.0113
  743MPD2    H711042   2.890   3.456   1.656 -0.7013  0.2283  0.1544
  744TMC3    C111043   2.872   3.275   1.477 -0.3143  0.6316  0.1175
  744TMC3    C211044   2.751   3.337   1.491  0.5001  0.1559  0.1347
  744TMC3    C311045   2.691   3.358   1.378 -0.1522 -0.2697  0.7802
  744TMC3    C411046   2.914   3.203   1.365 -0.0214 -0.0498 -0.3767
  744TMC3    C511047   2.827   3.205   1.256 -0.0695  0.4902 -0.5395
  744TMC3    C611048   2.722   3.292   1.259 -0.2086  0.3168 -0.3889
  744TMC3     C11049   2.964   3.270   1.588  0.4865  0.3352  0.2116
  744TMC3     O11050   3.052   3.183   1.585 -0.1225 -0.0189  0.0073
  744TMC3     H11051   2.722   3.383   1.585  0.0999  0.9357 -0.3689
  744TMC3    H111052   3.015   3.167   1.355 -0.0604 -0.1002 -0.5765
  744TMC3    H211053   2.658   3.296   1.171 -0.0616 -1.2485 -0.5652
  744TMC3    C711054   2.875   3.128   1.139  0.1909  0.5307  0.1192
  744TMC3    C811055   2.596   3.463   1.389 -0.3827  0.4068  0.3064
  744TMC3    O111056   2.978   3.064   1.157 -0.2006  0.3653  0.1144
  744TMC3    O211057   2.572   3.513   1.497  0.2694  0.6078  0.0191
  745TMC3    C111058   1.326   1.048  13.997  0.3754 -0.0271 -0.0648
  745TMC3    C211059   1.202   1.005  14.037  0.0779 -0.7492 -0.5697
  745TMC3    C311060   1.086   1.047  13.969  0.3119  0.3211  0.4619
  745TMC3    C411061   1.332   1.106  13.874 -0.3553 -1.0806 -0.8204
  745TMC3    C511062   1.218   1.134  13.794 -0.6309  0.0292 -0.0685
  745TMC3    C611063   1.092   1.112  13.849 -0.4922  0.1893  0.5082
  745TMC3     C11064   1.363   1.140  14.099  0.4970  0.6548 -0.2457
  745TMC3     O11065   1.330   1.110  14.214 -0.1305 -0.9494 -0.2028
  745TMC3     H11066   1.187   0.919  14.102  1.1301  0.5753  1.4149
  745TMC3    H111067   1.429   1.129  13.832 -0.3105 -0.8067 -0.5687
  745TMC3    H211068   0.999   1.132  13.796 -1.2319  0.7731  2.0250
  745TMC3    C711069   1.218   1.260  13.730 -0.4537 -0.2718  0.5632
  745TMC3    C811070   0.984   1.110  14.053 -0.5652  0.8522 -0.3029
  745TMC3    O111071   1.131   1.335  13.763 -0.0410  0.1916  0.0726
  745TMC3    O211072   0.888   1.156  14.000  0.4659 -0.0234 -0.4126
  746TMC3    C111073   3.419   4.180  10.947  0.6095  0.5084 -0.4436
  746TMC3    C211074   3.386   4.233  10.823 -0.5369 -0.4802 -0.5924
  746TMC3    C311075   3.289   4.167  10.754  0.0418 -0.1704  0.0543
  746TMC3    C411076   3.354   4.072  10.993 -0.1849 -0.6531 -0.5718
  746TMC3    C511077   3.258   4.009  10.918 -0.0516  0.4435 -0.0962
  746TMC3    C611078   3.230   4.056  10.793 -0.0179  0.2228 -0.3134
  746TMC3     C11079   3.462   4.272  11.051 -0.4936 -0.6588 -0.6334
  746TMC3     O11080   3.392   4.282  11.147 -0.7723 -0.0021 -0.2976
  746TMC3     H11081   3.416   4.328  10.782  0.1997 -0.8327 -0.8555
  746TMC3    H111082   3.378   4.048  11.096 -1.6891 -3.2797 -0.8182
  746TMC3    H211083   3.147   4.019  10.734  1.1810 -0.1784 -1.7518
  746TMC3    C711084   3.183   3.896  10.969 -0.0746 -0.0986  0.5102
  746TMC3    C811085   3.230   4.241  10.642  0.3464  0.1109 -0.5989
  746TMC3    O111086   3.113   3.843  10.890 -0.0857  0.7704  0.5207
  746TMC3    O211087   3.296   4.338  10.607  0.0747 -0.5433 -0.0854
  747TMC3    C111088   0.906   3.870  11.017 -0.3153 -0.6856 -0.0395
  747TMC3    C211089   0.849   3.767  11.087  0.0182  0.5523 -0.9561
  747TMC3    C311090   0.872   3.767  11.226 -0.7919  0.8555 -0.3168
  747TMC3    C411091   0.986   3.965  11.077  0.0078 -0.0345  0.4268
  747TMC3    C511092   1.026   3.940  11.210  0.4722 -0.9419 -0.3614
  747TMC3    C611093   0.968   3.839  11.287 -0.6162  0.4770  0.4262
  747TMC3     C11094   0.865   3.915  10.888  0.0010 -0.6349  0.2659
  747TMC3     O11095   0.865   4.032  10.856 -0.5056 -0.2184  0.3853
  747TMC3     H11096   0.772   3.705  11.043  1.4598 -0.9518 -1.3351
  747TMC3    H111097   1.011   4.055  11.023 -1.0068 -0.0251 -0.0225
  747TMC3    H211098   1.006   3.812  11.385  0.0487 -2.8868 -0.7317
  747TMC3    C711099   1.139   4.013  11.275  0.2801  0.0801  1.1796
  747TMC3    C811100   0.793   3.681  11.312  0.2946  0.5817 -0.5396
  747TMC3    O111101   1.170   3.980  11.388 -0.0003 -0.6094 -0.1201
  747TMC3    O211102   0.780   3.567  11.280 -0.1456 -0.3397 -0.0657
  748MPD2     C11103   2.397   0.020   1.440 -0.1645  0.1313  0.0884
  748MPD2    C111104   2.392   4.646   1.351 -0.6372  0.7074  0.0966
  748MPD2    C211105   2.512   4.576   1.343  0.6113  0.3999 -0.0494
  748MPD2    C311106   2.626   4.614   1.413  0.7524  0.6172 -0.9051
  748MPD2    C411107   2.623   4.721   1.500 -0.2242  0.6905  0.3159
  748MPD2    C511108   2.507   0.052   1.517  0.3510  0.1336  0.4500
  748MPD2     H11109   2.522   4.492   1.276 -1.8268 -0.2489  0.4085
  748MPD2    H111110   2.707   0.018   1.559 -0.2795  1.5474 -0.1020
  748MPD2    H211111   2.312   0.086   1.451  0.7267  1.4546 -0.9450
  748MPD2    H311112   2.498   0.132   1.589  1.7653  0.3850  0.3590
  748MPD2     N11113   2.738   4.532   1.389 -0.1057  0.7280  0.1851
  748MPD2    H511114   2.732   4.468   1.311  2.2214  1.3912 -0.5391
  748MPD2    N111115   2.271   4.606   1.285 -0.3425 -0.4269 -0.3511
  748MPD2    H711116   2.189   4.660   1.309  0.2267 -0.2775  1.2720
  749TMC3    C111117   2.977   4.469   1.396 -0.5604 -0.3544 -0.5698
  749TMC3    C211118   3.062   4.410   1.483  0.2287 -0.3192 -0.2441
  749TMC3    C311119   3.166   4.343   1.422 -0.3181 -0.2595 -0.3371
  749TMC3    C411120   2.987   4.458   1.259  0.8428 -0.3419  0.3251
  749TMC3    C511121   3.080   4.374   1.206  0.4980  0.1145 -0.2467
  749TMC3    C611122   3.176   4.322   1.289 -0.2520 -0.2094 -0.0166
  749TMC3     C11123   2.862   4.538   1.457 -0.6885  0.6220  0.1062
  749TMC3     O11124   2.885   4.591   1.566  0.0095  0.3547  0.5473
  749TMC3     H11125   3.063   4.428   1.590 -1.2439  1.8458 -0.6065
  749TMC3    H111126   2.917   4.504   1.190 -0.8854 -2.0478  0.9293
  749TMC3    H211127   3.264   4.273   1.247  0.7101 -0.4854  2.3288
  749TMC3    C711128   3.114   4.393   1.064 -0.1906  0.2645 -0.7387
  749TMC3    C811129   3.273   4.307   1.516 -0.4245  0.1017  0.2315
  749TMC3    O111130   3.063   4.489   1.005 -0.0501 -0.3984  0.2598
  749TMC3    O211131   3.285   4.375   1.620 -0.3450  0.3804  0.0732
  750MPD2     C11132   3.175   0.750  11.576 -0.2571  0.0423  0.0337
  750MPD2    C111133   3.050   0.696  11.582  0.3693 -0.1823  0.3759
  750MPD2    C211134   3.023   0.590  11.492  0.1146 -0.1495 -0.0637
  750MPD2    C311135   3.118   0.542  11.409  0.3817  0.2428  0.0947
  750MPD2    C411136   3.245   0.591  11.410 -0.1003 -0.4511 -0.4668
  750MPD2    C511137   3.271   0.694  11.496  0.1592  0.6802  0.1709
  750MPD2     H11138   2.924   0.552  11.474  0.0922 -0.3709  0.5104
  750MPD2    H111139   3.325   0.552  11.348  1.4914 -0.1007  1.3589
  750MPD2    H211140   3.206   0.836  11.633  0.4496  0.2099 -0.6105
  750MPD2    H311141   3.372   0.732  11.492  0.0808  0.9966  1.1571
  750MPD2     N11142   3.096   0.429  11.324  0.4361  0.0714  0.0072
  750MPD2    H511143   3.174   0.386  11.275  2.1334  2.0807  0.9627
  750MPD2    N111144   2.950   0.765  11.655  0.1219 -0.1437 -0.6418
  750MPD2    H711145   2.973   0.856  11.693  2.0153 -0.8035 -0.2380
  751TMC3    C111146   2.988   0.264  11.197  0.4918 -0.6515  0.6195
  751TMC3    C211147   2.898   0.162  11.197 -0.5647  0.3759  0.5503
  751TMC3    C311148   2.872   0.108  11.072 -0.0717  0.9794 -0.1923
  751TMC3    C411149   3.053   0.307  11.079  0.1941  0.4229  0.1295
  751TMC3    C511150   3.022   0.240  10.958 -0.0553 -0.4714 -0.3107
  751TMC3    C611151   2.928   0.139  10.952  0.4436  0.3000  0.3303
  751TMC3     C11152   2.978   0.362  11.303  0.3967  0.3596  0.6211
  751TMC3     O11153   2.863   0.359  11.352 -0.1790 -0.1884 -0.2145
  751TMC3     H11154   2.848   0.129  11.288  0.4678 -0.6552  0.7360
  751TMC3    H111155   3.107   0.401  11.070  1.3820 -0.3185 -0.4641
  751TMC3    H211156   2.916   0.077  10.864 -3.0800  1.1300  0.2212
  751TMC3    C711157   3.094   0.278  10.844  0.0297  0.6306 -0.4366
  751TMC3    C811158   2.785   4.720  11.080 -0.3104  0.0163  0.4764
  751TMC3    O111159   3.199   0.335  10.866  0.4487 -0.5269 -0.2252
  751TMC3    O211160   2.775   4.671  11.192  0.2241 -0.3870  0.0780
  752TMC3    C111161   2.315   0.020  16.674 -0.3581 -0.0523 -0.4414
  752TMC3    C211162   2.421   4.680  16.631  0.5444  1.0241  0.3590
  752TMC3    C311163   2.521   4.667  16.723 -0.3783 -0.7209  0.4391
  752TMC3    C411164   2.312   0.086  16.795  0.3769  0.8976  0.4688
  752TMC3    C511165   2.411   0.063  16.880  0.0619 -0.2782  0.2605
  752TMC3    C611166   2.516   4.728  16.844  0.4859  0.5365 -0.1591
  752TMC3     C11167   2.206   0.017  16.589 -0.0674 -0.0606  0.1135
  752TMC3     O11168   2.209   4.670  16.500  0.4595 -0.3464 -0.2929
  752TMC3     H11169   2.426   4.631  16.535 -1.0506 -1.9647  1.8230
  752TMC3    H111170   2.222   0.135  16.829  0.9228  0.8803  1.9717
  752TMC3    H211171   2.591   4.700  16.917  0.8173 -0.9753 -1.0798
  752TMC3    C711172   2.394   0.106  17.023  0.3447  0.5208  1.5592
  752TMC3    C811173   2.632   4.584  16.696  0.1906 -0.2613  0.8185
  752TMC3    O111174   2.456   0.047  17.107 -0.3971 -0.2110  0.2308
  752TMC3    O211175   2.683   4.538  16.799  0.2561 -0.0977 -0.0800
  753TMC3    C111176   3.940   1.545  13.539 -0.0301 -0.0901 -0.2259
  753TMC3    C211177   3.968   1.476  13.655 -0.0361  0.0775 -1.2229
  753TMC3    C311178   3.985   1.341  13.652 -0.0235  0.5590 -0.1016
  753TMC3    C411179   3.903   1.474  13.425 -0.5505  0.0413 -0.9038
  753TMC3    C511180   3.907   1.337  13.425 -0.0651 -0.0644 -0.7095
  753TMC3    C611181   3.954   1.273  13.538 -0.2384 -0.2473  0.1062
  753TMC3     C11182   3.870   1.675  13.550  0.6033  0.6464  0.3604
  753TMC3     O11183   3.827   1.731  13.449  0.0761 -0.4206 -0.2663
  753TMC3     H11184   3.956   1.512  13.756  0.5602 -0.2572 -1.0385
  753TMC3    H111185   3.871   1.531  13.339 -0.8375 -0.4217 -1.1054
  753TMC3    H211186   3.972   1.166  13.538  0.6601 -0.0846  2.9008
  753TMC3    C711187   3.823   1.269  13.323 -0.7928  0.9685 -0.5731
  753TMC3    C811188   4.049   1.268  13.761  0.5041  0.8949 -0.0344
  753TMC3    O111189   3.739   1.333  13.269 -0.4073  0.2932  0.5637
  753TMC3    O211190   4.049   1.143  13.756 -0.3720  0.2631 -0.5546
  754MPD2     C11191   2.776   0.410  13.663 -0.3514  0.0711  0.5048
  754MPD2    C111192   2.755   0.278  13.628  0.1998 -0.2343 -0.4043
  754MPD2    C211193   2.737   0.248  13.495 -0.1395 -0.4334 -0.0108
  754MPD2    C311194   2.737   0.347  13.398 -0.2394  0.4208  0.1848
  754MPD2    C411195   2.761   0.480  13.436 -0.2602  0.0900  0.1751
  754MPD2    C511196   2.779   0.508  13.570 -0.0728 -0.3901 -0.0741
  754MPD2     H11197   2.705   0.147  13.474  2.0203 -0.9637 -0.8022
  754MPD2    H111198   2.754   0.560  13.363 -1.7472  2.5684  3.0216
  754MPD2    H211199   2.789   0.447  13.763  1.7345 -1.0645  0.6470
  754MPD2    H311200   2.797   0.612  13.594 -2.0058  0.0955 -0.7234
  754MPD2     N11201   2.686   0.314  13.268  0.6598 -0.6106 -0.2521
  754MPD2    H511202   2.663   0.395  13.212  0.9241  2.1328  3.5576
  754MPD2    N111203   2.727   0.184  13.724  0.0611  0.1233  0.5805
  754MPD2    H711204   2.713   0.221  13.818 -0.3392  2.5531 -0.4511
  755MPD2     C11205   1.716   0.188  13.090  0.5156 -0.1915  0.1894
  755MPD2    C111206   1.806   0.183  13.193 -0.4627  0.7343 -0.6000
  755MPD2    C211207   1.939   0.202  13.161  0.0938  1.0096 -0.1247
  755MPD2    C311208   1.985   0.212  13.034 -0.5175 -0.2622 -1.2067
  755MPD2    C411209   1.898   0.205  12.935  0.1630  0.1926  0.0314
  755MPD2    C511210   1.765   0.192  12.964  0.0110  0.4530 -0.3178
  755MPD2     H11211   2.009   0.201  13.244  0.9193  1.1092 -0.8200
  755MPD2    H111212   1.930   0.214  12.831  1.6706  0.2733  0.4969
  755MPD2    H211213   1.610   0.171  13.105  0.7289  0.4552  2.3623
  755MPD2    H311214   1.690   0.191  12.886  0.5859 -3.4446 -0.8148
  755MPD2     N11215   2.117   0.245  12.999 -0.3702  0.2178  0.2803
  755MPD2    H511216   2.133   0.250  12.899  0.6283  1.3652  0.5071
  755MPD2    N111217   1.766   0.165  13.326 -0.4355  0.6662 -0.0280
  755MPD2    H711218   1.840   0.140  13.391 -1.1163 -1.2903 -0.0177
  756MPD2     C11219   2.549   1.901  10.252 -0.7235  0.0834  0.1082
  756MPD2    C111220   2.610   1.786  10.214 -0.0399  0.0703  0.5939
  756MPD2    C211221   2.650   1.780  10.081 -0.0634  0.1711 -0.0835
  756MPD2    C311222   2.626   1.879   9.991  0.4889  0.4537 -1.1444
  756MPD2    C411223   2.550   1.981  10.031 -0.4985 -0.1121 -0.0947
  756MPD2    C511224   2.509   1.997  10.158 -0.2628 -1.0348  0.2006
  756MPD2     H11225   2.708   1.696  10.045 -1.6805 -0.3787 -1.3964
  756MPD2    H111226   2.510   2.056   9.964  2.2040  3.6130  2.4788
  756MPD2    H211227   2.523   1.910  10.357 -2.9883 -0.0178 -0.4280
  756MPD2    H311228   2.460   2.083  10.201 -0.8254 -0.2856 -1.9334
  756MPD2     N11229   2.669   1.862   9.855 -0.2603 -0.2923 -0.4719
  756MPD2    H511230   2.710   1.772   9.830  3.6227  1.2347  0.4419
  756MPD2    N111231   2.640   1.688  10.313 -0.4082 -0.1287 -0.1486
  756MPD2    H711232   2.591   1.694  10.402 -0.3747  1.2396 -0.2222
  757MPD2     C11233   2.449   1.120   9.563  0.0021 -0.1762 -0.7912
  757MPD2    C111234   2.554   1.153   9.650  0.2266  0.6379 -0.5264
  757MPD2    C211235   2.620   1.271   9.637 -0.2324 -0.0641 -0.2121
  757MPD2    C311236   2.588   1.359   9.534 -0.1622  0.2806 -0.9122
  757MPD2    C411237   2.474   1.327   9.456 -0.0691 -0.4841  0.2104
  757MPD2    C511238   2.409   1.208   9.468  0.8565  0.6999 -0.1967
  757MPD2     H11239   2.702   1.297   9.704 -0.8326 -2.0527  1.2868
  757MPD2    H111240   2.426   1.407   9.401  1.4907 -0.6858 -1.4574
  757MPD2    H211241   2.392   1.028   9.572  0.1106  0.0109  1.7252
  757MPD2    H311242   2.319   1.180   9.415  0.7910  1.9900 -0.7479
  757MPD2     N11243   2.642   1.489   9.540 -0.1412  0.0514  0.4582
  757MPD2    H511244   2.678   1.511   9.633 -0.5568  0.5539  0.5005
  757MPD2    N111245   2.589   1.050   9.742 -0.1525 -0.8170 -0.7470
  757MPD2    H711246   2.533   0.967   9.722 -0.8448 -0.2390 -1.2000
  758MPD2     C11247   3.121   4.691  15.792  0.2570  0.3045  0.1244
  758MPD2    C111248   3.131   4.579  15.872  0.2025  0.5189 -0.2092
  758MPD2    C211249   3.145   4.595  16.013 -0.3777  0.1082  0.0972
  758MPD2    C311250   3.121   4.719  16.077  0.2006 -0.3033  0.5595
  758MPD2    C411251   3.107   0.087  15.989 -0.2790 -0.7541 -0.3900
  758MPD2    C511252   3.109   0.076  15.854  0.3265 -0.2282  0.3971
  758MPD2     H11253   3.169   4.510  16.075  1.1293 -0.7027 -1.5809
  758MPD2    H111254   3.085   0.189  16.017  1.8782 -0.3587 -0.1373
  758MPD2    H211255   3.113   4.683  15.684 -2.3659 -0.1100  0.3352
  758MPD2    H311256   3.072   0.159  15.795  1.4156 -0.1087 -0.1214
  758MPD2     N11257   3.121   0.006  16.221  0.3141 -0.3007 -0.4775
  758MPD2    H511258   3.089   0.090  16.267  0.7569 -0.2052 -0.3461
  758MPD2    N111259   3.140   4.455  15.809  0.0843  0.1258 -0.6070
  758MPD2    H711260   3.171   4.464  15.713 -0.5941 -1.3824 -0.9577
  759MPD2     C11261   1.907   3.086  10.351  0.5448  0.2318  0.6282
  759MPD2    C111262   1.793   3.158  10.366  0.5882 -0.5553  0.1734
  759MPD2    C211263   1.769   3.275  10.291  0.1790  0.1834  0.1942
  759MPD2    C311264   1.860   3.323  10.208  0.5445 -0.2699 -0.2628
  759MPD2    C411265   1.974   3.246  10.188  0.3334  0.7926  0.4132
  759MPD2    C511266   2.003   3.136  10.259 -0.2756 -0.1860  0.4593
  759MPD2     H11267   1.681   3.337  10.302  0.5182  0.6479  0.2886
  759MPD2    H111268   2.054   3.277  10.121 -1.1770 -0.9484 -2.1788
  759MPD2    H211269   1.946   3.013  10.420  0.7580 -1.0831 -0.8896
  759MPD2    H311270   2.104   3.098  10.255  0.2158  1.0326  1.1958
  759MPD2     N11271   1.843   3.447  10.144  0.5182  0.2264  0.4110
  759MPD2    H511272   1.764   3.504  10.170 -1.1008 -2.6401  1.7418
  759MPD2    N111273   1.683   3.113  10.444 -0.5154 -0.2120  0.4347
  759MPD2    H711274   1.594   3.158  10.426 -0.7208 -0.3136  1.1998
  760MPD2     C11275   0.939   0.335  12.193  0.4188  0.2040  0.0212
  760MPD2    C111276   1.075   0.342  12.164 -0.8739  0.6531 -0.2376
  760MPD2    C211277   1.155   0.228  12.168 -0.2278  0.0442  0.7701
  760MPD2    C311278   1.104   0.114  12.223 -0.1742  0.5322  0.1527
  760MPD2    C411279   0.969   0.105  12.248 -0.3339 -0.2719 -0.2919
  760MPD2    C511280   0.892   0.215  12.232 -0.2823 -1.0259  0.4961
  760MPD2     H11281   1.261   0.241  12.153  0.6153 -3.1039  4.0051
  760MPD2    H111282   0.936   0.006  12.275  0.0882 -0.0368  1.0895
  760MPD2    H211283   0.873   0.420  12.181 -0.4861 -0.1171  2.8518
  760MPD2    H311284   0.785   0.200  12.240 -0.3704 -0.7898 -0.2280
  760MPD2     N11285   1.174   0.001  12.251  0.1518 -0.7038  0.6422
  760MPD2    H511286   1.131   4.658  12.295 -0.0952 -0.6458  0.5095
  760MPD2    N111287   1.142   0.461  12.127 -0.5572  0.3028  0.4087
  760MPD2    H711288   1.233   0.448  12.085 -0.0606  0.7086  1.3402
  761MPD2     C11289   2.505   4.354  10.836  0.3970 -1.0128 -0.0554
  761MPD2    C111290   2.566   4.361  10.959  0.7370  0.1017 -0.1762
  761MPD2    C211291   2.630   4.480  11.001  0.5708  0.1869 -0.4849
  761MPD2    C311292   2.627   4.594  10.926  0.3086 -0.0683  0.3005
  761MPD2    C411293   2.581   4.583  10.799 -0.0678  0.3853 -0.4225
  761MPD2    C511294   2.523   4.463  10.756 -0.6351 -0.5859  0.1012
  761MPD2     H11295   2.685   4.470  11.094  0.6342 -1.5072 -0.7006
  761MPD2    H111296   2.610   4.657  10.726 -0.9024  0.9412 -0.1960
  761MPD2    H211297   2.450   4.268  10.799 -1.6240 -0.2439  1.1152
  761MPD2    H311298   2.488   4.448  10.655  2.0031  3.7943 -1.4418
  761MPD2     N11299   2.717   4.701  10.963  0.0669  0.8067 -0.3233
  761MPD2    H511300   2.718   0.043  10.900 -1.1798  0.8805 -0.2481
  761MPD2    N111301   2.566   4.255  11.055 -0.3481 -0.1791  0.5425
  761MPD2    H711302   2.627   4.280  11.133 -0.5913  0.4036  0.5442
  762MPD2     C11303   3.133   4.469  11.147 -0.6258 -0.5320  0.0054
  762MPD2    C111304   3.087   4.394  11.041  0.2038 -0.7294 -0.1056
  762MPD2    C211305   3.101   4.444  10.909 -0.0246  0.2872 -0.0744
  762MPD2    C311306   3.176   4.555  10.888  0.3528  0.0974  0.3483
  762MPD2    C411307   3.207   4.643  10.993  0.0167 -0.2232  0.2744
  762MPD2    C511308   3.181   4.594  11.121  0.1187 -0.4331  0.2839
  762MPD2     H11309   3.066   4.389  10.823 -1.0422 -1.8857  1.7442
  762MPD2    H111310   3.256   0.001  10.988 -0.2184 -0.1312 -0.2414
  762MPD2    H211311   3.121   4.437  11.250 -2.6299 -3.2857 -1.0857
  762MPD2    H311312   3.209   4.670  11.193 -1.0840  0.9516 -0.7230
  762MPD2     N11313   3.198   4.601  10.756 -0.6890  0.3996 -1.4505
  762MPD2    H511314   3.170   4.532  10.688  0.5834  1.4920 -3.0625
  762MPD2    N111315   3.021   4.273  11.087  0.1926  0.2348 -0.6933
  762MPD2    H711316   3.020   4.258  11.187 -2.8314 -1.2516 -0.9571
  763MPD2     C11317   0.054   4.043  16.353  1.0113  0.2389 -0.1277
  763MPD2    C111318   0.028   4.116  16.241  0.1247 -0.0409 -0.1379
  763MPD2    C211319   0.066   4.248  16.237 -0.4202  0.3836  0.3089
  763MPD2    C311320   0.108   4.316  16.352  0.4782 -0.0762  0.7703
  763MPD2    C411321   0.107   4.248  16.474 -0.5566 -0.3224  0.3001
  763MPD2    C511322   0.093   4.111  16.468  0.7502 -0.4424 -0.1111
  763MPD2     H11323   0.057   4.298  16.142 -3.1503 -0.8118 -0.0681
  763MPD2    H111324   0.126   4.294  16.570  1.6158  0.5927 -0.5614
  763MPD2    H211325   0.040   3.936  16.360 -0.2996  0.5192  1.4732
  763MPD2    H311326   0.114   4.045  16.552 -0.9342 -1.6075 -0.6143
  763MPD2     N11327   0.141   4.449  16.338  0.6579  0.4659  0.7805
  763MPD2    H511328   0.130   4.493  16.247  2.2677 -1.3372 -0.2827
  763MPD2    N111329   4.725   4.067  16.120  0.3577  0.1290  0.1811
  763MPD2    H711330   4.714   4.132  16.042  1.3006 -0.0825 -0.1261
  764MPD2     C11331   3.008   1.605   0.138 -0.5380  0.1334  0.4816
  764MPD2    C111332   2.937   1.511   0.062  0.0035  0.3183  0.0190
  764MPD2    C211333   2.853   1.423   0.133  0.5361  0.2781  0.0062
  764MPD2    C311334   2.841   1.429   0.270 -0.8591 -0.0584 -0.4604
  764MPD2    C411335   2.916   1.520   0.341 -0.6126 -0.0558 -0.2390
  764MPD2    C511336   3.004   1.598   0.274 -0.2192 -0.8147 -0.8373
  764MPD2     H11337   2.804   1.339   0.085  1.6536 -0.7483  0.6973
  764MPD2    H111338   2.916   1.519   0.450 -0.3192  2.1044 -0.2299
  764MPD2    H211339   3.070   1.681   0.092  0.5741 -1.3691 -0.4963
  764MPD2    H311340   3.082   1.650   0.328 -0.6528  0.4471 -1.4278
  764MPD2     N11341   2.746   1.337   0.327 -0.0249  0.3931 -0.1104
  764MPD2    H511342   2.700   1.275   0.260  2.2124  0.0341 -1.3499
  764MPD2    N111343   2.946   1.491  17.673  0.0684 -1.2950  0.5380
  764MPD2    H711344   2.894   1.413  17.634  1.1442 -2.9501  2.4294
  765MPD2     C11345   2.662   3.757  15.589  0.0532  0.4699 -0.1530
  765MPD2    C111346   2.768   3.807  15.663 -0.3595  0.6496 -0.5142
  765MPD2    C211347   2.896   3.751  15.656 -0.1989 -0.5792 -0.0570
  765MPD2    C311348   2.916   3.653  15.560  0.4830 -0.3261  0.3503
  765MPD2    C411349   2.820   3.615  15.466  0.0097  0.1632 -0.2659
  765MPD2    C511350   2.696   3.664  15.490 -0.0078  0.7200 -0.3980
  765MPD2     H11351   2.982   3.791  15.709  0.5701 -3.3028  0.7201
  765MPD2    H111352   2.838   3.548  15.382  0.1477  0.5602 -0.5515
  765MPD2    H211353   2.560   3.789  15.605 -0.5484 -1.3867 -0.1899
  765MPD2    H311354   2.608   3.627  15.439 -0.2312  0.2411  0.3250
  765MPD2     N11355   3.047   3.606  15.557 -0.3570  0.3953 -0.2346
  765MPD2    H511356   3.115   3.655  15.615  1.4524 -0.9864 -1.1707
  765MPD2    N111357   2.730   3.910  15.753 -0.0812 -0.3963  0.0601
  765MPD2    H711358   2.630   3.927  15.749  0.3302  2.0550 -0.0404
  766MPD2     C11359   2.176   3.827  15.771 -0.4800 -0.2284  0.0689
  766MPD2    C111360   2.264   3.925  15.747  0.3502 -0.0397  0.4009
  766MPD2    C211361   2.294   3.960  15.615  0.1294  0.3098 -0.4242
  766MPD2    C311362   2.241   3.886  15.512 -0.0262  0.3134 -0.3205
  766MPD2    C411363   2.145   3.789  15.540 -0.2197  0.8360  0.2213
  766MPD2    C511364   2.111   3.765  15.671 -0.8731  0.4993 -0.8341
  766MPD2     H11365   2.369   4.034  15.592 -0.2744  0.4887 -1.1949
  766MPD2    H111366   2.094   3.735  15.461 -0.7483  1.2016  0.3152
  766MPD2    H211367   2.154   3.802  15.874  3.5017 -0.8674  0.7592
  766MPD2    H311368   2.041   3.692  15.710 -1.9073  0.7604 -2.2055
  766MPD2     N11369   2.282   3.891  15.384 -0.3708 -0.3744  0.3651
  766MPD2    H511370   2.248   3.825  15.315  1.8454 -0.3075 -0.7982
  766MPD2    N111371   2.342   3.971  15.851  0.4085  0.1680  0.5167
  766MPD2    H711372   2.335   3.927  15.943 -0.8848  0.4871  0.5701
  767MPD2     C11373   1.835   4.290  15.336  0.1914  0.1822 -0.5826
  767MPD2    C111374   1.958   4.280  15.277  0.7786 -0.0483 -0.1937
  767MPD2    C211375   1.961   4.210  15.162 -0.1528 -0.0199  0.5103
  767MPD2    C311376   1.849   4.155  15.098 -0.1710 -0.1844  0.1304
  767MPD2    C411377   1.724   4.188  15.146 -0.1530  0.8212 -0.2897
  767MPD2    C511378   1.722   4.255  15.265  0.2791  0.0708  0.3262
  767MPD2     H11379   2.052   4.177  15.114 -0.5892 -0.1436 -0.2261
  767MPD2    H111380   1.631   4.167  15.094 -0.7481 -1.7253  1.8070
  767MPD2    H211381   1.825   4.333  15.435 -0.1137 -0.1982 -0.4514
  767MPD2    H311382   1.625   4.279  15.307  0.4048 -0.2364  0.7906
  767MPD2     N11383   1.866   4.075  14.980  0.2594  0.5869 -0.3235
  767MPD2    H511384   1.961   4.049  14.956  0.6519  0.8090  0.9934
  767MPD2    N111385   2.077   4.330  15.339  0.0758  0.3616  0.5758
  767MPD2    H711386   2.071   4.381  15.426  0.8449 -0.1767  0.9374
  768MPD2     C11387   3.062   3.458  10.782  0.2626 -0.1719  0.9063
  768MPD2    C111388   3.036   3.390  10.896 -0.2458 -0.6719  0.2876
  768MPD2    C211389   3.130   3.398  11.001  0.4123 -0.8824 -0.1312
  768MPD2    C311390   3.252   3.465  10.986  0.3704 -0.4148 -0.0855
  768MPD2    C411391   3.278   3.522  10.869 -0.0160  0.5183  0.4159
  768MPD2    C511392   3.186   3.511  10.765  0.5162 -0.1124 -0.2993
  768MPD2     H11393   3.099   3.359  11.098 -0.3095  1.4463  0.5746
  768MPD2    H111394   3.371   3.577  10.856  0.0049  0.8841  2.1402
  768MPD2    H211395   2.982   3.466  10.709 -0.0382  0.9028  1.3579
  768MPD2    H311396   3.207   3.549  10.666  0.7050  2.0343  0.5446
  768MPD2     N11397   3.338   3.472  11.093 -0.1326 -0.1878  0.4441
  768MPD2    H511398   3.415   3.537  11.080 -1.4229  1.4000  0.7805
  768MPD2    N111399   2.916   3.314  10.913 -0.4790  0.1121  0.4647
  768MPD2    H711400   2.904   3.269  11.003  2.0511  0.1353  0.8033
  769MPD2     C11401   3.863   0.861  15.172  0.0898  0.2573 -0.3342
  769MPD2    C111402   3.796   0.775  15.258 -0.0809 -0.4772 -0.1531
  769MPD2    C211403   3.850   0.761  15.383 -0.4481  0.3155  0.1683
  769MPD2    C311404   3.951   0.844  15.429 -0.8775 -0.0862 -0.5783
  769MPD2    C411405   4.008   0.941  15.351  0.0609  0.2223  0.3554
  769MPD2    C511406   3.960   0.944  15.225  0.1229  0.2893  0.5932
  769MPD2     H11407   3.796   0.699  15.454 -1.3325 -1.6646 -2.2340
  769MPD2    H111408   4.092   1.005  15.378 -0.4856  0.1535  2.1946
  769MPD2    H211409   3.831   0.870  15.069 -0.0867  1.5514 -0.1626
  769MPD2    H311410   4.008   1.006  15.150  0.2303  0.4735  0.8148
  769MPD2     N11411   3.982   0.833  15.567 -0.1970 -0.2726  0.5569
  769MPD2    H511412   3.945   0.754  15.619  1.3248 -0.6485  1.0742
  769MPD2    N111413   3.693   0.695  15.200  0.4823  0.1058  0.5139
  769MPD2    H711414   3.669   0.697  15.101  2.4797 -1.0212  0.0025
  770MPD2     C11415   3.527   4.411  15.095 -0.0812 -0.2369  0.1436
  770MPD2    C111416   3.454   4.463  14.990 -0.5056 -0.2065  0.2114
  770MPD2    C211417   3.419   4.595  14.994  0.2773  0.5943  0.5973
  770MPD2    C311418   3.451   4.680  15.102 -0.2037 -0.0646 -0.1069
  770MPD2    C411419   3.524   4.628  15.209 -0.7523  0.3697  0.3532
  770MPD2    C511420   3.562   4.496  15.199  0.0813  0.1906  0.4642
  770MPD2     H11421   3.366   4.632  14.907  0.1537 -2.1439 -0.4822
  770MPD2    H111422   3.574   4.681  15.288 -0.8973  1.6573 -0.4196
  770MPD2    H211423   3.581   4.317  15.094 -0.0468 -0.2060 -0.8500
  770MPD2    H311424   3.621   4.463  15.284 -0.9834 -1.6868  0.4911
  770MPD2     N11425   3.412   0.082  15.094  0.7054  0.4668 -0.4707
  770MPD2    H511426   3.382   0.117  15.003  1.8293  0.5236 -0.8186
  770MPD2    N111427   3.414   4.380  14.883  0.3601  0.1749  0.0387
  770MPD2    H711428   3.453   4.287  14.873 -0.2799 -0.3438  2.2823
  771MPD2     C11429   0.007   3.642  14.206 -0.1777 -0.1814  0.4367
  771MPD2    C111430   0.014   3.736  14.112 -0.2582  0.0114  0.2694
  771MPD2    C211431   0.006   3.700  13.976  0.0014  0.1114 -0.5340
  771MPD2    C311432   4.728   3.566  13.944  0.4317 -0.0105  0.3022
  771MPD2    C411433   4.714   3.476  14.044  0.3301  0.9364 -0.3611
  771MPD2    C511434   4.725   3.511  14.175 -0.5641  0.6568 -0.0405
  771MPD2     H11435   0.006   3.780  13.903  0.8927 -0.8853 -1.6260
  771MPD2    H111436   4.704   3.369  14.029 -1.4631  1.4329 -2.6577
  771MPD2    H211437   0.005   3.667  14.312  0.8797  1.1906  0.1295
  771MPD2    H311438   4.709   3.435  14.251 -0.1738 -0.7411 -1.3538
  771MPD2     N11439   4.695   3.541  13.814 -0.0582  0.1706 -0.4532
  771MPD2    H511440   4.684   3.623  13.756  0.0817  1.4849  1.3765
  771MPD2    N111441   0.016   3.875  14.136 -0.0503 -0.9496 -0.2224
  771MPD2    H711442   0.001   3.939  14.059 -0.7622  2.1894  2.5458
  772MPD2     C11443   4.287   4.370  13.902 -0.3891  0.1461 -0.0284
  772MPD2    C111444   4.306   4.284  14.001  0.1333  0.6493  0.2894
  772MPD2    C211445   4.191   4.247  14.072  0.1719  0.3305 -0.9354
  772MPD2    C311446   4.066   4.285  14.021 -0.3647  0.5086 -0.0213
  772MPD2    C411447   4.057   4.359  13.906  0.0725  0.3233 -0.8347
  772MPD2    C511448   4.171   4.394  13.843 -0.0451 -0.7405 -0.2460
  772MPD2     H11449   4.202   4.180  14.157 -1.3512  2.3060  0.8144
  772MPD2    H111450   3.958   4.377  13.866  0.4164  1.8650 -0.9850
  772MPD2    H211451   4.370   4.423  13.857 -2.3496  2.6449 -0.7123
  772MPD2    H311452   4.163   4.453  13.753  0.4641  0.6350  0.6177
  772MPD2     N11453   3.941   4.246  14.075  0.0990  0.6612 -0.0993
  772MPD2    H511454   3.859   4.279  14.025 -0.1104 -0.0743 -0.2442
  772MPD2    N111455   4.431   4.244  14.054  0.1552 -0.0239  0.3894
  772MPD2    H711456   4.422   4.175  14.127  0.7910 -1.7823 -1.1922
  773MPD2     C11457   3.695   4.284   0.534 -0.0338 -0.2218 -0.4862
  773MPD2    C111458   3.720   4.238   0.407 -0.2557 -1.2712  0.2748
  773MPD2    C211459   3.816   4.139   0.394  0.1053  0.5166 -0.0172
  773MPD2    C311460   3.901   4.104   0.498 -0.0822 -0.4594  0.5337
  773MPD2    C411461   3.869   4.144   0.624  0.8397 -0.0634 -0.5931
  773MPD2    C511462   3.769   4.236   0.638  0.5556  0.1551  0.1162
  773MPD2     H11463   3.831   4.084   0.302 -2.2682 -0.2966  0.1030
  773MPD2    H111464   3.925   4.117   0.712 -1.0905  1.9046  1.2389
  773MPD2    H211465   3.612   4.351   0.556  0.2835  0.7810 -2.2368
  773MPD2    H311466   3.742   4.264   0.739 -1.4856  2.4450 -1.0582
  773MPD2     N11467   4.019   4.028   0.476  0.3611  0.8666 -0.4733
  773MPD2    H511468   4.050   4.002   0.383  0.7520 -2.8075  0.6787
  773MPD2    N111469   3.653   4.282   0.291  0.1967 -0.0988 -0.4109
  773MPD2    H711470   3.667   4.229   0.206  0.1536  0.8570 -1.0090
  774MPD2     C11471   2.713   3.967  13.608  0.3831 -0.0865  0.5397
  774MPD2    C111472   2.660   3.972  13.736  0.3905 -0.2659  0.5645
  774MPD2    C211473   2.634   4.099  13.798  0.3913 -0.3557  0.3549
  774MPD2    C311474   2.675   4.214  13.730 -0.1412  0.3934  0.1539
  774MPD2    C411475   2.723   4.199  13.599  0.5455 -0.8723 -0.2620
  774MPD2    C511476   2.740   4.080  13.535  0.0862 -0.0043  0.0905
  774MPD2     H11477   2.595   4.094  13.899  0.0109 -0.7528  0.1888
  774MPD2    H111478   2.762   4.286  13.547 -1.0240 -1.2682 -2.1071
  774MPD2    H211479   2.730   3.869  13.565  2.2300 -0.5237  2.2549
  774MPD2    H311480   2.789   4.079  13.439 -1.8139  1.0745 -0.8845
  774MPD2     N11481   2.663   4.343  13.782 -0.7534 -0.5102  0.0263
  774MPD2    H511482   2.690   4.425  13.728 -0.2743 -2.1542 -2.2262
  774MPD2    N111483   2.661   3.842  13.797  0.1889  0.0210 -0.5746
  774MPD2    H711484   2.679   3.760  13.741 -4.4509  0.4997 -2.7977
  775MPD2     C11485   4.291   0.610  15.933  0.3826  0.4326  0.0044
  775MPD2    C111486   4.303   0.715  16.024  0.0830 -0.5249 -0.6521
  775MPD2    C211487   4.387   0.818  15.978  0.1283  0.0571  0.2313
  775MPD2    C311488   4.452   0.819  15.851  0.9055  0.4458 -0.0909
  775MPD2    C411489   4.433   0.718  15.762 -0.6095 -0.4349 -0.1730
  775MPD2    C511490   4.352   0.614  15.808  0.0166  0.1690  0.8020
  775MPD2     H11491   4.397   0.905  16.043 -2.0013  1.0309 -0.7321
  775MPD2    H111492   4.478   0.719  15.663 -1.9169 -0.0945 -0.7616
  775MPD2    H211493   4.245   0.520  15.973  2.1501  1.0615  3.4927
  775MPD2    H311494   4.329   0.537  15.736  0.4414  1.5585 -0.8159
  775MPD2     N11495   4.518   0.934  15.801  0.4923  0.2174 -0.5827
  775MPD2    H511496   4.538   0.938  15.702  1.4065 -0.5131 -0.4299
  775MPD2    N111497   4.247   0.710  16.156 -0.1030 -0.3611 -0.1703
  775MPD2    H711498   4.210   0.620  16.182  0.0062  0.1220  1.6373
  776MPD2     C11499   2.305   1.362  11.791 -0.7924  0.1508  0.5552
  776MPD2    C111500   2.439   1.343  11.763 -0.3827 -0.6198 -0.6431
  776MPD2    C211501   2.529   1.447  11.736 -0.0108  0.3538  0.7510
  776MPD2    C311502   2.481   1.574  11.738 -0.1169  0.2743 -0.7306
  776MPD2    C411503   2.355   1.593  11.792  0.1357  0.3154  0.1577
  776MPD2    C511504   2.271   1.495  11.823  0.1520  0.7783 -0.6901
  776MPD2     H11505   2.633   1.435  11.706 -0.7764 -1.6945 -1.0258
  776MPD2    H111506   2.322   1.695  11.808 -1.7374  0.0249 -1.8769
  776MPD2    H211507   2.245   1.275  11.814  0.6007 -0.8428  0.3847
  776MPD2    H311508   2.170   1.515  11.857 -0.5840 -1.8848 -1.2425
  776MPD2     N11509   2.539   1.689  11.683  0.0043  0.1942 -0.0471
  776MPD2    H511510   2.488   1.774  11.702 -0.1875 -0.1490  1.0032
  776MPD2    N111511   2.476   1.210  11.746  0.0203  0.0287 -0.4241
  776MPD2    H711512   2.410   1.136  11.763 -0.5323  0.3523 -1.1906
  777MPD2     C11513   3.988   3.269   0.836 -0.0530  0.3858  0.2050
  777MPD2    C111514   3.868   3.292   0.889  0.0125  0.1383  0.7261
  777MPD2    C211515   3.756   3.220   0.844 -0.1300 -0.1209  0.7977
  777MPD2    C311516   3.774   3.105   0.766  0.3766  0.3429  0.1939
  777MPD2    C411517   3.899   3.080   0.721 -0.5470 -0.7349 -0.0824
  777MPD2    C511518   4.005   3.160   0.756 -0.1605 -0.3160  0.7218
  777MPD2     H11519   3.657   3.237   0.883 -0.3756 -0.9962  0.5548
  777MPD2    H111520   3.921   2.997   0.654 -0.9692  0.0304 -1.1606
  777MPD2    H211521   4.075   3.319   0.875 -0.3658  0.8287  0.3355
  777MPD2    H311522   4.107   3.138   0.729 -0.7153 -0.1277 -1.5094
  777MPD2     N11523   3.663   3.022   0.738 -0.3188 -0.6707  0.1968
  777MPD2    H511524   3.579   3.050   0.788 -1.2140  2.4157 -3.0448
  777MPD2    N111525   3.856   3.385   0.995  0.3886 -0.3660  0.7412
  777MPD2    H711526   3.946   3.419   1.028  0.6599 -0.2486 -0.1240
  778MPD2     C11527   4.656   3.470  14.889 -0.2640 -0.2942  0.4042
  778MPD2    C111528   4.654   3.388  14.779  0.4018  0.4059  0.6159
  778MPD2    C211529   0.001   3.417  14.673 -0.4972  0.4634  0.2575
  778MPD2    C311530   0.079   3.528  14.672 -0.1212 -0.2719  0.0222
  778MPD2    C411531   0.079   3.612  14.780 -0.0115  0.7629 -0.8701
  778MPD2    C511532   0.010   3.578  14.891 -0.2174 -0.0086  0.3638
  778MPD2     H11533   0.012   3.348  14.591  1.9180  0.1272  0.8467
  778MPD2    H111534   0.135   3.703  14.800  2.7091 -1.2632  0.7406
  778MPD2    H211535   4.597   3.459  14.979 -1.6517 -1.6456 -0.6908
  778MPD2    H311536   0.021   3.645  14.976 -1.6633  2.6864 -1.5768
  778MPD2     N11537   0.159   3.546  14.552 -0.4512  0.0345  0.0411
  778MPD2    H511538   0.150   3.473  14.482  0.9356 -0.2589  0.1656
  778MPD2    N111539   4.582   3.265  14.777 -0.3499 -0.6450 -0.0736
  778MPD2    H711540   4.583   3.217  14.688  3.4533  0.9827 -0.9043
  779MPD2     C11541   4.004   2.228  14.146  0.1123  0.0692  0.0889
  779MPD2    C111542   4.139   2.226  14.173  0.7300 -0.1376 -0.7108
  779MPD2    C211543   4.217   2.331  14.114 -0.2229  0.4077 -0.7982
  779MPD2    C311544   4.154   2.420  14.034 -0.3068  0.9422  0.1452
  779MPD2    C411545   4.026   2.403  13.991 -0.2838 -0.0061 -0.4704
  779MPD2    C511546   3.950   2.311  14.051 -0.0852  0.6248 -0.1728
  779MPD2     H11547   4.322   2.351  14.132 -0.0530 -0.6465 -0.5895
  779MPD2    H111548   3.976   2.476  13.927  1.2923  0.5744 -1.0260
  779MPD2    H211549   3.932   2.165  14.196 -0.8558  0.3227 -0.9991
  779MPD2    H311550   3.844   2.304  14.030 -0.2898 -0.2219  1.1089
  779MPD2     N11551   4.227   2.535  13.994 -0.2016  0.1832 -0.1713
  779MPD2    H511552   4.315   2.546  14.044  0.1465  2.6487 -1.3140
  779MPD2    N111553   4.195   2.127  14.258  0.1417  0.7047 -0.3227
  779MPD2    H711554   4.296   2.117  14.260  0.1311  0.6561  0.0567
  780MPD2     C11555   4.224   1.941   1.165 -0.4235  0.7514  0.3514
  780MPD2    C111556   4.185   1.920   1.040 -0.0157  0.1640 -0.1242
  780MPD2    C211557   4.270   1.966   0.936 -0.5364 -1.1608  0.0507
  780MPD2    C311558   4.395   2.022   0.959 -0.6493 -0.2170  0.3144
  780MPD2    C411559   4.427   2.032   1.090 -0.2795 -0.2635 -0.0336
  780MPD2    C511560   4.346   1.997   1.194  0.2706  0.2817  1.4891
  780MPD2     H11561   4.245   1.933   0.836 -2.0498  1.3815 -0.3947
  780MPD2    H111562   4.523   2.071   1.119  0.3206 -1.9000  0.2090
  780MPD2    H211563   4.161   1.922   1.252  0.4846  0.0791  0.8655
  780MPD2    H311564   4.381   2.011   1.296 -0.8887  1.4975  1.7161
  780MPD2     N11565   4.481   2.050   0.855  0.3523  0.4147 -0.7463
  780MPD2    H511566   4.446   2.042   0.761  0.3057 -0.7705 -0.6273
  780MPD2    N111567   4.058   1.862   1.016  0.3037 -0.9998  0.1960
  780MPD2    H711568   4.016   1.821   1.099  2.8233 -1.0676  1.4446
  781MPD2     C11569   1.233   4.351  12.111  1.2619 -0.7840  0.3772
  781MPD2    C111570   1.307   4.253  12.169 -0.9040 -0.3395 -0.7703
  781MPD2    C211571   1.427   4.211  12.110  0.1701  0.5171  0.5590
  781MPD2    C311572   1.477   4.283  12.005  0.0734 -0.3214 -0.0898
  781MPD2    C411573   1.410   4.391  11.954  0.0305  0.3620 -0.1677
  781MPD2    C511574   1.287   4.419  12.011 -0.3159  0.2920 -0.0655
  781MPD2     H11575   1.479   4.121  12.142 -2.9136 -0.8923  1.5670
  781MPD2    H111576   1.446   4.470  11.889 -1.2095  1.1369  0.0968
  781MPD2    H211577   1.138   4.391  12.143  1.1565 -0.0538 -0.8717
  781MPD2    H311578   1.229   4.499  11.966 -0.6649 -0.5124 -1.0276
  781MPD2     N11579   1.600   4.255  11.932 -0.1998 -0.1240 -0.1640
  781MPD2    H511580   1.613   4.316  11.852  0.8815 -0.6031 -0.3432
  781MPD2    N111581   1.256   4.172  12.270 -0.1086  0.1166  0.4762
  781MPD2    H711582   1.322   4.108  12.312  0.3604  1.6789  2.1098
  782MPD2     C11583   3.645   1.123  10.223  0.5211 -0.3482 -0.2228
  782MPD2    C111584   3.679   1.039  10.322 -0.5747 -0.0698  0.2202
  782MPD2    C211585   3.739   1.080  10.433  0.4773  0.2984  0.2976
  782MPD2    C311586   3.774   1.211  10.451 -0.1163  0.0098 -0.3115
  782MPD2    C411587   3.747   1.296  10.346 -0.2329 -0.1665 -0.7618
  782MPD2    C511588   3.685   1.257  10.236  0.5092  0.1172 -0.0793
  782MPD2     H11589   3.775   1.012  10.510  0.5614  0.7764  0.6835
  782MPD2    H111590   3.773   1.402  10.349  0.6929 -0.4336  0.8524
  782MPD2    H211591   3.600   1.090  10.130  2.1545 -0.5018 -0.9623
  782MPD2    H311592   3.675   1.341  10.169 -1.6913 -0.5032 -0.5373
  782MPD2     N11593   3.848   1.238  10.571  0.1735 -0.6371 -0.3242
  782MPD2    H511594   3.863   1.165  10.639  1.4812 -0.1373 -0.0879
  782MPD2    N111595   3.662   0.902  10.311 -0.1985  0.1796  1.0010
  782MPD2    H711596   3.680   0.860  10.402  0.1168  0.8178  1.2322
  783MPD2     C11597   2.978   0.217  10.497  0.3555  0.7055  0.2309
  783MPD2    C111598   3.068   0.266  10.595  0.8369  0.1831  0.5377
  783MPD2    C211599   3.190   0.315  10.554  0.4473 -0.1519  0.8715
  783MPD2    C311600   3.231   0.320  10.420  0.0762 -0.5159  0.0175
  783MPD2    C411601   3.138   0.285  10.325 -0.2609 -1.0257 -0.3254
  783MPD2    C511602   3.014   0.236  10.362  0.2175  0.5493 -0.0908
  783MPD2     H11603   3.265   0.338  10.629 -1.0425  1.7167  1.7679
  783MPD2    H111604   3.155   0.288  10.218  0.5078 -0.8714 -0.1973
  783MPD2    H211605   2.880   0.177  10.517  0.2437  1.3012  0.8777
  783MPD2    H311606   2.940   0.216  10.285  1.1555 -2.3434 -0.2408
  783MPD2     N11607   3.358   0.378  10.381 -0.1810  0.0533 -0.3785
  783MPD2    H511608   3.419   0.387  10.461 -0.0177 -0.1345 -0.4827
  783MPD2    N111609   3.028   0.245  10.725 -0.5439  0.6826 -0.5145
  783MPD2    H711610   2.950   0.182  10.738  2.1842 -2.3829  0.9988
  784MPD2     C11611   1.800   0.418   0.906 -0.2565 -0.6304  0.0720
  784MPD2    C111612   1.812   0.553   0.898  0.6512 -0.7604  0.3190
  784MPD2    C211613   1.720   0.623   0.822  1.2646  0.1126 -0.0131
  784MPD2    C311614   1.616   0.564   0.758  0.6318  0.0104  0.7929
  784MPD2    C411615   1.606   0.431   0.781 -0.3249 -0.4041  0.5249
  784MPD2    C511616   1.696   0.363   0.847 -0.1250 -0.5389  0.0349
  784MPD2     H11617   1.727   0.730   0.805 -0.9762  0.0261 -1.4537
  784MPD2    H111618   1.531   0.375   0.726  0.6267 -3.1254  1.9944
  784MPD2    H211619   1.880   0.359   0.949 -0.6814 -0.2584  1.3912
  784MPD2    H311620   1.697   0.256   0.860  0.6446 -0.4012  1.1559
  784MPD2     N11621   1.523   0.635   0.678 -0.7145  0.1276 -0.8745
  784MPD2    H511622   1.536   0.736   0.673 -1.6568  0.2395 -1.1115
  784MPD2    N111623   1.923   0.623   0.947 -0.5525 -0.8513  0.0316
  784MPD2    H711624   1.910   0.721   0.926  1.0247 -0.5017  0.7629
  785MPD2     C11625   0.923   0.610  10.464  0.4919 -0.6108 -0.0338
  785MPD2    C111626   0.897   0.732  10.414  0.0941  0.1093  0.8485
  785MPD2    C211627   0.812   0.739  10.305  0.3887 -0.0083 -0.1245
  785MPD2    C311628   0.765   0.624  10.241  0.2468 -0.3904  0.2858
  785MPD2    C411629   0.791   0.501  10.295 -0.0890 -0.8514  0.2452
  785MPD2    C511630   0.869   0.498  10.411 -0.7014  0.0860  0.0776
  785MPD2     H11631   0.795   0.835  10.256 -0.1397  0.3557  0.7758
  785MPD2    H111632   0.762   0.404  10.254  2.4864 -1.4514 -0.1867
  785MPD2    H211633   0.973   0.591  10.558 -0.9308  0.0955  0.8606
  785MPD2    H311634   0.886   0.405  10.463 -0.3264  1.7263  2.8768
  785MPD2     N11635   0.681   0.638  10.131 -0.0045  0.1168 -0.6766
  785MPD2    H511636   0.660   0.732  10.099 -1.1832  0.3165  0.6486
  785MPD2    N111637   0.956   0.845  10.461 -0.3902 -0.3222 -0.4862
  785MPD2    H711638   0.933   0.928  10.406 -2.1112 -0.9364 -0.7068
  786MPD2     C11639   0.144   1.526  15.358 -0.0956 -0.5173  0.3833
  786MPD2    C111640   0.239   1.523  15.264 -0.7685  0.2920  0.0692
  786MPD2    C211641   0.369   1.566  15.296 -0.1238  0.5173 -0.2719
  786MPD2    C311642   0.395   1.614  15.426  0.0529  0.2833  0.0558
  786MPD2    C411643   0.294   1.607  15.520 -0.4896  0.4966 -0.5499
  786MPD2    C511644   0.169   1.556  15.487  0.1572  1.2208  0.5340
  786MPD2     H11645   0.449   1.563  15.223  0.1064  1.1348 -0.0417
  786MPD2    H111646   0.304   1.635  15.624  0.0350 -0.7239 -0.2630
  786MPD2    H211647   0.042   1.489  15.352 -0.4370  0.4973 -0.0564
  786MPD2    H311648   0.091   1.542  15.561  0.6351 -0.8475  0.6457
  786MPD2     N11649   0.521   1.662  15.468  0.4764  0.3378 -0.1359
  786MPD2    H511650   0.524   1.689  15.566 -2.2595 -3.9164  1.1083
  786MPD2    N111651   0.216   1.462  15.138 -0.5824  0.5549 -0.4313
  786MPD2    H711652   0.296   1.436  15.081 -1.3227  1.3244 -1.8184
  787MPD2     C11653   0.597   0.963  15.014  0.1300 -0.1867  0.3631
  787MPD2    C111654   0.514   0.968  14.908  0.0911  1.1446  0.1157
  787MPD2    C211655   0.543   0.882  14.808 -0.0580  0.2335  0.9284
  787MPD2    C311656   0.646   0.786  14.809  0.3908 -0.4838 -0.3008
  787MPD2    C411657   0.726   0.780  14.921 -0.2913 -0.6321  0.7613
  787MPD2    C511658   0.703   0.867  15.022  0.2663 -0.5834 -0.2981
  787MPD2     H11659   0.476   0.874  14.723 -0.8648  0.2809  1.5576
  787MPD2    H111660   0.811   0.713  14.927 -0.1080 -0.5687 -1.1326
  787MPD2    H211661   0.583   1.021  15.104  1.2190 -1.7094  1.5034
  787MPD2    H311662   0.776   0.870  15.102 -2.3398 -0.7515  2.0694
  787MPD2     N11663   0.669   0.704  14.692  0.2860 -0.0192 -0.5394
  787MPD2    H511664   0.614   0.734  14.612 -0.7478 -1.2292 -0.2874
  787MPD2    N111665   0.407   1.056  14.916  0.4727 -0.5947  0.4869
  787MPD2    H711666   0.420   1.125  14.989 -1.6891 -0.7015  0.9843
  788MPD2     C11667   2.676   4.685   1.046  0.0304  0.8447 -0.5233
  788MPD2    C111668   2.714   4.637   0.925 -0.8682 -0.4145  0.2235
  788MPD2    C211669   2.699   4.719   0.821 -0.6771 -0.3122  0.2359
  788MPD2    C311670   2.661   0.116   0.838  0.1186 -0.6109  0.3371
  788MPD2    C411671   2.627   0.163   0.961  0.6218  0.5548  0.4121
  788MPD2    C511672   2.629   0.077   1.066  0.2129  0.0171 -0.1381
  788MPD2     H11673   2.724   4.675   0.725 -0.9552 -0.4847  0.2416
  788MPD2    H111674   2.595   0.264   0.985  0.1778  0.9384 -1.8129
  788MPD2    H211675   2.692   4.630   1.138 -0.6029  0.4564 -0.6519
  788MPD2    H311676   2.616   0.113   1.167  0.6755  0.1629 -0.1311
  788MPD2     N11677   2.651   0.207   0.728 -0.1413 -0.4449  0.2765
  788MPD2    H511678   2.631   0.306   0.739 -2.0525 -0.7519 -0.3869
  788MPD2    N111679   2.746   4.501   0.902  0.1226  0.0234  0.2119
  788MPD2    H711680   2.797   4.474   0.818 -0.2024 -4.0751  1.2954
  789MPD2     C11681   2.904   4.097  16.850 -0.0954 -0.0812 -0.5390
  789MPD2    C111682   2.781   4.075  16.796  0.0293  0.9708 -0.3563
  789MPD2    C211683   2.666   4.149  16.827  0.0862  0.8195  0.1081
  789MPD2    C311684   2.676   4.250  16.914  0.7665 -0.6304  0.1428
  789MPD2    C411685   2.802   4.285  16.962  0.5194 -0.0950 -0.1771
  789MPD2    C511686   2.917   4.211  16.922 -0.7750  0.1243 -0.1749
  789MPD2     H11687   2.572   4.113  16.786 -0.1814  2.4036 -0.6802
  789MPD2    H111688   2.812   4.364  17.035 -2.6973 -1.5253  1.8758
  789MPD2    H211689   2.994   4.044  16.821  0.0354 -0.9021  1.4224
  789MPD2    H311690   3.006   4.256  16.965 -1.2040  0.4829  0.3527
  789MPD2     N11691   2.565   4.323  16.960 -0.6172 -0.1346  0.3407
  789MPD2    H511692   2.586   4.396  17.027  1.0423 -0.3941  0.1131
  789MPD2    N111693   2.751   3.961  16.719 -0.0366 -0.1477 -0.7376
  789MPD2    H711694   2.654   3.934  16.711 -0.1840  0.2745 -0.3602
  790MPD2     C11695   3.607   0.818  13.723  0.0996 -0.0274  0.8591
  790MPD2    C111696   3.483   0.837  13.774  0.4538 -0.5342  0.1147
  790MPD2    C211697   3.387   0.846  13.680  0.7462  0.5046 -0.1621
  790MPD2    C311698   3.415   0.847  13.546 -0.3269 -0.2846  0.1240
  790MPD2    C411699   3.540   0.827  13.503  0.0023  0.0724 -0.0433
  790MPD2    C511700   3.639   0.818  13.594 -0.5271  0.6573  0.6790
  790MPD2     H11701   3.284   0.874  13.702  1.0420  2.8156 -1.7393
  790MPD2    H111702   3.571   0.832  13.399  1.8028  0.3229  0.5080
  790MPD2    H211703   3.693   0.817  13.788 -0.1197 -2.0079  1.1341
  790MPD2    H311704   3.740   0.793  13.563 -0.8978 -1.4985  1.1948
  790MPD2     N11705   3.311   0.878  13.464  0.0798 -0.6375 -0.0052
  790MPD2    H511706   3.224   0.902  13.510 -0.4181 -0.0257 -1.2692
  790MPD2    N111707   3.477   0.837  13.916 -0.3642  0.1250 -0.0568
  790MPD2    H711708   3.565   0.818  13.961 -0.7897  4.2337  2.4710
  791MPD2     C11709   2.687   0.915  13.527 -0.4939  0.0868  0.0572
  791MPD2    C111710   2.711   0.875  13.402  0.0521 -0.4510  0.2344
  791MPD2    C211711   2.612   0.810  13.330 -0.0073 -0.1975 -0.2783
  791MPD2    C311712   2.497   0.777  13.403 -0.2737 -0.5577 -1.0151
  791MPD2    C411713   2.476   0.816  13.532 -0.5772  1.1234 -0.0878
  791MPD2    C511714   2.572   0.893  13.592 -0.3526  0.0519 -0.7248
  791MPD2     H11715   2.623   0.776  13.227 -3.4934  0.5179 -0.9045
  791MPD2    H111716   2.407   0.762  13.596  2.4344 -1.4691  0.9926
  791MPD2    H211717   2.763   0.968  13.583  0.7168 -1.4452 -0.1622
  791MPD2    H311718   2.569   0.918  13.698  1.4714 -2.8884  0.0324
  791MPD2     N11719   2.410   0.681  13.339  0.2945  0.5128 -0.3963
  791MPD2    H511720   2.434   0.630  13.255 -0.4061 -1.3098  0.5314
  791MPD2    N111721   2.840   0.900  13.349  0.0166  0.2647 -0.8453
  791MPD2    H711722   2.905   0.935  13.418 -0.1040  0.8483 -1.0278
  792MPD2     C11723   3.739   2.071  11.503 -0.2123 -0.1374  0.9043
  792MPD2    C111724   3.630   2.110  11.426 -0.4819  0.0585 -0.4430
  792MPD2    C211725   3.509   2.049  11.441  0.5893  0.1037  0.0633
  792MPD2    C311726   3.500   1.926  11.508  0.0685 -0.1445 -0.5506
  792MPD2    C411727   3.607   1.890  11.583  0.2598 -0.1291 -0.5320
  792MPD2    C511728   3.722   1.962  11.580  0.3417  0.1707  0.6798
  792MPD2     H11729   3.423   2.089  11.388 -0.3525 -2.2164 -0.1537
  792MPD2    H111730   3.589   1.806  11.649 -0.0036  1.2746  1.1819
  792MPD2    H211731   3.833   2.124  11.496  0.1815 -0.9165  0.2046
  792MPD2    H311732   3.808   1.934  11.640  0.5043  1.5361  1.1008
  792MPD2     N11733   3.380   1.844  11.504  0.0998 -0.0355 -0.3205
  792MPD2    H511734   3.375   1.763  11.566  0.1577 -1.3221 -2.0091
  792MPD2    N111735   3.653   2.227  11.350  0.3572  0.0671  0.2589
  792MPD2    H711736   3.749   2.258  11.342 -0.0574  1.5976  1.1379
  793MPD2     C11737   2.460   1.622  10.959 -0.8977  0.0188 -0.6373
  793MPD2    C111738   2.571   1.550  10.920 -0.1690 -0.5821  0.2928
  793MPD2    C211739   2.678   1.546  11.000  0.1307  0.2769  0.0968
  793MPD2    C311740   2.687   1.633  11.109 -0.2288 -0.0030  0.0836
  793MPD2    C411741   2.583   1.709  11.155 -0.1085  0.4118  0.7613
  793MPD2    C511742   2.469   1.696  11.076  0.0179  0.1177 -0.2642
  793MPD2     H11743   2.760   1.485  10.963 -1.2156  0.0244 -2.4525
  793MPD2    H111744   2.582   1.756  11.253 -2.7928  0.4540  0.7089
  793MPD2    H211745   2.374   1.630  10.893 -2.1838  2.1762  1.2744
  793MPD2    H311746   2.378   1.742  11.113 -0.6495 -0.0691 -1.6982
  793MPD2     N11747   2.812   1.635  11.174  0.4427  0.0195 -0.3571
  793MPD2    H511748   2.891   1.578  11.146 -0.6848 -0.9352 -1.6117
  793MPD2    N111749   2.587   1.483  10.802  0.4379 -0.1423 -0.6991
  793MPD2    H711750   2.669   1.424  10.797  0.4732 -0.1517 -0.0017
  794MPD2     C11751   3.338   0.235  17.667  0.0476  0.1173 -0.0137
  794MPD2    C111752   3.333   0.136  17.574  0.9794 -0.1906  0.2442
  794MPD2    C211753   3.307   0.163  17.433 -0.4066 -0.0515  0.2729
  794MPD2    C311754   3.285   0.299  17.405  0.4279  0.1036  1.6718
  794MPD2    C411755   3.303   0.397  17.501  0.3921  0.4123 -0.7815
  794MPD2    C511756   3.333   0.369  17.631 -0.0849 -0.6831  0.2438
  794MPD2     H11757   3.285   0.083  17.363 -1.8951 -1.0824  1.9305
  794MPD2    H111758   3.295   0.501  17.472  0.0503  1.3747  2.7125
  794MPD2    H211759   3.369   0.226   0.022  0.4572  0.9738 -0.0604
  794MPD2    H311760   3.347   0.448  17.703  1.1684 -0.6063 -0.0783
  794MPD2     N11761   3.238   0.330  17.276  0.0655  0.6416 -0.1142
  794MPD2    H511762   3.214   0.255  17.211  2.0284  0.3313 -0.4977
  794MPD2    N111763   3.341   0.000  17.610 -0.2988  0.2748  0.7120
  794MPD2    H711764   3.354   4.667  17.538  1.6465  0.7125  0.6391
  795MPD2     C11765   0.783   2.371  13.902 -0.0652  0.2903 -0.6177
  795MPD2    C111766   0.740   2.278  13.809 -0.1025  0.1731  0.0275
  795MPD2    C211767   0.829   2.178  13.779 -0.3015  0.0765 -0.7873
  795MPD2    C311768   0.957   2.180  13.834  0.4438 -0.2163  0.5805
  795MPD2    C411769   0.993   2.259  13.938  0.8615  0.4119 -0.3658
  795MPD2    C511770   0.899   2.354  13.981 -0.2804  0.0480 -0.3312
  795MPD2     H11771   0.810   2.098  13.708 -0.3984  0.5886 -1.3373
  795MPD2    H111772   1.088   2.255  13.990 -0.0286  3.0660  1.4300
  795MPD2    H211773   0.717   2.450  13.936  0.0429  0.9171 -1.8801
  795MPD2    H311774   0.921   2.418  14.066 -3.7025  1.0126 -0.1681
  795MPD2     N11775   1.050   2.076  13.795  0.4115 -0.0705  0.6296
  795MPD2    H511776   1.025   1.978  13.785 -0.5061  0.5361 -2.9154
  795MPD2    N111777   0.616   2.292  13.740 -0.2025 -0.0189  0.1498
  795MPD2    H711778   0.563   2.378  13.744  0.5984  0.5276 -1.1695
  796MPD2     C11779   0.248   3.761  15.789 -0.5116  0.4920 -0.2745
  796MPD2    C111780   0.277   3.851  15.893 -0.3590  0.1353  0.4546
  796MPD2    C211781   0.258   3.989  15.876 -0.3300 -0.5000 -0.1158
  796MPD2    C311782   0.218   4.043  15.753  0.4474  0.3477 -0.4231
  796MPD2    C411783   0.199   3.955  15.653  0.7057 -0.6017  0.4850
  796MPD2    C511784   0.214   3.816  15.668  0.7729  0.9569  0.1365
  796MPD2     H11785   0.267   4.052  15.964 -0.7692 -0.7487  0.1063
  796MPD2    H111786   0.190   3.992  15.551  2.2534  0.9209  0.9021
  796MPD2    H211787   0.278   3.658  15.806  1.8136  0.9682 -1.5509
  796MPD2    H311788   0.215   3.754  15.579 -1.7153  1.8738 -0.5417
  796MPD2     N11789   0.197   4.178  15.744  0.9646 -0.4020 -0.4067
  796MPD2    H511790   0.196   4.237  15.827  1.7476  0.7015 -1.1727
  796MPD2    N111791   0.317   3.788  16.017 -0.0980  0.0688  0.2811
  796MPD2    H711792   0.326   3.687  16.015 -2.5426 -0.1013 -1.6647
  797MPD2     C11793   1.655   3.597  17.164  0.2742 -0.1050  1.0044
  797MPD2    C111794   1.662   3.731  17.205  0.5513 -0.1759 -0.3015
  797MPD2    C211795   1.574   3.819  17.161  0.1885 -0.2349  0.0824
  797MPD2    C311796   1.467   3.783  17.081 -0.0819 -0.2182  0.1423
  797MPD2    C411797   1.455   3.654  17.037 -0.2636  0.4510 -0.0178
  797MPD2    C511798   1.549   3.561  17.078 -0.8591  0.1553  0.6647
  797MPD2     H11799   1.583   3.923  17.190 -1.3409 -0.0576 -0.0495
  797MPD2    H111800   1.358   3.622  17.001 -0.1082 -0.4262  0.3274
  797MPD2    H211801   1.721   3.515  17.190  1.2584 -0.3702 -2.3567
  797MPD2    H311802   1.542   3.460  17.039 -1.6101 -0.1834  1.6961
  797MPD2     N11803   1.363   3.876  17.058 -0.5275  0.1253 -0.6403
  797MPD2    H511804   1.300   3.837  16.988  1.5825 -0.0793 -2.4099
  797MPD2    N111805   1.768   3.794  17.273  0.7328  0.0382 -0.1208
  797MPD2    H711806   1.776   3.895  17.270  0.6215  0.0273 -0.8866
  798MPD2     C11807   1.651   4.526  17.241  0.5701  0.6005 -0.4638
  798MPD2    C111808   1.645   4.421  17.160 -0.0559  0.3825 -0.4396
  798MPD2    C211809   1.733   4.326  17.159  0.0497 -0.4716 -0.5143
  798MPD2    C311810   1.846   4.328  17.242  0.4369 -1.0443  0.2981
  798MPD2    C411811   1.859   4.435  17.327  0.4715 -0.0770 -0.0352
  798MPD2    C511812   1.757   4.534  17.326 -1.2877  0.6006  0.4287
  798MPD2     H11813   1.721   4.238  17.098  0.0739 -1.3012  0.6835
  798MPD2    H111814   1.937   4.446  17.402  1.0388 -0.3965 -0.5874
  798MPD2    H211815   1.580   4.608  17.236 -2.3031 -1.8198  0.3931
  798MPD2    H311816   1.765   4.611  17.402 -1.9489 -1.4435  2.5584
  798MPD2     N11817   1.919   4.212  17.253  0.6097  0.1035 -0.2523
  798MPD2    H511818   1.884   4.132  17.200  1.2810 -1.3376  1.4576
  798MPD2    N111819   1.524   4.403  17.081 -0.1263 -0.1201  0.2361
  798MPD2    H711820   1.442   4.450  17.118 -0.0004  0.2558  0.0406
  799MPD2     C11821   0.340   0.445  14.932  0.1302 -0.1679 -0.4886
  799MPD2    C111822   0.240   0.390  14.856  0.4316  0.5955 -0.1810
  799MPD2    C211823   0.148   0.477  14.791 -0.4569 -0.2097  0.4575
  799MPD2    C311824   0.167   0.618  14.783  0.2359  0.0662  0.0010
  799MPD2    C411825   0.262   0.666  14.870  0.2732  0.1198 -0.4807
  799MPD2    C511826   0.348   0.583  14.937 -1.1178 -0.1970  0.0098
  799MPD2     H11827   0.078   0.422  14.731 -2.2421  3.1543 -0.5723
  799MPD2    H111828   0.281   0.772  14.877 -1.2594  0.2592  1.4122
  799MPD2    H211829   0.414   0.386  14.984  1.2555  1.6499 -0.0397
  799MPD2    H311830   0.422   0.637  14.994 -0.0052 -0.9014 -0.7629
  799MPD2     N11831   0.096   0.704  14.693 -0.4200 -0.4095 -0.6752
  799MPD2    H511832   0.148   0.791  14.687 -0.8559 -0.1099 -0.1287
  799MPD2    N111833   0.229   0.256  14.824 -0.5049 -0.0195 -0.0779
  799MPD2    H711834   0.159   0.236  14.754  0.7361 -1.6596 -0.8379
  800MPD2     C11835   0.849   1.373  14.461 -0.3610 -0.0543 -0.1102
  800MPD2    C111836   0.977   1.327  14.482  0.1671  0.4958  0.5851
  800MPD2    C211837   1.030   1.243  14.390 -0.3523 -0.5632  0.6644
  800MPD2    C311838   0.958   1.207  14.273 -0.1466 -0.1190 -0.3280
  800MPD2    C411839   0.828   1.240  14.266 -0.3473  0.1975  0.4137
  800MPD2    C511840   0.775   1.329  14.357 -0.2853 -0.2202  0.5992
  800MPD2     H11841   1.136   1.219  14.394  0.2986  1.9823 -1.6264
  800MPD2    H111842   0.769   1.198  14.185 -1.0203 -2.0115  2.0299
  800MPD2    H211843   0.799   1.446  14.522  2.4617  0.7156  1.3148
  800MPD2    H311844   0.674   1.359  14.332 -0.1599  0.1606  0.5478
  800MPD2     N11845   1.030   1.131  14.180 -0.0570 -0.4316  0.0632
  800MPD2    H511846   1.125   1.108  14.208 -0.9442 -1.5055  2.2116
  800MPD2    N111847   1.047   1.380  14.591 -0.7156  0.0798  0.3291
  800MPD2    H711848   0.998   1.458  14.632  1.2222  1.3609  0.2066
  801MPD2     C11849   0.959   1.999  14.692  1.3488  0.0276 -0.2891
  801MPD2    C111850   0.951   1.896  14.785 -0.5965 -0.1311  0.0025
  801MPD2    C211851   0.821   1.870  14.836  0.0095  0.1519 -0.4668
  801MPD2    C311852   0.712   1.938  14.797  0.2907  0.0820  0.2769
  801MPD2    C411853   0.726   2.042  14.705 -0.3880 -0.0119 -0.1725
  801MPD2    C511854   0.850   2.078  14.654 -0.1493  0.2478 -0.3013
  801MPD2     H11855   0.809   1.778  14.893 -0.8550  1.2709  1.1240
  801MPD2    H111856   0.641   2.100  14.671  1.5337  0.8394 -3.5110
  801MPD2    H211857   1.052   2.037  14.653  0.9323  0.1861 -1.1188
  801MPD2    H311858   0.864   2.155  14.580 -0.2831 -0.9128 -1.5295
  801MPD2     N11859   0.581   1.909  14.844 -0.0719  0.1201 -0.1917
  801MPD2    H511860   0.511   1.970  14.800 -0.1614 -0.3510 -0.7065
  801MPD2    N111861   1.054   1.802  14.804 -0.4334  0.1053  0.1842
  801MPD2    H711862   1.027   1.724  14.864 -1.0774  0.2777  0.1190
  802MPD2     C11863   4.332   2.725  17.290  0.7174  0.6041 -0.5767
  802MPD2    C111864   4.450   2.656  17.333 -0.3205 -0.2784  0.5623
  802MPD2    C211865   4.462   2.525  17.298 -0.4730 -0.6002 -0.0120
  802MPD2    C311866   4.362   2.458  17.232  1.0309  0.3326 -0.4344
  802MPD2    C411867   4.240   2.524  17.208 -0.4586 -0.1496  0.4609
  802MPD2    C511868   4.223   2.657  17.240  0.7581  0.0896  0.6143
  802MPD2     H11869   4.560   2.483  17.321  0.3042  0.6639 -1.0172
  802MPD2    H111870   4.151   2.474  17.170 -1.0592 -0.8390  2.7673
  802MPD2    H211871   4.318   2.829  17.317  1.5709  1.0271 -1.7836
  802MPD2    H311872   4.130   2.712  17.227 -0.8213 -2.1533  2.4116
  802MPD2     N11873   4.391   2.327  17.181  0.5712  0.4648 -0.5859
  802MPD2    H511874   4.486   2.297  17.202  0.8473 -0.2640 -2.8743
  802MPD2    N111875   4.564   2.713  17.397 -0.0975  0.8903 -0.1863
  802MPD2    H711876   4.646   2.655  17.406 -0.0889  0.7499 -1.2374
  803MPD2     C11877   1.133   0.548  12.646 -0.7870 -0.1942  0.1048
  803MPD2    C111878   1.244   0.517  12.724 -0.6267 -0.1351  1.1995
  803MPD2    C211879   1.238   0.540  12.860 -0.5425 -0.0516 -0.6077
  803MPD2    C311880   1.122   0.605  12.915 -0.2065 -0.5517 -0.5528
  803MPD2    C411881   1.022   0.648  12.826  0.3161  0.0608 -0.0997
  803MPD2    C511882   1.019   0.606  12.696  0.7909 -0.3989 -0.4226
  803MPD2     H11883   1.331   0.532  12.915 -1.2465  1.5081  0.8595
  803MPD2    H111884   0.933   0.700  12.861  0.2816  0.0944 -0.2396
  803MPD2    H211885   1.132   0.529  12.540 -0.6277 -0.2964  0.1208
  803MPD2    H311886   0.936   0.628  12.630  0.1210  1.0553  0.8971
  803MPD2     N11887   1.117   0.642  13.048  0.4262  0.0507  0.0404
  803MPD2    H511888   1.042   0.705  13.073  0.1771 -0.8545  1.5761
  803MPD2    N111889   1.365   0.469  12.670  0.1488 -0.4678 -0.1798
  803MPD2    H711890   1.437   0.460  12.741 -1.0247  0.3493  1.1235
  804MPD2     C11891   0.836   2.417  16.885  0.1825  0.3910 -0.2752
  804MPD2    C111892   0.832   2.395  17.015  0.4063 -0.4170 -0.4770
  804MPD2    C211893   0.879   2.505  17.094 -0.0043 -0.1474 -0.0196
  804MPD2    C311894   0.941   2.617  17.034 -0.1959  0.2490  0.2037
  804MPD2    C411895   0.923   2.637  16.903  0.8335 -0.4591 -0.0760
  804MPD2    C511896   0.877   2.532  16.823 -0.7617  0.7846 -0.1106
  804MPD2     H11897   0.870   2.489  17.201  0.1091 -2.3075 -0.3260
  804MPD2    H111898   0.966   2.724  16.855  0.6292 -0.4759 -0.2874
  804MPD2    H211899   0.783   2.344  16.825  3.8660 -2.2547 -0.3798
  804MPD2    H311900   0.863   2.547  16.716  1.8949 -1.3885 -0.7508
  804MPD2     N11901   1.011   2.711  17.110  0.1868  0.1306 -0.2519
  804MPD2    H511902   1.012   2.701  17.211  2.6146  0.0973 -0.2574
  804MPD2    N111903   0.795   2.276  17.084  0.7505 -0.2636 -0.1792
  804MPD2    H711904   0.804   2.269  17.185 -1.5937  0.9485  0.1070
  805MPD2     C11905   0.160   0.684  15.477 -0.7246 -0.3713  0.2818
  805MPD2    C111906   0.235   0.572  15.440  0.1782  0.7602 -0.1852
  805MPD2    C211907   0.350   0.541  15.515  0.9303 -0.0312  0.6624
  805MPD2    C311908   0.377   0.615  15.630  0.2217  0.6091 -0.2876
  805MPD2    C411909   0.298   0.732  15.660  1.0146  0.0913 -0.5094
  805MPD2    C511910   0.198   0.765  15.581  0.3052 -0.9836  0.3897
  805MPD2     H11911   0.420   0.464  15.484  0.8940 -0.5617  1.8786
  805MPD2    H111912   0.318   0.791  15.748 -0.2296  0.4087 -0.4468
  805MPD2    H211913   0.070   0.715  15.425  1.7635  1.5244 -2.8624
  805MPD2    H311914   0.140   0.854  15.604  2.9540  0.8189  0.1037
  805MPD2     N11915   0.501   0.595  15.700 -0.2119 -0.0922  0.6198
  805MPD2    H511916   0.549   0.509  15.675 -0.1598  0.5617 -1.4624
  805MPD2    N111917   0.199   0.492  15.332  0.6274 -0.8191  0.0111
  805MPD2    H711918   0.246   0.404  15.315 -2.1219 -1.9096 -1.8830
  806MPD2     C11919   0.960   0.238   0.967  0.1976 -0.3312  0.5509
  806MPD2    C111920   1.095   0.249   0.937  0.1178  0.0664  0.5148
  806MPD2    C211921   1.148   0.209   0.814  0.0069  0.0440  0.0870
  806MPD2    C311922   1.061   0.141   0.730 -0.4569 -0.4397  0.2221
  806MPD2    C411923   0.934   0.102   0.776  0.4377  0.2153  0.5902
  806MPD2    C511924   0.883   0.158   0.892  0.2541 -0.2352  0.1905
  806MPD2     H11925   1.250   0.233   0.788  0.8077 -4.0052 -0.4448
  806MPD2    H111926   0.870   0.047   0.708  1.6442  0.7789 -1.0130
  806MPD2    H211927   0.912   0.277   1.057 -1.0541  2.9154 -1.5363
  806MPD2    H311928   0.784   0.133   0.930 -1.1322  0.7883 -2.7730
  806MPD2     N11929   1.114   0.114   0.595  0.2701  0.0480 -0.0545
  806MPD2    H511930   1.192   0.161   0.551  0.6238  0.9974  1.5738
  806MPD2    N111931   1.172   0.301   1.043  0.6067  0.3771  0.1828
  806MPD2    H711932   1.109   0.327   1.119  1.2576  0.7363  0.6050
  807MPD2     C11933   1.151   4.725   1.646  1.0479 -0.7834 -0.2432
  807MPD2    C111934   1.198   4.704   1.521  0.5763  0.1109 -0.7217
  807MPD2    C211935   1.168   4.581   1.467  0.4111 -0.6180  0.7673
  807MPD2    C311936   1.089   4.486   1.540  0.0482 -0.0929 -0.6919
  807MPD2    C411937   1.035   4.523   1.658 -0.7281 -0.0979 -1.1980
  807MPD2    C511938   1.064   4.641   1.711  0.1548  0.9220 -0.7610
  807MPD2     H11939   1.217   4.558   1.373 -1.6621 -0.9691 -0.2449
  807MPD2    H111940   0.966   4.461   1.714 -0.3675  0.2571 -0.3573
  807MPD2    H211941   1.169   0.084   1.692 -2.5020  0.1147 -0.7175
  807MPD2    H311942   1.010   4.669   1.801  0.9137 -3.1014  0.9694
  807MPD2     N11943   1.073   4.352   1.484 -0.3161 -0.1538 -0.1110
  807MPD2    H511944   1.128   4.339   1.400  3.1939  2.2679  1.7966
  807MPD2    N111945   1.267   0.064   1.446 -0.7643 -0.4853 -0.1184
  807MPD2    H711946   1.292   0.047   1.349 -0.4333  1.0043 -0.2901
  808MPD2     C11947   0.858   2.310   9.786 -0.6218  0.5386 -0.0802
  808MPD2    C111948   0.784   2.352   9.897  0.6361 -0.0902 -0.1289
  808MPD2    C211949   0.801   2.481   9.932  0.4671  0.5352  0.2599
  808MPD2    C311950   0.883   2.570   9.858 -0.4242 -0.6930 -0.0007
  808MPD2    C411951   0.954   2.517   9.752 -0.2290  0.2316  0.5407
  808MPD2    C511952   0.939   2.395   9.712  0.7728 -0.3024 -0.5669
  808MPD2     H11953   0.752   2.524  10.019 -0.3496  0.7483 -0.3033
  808MPD2    H111954   1.013   2.586   9.693 -0.3918  1.3009  1.6267
  808MPD2    H211955   0.864   2.205   9.759 -0.8191  0.0224  1.8590
  808MPD2    H311956   1.000   2.360   9.630  1.2418 -1.2558  0.1976
  808MPD2     N11957   0.888   2.715   9.881  0.4649 -0.6988 -0.5141
  808MPD2    H511958   0.945   2.778   9.826 -1.0058 -0.4457 -1.7716
  808MPD2    N111959   0.691   2.273   9.960  0.2854  0.2023  0.3197
  808MPD2    H711960   0.635   2.320  10.031 -3.1845 -2.6585 -0.5605
  809MPD2     C11961   1.254   3.606   9.674 -0.2597  0.4539 -0.2152
  809MPD2    C111962   1.253   3.480   9.625 -0.2351  0.9543  0.3935
  809MPD2    C211963   1.165   3.390   9.669 -0.1819  0.2426  0.2267
  809MPD2    C311964   1.058   3.427   9.747  0.0172  0.1186 -0.1692
  809MPD2    C411965   1.059   3.556   9.795  0.2874 -0.3008  0.0114
  809MPD2    C511966   1.156   3.644   9.753  0.4897  0.0478 -0.3195
  809MPD2     H11967   1.172   3.288   9.634 -1.4626 -0.2734  1.4151
  809MPD2    H111968   0.978   3.593   9.857 -0.9437 -0.3283 -1.5917
  809MPD2    H211969   1.327   3.684   9.656 -0.7473  0.9146 -0.1916
  809MPD2    H311970   1.161   3.747   9.787 -0.9479  0.3596 -1.0373
  809MPD2     N11971   0.979   3.330   9.811 -0.2918 -0.3417  0.8711
  809MPD2    H511972   0.915   3.368   9.879 -0.1919  2.7651 -0.7850
  809MPD2    N111973   1.364   3.430   9.562  0.3028 -0.0290  0.3221
  809MPD2    H711974   1.369   3.329   9.552 -1.0501  0.0824 -1.4872
  810MPD2     C11975   0.484   1.576  11.015  0.8207 -0.0843  0.7700
  810MPD2    C111976   0.429   1.604  10.892  0.4050  0.3565 -0.1187
  810MPD2    C211977   0.516   1.637  10.788 -0.3293 -0.8853 -0.0855
  810MPD2    C311978   0.654   1.644  10.807  0.0145  0.6501 -0.8230
  810MPD2    C411979   0.699   1.637  10.939 -0.4109  1.0014  0.3371
  810MPD2    C511980   0.615   1.600  11.038  0.1216  0.1871  0.7476
  810MPD2     H11981   0.483   1.653  10.686 -2.1965  0.2964  0.6938
  810MPD2    H111982   0.804   1.652  10.961 -0.4984  1.4324  0.4593
  810MPD2    H211983   0.419   1.538  11.093  1.3575 -0.6311  0.9452
  810MPD2    H311984   0.648   1.585  11.140  0.5158 -1.4268  0.3890
  810MPD2     N11985   0.743   1.666  10.697  0.0749 -0.5641  0.8052
  810MPD2    H511986   0.830   1.708  10.728 -0.6178  1.8445 -0.5487
  810MPD2    N111987   0.288   1.603  10.876 -0.5315  0.7520 -0.2256
  810MPD2    H711988   0.229   1.560  10.947  0.0495 -0.8474 -0.6993
  811MPD2     C11989   4.195   1.761  10.463  0.3574 -0.5401 -0.1565
  811MPD2    C111990   4.326   1.803  10.470 -0.0421 -0.3016 -0.4240
  811MPD2    C211991   4.362   1.925  10.411  0.1338  0.6296  0.0261
  811MPD2    C311992   4.264   2.018  10.362 -0.3938 -0.1170 -0.7676
  811MPD2    C411993   4.129   1.975  10.353  0.0681  0.4801  0.2344
  811MPD2    C511994   4.099   1.846  10.399  0.2793 -0.4000  0.1172
  811MPD2     H11995   4.464   1.960  10.413 -0.1671  1.5654 -1.0829
  811MPD2    H111996   4.045   2.039  10.327 -0.4704  1.3279  4.0600
  811MPD2    H211997   4.158   1.669  10.507 -0.4651  0.2511  0.7893
  811MPD2    H311998   3.999   1.805  10.391 -0.3611  0.6978  2.6397
  811MPD2     N11999   4.319   2.143  10.318 -0.1200 -0.1164 -0.6992
  811MPD2    H512000   4.420   2.147  10.324 -0.0560 -1.1068 -0.9703
  811MPD2    N112001   4.427   1.728  10.537  0.5709 -0.6087  0.7597
  811MPD2    H712002   4.394   1.646  10.587  0.1783 -0.8330  0.1332
  812MPD2     C12003   4.067   1.305  12.124 -0.5314  0.0559  0.3279
  812MPD2    C112004   3.955   1.360  12.192  0.3126  0.1949  0.6303
  812MPD2    C212005   3.941   1.344  12.326 -0.8499 -1.1722 -0.3904
  812MPD2    C312006   4.031   1.264  12.399  0.6068  0.0230 -0.4527
  812MPD2    C412007   4.142   1.219  12.326 -0.9528 -0.8684  0.0051
  812MPD2    C512008   4.163   1.242  12.195 -0.2567 -0.2032 -0.4230
  812MPD2     H12009   3.853   1.384  12.373 -0.4942  0.2852 -0.9827
  812MPD2    H112010   4.225   1.174  12.379  0.2477  1.3509  0.0007
  812MPD2    H212011   4.074   1.311  12.016  0.2388 -0.4216  0.3508
  812MPD2    H312012   4.251   1.202  12.145 -0.7912  2.0955 -3.1572
  812MPD2     N12013   4.013   1.253  12.539  0.5699  0.2473  0.6333
  812MPD2    H512014   3.930   1.303  12.570 -0.5952 -0.7173 -0.9527
  812MPD2    N112015   3.866   1.445  12.113 -0.0892 -0.1306 -0.3864
  812MPD2    H712016   3.888   1.452  12.014 -0.6760 -1.2146 -0.5934
  813MPD2     C12017   3.125   2.951  12.855 -0.1784 -0.2873 -0.4706
  813MPD2    C112018   3.170   3.061  12.914 -0.3192 -0.6100 -0.1974
  813MPD2    C212019   3.123   3.090  13.043  0.1908 -0.1795  0.1594
  813MPD2    C312020   3.049   3.001  13.111 -0.7796  0.1274 -0.5069
  813MPD2    C412021   3.003   2.883  13.046  0.1119  0.7611 -0.0608
  813MPD2    C512022   3.040   2.867  12.913 -0.0886  0.0529  0.4660
  813MPD2     H12023   3.162   3.170  13.105  0.7107  0.0607 -0.4738
  813MPD2    H112024   2.941   2.811  13.097 -0.8432  1.9076  0.4000
  813MPD2    H212025   3.146   2.931  12.750 -3.4535  0.4798 -1.2612
  813MPD2    H312026   2.999   2.784  12.856  0.3416  0.8103 -0.9499
  813MPD2     N12027   3.020   3.021  13.249 -0.5327  0.6687 -0.1244
  813MPD2    H512028   3.052   3.111  13.285  2.7106 -0.5072 -0.0752
  813MPD2    N112029   3.271   3.138  12.846  0.4584  0.4868  0.3252
  813MPD2    H712030   3.319   3.100  12.765  0.2447  0.7813  0.0581
  814MPD2     C12031   3.895   4.509  12.823  0.3201  0.3320 -0.6949
  814MPD2    C112032   3.873   4.551  12.688 -0.3190  0.7523 -0.0172
  814MPD2    C212033   3.897   4.686  12.653 -0.0936  0.1206 -0.1905
  814MPD2    C312034   3.958   0.031  12.743 -0.0550 -1.1911 -0.1187
  814MPD2    C412035   3.986   4.727  12.868 -0.5495  0.0717  0.0970
  814MPD2    C512036   3.947   4.604  12.907 -0.1001 -0.0558 -0.3948
  814MPD2     H12037   3.872   4.726  12.555  0.2000  0.8322  0.0241
  814MPD2    H112038   4.029   0.053  12.945 -2.4729 -0.2157  1.4102
  814MPD2    H212039   3.894   4.404  12.848  0.1587  0.5127  0.0684
  814MPD2    H312040   3.978   4.583  13.009 -0.7794  0.9417  0.0196
  814MPD2     N12041   4.006   0.160  12.706  0.5848  0.1183  0.0437
  814MPD2    H512042   4.037   0.218  12.784  2.6697  0.3125 -0.9196
  814MPD2    N112043   3.821   4.463  12.586 -0.1697  0.2245  0.1399
  814MPD2    H712044   3.809   4.510  12.497  3.1010 -0.9299 -0.8961
  815MPD2     C12045   4.317   3.558  11.918 -0.7415  0.1716  0.7357
  815MPD2    C112046   4.333   3.429  11.888  0.3171 -0.1805 -0.3353
  815MPD2    C212047   4.257   3.338  11.961  0.4022  0.0512 -0.7353
  815MPD2    C312048   4.175   3.374  12.066 -0.4453  0.5151 -0.6716
  815MPD2    C412049   4.164   3.506  12.100  0.3102 -0.4588 -0.3667
  815MPD2    C512050   4.231   3.597  12.021 -0.1659  0.2310  0.4821
  815MPD2     H12051   4.240   3.234  11.935  2.2106 -0.8507  1.6744
  815MPD2    H112052   4.113   3.545  12.187  0.9103  1.4262 -0.8519
  815MPD2    H212053   4.360   3.639  11.862 -0.8249 -1.0334 -1.0613
  815MPD2    H312054   4.220   3.704  12.037  0.9064 -0.1853  4.1851
  815MPD2     N12055   4.130   3.269  12.146  0.0770 -0.2681 -1.0704
  815MPD2    H512056   4.141   3.174  12.112 -1.7748  0.1499 -2.8846
  815MPD2    N112057   4.417   3.374  11.789 -0.0280 -0.2586 -0.1382
  815MPD2    H712058   4.452   3.443  11.724 -1.4549  1.0627  0.4932
  816MPD2     C12059   4.426   1.569  17.283 -0.4102  0.2131 -0.6171
  816MPD2    C112060   4.373   1.617  17.164  0.1259 -0.1853 -0.4191
  816MPD2    C212061   4.418   1.582  17.042  0.1410  0.3410  0.4293
  816MPD2    C312062   4.529   1.501  17.029 -0.0126  0.4356 -0.3314
  816MPD2    C412063   4.594   1.453  17.145 -0.1089 -0.2706 -0.1683
  816MPD2    C512064   4.530   1.477  17.266  0.3729 -0.0854 -0.1960
  816MPD2     H12065   4.385   1.627  16.949 -0.4392 -0.7969  0.0794
  816MPD2    H112066   4.689   1.401  17.151 -0.0532 -0.1122  0.2752
  816MPD2    H212067   4.392   1.602  17.380 -0.6740  2.1075 -1.3574
  816MPD2    H312068   4.588   1.443  17.351  0.5709 -0.8035 -0.6165
  816MPD2     N12069   4.582   1.472  16.901  0.3247  0.1633 -0.1157
  816MPD2    H512070   4.530   1.516  16.826  0.9933  0.4431 -0.4179
  816MPD2    N112071   4.269   1.706  17.189 -0.5812 -0.5704  0.1305
  816MPD2    H712072   4.236   1.715  17.284 -0.3197 -0.6330  0.2272
  817MPD2     C12073   2.949   4.292  10.021 -0.4016 -0.1066 -0.1464
  817MPD2    C112074   2.970   4.226   9.902 -0.4635 -0.0407  0.0016
  817MPD2    C212075   2.918   4.289   9.790  0.1926  0.2860 -0.1535
  817MPD2    C312076   2.834   4.395   9.799  0.1471  0.3558 -0.3625
  817MPD2    C412077   2.803   4.449   9.920  0.3569  0.0071  0.3189
  817MPD2    C512078   2.863   4.393  10.036 -0.6745  0.3232  0.0497
  817MPD2     H12079   2.927   4.226   9.703 -1.5646 -0.3254  0.1027
  817MPD2    H112080   2.734   4.529   9.943 -1.2721 -0.2522 -3.7302
  817MPD2    H212081   3.000   4.262  10.112 -1.9948 -1.2462  0.3702
  817MPD2    H312082   2.834   4.425  10.135 -0.0028  3.0191 -0.6436
  817MPD2     N12083   2.754   4.423   9.678  0.0880  0.3657  0.3348
  817MPD2    H512084   2.785   4.384   9.590  0.2239 -2.4594  1.6167
  817MPD2    N112085   3.043   4.109   9.885  0.8407 -0.5936  0.1596
  817MPD2    H712086   3.054   4.070   9.792  0.9673  0.1130 -0.1181
  818MPD2     C12087   2.216   3.947   9.879 -0.1194 -0.2038 -0.3796
  818MPD2    C112088   2.240   3.887  10.004  0.3320 -0.3650  0.4660
  818MPD2    C212089   2.275   3.757  10.014 -0.1448  0.6797 -0.2312
  818MPD2    C312090   2.278   3.681   9.897 -0.0199  0.3471 -0.0968
  818MPD2    C412091   2.271   3.745   9.772 -0.0262 -0.3193  0.1735
  818MPD2    C512092   2.233   3.875   9.763 -0.0092  0.0744  0.3405
  818MPD2     H12093   2.285   3.718  10.115 -0.7064 -0.5911 -0.6663
  818MPD2    H112094   2.294   3.686   9.684  1.8239 -0.7824  0.9844
  818MPD2    H212095   2.182   4.050   9.875 -3.9015 -1.4689 -0.2658
  818MPD2    H312096   2.230   3.930   9.670  2.7102  1.1055  0.8679
  818MPD2     N12097   2.314   3.542   9.901 -1.2558 -0.5760 -0.2935
  818MPD2    H512098   2.351   3.495   9.819 -0.3343 -1.7133  0.7773
  818MPD2    N112099   2.231   3.960  10.122 -0.1502 -0.0910  0.1154
  818MPD2    H712100   2.258   3.902  10.201  0.3016  1.8406  1.3837
  819MPD2     C12101   0.977   0.023  15.801  0.7737 -0.3193  0.1385
  819MPD2    C112102   1.003   4.627  15.779  0.0811  0.1301 -0.0822
  819MPD2    C212103   1.111   4.580  15.847  0.0933 -1.0048 -0.7757
  819MPD2    C312104   1.175   4.657  15.940  0.6408 -0.5243 -0.1237
  819MPD2    C412105   1.147   0.049  15.963 -0.4184 -0.0019  0.3018
  819MPD2    C512106   1.046   0.103  15.891  0.4325  0.1908 -0.8736
  819MPD2     H12107   1.136   4.475  15.855 -0.4742 -0.8994  2.3193
  819MPD2    H112108   1.205   0.110  16.031  1.4303  0.3752 -1.6040
  819MPD2    H212109   0.894   0.081  15.762  0.7846 -0.2567  0.2087
  819MPD2    H312110   1.029   0.209  15.906 -0.5316 -0.0857 -0.0475
  819MPD2     N12111   1.273   4.588  16.019  0.1131 -0.4726  0.1286
  819MPD2    H512112   1.313   4.499  15.992 -0.4088 -0.7886  0.3980
  819MPD2    N112113   0.916   4.556  15.699  0.1896  0.1135 -0.3086
  819MPD2    H712114   0.838   4.610  15.662  0.0756 -1.1197 -1.8384
  820MPD2     C12115   0.128   4.436  15.084 -0.6538  0.5481 -0.0040
  820MPD2    C112116   0.173   4.547  15.160 -0.0220  0.1870 -0.4029
  820MPD2    C212117   0.276   4.528  15.251 -0.5197 -0.2341 -0.3602
  820MPD2    C312118   0.326   4.401  15.270  0.1210  0.6930 -0.7234
  820MPD2    C412119   0.288   4.294  15.190  0.7188 -0.9787 -0.0252
  820MPD2    C512120   0.190   4.311  15.101  0.7417 -0.3665  0.8538
  820MPD2     H12121   0.311   4.605  15.319  0.7508 -0.7224 -0.4567
  820MPD2    H112122   0.316   4.190  15.206 -0.0585 -0.9923  1.2608
  820MPD2    H212123   0.044   4.434  15.015 -0.7150  0.9160  0.0612
  820MPD2    H312124   0.160   4.228  15.040  1.4184  0.3262 -0.4151
  820MPD2     N12125   0.427   4.367  15.363  0.2066 -0.4928  0.3047
  820MPD2    H512126   0.461   4.272  15.373  1.7763  0.2016  1.5448
  820MPD2    N112127   0.114   4.674  15.133  0.4740 -0.1347 -0.4994
  820MPD2    H712128   0.032   4.687  15.074 -0.0009  2.0520  0.6439
  821MPD2     C12129   1.266   1.519  13.589  0.3495  0.3351 -0.3669
  821MPD2    C112130   1.362   1.418  13.607 -0.0176 -0.2114 -0.5422
  821MPD2    C212131   1.483   1.428  13.546 -0.7635 -0.4683 -0.2884
  821MPD2    C312132   1.517   1.542  13.473 -0.4342  0.7631 -0.7030
  821MPD2    C412133   1.426   1.654  13.470  0.0383 -0.5770 -0.5918
  821MPD2    C512134   1.304   1.637  13.520 -0.0028 -0.4238 -0.0624
  821MPD2     H12135   1.552   1.345  13.546  0.4023  0.5111 -0.3608
  821MPD2    H112136   1.441   1.742  13.408  0.4181  0.0877  0.4536
  821MPD2    H212137   1.169   1.506  13.636  1.1336 -1.4322  0.7270
  821MPD2    H312138   1.227   1.712  13.505 -1.0523 -1.1653  1.6075
  821MPD2     N12139   1.635   1.569  13.410  0.4566  0.3069 -0.2839
  821MPD2    H512140   1.633   1.656  13.357  1.3513 -0.1764 -1.1126
  821MPD2    N112141   1.333   1.291  13.664  0.3906  0.2173 -0.7936
  821MPD2    H712142   1.402   1.218  13.654  0.9725  0.7243 -0.5290
  822MPD2     C12143   1.883   1.679  15.850  0.3923 -0.2104  0.0359
  822MPD2    C112144   1.866   1.640  15.982  0.9355 -0.2841  0.2575
  822MPD2    C212145   1.766   1.697  16.057 -0.1663 -0.9075 -0.3439
  822MPD2    C312146   1.684   1.793  16.010 -0.1832  0.5326 -0.2972
  822MPD2    C412147   1.714   1.843  15.886 -0.2514 -0.5052  0.1484
  822MPD2    C512148   1.812   1.783  15.804  0.0490  0.1926  0.6243
  822MPD2     H12149   1.750   1.679  16.163  1.3094 -0.6540 -0.0893
  822MPD2    H112150   1.666   1.933  15.849 -1.5619 -0.8809  0.9113
  822MPD2    H212151   1.941   1.626  15.776  1.5547  0.7629  0.2627
  822MPD2    H312152   1.831   1.815  15.702 -0.6952  1.8624  1.0041
  822MPD2     N12153   1.603   1.856  16.104  0.3162  0.1253  0.3891
  822MPD2    H512154   1.628   1.829  16.198  1.3473  1.6964  0.5681
  822MPD2    N112155   1.961   1.555  16.048 -0.5005  0.1474  0.4449
  822MPD2    H712156   1.952   1.532  16.146 -0.8710 -0.0734  0.3598
  823MPD2     C12157   1.079   2.153  16.749 -0.2779  0.4485 -0.2618
  823MPD2    C112158   1.161   2.064  16.688  1.3081  0.6586 -0.8788
  823MPD2    C212159   1.240   1.978  16.761 -0.1752  0.3791 -0.0987
  823MPD2    C312160   1.221   1.964  16.899 -0.1404 -0.5035 -1.0113
  823MPD2    C412161   1.136   2.054  16.959 -0.2423 -0.1113 -0.4406
  823MPD2    C512162   1.076   2.151  16.882  0.1100 -0.5503  0.5871
  823MPD2     H12163   1.321   1.922  16.716 -0.9086 -0.9424  0.2202
  823MPD2    H112164   1.103   2.049  17.062  0.4792  0.6948 -0.1751
  823MPD2    H212165   1.017   2.215  16.685  1.3766 -0.1924 -2.4993
  823MPD2    H312166   0.999   2.209  16.932  0.0345  0.3596 -0.5618
  823MPD2     N12167   1.305   1.868  16.970 -0.7819 -0.3764 -0.1333
  823MPD2    H512168   1.289   1.860  17.070 -1.3691 -0.9321 -0.2721
  823MPD2    N112169   1.187   2.087  16.553 -0.1381  0.3476  0.1995
  823MPD2    H712170   1.153   2.176  16.516 -0.9916 -0.0470  0.0334
  824MPD2     C12171   2.419   0.794  16.289  0.1138  0.6027 -0.2060
  824MPD2    C112172   2.412   0.876  16.173 -0.1868 -0.1669 -0.0966
  824MPD2    C212173   2.442   0.822  16.049 -0.0272 -0.0138 -0.0374
  824MPD2    C312174   2.484   0.692  16.040  0.3171 -0.2581  0.4292
  824MPD2    C412175   2.498   0.619  16.152  1.0004 -0.4760 -0.2312
  824MPD2    C512176   2.468   0.667  16.283 -0.4257  0.3116 -0.5710
  824MPD2     H12177   2.434   0.886  15.962  2.5720  0.8972  0.3810
  824MPD2    H112178   2.543   0.521  16.143 -1.6918 -1.7870  0.3981
  824MPD2    H212179   2.387   0.830  16.387 -0.1434 -2.5940  0.8805
  824MPD2    H312180   2.479   0.612  16.376  0.0692  0.4595 -0.5440
  824MPD2     N12181   2.533   0.648  15.921  0.2903 -0.2325 -0.2422
  824MPD2    H512182   2.537   0.716  15.845  1.0608 -0.5908 -0.5183
  824MPD2    N112183   2.357   1.004  16.196 -1.2421  0.2457 -0.0428
  824MPD2    H712184   2.342   1.026  16.294 -0.6147 -0.1432  0.1427
  825MPD2     C12185   3.266   0.725  15.475  0.1300 -0.3375  0.0816
  825MPD2    C112186   3.136   0.773  15.508  0.6081 -0.0509 -0.4509
  825MPD2    C212187   3.105   0.910  15.484  0.1885  0.4732 -0.7337
  825MPD2    C312188   3.210   1.002  15.453 -0.7765 -0.2173 -0.4848
  825MPD2    C412189   3.340   0.962  15.442 -0.0555 -0.6971  0.8047
  825MPD2    C512190   3.361   0.823  15.445  0.0982  0.0643  0.8114
  825MPD2     H12191   3.006   0.953  15.489 -0.7012 -1.5098 -1.4820
  825MPD2    H112192   3.423   1.026  15.414 -1.6724  0.6370 -0.9739
  825MPD2    H212193   3.300   0.622  15.482  2.5612  0.3566 -1.2273
  825MPD2    H312194   3.460   0.783  15.428 -0.3119  0.0321 -1.4762
  825MPD2     N12195   3.181   1.141  15.448 -0.5787 -0.5266  0.3649
  825MPD2    H512196   3.259   1.206  15.441 -1.1101 -0.0356 -0.9088
  825MPD2    N112197   3.039   0.681  15.563 -0.0672 -0.4957  0.7421
  825MPD2    H712198   3.066   0.584  15.572 -0.1731 -0.6328 -0.4914
  826MPD2     C12199   1.488   0.724  13.984 -0.3321  0.6309  0.3968
  826MPD2    C112200   1.576   0.790  13.898  0.5148 -0.7720 -0.0065
  826MPD2    C212201   1.649   0.888  13.960 -1.1437  0.7104  0.3419
  826MPD2    C312202   1.651   0.909  14.092  0.1966  0.3773 -0.7701
  826MPD2    C412203   1.573   0.836  14.180  0.2462  0.3539  0.6526
  826MPD2    C512204   1.475   0.757  14.118  0.1484 -0.2851  0.0779
  826MPD2     H12205   1.712   0.951  13.898  0.3438 -0.7827  0.3117
  826MPD2    H112206   1.556   0.867  14.282 -1.7282 -1.7481  0.9647
  826MPD2    H212207   1.418   0.647  13.955  0.8036 -0.6057  0.9659
  826MPD2    H312208   1.412   0.707  14.190  0.3582 -0.4338  0.1591
  826MPD2     N12209   1.737   1.004  14.157  0.6816 -0.1829  0.1770
  826MPD2    H512210   1.704   1.028  14.250  1.0240 -0.7600  0.4499
  826MPD2    N112211   1.575   0.761  13.762 -0.6254  0.1851  0.2981
  826MPD2    H712212   1.498   0.698  13.741  0.3062 -0.8349 -0.0682
  827MPD2     C12213   2.935   3.133  10.462 -0.6796  0.7475  0.2982
  827MPD2    C112214   2.906   3.038  10.554 -0.9488  0.7002 -0.3021
  827MPD2    C212215   2.816   2.935  10.530 -0.2221 -0.0877 -0.0546
  827MPD2    C312216   2.751   2.924  10.409 -0.4616  0.5452 -0.1547
  827MPD2    C412217   2.773   3.029  10.319 -0.2491  0.1764 -0.6585
  827MPD2    C512218   2.865   3.127  10.344  0.3814  0.5373 -0.0376
  827MPD2     H12219   2.791   2.863  10.606  0.9291  1.4494  1.7810
  827MPD2    H112220   2.730   3.018  10.219 -1.2550  0.2803 -0.2372
  827MPD2    H212221   3.012   3.209  10.467  2.9528 -2.8676 -0.7512
  827MPD2    H312222   2.884   3.193  10.260 -0.1521  1.6171  0.6881
  827MPD2     N12223   2.671   2.811  10.376 -0.5155  0.0629  0.6039
  827MPD2    H512224   2.652   2.744  10.450 -1.2126 -1.6847 -1.1586
  827MPD2    N112225   2.985   3.047  10.672 -0.6318  0.1105  0.1889
  827MPD2    H712226   3.059   3.117  10.678  0.0742 -0.8475  2.5615
  828MPD2     C12227   1.830   1.934  12.610  0.9104 -0.7820  0.1944
  828MPD2    C112228   1.738   1.938  12.514  0.2386 -0.6164 -0.0765
  828MPD2    C212229   1.763   2.012  12.404 -0.3579  0.5456 -0.7688
  828MPD2    C312230   1.887   2.075  12.379  0.2930  0.5794  0.4258
  828MPD2    C412231   1.982   2.056  12.477 -0.0328 -0.5951 -0.8818
  828MPD2    C512232   1.950   1.985  12.588  0.1365  0.1632 -0.9827
  828MPD2     H12233   1.685   2.018  12.329 -2.3528  0.9020  1.3304
  828MPD2    H112234   2.082   2.095  12.463 -0.1545 -0.6684 -1.9395
  828MPD2    H212235   1.818   1.892  12.709 -2.7626  0.4255  0.2558
  828MPD2    H312236   2.032   1.968  12.655 -1.9242 -0.0525  1.4749
  828MPD2     N12237   1.929   2.158  12.269  0.5212  0.3294  0.5028
  828MPD2    H512238   2.024   2.193  12.259  0.3721 -0.1763 -2.8407
  828MPD2    N112239   1.608   1.887  12.532 -0.1056  0.4648  0.0346
  828MPD2    H712240   1.535   1.909  12.465 -0.2838 -0.2473 -0.0063
  829MPD2     C12241   0.995   2.218  12.071 -0.3903  0.6557 -0.5866
  829MPD2    C112242   0.951   2.086  12.071  0.8766  0.1301 -0.2970
  829MPD2    C212243   1.008   1.997  12.169 -0.6491 -0.1000  0.1632
  829MPD2    C312244   1.114   2.032  12.245 -0.2171  0.1279  0.1944
  829MPD2    C412245   1.169   2.157  12.226 -0.1248 -0.1319 -0.3819
  829MPD2    C512246   1.107   2.245  12.146  0.6361  0.3639 -0.3538
  829MPD2     H12247   0.962   1.899  12.172 -1.7385  0.2911 -3.1640
  829MPD2    H112248   1.257   2.188  12.281 -0.4929  1.1285 -0.5083
  829MPD2    H212249   0.934   2.292  12.019 -0.4548  0.6033 -0.5864
  829MPD2    H312250   1.138   2.349  12.145 -3.1297  1.4894  0.3228
  829MPD2     N12251   1.187   1.953  12.338  0.6445  0.0712  0.1248
  829MPD2    H512252   1.268   1.996  12.381  1.0015 -0.0634 -0.4161
  829MPD2    N112253   0.837   2.053  11.986 -0.8859 -0.3760 -0.3030
  829MPD2    H712254   0.807   2.133  11.931  1.0303  0.1032 -0.6415
  830MPD2     C12255   2.083   4.393  16.134  0.6795 -0.3080 -0.5653
  830MPD2    C112256   1.974   4.435  16.070 -0.1537 -0.4442  0.1022
  830MPD2    C212257   1.989   4.530  15.971 -0.1693  0.1844  0.1090
  830MPD2    C312258   2.109   4.597  15.953  0.1017  0.7054 -0.8011
  830MPD2    C412259   2.222   4.555  16.022  0.0517  0.5003 -0.3432
  830MPD2    C512260   2.206   4.448  16.110  0.0003 -0.4321  0.0606
  830MPD2     H12261   1.905   4.566  15.913 -0.9902 -0.9554  0.5815
  830MPD2    H112262   2.320   4.599  16.007 -0.4948  2.1719  0.9675
  830MPD2    H212263   2.075   4.319  16.213 -1.0353 -0.4397 -0.8685
  830MPD2    H312264   2.289   4.411  16.170 -0.2055  0.5431  0.9434
  830MPD2     N12265   2.127   4.712  15.870  0.3896  0.0635 -0.2997
  830MPD2    H512266   2.222   0.007  15.852  1.4981 -3.8039 -1.3509
  830MPD2    N112267   1.846   4.390  16.118  0.2256 -0.0617  0.1148
  830MPD2    H712268   1.841   4.332  16.201  1.8877  1.1933  1.0900
  831MPD2     C12269   1.740   2.059  16.441  0.6366  0.2060  0.3001
  831MPD2    C112270   1.797   1.945  16.382 -0.2561 -0.2576  0.5843
  831MPD2    C212271   1.732   1.828  16.409 -0.0828 -0.0593 -0.1157
  831MPD2    C312272   1.625   1.821  16.503 -0.2316 -0.3154  0.6894
  831MPD2    C412273   1.594   1.930  16.571 -0.5340  0.3987  0.0845
  831MPD2    C512274   1.652   2.048  16.550  0.1142 -0.2859  0.5361
  831MPD2     H12275   1.765   1.736  16.363 -1.4256  0.4881 -2.1282
  831MPD2    H112276   1.519   1.932  16.649  0.0741 -0.7614  0.6948
  831MPD2    H212277   1.771   2.157  16.407  0.0894 -0.5260 -2.2398
  831MPD2    H312278   1.614   2.140  16.593  0.0098 -0.5212  0.9503
  831MPD2     N12279   1.557   1.700  16.533 -0.4920  0.0528  0.1271
  831MPD2    H512280   1.501   1.692  16.618 -1.5953  0.4139 -0.5632
  831MPD2    N112281   1.907   1.956  16.288 -0.0338 -0.4992 -0.0073
  831MPD2    H712282   1.926   2.052  16.261 -2.0937  0.4167  1.7578
  832MPD2     C12283   0.145   2.744  17.093 -0.2979 -0.4106  0.2514
  832MPD2    C112284   0.090   2.866  17.096  0.5019 -0.4606 -0.8220
  832MPD2    C212285   4.717   2.896  17.018  0.0538  0.0420 -0.3350
  832MPD2    C312286   4.636   2.796  16.976  0.2804  0.3884  0.0603
  832MPD2    C412287   4.682   2.660  16.988 -0.6150  0.4210  0.1860
  832MPD2    C512288   0.069   2.638  17.043 -0.9345 -0.4752  0.0182
  832MPD2     H12289   4.668   2.992  17.020 -1.5546 -0.7232 -1.9116
  832MPD2    H112290   4.622   2.574  16.959  0.8437 -0.1343 -1.1159
  832MPD2    H212291   0.224   2.718  17.162 -0.8749  1.1045  1.4722
  832MPD2    H312292   0.110   2.541  17.068 -2.0645 -0.8020  0.6161
  832MPD2     N12293   4.514   2.815  16.916  0.0746 -0.1326  0.1724
  832MPD2    H512294   4.461   2.731  16.894 -2.6261  1.8993 -1.0934
  832MPD2    N112295   0.152   2.956  17.192  0.0123  0.5444 -0.6741
  832MPD2    H712296   0.240   2.932  17.238 -1.0050 -0.6729  0.6466
  833MPD2     C12297   2.663   4.380  12.642 -0.3748  0.0591 -0.1886
  833MPD2    C112298   2.594   4.477  12.568 -0.2145  0.1627  0.5260
  833MPD2    C212299   2.668   4.577  12.503 -0.2371 -0.6203 -0.6163
  833MPD2    C312300   2.808   4.580  12.515 -0.1567  0.0546 -0.4894
  833MPD2    C412301   2.873   4.478  12.583 -0.3501 -0.1544 -0.7052
  833MPD2    C512302   2.800   4.383  12.648  0.0115  0.5434 -0.2670
  833MPD2     H12303   2.620   4.655  12.446  1.0018  0.2454 -0.4803
  833MPD2    H112304   2.980   4.466  12.589  0.0023  3.1998 -0.4576
  833MPD2    H212305   2.606   4.304  12.694  0.0789 -1.5123 -1.9866
  833MPD2    H312306   2.855   4.309  12.706 -0.1178  2.7691  2.6437
  833MPD2     N12307   2.877   4.682  12.439  0.0180 -0.6898  0.3113
  833MPD2    H512308   2.819   0.017  12.399  1.0786 -1.6478 -2.9402
  833MPD2    N112309   2.451   4.467  12.569 -0.0385 -0.4258  0.4090
  833MPD2    H712310   2.404   4.388  12.613  0.0600 -0.2267  0.8780
  834MPD2     C12311   2.932   4.641  11.468  0.3027  0.0656 -0.1740
  834MPD2    C112312   2.810   4.642  11.536 -0.3683 -0.6935  0.0642
  834MPD2    C212313   2.809   4.668  11.673  0.1119 -0.5197  0.5447
  834MPD2    C312314   2.921   4.714  11.738 -0.4453 -0.0960  0.2052
  834MPD2    C412315   3.040   4.704  11.672 -0.4953 -0.6277  0.0580
  834MPD2    C512316   3.043   4.666  11.542  0.5620 -0.8897 -0.6031
  834MPD2     H12317   2.716   4.670  11.729 -0.4525 -3.2761 -0.3107
  834MPD2    H112318   3.131   0.008  11.714 -2.1549  1.2680  1.7925
  834MPD2    H212319   2.944   4.606  11.365 -0.5869  2.0486 -0.9348
  834MPD2    H312320   3.140   4.662  11.494  0.0321  0.0425 -1.7857
  834MPD2     N12321   2.916   0.029  11.874 -0.1388 -0.5849 -0.2749
  834MPD2    H512322   2.826   0.039  11.919  0.5257  3.9896  0.0625
  834MPD2    N112323   2.702   4.620  11.455  0.6449  0.0139 -0.0575
  834MPD2    H712324   2.729   4.622  11.357 -0.0798  1.3532 -0.2281
  835MPD2     C12325   2.141   2.859  10.978  0.2617  0.4549 -0.0486
  835MPD2    C112326   2.068   2.898  11.081 -0.6643  0.7636 -0.0645
  835MPD2    C212327   2.091   2.848  11.209  0.2631  0.2522  0.3575
  835MPD2    C312328   2.199   2.764  11.236  0.4514 -0.7699 -0.4468
  835MPD2    C412329   2.275   2.737  11.130  0.1313 -0.6361  0.0395
  835MPD2    C512330   2.251   2.785  11.003  0.2619 -0.9185 -0.6390
  835MPD2     H12331   2.022   2.866  11.291 -0.2609 -0.2415  0.0220
  835MPD2    H112332   2.363   2.679  11.156  1.2707  1.3110  0.5824
  835MPD2    H212333   2.128   2.900  10.878 -0.3942 -3.6248 -1.6364
  835MPD2    H312334   2.315   2.777  10.916  0.7905 -1.5676 -0.1985
  835MPD2     N12335   2.228   2.702  11.355  0.4587  0.4656 -0.0254
  835MPD2    H512336   2.303   2.634  11.361 -0.1524 -0.2218 -0.1436
  835MPD2    N112337   1.964   2.987  11.060  0.0658 -0.2052  0.4424
  835MPD2    H712338   1.950   3.010  10.963 -0.7145 -1.5835  0.2220
  836MPD2     C12339   1.715   2.719  11.929 -0.0606 -0.0738  0.4591
  836MPD2    C112340   1.822   2.645  11.974  0.1815 -0.3267 -0.1181
  836MPD2    C212341   1.817   2.611  12.108 -0.5176 -0.2090  0.1177
  836MPD2    C312342   1.717   2.643  12.193  0.2761 -0.3517  0.4955
  836MPD2    C412343   1.614   2.726  12.146 -1.0152  0.2650  0.2048
  836MPD2    C512344   1.619   2.762  12.013 -0.0891  0.0973  0.4328
  836MPD2     H12345   1.902   2.560  12.152 -0.5552  0.5253  1.0407
  836MPD2    H112346   1.532   2.762  12.208 -0.4195  0.2558  0.9971
  836MPD2    H212347   1.707   2.747  11.824 -2.2296  1.3263  1.0075
  836MPD2    H312348   1.539   2.821  11.969 -0.5163  1.1349  2.5696
  836MPD2     N12349   1.710   2.606  12.330  0.1765  0.0230  0.2193
  836MPD2    H512350   1.625   2.636  12.376  0.6315 -0.9024  1.6609
  836MPD2    N112351   1.932   2.619  11.886  0.0669 -0.8237  0.1640
  836MPD2    H712352   1.924   2.655  11.791  1.4040 -2.0233 -0.4022
  837MPD2     C12353   0.151   2.619  10.394  0.4132 -0.1401  0.0116
  837MPD2    C112354   0.074   2.675  10.291 -0.1878  0.2820  0.2013
  837MPD2    C212355   0.102   2.807  10.261 -0.5636 -0.4136  0.0467
  837MPD2    C312356   0.187   2.884  10.344  0.2682 -0.0072 -0.0254
  837MPD2    C412357   0.240   2.831  10.458  0.4755  0.1492  0.0462
  837MPD2    C512358   0.229   2.695  10.478 -0.1526 -0.1010  0.6513
  837MPD2     H12359   0.053   2.867  10.184 -1.7052 -1.3309  0.0676
  837MPD2    H112360   0.299   2.890  10.527  1.8013  2.2567 -2.9305
  837MPD2    H212361   0.146   2.511  10.408 -0.7790  0.1585  1.9245
  837MPD2    H312362   0.278   2.650  10.563 -1.3069 -2.6560 -0.0142
  837MPD2     N12363   0.179   3.026  10.324  0.1478  0.1404  0.1786
  837MPD2    H512364   0.133   3.065  10.242  0.7777  0.6321  0.0577
  837MPD2    N112365   4.721   2.603  10.216 -0.2931 -0.1786 -0.4528
  837MPD2    H712366   4.676   2.651  10.139 -0.4125  1.2842  0.5046
  838MPD2     C12367   3.612   1.153  12.178  0.1651 -0.1141  0.4316
  838MPD2    C112368   3.648   1.025  12.133 -0.6810  0.1937 -0.2664
  838MPD2    C212369   3.576   0.920  12.190 -0.2750 -0.0805  0.3650
  838MPD2    C312370   3.490   0.939  12.294  0.4255  0.0296  0.0289
  838MPD2    C412371   3.447   1.070  12.325  0.6176  0.1243 -0.5057
  838MPD2    C512372   3.508   1.180  12.262 -0.1320 -0.2450 -0.1694
  838MPD2     H12373   3.601   0.816  12.174 -2.2817  0.0064 -3.4309
  838MPD2    H112374   3.368   1.095  12.395 -0.2189 -1.4347 -0.9004
  838MPD2    H212375   3.661   1.243  12.140  0.4327  0.4873  2.2022
  838MPD2    H312376   3.488   1.284  12.284  1.0633 -0.0534  0.0131
  838MPD2     N12377   3.446   0.823  12.351  0.0197  0.2646  0.7359
  838MPD2    H512378   3.479   0.735  12.313  0.6815  1.2317 -0.9188
  838MPD2    N112379   3.758   1.003  12.043 -0.4281 -0.2074 -0.1555
  838MPD2    H712380   3.787   0.906  12.035  0.5650 -0.0375  1.2113
  839MPD2     C12381   3.740   0.313  12.111 -0.3210  0.5020 -0.0268
  839MPD2    C112382   3.721   0.352  11.981  0.0066  0.1475 -0.9249
  839MPD2    C212383   3.798   0.456  11.925 -0.8650  0.7187 -0.8464
  839MPD2    C312384   3.877   0.533  12.009  0.7335 -1.2720 -0.2472
  839MPD2    C412385   3.897   0.492  12.136  0.4761  0.7689 -0.2515
  839MPD2    C512386   3.822   0.385  12.191  0.1914 -0.4701 -0.0937
  839MPD2     H12387   3.796   0.479  11.819  1.0539 -1.7102 -1.4066
  839MPD2    H112388   3.965   0.549  12.199  1.5219  2.1241 -2.6161
  839MPD2    H212389   3.703   0.216  12.143  1.5682 -0.3868 -0.5473
  839MPD2    H312390   3.824   0.362  12.296  0.6656  0.9935  0.2225
  839MPD2     N12391   3.953   0.644  11.967  0.2625  0.1584  0.5747
  839MPD2    H512392   3.994   0.694  12.046 -1.3032  1.4718  0.5749
  839MPD2    N112393   3.657   0.269  11.889  0.4406  0.6873 -0.2230
  839MPD2    H712394   3.658   0.292  11.790  0.6417 -0.7189 -0.5438
  840MPD2     C12395   3.482   3.388  10.616 -0.6129 -0.2255  0.0663
  840MPD2    C112396   3.502   3.330  10.738 -0.1159  0.5885 -0.0214
  840MPD2    C212397   3.603   3.374  10.823  0.5688 -0.5788 -0.2133
  840MPD2    C312398   3.689   3.472  10.780 -0.4308 -0.7747 -0.2763
  840MPD2    C412399   3.671   3.525  10.659  0.6725 -0.3053  0.1539
  840MPD2    C512400   3.567   3.483  10.574 -0.1370  0.0099  0.6898
  840MPD2     H12401   3.621   3.326  10.919  0.6003  0.4081  0.2669
  840MPD2    H112402   3.732   3.602  10.614  0.2705 -0.4540 -0.6405
  840MPD2    H212403   3.399   3.360  10.551 -0.2515 -0.1293 -0.4332
  840MPD2    H312404   3.556   3.513  10.471 -1.7557 -1.5153  0.4299
  840MPD2     N12405   3.802   3.499  10.860 -0.6424 -0.1829  0.2766
  840MPD2    H512406   3.801   3.442  10.944 -1.8671  0.5697  0.7782
  840MPD2    N112407   3.411   3.227  10.775 -0.0940 -0.5762 -0.3680
  840MPD2    H712408   3.339   3.210  10.706  1.6068 -0.0469 -2.2881
  841MPD2     C12409   3.401   1.935  15.109  0.1188 -0.7396  0.1344
  841MPD2    C112410   3.392   1.875  14.989 -0.8231  0.4341 -0.9317
  841MPD2    C212411   3.400   1.952  14.873  0.7292  0.5647  0.0233
  841MPD2    C312412   3.398   2.089  14.873  0.8354 -0.4874 -0.5563
  841MPD2    C412413   3.375   2.152  14.991 -0.5930 -1.3234 -0.4300
  841MPD2    C512414   3.381   2.072  15.107 -0.3058 -0.2377  0.6716
  841MPD2     H12415   3.404   1.895  14.781 -1.5245  1.6633 -0.7525
  841MPD2    H112416   3.361   2.260  14.989  0.0292 -1.2411 -0.2195
  841MPD2    H212417   3.416   1.892  15.207  1.1420  0.2518  0.4097
  841MPD2    H312418   3.376   2.124  15.202  1.2892 -1.4114  1.3878
  841MPD2     N12419   3.424   2.153  14.752 -0.2153  0.0688  0.0591
  841MPD2    H512420   3.441   2.093  14.672 -0.4436 -1.1270  0.9036
  841MPD2    N112421   3.391   1.732  14.980 -0.4427 -0.6476  0.2167
  841MPD2    H712422   3.408   1.692  14.888  0.8816 -1.9102  0.9926
  842MPD2     C12423   4.171   3.347  16.807  0.6063 -0.0531  1.3220
  842MPD2    C112424   4.049   3.270  16.834 -0.5079  0.4439  0.7861
  842MPD2    C212425   4.063   3.174  16.931  0.6933 -0.4489 -0.3283
  842MPD2    C312426   4.167   3.174  17.020 -1.6138  0.1231 -0.6300
  842MPD2    C412427   4.282   3.240  16.990  0.1786  0.2937  0.5641
  842MPD2    C512428   4.281   3.326  16.887 -0.4624  0.4217 -0.4970
  842MPD2     H12429   3.971   3.118  16.947 -0.2362  1.2464  0.1586
  842MPD2    H112430   4.375   3.217  17.040  1.0474 -0.0325 -1.1963
  842MPD2    H212431   4.176   3.401  16.712 -0.4126  0.6422  1.6608
  842MPD2    H312432   4.368   3.381  16.851 -2.0199  2.5239 -1.0557
  842MPD2     N12433   4.168   3.101  17.137  0.5599  0.1100  0.3375
  842MPD2    H512434   4.249   3.116  17.195  0.2151  1.7237  0.3897
  842MPD2    N112435   3.939   3.280  16.743  0.1381 -0.3389 -0.0462
  842MPD2    H712436   3.934   3.358  16.678  1.1854 -0.4260 -0.2254
  843MPD2     C12437   1.606   3.986  17.477  0.0522  0.1969 -0.2579
  843MPD2    C112438   1.669   3.909  17.577  0.0613 -0.5707  0.0059
  843MPD2    C212439   1.752   3.982  17.669 -0.5778  0.3505 -0.9526
  843MPD2    C312440   1.753   4.118  17.672 -0.5517  0.4725 -0.0944
  843MPD2    C412441   1.690   4.191  17.573  0.1446  0.3626 -0.1243
  843MPD2    C512442   1.609   4.128  17.484 -0.5766 -0.9698 -0.5273
  843MPD2     H12443   1.817   3.925  17.735 -0.6907 -0.7448 -1.7740
  843MPD2    H112444   1.701   4.299  17.569 -2.3062  0.6657  2.0783
  843MPD2    H212445   1.543   3.937  17.403  2.7386  0.2411 -2.5845
  843MPD2    H312446   1.557   4.188  17.410 -0.5213  1.0870  1.1201
  843MPD2     N12447   1.823   4.195   0.023 -0.4660 -0.2072  0.0449
  843MPD2    H512448   1.830   4.294   0.003 -1.4625  0.1820  1.5723
  843MPD2    N112449   1.662   3.771  17.576 -0.3447  0.4326  0.2987
  843MPD2    H712450   1.587   3.729  17.522 -0.5239  0.9469  0.1492
  844MPD2     C12451   4.194   2.540  16.415  0.0974 -0.5322 -0.7203
  844MPD2    C112452   4.303   2.480  16.361  0.3571  0.0209 -0.4542
  844MPD2    C212453   4.427   2.533  16.384  0.0095 -0.7228  0.4043
  844MPD2    C312454   4.444   2.650  16.457 -0.0416 -0.0760 -0.5586
  844MPD2    C412455   4.337   2.725  16.489 -0.2054 -0.2094 -0.0688
  844MPD2    C512456   4.210   2.666  16.468  0.5081 -0.2512  0.1575
  844MPD2     H12457   4.509   2.474  16.346 -0.6955 -1.2297 -0.3137
  844MPD2    H112458   4.338   2.818  16.545 -1.0167 -0.5939  0.5874
  844MPD2    H212459   4.090   2.514  16.398  0.3940 -1.0739 -1.7023
  844MPD2    H312460   4.123   2.726  16.491  0.0313 -1.2959  1.0773
  844MPD2     N12461   4.573   2.682  16.510  0.4637  0.3683 -0.2283
  844MPD2    H512462   4.646   2.612  16.501 -0.9389 -1.3660  2.0976
  844MPD2    N112463   4.298   2.363  16.279 -0.0318  0.2220  0.6000
  844MPD2    H712464   4.382   2.332  16.230  0.1896  2.3868 -0.3589
  845MPD2     C12465   0.257   3.476  17.052  0.2879 -0.1038  0.1415
  845MPD2    C112466   0.131   3.433  17.046 -0.3652  0.0333  0.0173
  845MPD2    C212467   0.101   3.309  16.981  0.6416  0.0853 -0.8304
  845MPD2    C312468   0.200   3.233  16.923  0.1151 -0.6849 -1.0153
  845MPD2    C412469   0.329   3.284  16.928  0.5592 -0.3127 -0.1549
  845MPD2    C512470   0.355   3.409  16.986  0.2991 -0.2815  0.1539
  845MPD2     H12471   4.733   3.288  16.964  0.6401 -2.1358  1.9711
  845MPD2    H112472   0.410   3.224  16.888  1.1209  0.3728 -0.0348
  845MPD2    H212473   0.283   3.567  17.104 -0.9375 -1.6775  3.4900
  845MPD2    H312474   0.457   3.445  16.980  0.7491 -2.0320 -2.6075
  845MPD2     N12475   0.166   3.119  16.840  0.9382 -0.5150  0.2861
  845MPD2    H512476   0.067   3.099  16.828  0.4595  2.3360 -0.5802
  845MPD2    N112477   0.031   3.517  17.106 -0.4566  0.6526  0.9934
  845MPD2    H712478   0.054   3.613  17.130 -0.5882  1.6554 -2.8758
  846MPD2     C12479   1.724   3.775  14.028 -0.5024  0.2061  0.0269
  846MPD2    C112480   1.590   3.814  14.023  0.0171  0.2070  0.1960
  846MPD2    C212481   1.517   3.834  14.136  0.5650  0.8136 -0.5798
  846MPD2    C312482   1.566   3.797  14.257 -0.1584  0.6604 -0.3805
  846MPD2    C412483   1.701   3.764  14.267  0.2076 -0.1373 -0.6385
  846MPD2    C512484   1.779   3.754  14.155  0.8390  0.2517  0.6189
  846MPD2     H12485   1.410   3.847  14.128  0.2694 -1.2249 -0.1304
  846MPD2    H112486   1.753   3.736  14.358  1.5949 -0.0387 -1.4027
  846MPD2    H212487   1.781   3.772  13.935  0.8292 -2.5350  0.9454
  846MPD2    H312488   1.883   3.725  14.161  0.1583 -2.5627 -1.4393
  846MPD2     N12489   1.478   3.816  14.366 -0.2444  0.5660 -0.7270
  846MPD2    H512490   1.383   3.833  14.334 -0.4106 -0.4393 -0.7732
  846MPD2    N112491   1.526   3.849  13.897 -0.3947  0.3165  0.1558
  846MPD2    H712492   1.444   3.908  13.910 -1.1476 -0.6264 -0.3867
  847MPD2     C12493   1.237   0.129  14.871 -0.4177 -0.4030  0.4972
  847MPD2    C112494   1.350   0.214  14.865  0.4043 -1.0180  0.0777
  847MPD2    C212495   1.478   0.168  14.852 -0.4434 -0.0708  0.9859
  847MPD2    C312496   1.494   0.033  14.843 -0.0739 -0.1251 -0.4710
  847MPD2    C412497   1.388   4.681  14.836 -0.4062 -0.9618 -0.3647
  847MPD2    C512498   1.262   4.736  14.848 -0.0907  0.0457 -0.4881
  847MPD2     H12499   1.568   0.228  14.847  0.1108 -1.1564 -1.9483
  847MPD2    H112500   1.403   4.575  14.820 -3.9203 -1.5828  0.3983
  847MPD2    H212501   1.136   0.166  14.878 -0.0177  1.0764 -1.6959
  847MPD2    H312502   1.174   4.673  14.838 -0.8890  1.2206 -0.8471
  847MPD2     N12503   1.631   4.735  14.854 -0.2829 -0.2935 -0.2907
  847MPD2    H512504   1.703   0.069  14.858 -0.6599  0.1393 -1.3124
  847MPD2    N112505   1.339   0.353  14.882 -0.5194 -0.1338  0.0960
  847MPD2    H712506   1.422   0.411  14.869  0.3700 -1.7424 -1.4678
  848MPD2     C12507   4.019   3.186  16.298  0.2529 -0.9684 -1.2124
  848MPD2    C112508   4.134   3.212  16.371  0.4641 -0.6839 -0.4811
  848MPD2    C212509   4.223   3.313  16.330 -0.8655 -0.6291 -0.0093
  848MPD2    C312510   4.191   3.379  16.209  0.2715 -0.0957 -0.2295
  848MPD2    C412511   4.076   3.346  16.135 -0.0473  0.2932 -0.0311
  848MPD2    C512512   3.987   3.255  16.185  0.3644  0.5124  0.0702
  848MPD2     H12513   4.318   3.335  16.377 -1.4808  1.3021  0.3112
  848MPD2    H112514   4.057   3.390  16.038 -1.0586  0.2909  0.1668
  848MPD2    H212515   3.943   3.113  16.323  1.7972 -2.4667 -0.8904
  848MPD2    H312516   3.898   3.237  16.127  0.0159  2.3696  0.0368
  848MPD2     N12517   4.267   3.489  16.156  0.0232  0.9515  0.0880
  848MPD2    H512518   4.228   3.541  16.078  0.8712  3.0490  1.0697
  848MPD2    N112519   4.177   3.139  16.489 -0.6086  1.0267 -0.0164
  848MPD2    H712520   4.251   3.181  16.543  0.7565  1.4905 -2.2403
  849MPD2     C12521   3.280   2.689  13.951  0.2406  0.4481  0.0874
  849MPD2    C112522   3.356   2.793  13.902  0.2195  0.1967  0.3488
  849MPD2    C212523   3.392   2.894  13.986 -0.1908 -0.0727 -0.3474
  849MPD2    C312524   3.336   2.895  14.110 -0.1523 -0.0830 -0.0974
  849MPD2    C412525   3.255   2.799  14.158  0.7217 -0.7714 -0.2821
  849MPD2    C512526   3.224   2.697  14.081 -0.0759 -0.0830 -0.1888
  849MPD2     H12527   3.473   2.959  13.953  2.1035 -3.0725 -0.5756
  849MPD2    H112528   3.214   2.798  14.258  2.8162  0.9658  0.6013
  849MPD2    H212529   3.275   2.594  13.899 -2.8738 -0.5759  2.2471
  849MPD2    H312530   3.172   2.609  14.117  1.5877 -0.7744  0.4992
  849MPD2     N12531   3.359   2.995  14.208  0.1468  0.0705  0.1822
  849MPD2    H512532   3.328   2.977  14.303 -1.8552  3.9297  0.2467
  849MPD2    N112533   3.411   2.776  13.776  0.1077  0.0733 -0.4784
  849MPD2    H712534   3.402   2.684  13.734 -0.3279 -0.0877 -0.0220
  850MPD2     C12535   1.897   1.061  14.972 -0.0960 -0.2547  0.1249
  850MPD2    C112536   1.907   1.030  15.107 -0.0753  0.3555 -1.0264
  850MPD2    C212537   2.025   0.996  15.155 -0.3466 -0.1399  0.1874
  850MPD2    C312538   2.141   1.004  15.082  0.5839  0.2224 -0.3980
  850MPD2    C412539   2.128   1.021  14.946  0.3546 -0.1392 -0.0091
  850MPD2    C512540   2.007   1.063  14.891 -0.1505  0.1350 -0.8445
  850MPD2     H12541   2.025   0.975  15.261 -0.7958  0.1810  0.2535
  850MPD2    H112542   2.218   1.026  14.886  0.1972 -2.2589 -0.4198
  850MPD2    H212543   1.799   1.091  14.937  1.8870  1.8462 -3.6303
  850MPD2    H312544   1.992   1.085  14.786  1.4593 -1.4777 -1.4258
  850MPD2     N12545   2.267   0.993  15.138 -0.1832  0.1957  0.2745
  850MPD2    H512546   2.341   1.002  15.069  1.0201  3.2152  1.9521
  850MPD2    N112547   1.793   1.035  15.194  0.1685 -0.5782  0.6845
  850MPD2    H712548   1.803   1.008  15.291 -0.9113 -0.0046  0.9473
  851MPD2     C12549   1.979   0.969  15.871  0.2495 -0.1195 -0.5056
  851MPD2    C112550   1.938   0.926  15.749 -0.0445  0.1973 -0.1158
  851MPD2    C212551   1.980   0.800  15.702 -0.5607  0.3414  0.0308
  851MPD2    C312552   2.037   0.713  15.784 -0.3618 -0.5701  0.1022
  851MPD2    C412553   2.070   0.753  15.914  0.1906  0.5605  0.5127
  851MPD2    C512554   2.033   0.874  15.955 -0.9561  0.4336  0.1224
  851MPD2     H12555   1.972   0.764  15.600  0.5429  2.5340 -0.8229
  851MPD2    H112556   2.109   0.686  15.990  0.3338 -0.3061 -0.3247
  851MPD2    H212557   1.956   1.067  15.911 -0.5341 -0.4484 -0.1504
  851MPD2    H312558   2.055   0.897  16.059 -3.8370  0.1273  0.8168
  851MPD2     N12559   2.062   0.584  15.732  0.1824 -0.1679 -0.9227
  851MPD2    H512560   2.026   0.561  15.640  0.2468  0.2997 -1.0643
  851MPD2    N112561   1.859   1.011  15.667  0.1788 -0.6788 -0.4590
  851MPD2    H712562   1.836   1.104  15.699  1.1086 -1.4032  2.3125
  852MPD2     C12563   0.911   0.601   9.415  0.6080  0.2956 -0.3314
  852MPD2    C112564   0.934   0.609   9.550 -0.1025 -0.0208 -0.4158
  852MPD2    C212565   1.064   0.598   9.592  0.9097  0.5415  0.3339
  852MPD2    C312566   1.169   0.583   9.506  0.2018 -0.4261 -0.8089
  852MPD2    C412567   1.141   0.566   9.378 -0.3927 -0.6226 -0.7898
  852MPD2    C512568   1.016   0.587   9.327 -0.4098  0.1696 -0.3495
  852MPD2     H12569   1.083   0.597   9.698  2.4884 -0.0258  0.0541
  852MPD2    H112570   1.217   0.530   9.309 -0.0106  0.5972 -0.9954
  852MPD2    H212571   0.815   0.599   9.364 -0.6783  0.7388  2.1146
  852MPD2    H312572   0.999   0.584   9.220  0.0130  1.3535 -0.4453
  852MPD2     N12573   1.303   0.579   9.553 -0.4487  0.1649  0.0952
  852MPD2    H512574   1.316   0.591   9.653 -1.4779 -1.9609  0.4926
  852MPD2    N112575   0.828   0.617   9.641  0.3631 -0.5869 -0.5314
  852MPD2    H712576   0.851   0.605   9.739  1.1076 -0.1355 -0.6511
  853MPD2     C12577   3.280   3.781  12.748  0.6177 -0.0963  0.2959
  853MPD2    C112578   3.179   3.850  12.682 -0.0007 -0.0719  0.7620
  853MPD2    C212579   3.192   3.874  12.541 -0.3631 -0.4635 -0.1602
  853MPD2    C312580   3.303   3.823  12.478 -0.1591 -0.4352 -0.6174
  853MPD2    C412581   3.404   3.764  12.550 -0.2455 -0.7428  0.2363
  853MPD2    C512582   3.393   3.742  12.683 -0.9242  0.0046  0.4988
  853MPD2     H12583   3.111   3.923  12.488 -0.0453 -1.1240 -1.2583
  853MPD2    H112584   3.482   3.724  12.487  0.7205  1.7003 -0.1213
  853MPD2    H212585   3.276   3.768  12.855 -1.4920  2.5231  0.5102
  853MPD2    H312586   3.479   3.705  12.737  1.4095  2.4555 -1.5422
  853MPD2     N12587   3.322   3.828  12.342 -0.4827  0.3560 -0.4876
  853MPD2    H512588   3.399   3.778  12.299 -0.5380  1.4036 -1.8058
  853MPD2    N112589   3.078   3.899  12.767  0.6526 -0.3537  0.7336
  853MPD2    H712590   3.066   3.871  12.864  1.4097 -0.9557  0.6533
  854MPD2     C12591   4.497   3.581  12.977 -0.1430  0.0792  0.2242
  854MPD2    C112592   4.613   3.638  13.032 -0.7919 -0.8115 -0.1971
  854MPD2    C212593   4.715   3.558  13.071 -0.3136  0.9914 -0.6622
  854MPD2    C312594   4.706   3.426  13.050 -0.0573 -0.4105 -0.6100
  854MPD2    C412595   4.601   3.372  12.983 -0.2959 -0.1072  0.1835
  854MPD2    C512596   4.497   3.448  12.957 -0.2358  0.5228 -0.0003
  854MPD2     H12597   0.065   3.608  13.110  0.2693  2.4700 -3.8861
  854MPD2    H112598   4.594   3.265  12.973  1.9516 -0.1974 -0.5475
  854MPD2    H212599   4.409   3.641  12.955 -0.7121 -1.1881 -0.9956
  854MPD2    H312600   4.402   3.398  12.943  1.3271 -2.3029 -0.4646
  854MPD2     N12601   0.081   3.338  13.072  0.2123  0.0723  0.0251
  854MPD2    H512602   0.091   3.251  13.022  0.6192 -0.1477  0.4861
  854MPD2    N112603   4.631   3.776  13.026  0.3361  0.1443  0.2456
  854MPD2    H712604   4.558   3.831  12.981  0.4971  0.1654  0.0109
  855MPD2     C12605   0.746   3.317  13.785  0.5984 -0.0372  0.7487
  855MPD2    C112606   0.697   3.193  13.741  0.0335  0.2868  0.2671
  855MPD2    C212607   0.637   3.183  13.616  0.2922  0.8501 -0.0804
  855MPD2    C312608   0.626   3.296  13.534  0.7753  0.9352 -0.1317
  855MPD2    C412609   0.658   3.419  13.588  0.0853 -0.3976 -0.6306
  855MPD2    C512610   0.716   3.433  13.712  0.1648  0.2932 -0.2622
  855MPD2     H12611   0.615   3.086  13.574  0.5591  1.6123 -2.0009
  855MPD2    H112612   0.650   3.506  13.524  0.7215  1.8040  2.2818
  855MPD2    H212613   0.794   3.323  13.882  2.4343  0.1410 -0.1815
  855MPD2    H312614   0.758   3.528  13.741 -0.1752  0.2222  0.4644
  855MPD2     N12615   0.596   3.290  13.397 -0.1394 -0.1883 -0.6238
  855MPD2    H512616   0.596   3.381  13.353 -1.6986  0.4393  0.6677
  855MPD2    N112617   0.700   3.079  13.818 -0.4561 -0.1962 -0.6178
  855MPD2    H712618   0.649   2.997  13.787 -0.5988  0.4739 -2.1090
  856MPD2     C12619   2.442   3.885  14.303 -0.1347  0.3208  1.1706
  856MPD2    C112620   2.486   4.016  14.272 -0.1392 -0.9439  0.3156
  856MPD2    C212621   2.388   4.110  14.244 -0.4562  0.4996  0.0007
  856MPD2    C312622   2.253   4.072  14.250 -0.2626 -1.0177 -0.0727
  856MPD2    C412623   2.213   3.946  14.269 -0.6203 -0.1245 -0.1570
  856MPD2    C512624   2.309   3.854  14.301  0.4288  0.3984  0.6256
  856MPD2     H12625   2.422   4.212  14.234  0.1781  0.1506 -1.3722
  856MPD2    H112626   2.113   3.906  14.285  0.0676 -0.9290  2.0608
  856MPD2    H212627   2.512   3.815  14.346  1.5241  0.5134 -1.2248
  856MPD2    H312628   2.276   3.754  14.328 -0.2161  0.4500  0.0413
  856MPD2     N12629   2.153   4.167  14.227  0.3556  0.4179 -0.5290
  856MPD2    H512630   2.058   4.130  14.222 -0.3590  2.0308  0.8536
  856MPD2    N112631   2.615   4.066  14.288 -0.0104 -0.2630  0.2959
  856MPD2    H712632   2.621   4.168  14.290 -1.0864 -0.2559  3.0611
  857MPD2     C12633   3.738   2.110  13.003 -0.6370 -0.4863 -0.2591
  857MPD2    C112634   3.837   2.025  13.052  0.0097  0.5050  0.5387
  857MPD2    C212635   3.898   2.055  13.170  0.0512  0.1444 -0.7675
  857MPD2    C312636   3.878   2.175  13.237 -0.0196  0.1529 -0.4827
  857MPD2    C412637   3.783   2.262  13.184  0.0933 -0.0498 -0.8098
  857MPD2    C512638   3.709   2.228  13.076 -0.2391 -1.3190 -0.2469
  857MPD2     H12639   3.964   1.988  13.224 -1.4568  0.9704  2.1109
  857MPD2    H112640   3.771   2.359  13.230 -2.1334  0.8714 -3.3573
  857MPD2    H212641   3.680   2.077  12.918 -1.1066 -0.1761 -0.0642
  857MPD2    H312642   3.639   2.300  13.032 -0.5590 -0.4555  1.6921
  857MPD2     N12643   3.949   2.220  13.356 -0.3671  0.1954  0.3913
  857MPD2    H512644   4.011   2.148  13.394 -0.3693  0.2854  0.5678
  857MPD2    N112645   3.860   1.907  12.978  0.0845 -0.1299  0.1684
  857MPD2    H712646   3.801   1.887  12.898  1.5370 -0.0041 -0.9367
  858MPD2     C12647   0.140   0.491  16.588 -0.3585 -0.4874 -0.3322
  858MPD2    C112648   0.236   0.402  16.628  0.1079  0.5701 -0.0617
  858MPD2    C212649   0.302   0.427  16.748 -0.8984  0.8496  0.3345
  858MPD2    C312650   0.276   0.544  16.823  0.4280 -0.3123 -0.1053
  858MPD2    C412651   0.179   0.630  16.786 -0.1112  0.0998  0.4781
  858MPD2    C512652   0.108   0.605  16.668  0.0948 -0.7501 -0.5263
  858MPD2     H12653   0.369   0.347  16.778  0.3443  1.3661 -1.0821
  858MPD2    H112654   0.155   0.722  16.838  2.1602  0.6657  0.5173
  858MPD2    H212655   0.071   0.480  16.505 -1.2683 -2.2944  0.6597
  858MPD2    H312656   0.043   0.679  16.621 -1.4778 -1.7767  0.0224
  858MPD2     N12657   0.343   0.576  16.943  0.6636 -0.3920  0.1659
  858MPD2    H512658   0.313   0.655  16.998  2.1985  1.9751 -2.4056
  858MPD2    N112659   0.275   0.291  16.542 -0.0562 -0.4631 -0.1583
  858MPD2    H712660   0.339   0.220  16.576 -2.3803 -1.6304  1.7954
  859MPD2     C12661   3.450   2.141  15.575  0.0959 -0.0744 -0.4777
  859MPD2    C112662   3.506   2.169  15.453  0.5050  0.2235  0.7177
  859MPD2    C212663   3.567   2.061  15.394 -1.0420  0.7404  0.7502
  859MPD2    C312664   3.573   1.934  15.458  0.8654  0.4302  0.0404
  859MPD2    C412665   3.531   1.919  15.591 -0.0408  0.0209  0.2722
  859MPD2    C512666   3.458   2.020  15.644 -1.0616  0.6427 -0.1792
  859MPD2     H12667   3.603   2.078  15.293  1.2896 -1.8264  1.1391
  859MPD2    H112668   3.535   1.823  15.641  1.4198  0.3733  0.8112
  859MPD2    H212669   3.385   2.213  15.623  2.9415  1.2399  1.3859
  859MPD2    H312670   3.407   2.006  15.739 -1.1485  0.6172 -0.2306
  859MPD2     N12671   3.628   1.822  15.393  0.2857 -0.1956 -0.6747
  859MPD2    H512672   3.608   1.737  15.444  0.7224 -0.3821 -0.8141
  859MPD2    N112673   3.518   2.305  15.401 -0.8446 -0.4785  0.4900
  859MPD2    H712674   3.470   2.379  15.453  0.7778 -0.8827  2.5776
  860MPD2     C12675   1.021   3.495  11.625 -0.4140  0.0330 -0.3337
  860MPD2    C112676   0.992   3.576  11.731 -0.7232 -0.2970  1.2312
  860MPD2    C212677   0.874   3.551  11.802  0.0920  0.3282 -0.4916
  860MPD2    C312678   0.778   3.453  11.766 -0.1207  0.6715  0.5898
  860MPD2    C412679   0.813   3.379  11.651  0.3467 -0.6738 -0.2435
  860MPD2    C512680   0.930   3.409  11.577  0.3671 -0.2366  0.5165
  860MPD2     H12681   0.843   3.607  11.890 -0.0065  0.1826 -0.4339
  860MPD2    H112682   0.744   3.305  11.611 -0.5288 -0.5964  1.1282
  860MPD2    H212683   1.112   3.499  11.567 -1.7733 -2.1550 -2.6245
  860MPD2    H312684   0.946   3.369  11.478 -2.3140 -0.8960  0.3559
  860MPD2     N12685   0.655   3.428  11.837 -0.2632 -0.4730 -0.4451
  860MPD2    H512686   0.640   3.493  11.913 -0.3167 -2.2059  1.0413
  860MPD2    N112687   1.077   3.666  11.791 -0.2767  0.2164 -0.2335
  860MPD2    H712688   1.028   3.725  11.857  1.2539  0.5138  0.6386
  861MPD2     C12689   4.330   1.847  11.331 -0.3014 -0.6435  0.0681
  861MPD2    C112690   4.400   1.968  11.331  1.1491  0.3560  0.6873
  861MPD2    C212691   4.370   2.053  11.224 -0.0107  0.7309 -0.5768
  861MPD2    C312692   4.265   2.035  11.136  0.6974 -0.2424  0.2531
  861MPD2    C412693   4.197   1.914  11.149 -0.2990  0.0654  0.1177
  861MPD2    C512694   4.237   1.819  11.238  0.1734  0.2874  0.7674
  861MPD2     H12695   4.423   2.147  11.234  0.6508  0.5564 -2.3979
  861MPD2    H112696   4.120   1.889  11.076  0.0038  1.4815 -0.7023
  861MPD2    H212697   4.340   1.769  11.405 -0.9694  0.3733  1.2416
  861MPD2    H312698   4.179   1.727  11.246  1.7511 -0.7303  0.6132
  861MPD2     N12699   4.214   2.134  11.043  0.8593 -0.5273 -0.7155
  861MPD2    H512700   4.129   2.107  10.995  0.8240 -2.9242  0.6613
  861MPD2    N112701   4.501   1.997  11.425 -0.4728  0.1264  0.3999
  861MPD2    H712702   4.562   2.073  11.396  3.2818 -2.8217  0.7328
  862MPD2     C12703   3.576   2.363  10.815  0.5738 -0.0752 -0.1317
  862MPD2    C112704   3.666   2.277  10.876 -0.6099  0.0215 -0.5376
  862MPD2    C212705   3.627   2.163  10.938  0.2159  0.2521 -0.4495
  862MPD2    C312706   3.492   2.141  10.965  0.4753  0.8531 -0.4338
  862MPD2    C412707   3.402   2.227  10.905  0.0179  0.7806 -0.5999
  862MPD2    C512708   3.440   2.337  10.834 -0.5730 -0.4569  0.4346
  862MPD2     H12709   3.704   2.090  10.961 -0.0458  0.1259  0.0284
  862MPD2    H112710   3.297   2.202  10.910  0.4568 -1.1600 -0.8694
  862MPD2    H212711   3.597   2.453  10.757 -0.3945 -1.6895 -2.9890
  862MPD2    H312712   3.373   2.407  10.784  0.4163 -0.0909 -0.3913
  862MPD2     N12713   3.450   2.020  11.027 -0.2400  0.1421  0.2411
  862MPD2    H512714   3.352   1.994  11.025  0.1263 -1.3891  2.2811
  862MPD2    N112715   3.804   2.304  10.881 -0.1394 -0.0930 -0.0267
  862MPD2    H712716   3.850   2.237  10.941 -0.8367  0.6043  1.2770
  863MPD2     C12717   3.227   4.115  16.667 -0.1456  1.3174 -0.3720
  863MPD2    C112718   3.242   4.231  16.741 -0.2098 -0.1528  0.6652
  863MPD2    C212719   3.295   4.233  16.868  0.0878 -0.3842  0.2942
  863MPD2    C312720   3.343   4.107  16.921 -0.2586  0.6963 -0.2143
  863MPD2    C412721   3.323   3.998  16.845  0.4237  0.5547  0.6682
  863MPD2    C512722   3.260   3.998  16.724 -0.0921 -0.6236  0.2295
  863MPD2     H12723   3.322   4.326  16.917  1.6862 -1.4111  1.3431
  863MPD2    H112724   3.349   3.897  16.874 -0.8409 -0.7803 -2.8530
  863MPD2    H212725   3.180   4.120  16.569  1.6878 -0.2731 -1.3355
  863MPD2    H312726   3.244   3.905  16.669  0.5633 -0.2913 -0.5196
  863MPD2     N12727   3.416   4.097  17.040  0.6703  0.2265  0.5125
  863MPD2    H512728   3.461   4.006  17.051  0.2616  0.0182  0.4384
  863MPD2    N112729   3.205   4.351  16.683  0.1896  0.4079  0.6087
  863MPD2    H712730   3.160   4.346  16.592  0.3275 -0.3411  0.5847
  864MPD2     C12731   3.687   0.893  17.584  0.0061  0.3650 -0.3094
  864MPD2    C112732   3.749   0.800  17.499 -0.4786  0.3340  0.3612
  864MPD2    C212733   3.846   0.839  17.411 -0.1881 -0.5710 -0.2713
  864MPD2    C312734   3.898   0.968  17.421 -0.7142  0.7710  0.2059
  864MPD2    C412735   3.840   1.063  17.504  0.5596 -0.0441  0.4146
  864MPD2    C512736   3.739   1.023  17.595 -0.9578  0.1713 -0.2040
  864MPD2     H12737   3.898   0.765  17.351  0.1346  1.1556 -2.1025
  864MPD2    H112738   3.888   1.160  17.514 -0.4386  0.4964 -0.1420
  864MPD2    H212739   3.599   0.869  17.642 -1.4287  1.7730 -1.9002
  864MPD2    H312740   3.689   1.099  17.654  0.5958  2.2920 -1.6078
  864MPD2     N12741   3.986   1.020  17.333 -0.1234  1.0305 -0.4978
  864MPD2    H512742   4.012   1.118  17.339 -0.6920  1.0391  1.6004
  864MPD2    N112743   3.691   0.667  17.495 -0.2894  0.1121 -0.3288
  864MPD2    H712744   3.619   0.630  17.557  0.5637 -0.2104  0.4627
  865MPD2     C12745   4.239   1.310  16.564  0.4399  0.3553  0.1310
  865MPD2    C112746   4.187   1.218  16.655  0.7282 -0.6106 -0.3258
  865MPD2    C212747   4.149   1.258  16.779  0.2625  0.8295  0.3584
  865MPD2    C312748   4.176   1.390  16.821 -0.1619  0.0475 -0.2561
  865MPD2    C412749   4.224   1.479  16.727 -0.1886 -0.3307 -0.3764
  865MPD2    C512750   4.257   1.438  16.602  0.8053  0.2480  0.5998
  865MPD2     H12751   4.112   1.188  16.853  0.3906  0.4647  0.0720
  865MPD2    H112752   4.225   1.585  16.748  1.8134 -0.2338 -0.9137
  865MPD2    H212753   4.277   1.284  16.466  0.7960  0.1939  0.3118
  865MPD2    H312754   4.282   1.515  16.530  0.9516  1.0920  1.5332
  865MPD2     N12755   4.145   1.443  16.944  0.1162  0.1536 -0.2358
  865MPD2    H512756   4.135   1.544  16.946 -1.2557 -0.0218  1.9948
  865MPD2    N112757   4.157   1.094  16.607  0.0323  0.5256  0.6425
  865MPD2    H712758   4.191   1.071  16.514 -0.9074  1.0874  0.1544
  866MPD2     C12759   0.397   1.993  10.916 -0.5718  0.3076 -1.0981
  866MPD2    C112760   0.446   2.108  10.864 -0.6445 -0.2887 -0.0153
  866MPD2    C212761   0.380   2.230  10.876  0.4551  0.9884 -0.8255
  866MPD2    C312762   0.261   2.233  10.946  0.2484  0.1233 -0.3812
  866MPD2    C412763   0.235   2.131  11.023  0.2678  0.5010 -0.0922
  866MPD2    C512764   0.300   2.014  11.008  1.0016  0.3930 -0.0076
  866MPD2     H12765   0.404   2.323  10.824  0.4134  0.7325 -1.3068
  866MPD2    H112766   0.147   2.129  11.085  0.1382 -0.9506 -0.3328
  866MPD2    H212767   0.447   1.896  10.921  0.0766  0.8074  2.6735
  866MPD2    H312768   0.272   1.934  11.075 -1.1056  0.3879 -0.9147
  866MPD2     N12769   0.174   2.343  10.950 -0.1136 -0.4886 -0.0312
  866MPD2    H512770   0.102   2.336  11.021 -1.9090 -1.4959 -1.9551
  866MPD2    N112771   0.558   2.102  10.778  0.4579 -0.2107  0.5609
  866MPD2    H712772   0.582   2.012  10.740  1.5608 -0.2988  1.4586
  867MPD2     C12773   2.680   0.893  17.064  0.3385 -0.6580  0.1986
  867MPD2    C112774   2.801   0.880  17.113  0.2296  1.0243 -0.0326
  867MPD2    C212775   2.854   0.983  17.183  0.2585 -1.1452 -1.0765
  867MPD2    C312776   2.802   1.113  17.181  0.6703 -0.3169 -0.5789
  867MPD2    C412777   2.670   1.124  17.138 -0.2000  0.3478  0.4745
  867MPD2    C512778   2.611   1.013  17.087  0.2231  0.6835  0.2352
  867MPD2     H12779   2.951   0.962  17.227 -0.0285 -1.4749 -0.6000
  867MPD2    H112780   2.617   1.219  17.130 -1.8093 -0.8424 -2.8890
  867MPD2    H212781   2.627   0.812  17.017  0.1031  0.7117 -1.9207
  867MPD2    H312782   2.513   1.020  17.042  0.1582 -3.0835 -0.2279
  867MPD2     N12783   2.873   1.226  17.236  0.1079 -0.6488  1.0098
  867MPD2    H512784   2.824   1.304  17.278 -0.5657  0.3398 -1.5969
  867MPD2    N112785   2.868   0.755  17.099 -0.1906  0.3317 -0.8842
  867MPD2    H712786   2.945   0.727  17.158 -1.2443 -2.6446 -0.9258
  868MPD2     C12787   4.377   0.209  13.253  0.7845 -0.3055 -0.7201
  868MPD2    C112788   4.416   0.128  13.354 -0.0582  0.0801 -0.5118
  868MPD2    C212789   4.325   0.111  13.457 -0.2834 -0.8055  0.5058
  868MPD2    C312790   4.206   0.174  13.459 -0.2889 -0.1763  0.4207
  868MPD2    C412791   4.173   0.252  13.352 -0.5119  0.9299  0.6241
  868MPD2    C512792   4.262   0.275  13.253 -0.0738  0.2559 -0.5061
  868MPD2     H12793   4.342   0.042  13.539  0.6438 -0.1978  0.8304
  868MPD2    H112794   4.089   0.321  13.347 -2.1512 -1.3369 -3.2903
  868MPD2    H212795   4.445   0.231  13.171  1.6868 -2.1418 -0.4690
  868MPD2    H312796   4.247   0.342  13.169  1.1040  1.8022  0.5231
  868MPD2     N12797   4.113   0.155  13.564  0.4582 -0.3273 -0.4772
  868MPD2    H512798   4.150   0.123  13.653  0.0234 -0.7464 -0.4491
  868MPD2    N112799   4.556   0.078  13.352  0.0136  0.0578  0.4982
  868MPD2    H712800   4.608   0.090  13.266 -1.9451  1.3707 -0.5013
  869MPD2     C12801   0.753   2.373   0.401 -0.3110 -0.6066  0.5595
  869MPD2    C112802   0.671   2.426   0.500  0.5746  0.0479  0.0709
  869MPD2    C212803   0.692   2.554   0.536 -0.1501  0.8264 -0.1129
  869MPD2    C312804   0.787   2.636   0.478  0.3921  0.4915 -0.1745
  869MPD2    C412805   0.851   2.588   0.371 -0.0755 -0.1630  0.0183
  869MPD2    C512806   0.849   2.456   0.342 -0.2037 -0.1486  0.4990
  869MPD2     H12807   0.635   2.588   0.622  0.7131 -1.7497  1.4714
  869MPD2    H112808   0.916   2.656   0.316  2.2475 -3.1306 -0.8878
  869MPD2    H212809   0.754   2.267   0.378 -3.7170 -0.3664 -0.7260
  869MPD2    H312810   0.909   2.411   0.264 -1.3021 -1.8701  0.6252
  869MPD2     N12811   0.818   2.774   0.516 -0.2283 -0.6171 -0.0674
  869MPD2    H512812   0.882   2.811   0.446  1.3915 -1.9334  0.7193
  869MPD2    N112813   0.576   2.348   0.570  0.2613 -0.1103  0.9847
  869MPD2    H712814   0.560   2.368   0.668 -3.1066  2.0695 -0.0143
  870MPD2     C12815   0.935   1.662   1.241  0.0177  0.5657 -0.0814
  870MPD2    C112816   0.856   1.575   1.165  0.5336 -0.3070  0.6626
  870MPD2    C212817   0.723   1.577   1.184 -0.0993  0.3287  0.3800
  870MPD2    C312818   0.665   1.681   1.265  0.1752 -0.5340 -0.1118
  870MPD2    C412819   0.742   1.768   1.335 -0.2131 -0.8835  0.4945
  870MPD2    C512820   0.877   1.754   1.325  0.1174  0.3682  0.1441
  870MPD2     H12821   0.663   1.493   1.152 -0.3597 -0.0483  1.8707
  870MPD2    H112822   0.707   1.831   1.416  1.4945 -1.0860  1.3891
  870MPD2    H212823   1.042   1.674   1.229  0.1009 -2.6864 -2.7934
  870MPD2    H312824   0.936   1.806   1.400  1.0028  1.3047 -1.2107
  870MPD2     N12825   0.522   1.686   1.263  0.5240 -0.2310  0.3098
  870MPD2    H512826   0.473   1.610   1.216 -0.1850 -0.7957  1.9833
  870MPD2    N112827   0.933   1.491   1.074  0.5872 -0.1360 -0.3286
  870MPD2    H712828   1.034   1.490   1.081  0.5225  0.8270  0.7830
  871MPD2     C12829   1.773   1.335  16.656  0.1341  1.1083 -0.3021
  871MPD2    C112830   1.710   1.289  16.764 -0.2462 -0.2434 -0.3436
  871MPD2    C212831   1.659   1.155  16.764 -0.2832  0.5581 -0.3153
  871MPD2    C312832   1.684   1.073  16.657 -0.7791  0.1142  0.2269
  871MPD2    C412833   1.770   1.118  16.558 -0.3412 -0.4499  0.0937
  871MPD2    C512834   1.814   1.244  16.561 -0.9439 -0.1775  0.4812
  871MPD2     H12835   1.616   1.117  16.856  1.8142  0.1938  0.5334
  871MPD2    H112836   1.802   1.053  16.477  0.1157  0.3687 -0.3860
  871MPD2    H212837   1.812   1.433  16.633  1.0863  0.9384  0.5437
  871MPD2    H312838   1.882   1.281  16.485 -1.6820  0.2348  0.0194
  871MPD2     N12839   1.611   0.951  16.661 -0.1762  0.4378 -0.1231
  871MPD2    H512840   1.547   0.936  16.739  0.0452 -0.0748 -0.0384
  871MPD2    N112841   1.683   1.378  16.873 -0.0812  0.2629  0.1198
  871MPD2    H712842   1.707   1.476  16.866 -1.6269  0.7456  1.3739
  872MPD2     C12843   2.537   3.384  14.533 -0.5504  0.4960 -0.1547
  872MPD2    C112844   2.464   3.472  14.450  0.3716 -0.0629 -0.4469
  872MPD2    C212845   2.325   3.483  14.469  0.7577  0.0424  0.0016
  872MPD2    C312846   2.259   3.413  14.566 -0.3816  0.0373  0.3655
  872MPD2    C412847   2.330   3.323  14.649 -0.1871 -0.0491 -0.0810
  872MPD2    C512848   2.463   3.304  14.626  0.1420 -0.5254  0.0104
  872MPD2     H12849   2.267   3.538  14.396 -0.8889  1.0175  2.0200
  872MPD2    H112850   2.276   3.265  14.723  1.5854 -2.0498 -0.3679
  872MPD2    H212851   2.645   3.378  14.531 -0.2326  4.2252  3.6995
  872MPD2    H312852   2.521   3.248  14.699  2.9459  0.7236 -1.2672
  872MPD2     N12853   2.121   3.400  14.562 -0.5433  0.4885 -0.1156
  872MPD2    H512854   2.081   3.339  14.632  0.1232  0.5440  0.3164
  872MPD2    N112855   2.519   3.553  14.347  0.3191  0.3733 -0.7214
  872MPD2    H712856   2.449   3.606  14.296 -0.8293 -0.8847 -0.4272
  873MPD2     C12857   4.464   3.317   1.097 -0.0375  1.1626 -0.5198
  873MPD2    C112858   4.333   3.342   1.135  0.2185  0.0842 -0.4253
  873MPD2    C212859   4.243   3.241   1.103 -0.2319  0.0137  0.4016
  873MPD2    C312860   4.270   3.129   1.032  0.5089  0.0237  0.4006
  873MPD2    C412861   4.401   3.118   0.978 -1.0496  0.1746 -0.0383
  873MPD2    C512862   4.497   3.209   1.020  0.2377 -0.5848 -0.4980
  873MPD2     H12863   4.142   3.272   1.129 -0.2025  0.3335  0.1264
  873MPD2    H112864   4.444   3.025   0.943  1.1623  1.3384 -0.4956
  873MPD2    H212865   4.539   3.390   1.125  1.0236 -0.6646  1.4547
  873MPD2    H312866   4.600   3.214   0.987  0.3503 -1.0989 -0.2112
  873MPD2     N12867   4.178   3.024   1.012 -0.4617  0.2021 -0.1202
  873MPD2    H512868   4.199   2.937   0.964 -0.6062  0.1568 -0.0997
  873MPD2    N112869   4.296   3.470   1.192 -0.3304  0.2875  0.5138
  873MPD2    H712870   4.363   3.531   1.239  1.4815 -1.1914 -0.1413
  874MPD2     C12871   3.634   3.657  16.089 -0.4000 -0.1639 -0.4935
  874MPD2    C112872   3.719   3.616  16.195 -0.9845  0.1569  0.6266
  874MPD2    C212873   3.853   3.660  16.199 -0.5391 -0.0089 -0.2174
  874MPD2    C312874   3.911   3.729  16.097  0.5470  0.3139 -0.9170
  874MPD2    C412875   3.835   3.760  15.990  0.5827 -0.0824  0.8590
  874MPD2    C512876   3.701   3.727  15.989 -0.2973 -0.4355  0.3512
  874MPD2     H12877   3.921   3.628  16.277 -2.2442  0.1512  1.3696
  874MPD2    H112878   3.869   3.820  15.906 -1.5142 -0.2062 -0.0886
  874MPD2    H212879   3.526   3.645  16.087 -0.3098 -0.7524 -1.9916
  874MPD2    H312880   3.639   3.769  15.911  2.9863  1.2150 -1.3801
  874MPD2     N12881   4.047   3.773  16.113  0.1262 -0.4042 -0.7064
  874MPD2    H512882   4.094   3.753  16.200 -2.4639 -0.2113  0.7463
  874MPD2    N112883   3.649   3.540  16.296  0.8767 -0.3231  0.4957
  874MPD2    H712884   3.562   3.492  16.273  0.8544 -0.4207  0.7838
  875MPD2     C12885   4.273   1.708  14.997  0.1532  0.5059 -0.1503
  875MPD2    C112886   4.299   1.824  14.935 -0.6555 -0.7007 -0.3799
  875MPD2    C212887   4.356   1.937  15.000 -0.1102  1.0090 -0.2754
  875MPD2    C312888   4.352   1.936  15.137 -0.6945 -0.1354  0.2383
  875MPD2    C412889   4.314   1.820  15.197 -0.7683 -0.5507  0.3515
  875MPD2    C512890   4.280   1.706  15.131  0.1492 -0.0185  0.1287
  875MPD2     H12891   4.376   2.034  14.956  0.4946  1.4569  1.0090
  875MPD2    H112892   4.324   1.801  15.303  0.4633 -1.4591  0.0664
  875MPD2    H212893   4.250   1.612  14.952  0.5079  0.2001  0.3200
  875MPD2    H312894   4.287   1.611  15.183 -0.9350 -0.8063 -1.1963
  875MPD2     N12895   4.397   2.051  15.212 -0.1679  0.8724  0.2543
  875MPD2    H512896   4.431   2.129  15.156  0.2305 -0.8179 -1.8532
  875MPD2    N112897   4.290   1.834  14.796  0.2326  0.3147 -0.3695
  875MPD2    H712898   4.317   1.923  14.756  1.3769  0.2477  0.2619
  876MPD2     C12899   3.948   3.501  15.571 -0.3891 -0.2120 -0.6544
  876MPD2    C112900   4.025   3.384  15.560 -0.2580 -0.5564 -0.4411
  876MPD2    C212901   4.009   3.281  15.651 -0.2447  0.1107 -0.1589
  876MPD2    C312902   3.894   3.282  15.738 -0.5688  0.1544  0.2479
  876MPD2    C412903   3.830   3.398  15.754 -0.0545  1.1403 -0.3717
  876MPD2    C512904   3.857   3.503  15.671 -0.6319 -0.4123 -1.1245
  876MPD2     H12905   4.064   3.191  15.629  0.1788 -0.1673  2.0569
  876MPD2    H112906   3.755   3.418  15.830  1.0862  3.4206  0.1524
  876MPD2    H212907   3.981   3.587  15.514  0.2387 -0.9386 -1.3792
  876MPD2    H312908   3.803   3.594  15.692  0.4383 -0.2309  0.8689
  876MPD2     N12909   3.855   3.162  15.806 -0.8261  0.6523  0.0061
  876MPD2    H512910   3.894   3.075  15.771  1.5284  0.8814  2.0488
  876MPD2    N112911   4.131   3.388  15.465 -0.1268 -0.0716 -0.1210
  876MPD2    H712912   4.129   3.449  15.384 -3.3207 -0.1494 -0.1150
  877MPD2     C12913   3.978   3.749  15.001 -0.8174  0.0803 -0.0106
  877MPD2    C112914   4.064   3.683  14.919 -0.1813 -0.1161 -0.2791
  877MPD2    C212915   4.055   3.704  14.781  0.1674 -0.5603  0.1495
  877MPD2    C312916   3.953   3.790  14.729 -0.9879  0.4721 -0.0419
  877MPD2    C412917   3.860   3.848  14.813 -0.2238  0.5668 -0.0637
  877MPD2    C512918   3.876   3.826  14.946  0.1304 -0.2205  1.1284
  877MPD2     H12919   4.139   3.669  14.721 -0.3277 -1.3653 -0.0707
  877MPD2    H112920   3.774   3.909  14.789 -1.5768 -1.0086  0.8615
  877MPD2    H212921   3.973   3.731  15.108 -1.2315  0.9215  0.1126
  877MPD2    H312922   3.795   3.862  15.009  0.6562  2.0893  0.4809
  877MPD2     N12923   3.937   3.826  14.592 -0.9013 -0.6818  0.0464
  877MPD2    H512924   3.861   3.891  14.577  0.1822  0.7381  0.7595
  877MPD2    N112925   4.154   3.587  14.967  0.2599  0.3425 -0.1975
  877MPD2    H712926   4.213   3.533  14.903 -0.3384 -0.8971  0.2946
  878MPD2     C12927   4.066   3.153  13.106 -0.6228  0.0326  0.0735
  878MPD2    C112928   3.932   3.139  13.101  0.0204 -0.8802  1.0017
  878MPD2    C212929   3.871   3.073  13.198 -0.1020 -0.0620 -0.0249
  878MPD2    C312930   3.936   3.005  13.301 -0.0828 -0.1489 -0.2576
  878MPD2    C412931   4.071   3.012  13.296  1.1150  0.1617  0.1937
  878MPD2    C512932   4.135   3.094  13.206 -0.7381 -0.2326  0.3319
  878MPD2     H12933   3.763   3.069  13.206 -0.1999  3.3630  0.2559
  878MPD2    H112934   4.131   2.974  13.377  1.4026 -2.8499 -1.4236
  878MPD2    H212935   4.115   3.223  13.039 -0.1390 -0.1418  0.2478
  878MPD2    H312936   4.237   3.118  13.232 -0.4000  0.6586 -1.8203
  878MPD2     N12937   3.867   2.937  13.400 -0.2830  0.0407 -0.2752
  878MPD2    H512938   3.767   2.955  13.400 -0.1638  0.6889  0.2206
  878MPD2    N112939   3.861   3.203  12.996 -0.2801 -0.0140  0.2994
  878MPD2    H712940   3.902   3.285  12.953  0.4510  0.0632  1.1508
  879MPD2     C12941   3.861   4.525  17.087  0.3199 -0.1025 -0.3674
  879MPD2    C112942   3.944   4.417  17.097 -0.1968 -0.3773 -0.0629
  879MPD2    C212943   3.914   4.295  17.039  0.1936  0.1435  0.0464
  879MPD2    C312944   3.792   4.274  16.973  0.5371  0.8278  0.0698
  879MPD2    C412945   3.706   4.385  16.972  0.6069  0.3425  0.3871
  879MPD2    C512946   3.740   4.503  17.027 -0.5678 -1.0894 -0.4578
  879MPD2     H12947   3.982   4.211  17.044  0.1508  0.1003 -0.0995
  879MPD2    H112948   3.604   4.387  16.934  1.3297 -0.2168 -1.5614
  879MPD2    H212949   3.888   4.624  17.124  0.5845  0.7088 -2.7198
  879MPD2    H312950   3.667   4.583  17.034  1.8490  0.8304  2.4371
  879MPD2     N12951   3.762   4.164  16.889  0.9315  0.0026 -0.5409
  879MPD2    H512952   3.690   4.172  16.817  0.3614 -1.5172 -0.1430
  879MPD2    N112953   4.067   4.449  17.160  0.1881  0.5772  0.1234
  879MPD2    H712954   4.084   4.544  17.194  0.3526 -0.1723  2.1207
  880MPD2     C12955   0.474   0.879   0.497 -0.1190 -0.1211 -0.5132
  880MPD2    C112956   0.556   0.985   0.465  0.0392  0.3216 -0.0299
  880MPD2    C212957   0.698   0.963   0.460  0.0080  0.5673  0.2869
  880MPD2    C312958   0.752   0.842   0.486  0.6402 -0.2220  0.6664
  880MPD2    C412959   0.675   0.743   0.523  0.2579  0.2345  0.0262
  880MPD2    C512960   0.541   0.759   0.528 -0.3730  0.1921  0.3320
  880MPD2     H12961   0.759   1.050   0.438  0.0289  0.8159  1.3329
  880MPD2    H112962   0.713   0.651   0.566  2.0798  0.7570 -0.4642
  880MPD2    H212963   0.366   0.886   0.501 -0.0977  0.7631 -1.4454
  880MPD2    H312964   0.477   0.683   0.570 -0.6635 -0.6443 -1.6300
  880MPD2     N12965   0.895   0.841   0.470  0.1399  1.4090 -0.6600
  880MPD2    H512966   0.950   0.927   0.470  0.6319  1.0973 -0.6502
  880MPD2    N112967   0.493   1.109   0.442  0.0332  1.0024 -0.0620
  880MPD2    H712968   0.392   1.097   0.443 -0.1400  2.4091 -0.3646
  881MPD2     C12969   0.474   2.068  17.725 -0.6195 -0.0578 -0.3133
  881MPD2    C112970   0.470   1.949  17.646  0.0127 -0.0313 -0.2024
  881MPD2    C212971   0.445   1.835  17.713  0.2927 -0.0309  0.4153
  881MPD2    C312972   0.397   1.833   0.092  0.1657  0.3536 -0.3876
  881MPD2    C412973   0.375   1.949   0.157 -0.0013 -0.1013  0.2294
  881MPD2    C512974   0.421   2.062   0.098  0.3678 -0.8716 -0.1487
  881MPD2     H12975   0.480   1.744  17.665  2.5399  0.6710  0.7007
  881MPD2    H112976   0.331   1.954   0.256 -0.0389 -2.4458  0.3303
  881MPD2    H212977   0.505   2.160  17.678  1.4475 -0.7009 -0.2042
  881MPD2    H312978   0.416   2.156   0.151  0.1552 -1.4260  0.8101
  881MPD2     N12979   0.366   1.719   0.163  0.4337 -0.1819 -0.0255
  881MPD2    H512980   0.325   1.731   0.255 -1.6969  2.1669 -1.2859
  881MPD2    N112981   0.528   1.949  17.512 -0.2042  0.2517  0.4100
  881MPD2    H712982   0.517   1.854  17.476 -0.0391  0.4045 -0.0410
  882MPD2     C12983   3.438   3.662  13.894  0.4171 -0.0745  0.0750
  882MPD2    C112984   3.476   3.666  14.025  0.2919  0.1745  0.6313
  882MPD2    C212985   3.406   3.581  14.116  0.4263 -0.2734 -0.2276
  882MPD2    C312986   3.288   3.516  14.074  0.8074 -0.2403 -0.1009
  882MPD2    C412987   3.254   3.525  13.948  0.0028  0.8482  0.0883
  882MPD2    C512988   3.326   3.592  13.856  0.5346  0.0577  0.1309
  882MPD2     H12989   3.443   3.564  14.217  0.6440 -1.5944 -0.5296
  882MPD2    H112990   3.166   3.471  13.914  0.3040  0.4196 -0.0194
  882MPD2    H212991   3.495   3.714  13.818  1.5002  1.2929  1.8218
  882MPD2    H312992   3.284   3.594  13.756 -2.0970 -0.8098  1.2193
  882MPD2     N12993   3.200   3.444  14.165 -0.3515 -0.5805  0.0888
  882MPD2    H512994   3.120   3.420  14.107 -0.2588  2.0706 -1.1663
  882MPD2    N112995   3.590   3.739  14.059  0.5770 -0.3462 -0.2705
  882MPD2    H712996   3.644   3.789  13.989 -1.3507  0.4086 -1.2257
  883MPD2     C12997   0.902   3.428  16.351 -0.5792 -0.2621  0.1610
  883MPD2    C112998   0.999   3.394  16.262  0.1210  0.0881 -0.9765
  883MPD2    C212999   1.127   3.446  16.274 -0.0708  0.1889 -0.1993
  883MPD2    C313000   1.167   3.535  16.368  0.6201  0.4173 -0.3807
  883MPD2    C413001   1.067   3.570  16.461  0.0999 -0.1099  0.1427
  883MPD2    C513002   0.940   3.515  16.455  0.5305  0.0533  0.6634
  883MPD2     H13003   1.208   3.407  16.213 -0.4567 -0.8779 -0.0281
  883MPD2    H113004   1.083   3.642  16.541  0.4411 -0.7181  0.6233
  883MPD2    H213005   0.803   3.385  16.352  0.3669 -2.4692 -0.2667
  883MPD2    H313006   0.866   3.557  16.521  1.0830  0.2929  1.1329
  883MPD2     N13007   1.302   3.572  16.387  0.4375 -0.2680  1.0059
  883MPD2    H513008   1.367   3.556  16.311 -1.2666 -2.3128 -0.0454
  883MPD2    N113009   0.968   3.307  16.157 -0.2969 -0.6065 -0.2257
  883MPD2    H713010   1.047   3.257  16.119  0.3044  1.7284 -2.0242
  884MPD2     C13011   3.034   4.034  15.284  0.3171 -0.5137 -0.6766
  884MPD2    C113012   2.963   4.094  15.178 -0.2635  1.1308 -0.7752
  884MPD2    C213013   2.847   4.160  15.210  0.1590  0.5265  0.3378
  884MPD2    C313014   2.792   4.159  15.338  0.2276  0.2826  0.2716
  884MPD2    C413015   2.861   4.094  15.435 -0.1248  0.3095 -0.1403
  884MPD2    C513016   2.979   4.034  15.412 -0.3161 -0.0491 -0.1059
  884MPD2     H13017   2.805   4.229  15.138 -2.5755  0.1278  1.5455
  884MPD2    H113018   2.828   4.088  15.538 -1.1693  0.5475 -0.4577
  884MPD2    H213019   3.128   3.982  15.275  1.4030  1.5862 -1.5081
  884MPD2    H313020   3.022   3.962  15.481 -1.1184 -0.7784 -0.3790
  884MPD2     N13021   2.676   4.230  15.370  0.1630  0.4643 -0.1328
  884MPD2    H513022   2.620   4.278  15.300  0.8297  1.1760 -0.1817
  884MPD2    N113023   3.006   4.095  15.042  0.0689 -0.2422  0.1910
  884MPD2    H713024   2.950   4.138  14.970 -1.3027  0.7881  1.8604
  885MPD2     C13025   1.494   4.204   0.156  0.3959  0.4312  0.6288
  885MPD2    C113026   1.553   4.308   0.221  0.0216 -0.4275  0.3739
  885MPD2    C213027   1.541   4.432   0.150  0.9310 -0.1781 -0.3164
  885MPD2    C313028   1.477   4.448   0.029 -0.9906 -0.1088  0.1255
  885MPD2    C413029   1.404   4.338  17.727  0.0894 -0.5042  0.3862
  885MPD2    C513030   1.426   4.220   0.038  0.8943  0.4640 -0.7766
  885MPD2     H13031   1.588   4.520   0.193  0.3853  1.1168 -2.3739
  885MPD2    H113032   1.354   4.341  17.631 -1.3799 -1.2130  1.1337
  885MPD2    H213033   1.508   4.105   0.199 -3.6188 -0.9401 -1.2688
  885MPD2    H313034   1.385   4.135  17.732  1.1033 -0.3292  0.3163
  885MPD2     N13035   1.497   4.568  17.712  0.1462 -0.1170  0.3166
  885MPD2    H513036   1.533   4.643   0.021 -2.9332  0.8332  1.0113
  885MPD2    N113037   1.608   4.288   0.349  0.2277  0.2579  0.0369
  885MPD2    H713038   1.618   4.196   0.389 -0.5913 -0.3145 -1.0744
  886MPD2     C13039   2.585   2.663  15.255  0.2085  0.2523 -0.7459
  886MPD2    C113040   2.682   2.728  15.324  0.3403 -0.1060 -0.3369
  886MPD2    C213041   2.670   2.866  15.337  0.2842  0.0397  0.3758
  886MPD2    C313042   2.559   2.932  15.282  0.9838 -0.2540  0.2756
  886MPD2    C413043   2.463   2.863  15.216 -0.4259  0.8144 -0.7118
  886MPD2    C513044   2.479   2.730  15.197  0.1313 -0.7017 -0.0171
  886MPD2     H13045   2.751   2.919  15.385  1.6900 -1.8136  0.0756
  886MPD2    H113046   2.382   2.917  15.169 -0.4038  1.9991  0.6190
  886MPD2    H213047   2.594   2.562  15.217  1.7238 -0.5174  1.7096
  886MPD2    H313048   2.408   2.670  15.141 -0.5025  0.8551 -0.8663
  886MPD2     N13049   2.539   3.072  15.281  1.1909 -0.5277 -0.5897
  886MPD2    H513050   2.468   3.111  15.220 -1.0204 -1.4823  1.3554
  886MPD2    N113051   2.797   2.657  15.379  0.2126 -0.2482 -0.5189
  886MPD2    H713052   2.864   2.716  15.427  1.0963 -0.2006 -1.8230
  887MPD2     C13053   3.500   2.743  15.533  0.3458  0.2841 -0.1797
  887MPD2    C113054   3.368   2.787  15.534 -0.0416  0.1683  0.4643
  887MPD2    C213055   3.343   2.919  15.547 -0.6347  0.4194 -0.0725
  887MPD2    C313056   3.448   3.009  15.547 -0.1861 -0.1938 -0.1105
  887MPD2    C413057   3.578   2.962  15.534 -0.0222 -0.1587 -0.1150
  887MPD2    C513058   3.605   2.835  15.532 -0.2940  0.0193  0.2705
  887MPD2     H13059   3.239   2.946  15.560 -0.1463  2.0709  0.4156
  887MPD2    H113060   3.665   3.026  15.541 -0.6706  0.4126  2.7766
  887MPD2    H213061   3.534   2.642  15.516  1.2231  0.2330  1.8161
  887MPD2    H313062   3.708   2.802  15.531  0.3889  2.1564  1.0494
  887MPD2     N13063   3.420   3.147  15.544 -0.7625 -0.2172  0.3396
  887MPD2    H513064   3.325   3.182  15.553  0.6899  3.1445  2.4989
  887MPD2    N113065   3.264   2.697  15.536  0.0514  0.7411  0.2533
  887MPD2    H713066   3.171   2.737  15.535 -0.1532  0.2701  0.5533
  888MPD2     C13067   0.130   2.779  14.580  0.2484  0.6654 -0.4573
  888MPD2    C113068   0.163   2.756  14.709  0.3191 -0.3454 -0.5541
  888MPD2    C213069   0.209   2.864  14.789  0.4334 -0.3210 -0.1790
  888MPD2    C313070   0.199   2.994  14.746  0.5384 -0.3945 -0.3218
  888MPD2    C413071   0.134   3.012  14.628 -0.0535 -0.3065  0.2545
  888MPD2    C513072   0.113   2.908  14.543 -0.1879 -1.0727 -0.1927
  888MPD2     H13073   0.244   2.839  14.889 -0.4436 -0.3816  0.1089
  888MPD2    H113074   0.106   3.114  14.604 -0.7690 -0.6352 -0.2896
  888MPD2    H213075   0.095   2.700  14.516  1.8218  1.1775 -1.9388
  888MPD2    H313076   0.070   2.917  14.443 -2.3464 -0.9552  0.7350
  888MPD2     N13077   0.240   3.101  14.819  0.5892  0.4944 -0.5667
  888MPD2    H513078   0.271   3.082  14.914 -0.5031  0.7107 -0.1648
  888MPD2    N113079   0.172   2.626  14.766  0.4445  0.5001 -0.2672
  888MPD2    H713080   0.213   2.625  14.859  0.0716 -0.5787 -0.1216
  889MPD2     C13081   4.508   2.649  13.385 -0.2204  0.0082  0.5443
  889MPD2    C113082   4.418   2.698  13.473 -1.1451 -0.5430 -0.0680
  889MPD2    C213083   4.404   2.843  13.473 -0.6449 -0.2196 -0.1479
  889MPD2    C313084   4.504   2.923  13.422  0.6227  0.3108  0.0865
  889MPD2    C413085   4.609   2.865  13.360  0.1012 -0.6186  0.3789
  889MPD2    C513086   4.607   2.729  13.339  0.3347  0.0691 -0.3828
  889MPD2     H13087   4.326   2.889  13.532 -0.7957 -0.0768 -0.4587
  889MPD2    H113088   4.692   2.926  13.325  0.7655 -1.1967  0.9279
  889MPD2    H213089   4.537   2.545  13.382  1.3136  0.4710 -1.1215
  889MPD2    H313090   4.688   2.679  13.287  1.0326 -1.2173  1.9285
  889MPD2     N13091   4.493   3.061  13.438  0.3433  0.4795 -0.2109
  889MPD2    H513092   4.425   3.096  13.505  0.2402  0.4410 -0.2969
  889MPD2    N113093   4.316   2.626  13.533  0.1169 -0.1456  0.0971
  889MPD2    H713094   4.241   2.681  13.573 -0.5869 -1.4158  0.4930
  890MPD2     C13095   3.984   4.268  14.622 -0.0282  0.1490 -0.6043
  890MPD2    C113096   3.951   4.312  14.747 -0.5965  0.0275 -1.1074
  890MPD2    C213097   4.017   4.250  14.849 -0.5590 -0.1192  0.0319
  890MPD2    C313098   4.114   4.151  14.831  0.0005 -0.5266  0.3744
  890MPD2    C413099   4.146   4.114  14.702  0.3736 -0.2223  0.4890
  890MPD2    C513100   4.080   4.169  14.602  0.1736 -0.4789 -1.0196
  890MPD2     H13101   4.007   4.275  14.954 -1.0856 -0.6551  0.1123
  890MPD2    H113102   4.235   4.059  14.672  0.2138  0.6709 -1.6361
  890MPD2    H213103   3.935   4.312  14.535 -0.1253 -1.0555 -1.1625
  890MPD2    H313104   4.113   4.148  14.501 -0.4677  2.0165 -1.7305
  890MPD2     N13105   4.179   4.101  14.942 -0.4053 -0.1512  0.8886
  890MPD2    H513106   4.139   4.118  15.034  0.3486 -0.7700  1.3382
  890MPD2    N113107   3.876   4.429  14.766 -0.0473  0.2675 -0.3678
  890MPD2    H713108   3.819   4.456  14.687 -0.9851  1.3128  0.6597
  891MPD2     C13109   1.766   2.561  16.636 -0.2340 -0.2998 -0.0423
  891MPD2    C113110   1.744   2.694  16.672 -0.2553 -0.0480 -1.0104
  891MPD2    C213111   1.824   2.753  16.767 -0.2123  0.1417  0.2673
  891MPD2    C313112   1.932   2.676  16.823 -0.2794  0.0408  0.0033
  891MPD2    C413113   1.957   2.548  16.773 -0.0972 -0.3085  0.2371
  891MPD2    C513114   1.868   2.489  16.689 -1.0931 -0.1638  0.0099
  891MPD2     H13115   1.805   2.858  16.788 -3.8952 -0.4337 -0.2185
  891MPD2    H113116   2.039   2.481  16.796 -0.7087 -0.8990  0.6957
  891MPD2    H213117   1.701   2.507  16.568 -2.5185  1.0215  1.0999
  891MPD2    H313118   1.893   2.391  16.649 -1.0545  0.1064 -0.6237
  891MPD2     N13119   2.025   2.738  16.912  0.1036  0.0609 -0.4578
  891MPD2    H513120   1.994   2.824  16.955 -0.5988 -0.2600 -0.3188
  891MPD2    N113121   1.623   2.744  16.618  0.3685 -0.7021  0.1182
  891MPD2    H713122   1.567   2.685  16.557 -0.8004  0.5156  0.0262
  892MPD2     C13123   2.928   3.675  15.126 -0.0144  0.1625  0.6425
  892MPD2    C113124   2.866   3.733  15.024 -0.5016 -0.0891  0.2058
  892MPD2    C213125   2.890   3.687  14.897 -0.0174 -0.0568  0.1209
  892MPD2    C313126   2.968   3.575  14.877 -0.3418  1.2378  0.4145
  892MPD2    C413127   3.034   3.517  14.989  0.1108  0.3347 -0.4847
  892MPD2    C513128   3.009   3.565  15.112 -0.2123  1.2938  0.3379
  892MPD2     H13129   2.839   3.728  14.810  2.3580  0.9450 -0.8069
  892MPD2    H113130   3.101   3.432  14.990 -0.2530  0.0529  0.5090
  892MPD2    H213131   2.903   3.704  15.228 -1.4639 -1.3469  0.7168
  892MPD2    H313132   3.056   3.513  15.195  1.5944 -1.6273 -2.4992
  892MPD2     N13133   2.983   3.522  14.745  0.8225  0.3184  0.4296
  892MPD2    H513134   2.959   3.581  14.665 -1.1406 -0.6605  0.3127
  892MPD2    N113135   2.768   3.831  15.055  0.5182  0.7772  0.2638
  892MPD2    H713136   2.737   3.847  15.150 -1.6745  1.0899 -0.5150
  893MPD2     C13137   0.450   3.248   1.726  0.7425  0.0024 -0.3391
  893MPD2    C113138   0.348   3.200   1.643 -0.4251 -0.6184 -0.0373
  893MPD2    C213139   0.218   3.238   1.674 -0.3313  0.0077 -0.3194
  893MPD2    C313140   0.195   3.319   1.784 -0.5245  0.1611  0.5103
  893MPD2    C413141   0.299   3.385   1.847  0.0011  0.4280 -0.2613
  893MPD2    C513142   0.426   3.348   1.822 -0.4641 -0.4629 -0.9895
  893MPD2     H13143   0.133   3.205   1.617  1.0403 -2.5781 -0.8405
  893MPD2    H113144   0.282   3.456   1.927  1.5852  0.8608 -0.3023
  893MPD2    H213145   0.552   3.223   1.700  0.6283 -0.0697 -0.7180
  893MPD2    H313146   0.508   3.386   1.882 -0.5590  0.4541 -1.4375
  893MPD2     N13147   0.069   3.335   1.846 -0.3442 -0.0044  0.0281
  893MPD2    H513148   0.071   3.388   1.933  0.5039  0.3748 -0.2186
  893MPD2    N113149   0.381   3.119   1.531 -0.0280 -0.4845 -0.3116
  893MPD2    H713150   0.479   3.108   1.508  0.2423 -1.0400  1.1269
  894MPD2     C13151   2.657   0.266   1.981  0.0713 -0.2085 -0.3190
  894MPD2    C113152   2.603   0.371   1.916  0.5826  0.4621 -0.7863
  894MPD2    C213153   2.637   0.402   1.784 -0.0004 -0.4750  0.4833
  894MPD2    C313154   2.727   0.321   1.714 -0.1660 -0.2145 -0.3538
  894MPD2    C413155   2.764   0.205   1.774  0.4229 -0.4433  0.3739
  894MPD2    C513156   2.734   0.181   1.908 -0.5236 -0.0062  0.7041
  894MPD2     H13157   2.610   0.492   1.730 -0.9315 -1.4494 -0.6697
  894MPD2    H113158   2.818   0.128   1.719  0.9162  0.3029 -0.1958
  894MPD2    H213159   2.637   0.234   2.083  0.5000 -0.0388 -0.1832
  894MPD2    H313160   2.765   0.091   1.960  2.5266 -1.3949 -3.5274
  894MPD2     N13161   2.751   0.353   1.577 -0.1148  0.3684 -0.5360
  894MPD2    H513162   2.703   0.429   1.530 -2.0170 -0.0073  0.8163
  894MPD2    N113163   2.523   0.462   1.991  0.4136  0.3016  0.1067
  894MPD2    H713164   2.482   0.537   1.936 -0.2489 -1.5137 -1.8658
  895MPD2     C13165   1.544   2.873  13.637 -0.4166  0.6661  0.0703
  895MPD2    C113166   1.489   2.868  13.507 -0.1092 -0.7613  0.0709
  895MPD2    C213167   1.569   2.820  13.400 -0.8506 -0.0847  0.5390
  895MPD2    C313168   1.698   2.778  13.428  0.3038  0.6312 -0.1366
  895MPD2    C413169   1.759   2.785  13.555  0.4126  0.4170  0.2755
  895MPD2    C513170   1.681   2.837  13.656  0.7023 -0.5961 -0.1440
  895MPD2     H13171   1.521   2.810  13.304  1.4541 -2.6633 -0.3220
  895MPD2    H113172   1.861   2.749  13.565  0.2344  0.4686  2.2792
  895MPD2    H213173   1.484   2.913  13.718 -1.9452 -3.9897  1.2588
  895MPD2    H313174   1.726   2.844  13.755 -2.1304  0.8366  1.0622
  895MPD2     N13175   1.770   2.737  13.313 -0.5530  0.1931 -0.6063
  895MPD2    H513176   1.716   2.733  13.227  0.2111 -2.6951 -0.9588
  895MPD2    N113177   1.356   2.909  13.493  0.0686 -0.0537  0.2637
  895MPD2    H713178   1.312   2.923  13.584 -1.3065 -1.7884 -0.1351
  896MPD2     C13179   4.639   0.966   1.146  0.0457  0.3158 -0.1019
  896MPD2    C113180   4.612   0.850   1.072 -0.5081  0.1413  0.2087
  896MPD2    C213181   4.487   0.796   1.072  0.0600  0.6871  0.6554
  896MPD2    C313182   4.388   0.866   1.141 -0.5387  0.1264 -0.2056
  896MPD2    C413183   4.405   0.992   1.201  0.5161 -0.4326 -0.6151
  896MPD2    C513184   4.532   1.036   1.206  0.1744  0.1025  0.3612
  896MPD2     H13185   4.459   0.705   1.020  2.9447 -1.1451  2.2701
  896MPD2    H113186   4.327   1.050   1.248  2.7416  1.1105  1.2313
  896MPD2    H213187   0.001   1.009   1.153  0.1096  0.2096 -0.3569
  896MPD2    H313188   4.540   1.139   1.240 -0.9329 -0.6793  3.0112
  896MPD2     N13189   4.261   0.806   1.134  0.1532 -0.1843 -0.0638
  896MPD2    H513190   4.260   0.713   1.093  2.1679 -0.6667  1.0083
  896MPD2    N113191   4.723   0.799   1.001 -0.4720  0.1897 -0.2713
  896MPD2    H713192   0.073   0.848   1.010  0.0900 -0.6375 -1.2105
  897MPD2     C13193   0.584   2.698  10.552  0.1123  0.1424 -0.1100
  897MPD2    C113194   0.584   2.828  10.590 -0.1010  0.6452  0.2088
  897MPD2    C213195   0.539   2.858  10.719  0.4983  0.4068  0.5325
  897MPD2    C313196   0.491   2.757  10.801 -0.1233  0.0158 -0.1055
  897MPD2    C413197   0.503   2.622  10.762  0.0357 -0.2770 -0.0778
  897MPD2    C513198   0.556   2.594  10.638  0.1922 -0.3561 -0.1240
  897MPD2     H13199   0.534   2.956  10.767 -0.0809  0.2350  0.8286
  897MPD2    H113200   0.486   2.540  10.831  0.4088  0.4938  0.9328
  897MPD2    H213201   0.619   2.676  10.452  0.0199 -1.0587  0.1294
  897MPD2    H313202   0.570   2.494  10.598 -0.0157 -1.5244  2.6745
  897MPD2     N13203   0.430   2.796  10.928 -0.1344 -0.1147  0.0958
  897MPD2    H513204   0.415   2.896  10.938 -0.0432  0.1732 -2.6338
  897MPD2    N113205   0.597   2.928  10.493 -0.0552  0.7849  0.0877
  897MPD2    H713206   0.598   2.895  10.397 -0.6229 -0.5542  0.5346
  898MPD2     C13207   2.440   3.323   0.405 -0.0014 -0.3268  0.4473
  898MPD2    C113208   2.562   3.379   0.384 -0.0011 -0.4372  0.2632
  898MPD2    C213209   2.574   3.465   0.275  0.6184 -0.0406 -0.7353
  898MPD2    C313210   2.470   3.488   0.183  0.5891 -0.6810 -0.4795
  898MPD2    C413211   2.357   3.415   0.197 -0.3950  0.1699  0.1438
  898MPD2    C513212   2.343   3.330   0.307 -0.8329  0.0314  0.4170
  898MPD2     H13213   2.662   3.528   0.277  0.1152  0.5666  1.4830
  898MPD2    H113214   2.274   3.416   0.127 -1.6232 -1.9114  1.5926
  898MPD2    H213215   2.416   3.248   0.480 -1.9974  0.7683  0.8900
  898MPD2    H313216   2.261   3.260   0.316  1.0808 -2.4111 -1.2326
  898MPD2     N13217   2.495   3.581   0.077  0.5827  0.2508 -0.1727
  898MPD2    H513218   2.579   3.638   0.078  1.9334 -1.7634  1.5001
  898MPD2    N113219   2.677   3.361   0.469  0.4152  0.2783 -0.1567
  898MPD2    H713220   2.765   3.405   0.444 -0.1757  1.4690 -0.1196
  899MPD2     C13221   3.473   3.570  17.297  0.0465  1.0484 -0.1958
  899MPD2    C113222   3.499   3.655  17.405 -0.0835  0.4846 -1.0875
  899MPD2    C213223   3.519   3.599  17.532  0.3999  0.2162 -0.0062
  899MPD2    C313224   3.524   3.458  17.542 -0.1929 -0.4651 -0.2262
  899MPD2    C413225   3.491   3.380  17.435 -0.7886  0.4300 -0.8227
  899MPD2    C513226   3.457   3.433  17.314  0.2836 -0.1026  0.4566
  899MPD2     H13227   3.538   3.661  17.619 -0.0034 -1.6918  1.4405
  899MPD2    H113228   3.475   3.273  17.430  2.9318 -0.1119 -0.6753
  899MPD2    H213229   3.457   3.600  17.194 -3.6691  0.0433  0.0980
  899MPD2    H313230   3.418   3.389  17.222  0.9897  0.4770 -0.1159
  899MPD2     N13231   3.533   3.392  17.671  0.1159  0.3502  0.3429
  899MPD2    H513232   3.502   3.296  17.681 -1.4744  0.7210 -0.9980
  899MPD2    N113233   3.519   3.789  17.377  0.4032  0.1764  0.3037
  899MPD2    H713234   3.505   3.825  17.283 -0.3032 -0.1178  0.2915
  900MPD2     C13235   2.975   1.058  12.519 -0.2614 -0.2327  0.3346
  900MPD2    C113236   2.910   0.960  12.586 -0.5687 -0.2036  0.2611
  900MPD2    C213237   2.774   0.959  12.576 -0.3349 -0.7398 -1.1932
  900MPD2    C313238   2.707   1.052  12.503 -0.0372 -0.5512  0.3875
  900MPD2    C413239   2.777   1.155  12.440  0.3790  0.4793 -0.7547
  900MPD2    C513240   2.910   1.154  12.444  0.1834  0.7783 -0.0925
  900MPD2     H13241   2.712   0.890  12.632 -0.4994 -0.6006 -1.2064
  900MPD2    H113242   2.740   1.232  12.374 -0.9397 -0.5979 -1.2645
  900MPD2    H213243   3.082   1.070  12.529 -0.1512  0.2503 -1.4720
  900MPD2    H313244   2.958   1.239  12.397  0.3287  1.2245  0.8632
  900MPD2     N13245   2.567   1.045  12.487  0.7048 -0.3129  1.1993
  900MPD2    H513246   2.521   0.959  12.515  0.2255 -0.1799  0.8234
  900MPD2    N113247   2.986   0.879  12.673 -0.0427  0.3903  0.2641
  900MPD2    H713248   3.084   0.905  12.677 -0.1989  1.2089 -1.4717
  901MPD2     C13249   3.159   0.054  13.315  0.7215  0.2443 -0.6157
  901MPD2    C113250   3.277   0.085  13.251 -0.0501 -0.2313  0.5226
  901MPD2    C213251   3.288   0.221  13.200 -1.0308 -0.6771 -0.9679
  901MPD2    C313252   3.195   0.320  13.226 -0.1266 -0.1457 -0.0408
  901MPD2    C413253   3.079   0.279  13.294  0.1732 -0.3683 -0.3258
  901MPD2    C513254   3.063   0.149  13.337 -0.8910 -0.0935 -0.2367
  901MPD2     H13255   3.378   0.244  13.144 -0.3802  1.1752  0.8443
  901MPD2    H113256   2.989   0.338  13.299 -0.1165 -0.7115 -1.5605
  901MPD2    H213257   3.132   4.692  13.347 -0.6897  0.3947 -1.3288
  901MPD2    H313258   2.967   0.110  13.367 -0.1218 -1.2508  0.7498
  901MPD2     N13259   3.207   0.442  13.155 -0.1792 -0.8511 -0.0341
  901MPD2    H513260   3.285   0.452  13.091  0.3094 -1.1226  0.5177
  901MPD2    N113261   3.371   4.719  13.222 -0.2189 -0.3946 -0.0423
  901MPD2    H713262   3.366   4.635  13.278  3.2072 -1.1278 -0.8177
  902MPD2     C13263   1.804   3.546  13.187  0.2281  0.4304 -0.0665
  902MPD2    C113264   1.920   3.615  13.169  0.1581 -0.5587  0.6029
  902MPD2    C213265   2.014   3.561  13.085 -0.2722 -0.6607 -0.2672
  902MPD2    C313266   1.991   3.453  13.004  0.1178  0.2622  1.0415
  902MPD2    C413267   1.877   3.379  13.027 -0.5306 -0.8655  1.5862
  902MPD2    C513268   1.787   3.424  13.114  0.1373  0.0270  0.2320
  902MPD2     H13269   2.111   3.603  13.062 -1.4229  1.5335 -1.0800
  902MPD2    H113270   1.849   3.294  12.967  1.2466 -0.1666 -0.2464
  902MPD2    H213271   1.718   3.584  13.241  0.9564  4.3326 -1.6552
  902MPD2    H313272   1.696   3.373  13.142 -0.0584  0.5775  0.5901
  902MPD2     N13273   2.077   3.437  12.892 -0.3595  0.1093 -0.1516
  902MPD2    H513274   2.157   3.498  12.879  1.1926 -1.6281  1.1824
  902MPD2    N113275   1.943   3.742  13.233  0.4712  0.5433  0.0392
  902MPD2    H713276   1.861   3.788  13.270 -1.7543 -1.8255 -1.9021
  903MPD2     C13277   2.118   3.614  12.016  0.3860  0.3892  0.2907
  903MPD2    C113278   2.039   3.601  12.128 -0.2034 -0.0803  0.3397
  903MPD2    C213279   1.902   3.636  12.127 -0.6468 -0.6360  0.3684
  903MPD2    C313280   1.850   3.682  12.004 -0.0878  0.1499 -0.4990
  903MPD2    C413281   1.929   3.692  11.889  0.1155  1.3566  0.1512
  903MPD2    C513282   2.060   3.647  11.896  0.5410 -0.4680 -0.2542
  903MPD2     H13283   1.835   3.633  12.212 -1.7381  1.1557 -0.4321
  903MPD2    H113284   1.901   3.725  11.790 -0.4436 -0.9995 -0.4871
  903MPD2    H213285   2.224   3.594  12.022  0.5536  0.7637 -1.4568
  903MPD2    H313286   2.120   3.654  11.806 -1.1243  1.3773 -1.2185
  903MPD2     N13287   1.712   3.727  12.004  0.0641  0.3897 -0.0746
  903MPD2    H513288   1.647   3.685  12.070  1.5456 -0.1532  1.0496
  903MPD2    N113289   2.110   3.567  12.245  0.1303  0.3001 -0.0463
  903MPD2    H713290   2.211   3.562  12.240  0.0607 -0.7413 -0.4969
  904MPD2     C13291   2.031   2.122  13.900 -0.6973  0.0956 -0.1363
  904MPD2    C113292   1.985   2.219  13.981  0.0933  0.4969 -0.8602
  904MPD2    C213293   2.072   2.280  14.066  0.2648  0.2239 -0.3744
  904MPD2    C313294   2.205   2.246  14.071 -0.4246 -0.7113  1.0422
  904MPD2    C413295   2.253   2.155  13.980  0.6033 -0.1206  0.9823
  904MPD2    C513296   2.160   2.084  13.908 -0.2315 -0.0632 -0.0514
  904MPD2     H13297   2.038   2.344  14.147  1.4706 -0.6803  0.8413
  904MPD2    H113298   2.356   2.123  13.978  0.1193 -1.6233  0.3665
  904MPD2    H213299   1.969   2.063  13.834  0.2382 -1.0854  0.0366
  904MPD2    H313300   2.194   1.994  13.859  0.1683 -0.5250  1.0666
  904MPD2     N13301   2.290   2.322  14.154  0.1025  0.2008 -0.2724
  904MPD2    H513302   2.248   2.389  14.218 -2.0843  0.3054 -1.8326
  904MPD2    N113303   1.845   2.240  13.962 -0.4241  0.2865 -0.5696
  904MPD2    H713304   1.804   2.182  13.889  0.4359  0.6727 -1.3688
  905MPD2     C13305   1.303   2.553  13.365  0.1300  0.6291 -0.3364
  905MPD2    C113306   1.421   2.498  13.407  0.2173 -0.0311 -0.0276
  905MPD2    C213307   1.527   2.481  13.315  0.0858  0.3825  0.2259
  905MPD2    C313308   1.508   2.533  13.189  0.2181  0.5731 -0.4964
  905MPD2    C413309   1.389   2.583  13.141 -0.0140 -0.2682 -0.0538
  905MPD2    C513310   1.282   2.588  13.229 -0.1150  0.3566 -0.0432
  905MPD2     H13311   1.624   2.439  13.340 -0.7536 -1.2568  0.7557
  905MPD2    H113312   1.372   2.608  13.037 -0.7044  0.4161  0.2264
  905MPD2    H213313   1.219   2.555  13.434 -1.0309 -2.0613 -1.6614
  905MPD2    H313314   1.183   2.616  13.195 -0.0348 -0.9717 -1.3340
  905MPD2     N13315   1.608   2.522  13.094  0.0982 -0.1069  0.1964
  905MPD2    H513316   1.604   2.581  13.012 -0.4059 -0.1703  0.1716
  905MPD2    N113317   1.438   2.470  13.547  0.2157  0.5400 -0.0653
  905MPD2    H713318   1.360   2.485  13.611  0.4146  0.5858  0.1657
  906MPD2     C13319   4.038   3.597  11.573  0.7157  0.5028  0.4282
  906MPD2    C113320   4.096   3.495  11.498 -0.1261  0.3514  0.1926
  906MPD2    C213321   4.119   3.377  11.564 -0.3914  0.4677 -0.1220
  906MPD2    C313322   4.062   3.343  11.685 -0.0876  0.3513 -0.1279
  906MPD2    C413323   3.994   3.441  11.755 -0.0133 -0.0684 -0.6549
  906MPD2    C513324   3.988   3.564  11.698 -0.1063  0.1774 -0.3326
  906MPD2     H13325   4.162   3.299  11.502  0.7406  2.0802 -1.3580
  906MPD2    H113326   3.965   3.439  11.860 -0.8278 -3.1976 -0.9491
  906MPD2    H213327   4.051   3.699  11.536  2.5773 -0.2449 -1.0084
  906MPD2    H313328   3.946   3.644  11.758  1.8486  0.1884  1.0477
  906MPD2     N13329   4.046   3.212  11.731  0.6380 -0.0198 -0.4139
  906MPD2    H513330   3.978   3.196  11.805 -1.4837 -0.9247 -2.5860
  906MPD2    N113331   4.146   3.514  11.366  0.0343  0.3869 -0.6672
  906MPD2    H713332   4.216   3.451  11.331  0.9944  0.8399  0.4207
  907MPD2     C13333   3.289   1.743  15.847 -0.0055 -0.8210  0.0073
  907MPD2    C113334   3.255   1.617  15.836  0.3969  0.2013 -0.1437
  907MPD2    C213335   3.269   1.539  15.949 -0.2326 -0.2911 -0.3333
  907MPD2    C313336   3.300   1.599  16.072  0.0110 -0.0602 -0.5592
  907MPD2    C413337   3.330   1.729  16.076 -0.5710  0.0782  0.4373
  907MPD2    C513338   3.321   1.803  15.964 -0.3205 -0.2747 -0.4442
  907MPD2     H13339   3.220   1.443  15.956  0.2529 -0.6788 -2.2075
  907MPD2    H113340   3.344   1.767  16.177 -0.3686 -0.9528  0.7962
  907MPD2    H213341   3.279   1.807  15.760 -1.7350 -3.3657 -1.6506
  907MPD2    H313342   3.340   1.910  15.970  0.7766 -0.3817 -1.9941
  907MPD2     N13343   3.292   1.523  16.191  0.5883  0.1815 -1.0989
  907MPD2    H513344   3.295   1.424  16.171 -2.2944  0.0307 -0.8666
  907MPD2    N113345   3.197   1.558  15.716  0.0967  0.0004 -0.1287
  907MPD2    H713346   3.188   1.457  15.716 -0.6066  0.0507  2.7101
  908MPD2     C13347   0.635   2.966   9.628 -0.1916  0.2494  0.1418
  908MPD2    C113348   0.588   2.875   9.715 -0.6576  1.0699  0.5796
  908MPD2    C213349   0.544   2.916   9.839  0.1960 -0.2257  0.1553
  908MPD2    C313350   0.546   3.046   9.876 -0.0069  0.1438 -0.1308
  908MPD2    C413351   0.600   3.142   9.785  0.1509 -0.3132 -0.1812
  908MPD2    C513352   0.644   3.101   9.660 -0.1626  0.7508 -0.9548
  908MPD2     H13353   0.497   2.853   9.914 -2.2897  0.0472 -1.1508
  908MPD2    H113354   0.620   3.244   9.815  2.2154  0.5018 -4.4191
  908MPD2    H213355   0.660   2.933   9.528 -0.1131 -1.2194  0.6533
  908MPD2    H313356   0.695   3.163   9.587  0.8680 -1.5979 -2.2416
  908MPD2     N13357   0.512   3.079  10.008  0.2501 -0.8291 -0.8613
  908MPD2    H513358   0.506   3.010  10.082  1.4275 -2.0070 -1.8732
  908MPD2    N113359   0.579   2.740   9.662  0.4570 -0.2370  0.1867
  908MPD2    H713360   0.640   2.715   9.585 -1.1931  2.2176 -1.8895
  909MPD2     C13361   0.583   0.851  11.487 -0.8946  0.6552 -0.1705
  909MPD2    C113362   0.666   0.940  11.551  0.0701 -0.1241  0.2454
  909MPD2    C213363   0.641   0.975  11.683  0.3720  0.0314  0.5845
  909MPD2    C313364   0.525   0.935  11.751 -0.0136  0.1570  0.1109
  909MPD2    C413365   0.442   0.853  11.678 -0.5615  0.3732  0.3575
  909MPD2    C513366   0.468   0.812  11.554 -0.5294 -0.4146  0.4388
  909MPD2     H13367   0.698   1.058  11.723 -3.1549  0.6448  4.2787
  909MPD2    H113368   0.346   0.822  11.717 -1.5375  1.7932 -0.9066
  909MPD2    H213369   0.594   0.828  11.382  0.4785  0.5169  0.0050
  909MPD2    H313370   0.394   0.750  11.504 -0.8913  0.5361 -0.2155
  909MPD2     N13371   0.494   1.002  11.871  0.1236  0.7204 -0.2744
  909MPD2    H513372   0.555   1.080  11.894  0.6799  0.6795 -1.5728
  909MPD2    N113373   0.782   1.007  11.488  0.1287 -0.3361 -0.2817
  909MPD2    H713374   0.841   1.062  11.550  0.1937  1.4408 -1.9137
  910MPD2     C13375   2.377   2.392  16.355  0.3164  0.3262 -0.5478
  910MPD2    C113376   2.371   2.293  16.259  0.6483  0.4700 -0.5049
  910MPD2    C213377   2.281   2.308  16.154  0.3741 -0.0312  0.3579
  910MPD2    C313378   2.218   2.428  16.136  0.3465  0.5926  0.3414
  910MPD2    C413379   2.230   2.531  16.227 -0.3645  0.6949  0.1504
  910MPD2    C513380   2.313   2.514  16.332  0.3272 -0.5566  0.1648
  910MPD2     H13381   2.256   2.227  16.086 -1.3202  1.9517 -1.3724
  910MPD2    H113382   2.185   2.628  16.214 -0.2613  0.7381  0.1176
  910MPD2    H213383   2.422   2.374  16.452  0.4407  2.2966 -0.2302
  910MPD2    H313384   2.328   2.590  16.409 -0.1121  2.5679 -2.8441
  910MPD2     N13385   2.137   2.451  16.027  0.1747 -0.2179 -0.1622
  910MPD2    H513386   2.099   2.544  16.029  0.2277 -0.1881 -0.4757
  910MPD2    N113387   2.443   2.172  16.267 -0.1287  0.3599 -0.2225
  910MPD2    H713388   2.427   2.102  16.195  2.8342 -1.1829  0.6005
  911MPD2     C13389   0.010   2.676  16.184  0.3217 -0.1096 -0.3566
  911MPD2    C113390   0.075   2.794  16.227  0.6354 -0.8309 -0.0470
  911MPD2    C213391   0.010   2.916  16.216 -0.2583 -0.1595 -0.0217
  911MPD2    C313392   4.620   2.919  16.159  0.2855 -0.2683  0.0339
  911MPD2    C413393   4.557   2.807  16.117 -0.1680 -0.6025  0.4713
  911MPD2    C513394   4.621   2.691  16.139  0.5357  0.7544  0.1134
  911MPD2     H13395   0.065   3.003  16.249  2.1968 -1.6174 -0.2544
  911MPD2    H113396   4.464   2.828  16.067  0.6333 -1.8533 -1.5272
  911MPD2    H213397   0.057   2.581  16.204  1.7404  0.1025 -2.8151
  911MPD2    H313398   4.570   2.597  16.121  1.9950 -0.1634  0.7915
  911MPD2     N13399   4.550   3.038  16.132  0.1126 -0.1345 -0.7772
  911MPD2    H513400   4.461   3.035  16.083 -2.0478  1.1547  2.9997
  911MPD2    N113401   0.200   2.773  16.287 -0.2619 -0.2103  0.4557
  911MPD2    H713402   0.243   2.681  16.290 -1.2764 -0.7291 -0.7954
  912MPD2     C13403   4.252   2.848  15.562 -0.4800 -0.7471  0.0853
  912MPD2    C113404   4.267   2.868  15.695  0.0514 -0.3323 -0.0505
  912MPD2    C213405   4.262   2.754  15.779  0.1373  0.2265 -0.4596
  912MPD2    C313406   4.248   2.623  15.725  0.2720  0.0649  0.5973
  912MPD2    C413407   4.244   2.611  15.591  0.7820 -0.1339  0.0381
  912MPD2    C513408   4.234   2.723  15.511  0.8070  0.6765 -0.4308
  912MPD2     H13409   4.278   2.767  15.885  1.0955  0.1669 -0.5924
  912MPD2    H113410   4.232   2.517  15.538 -0.2321  0.0897 -0.1340
  912MPD2    H213411   4.251   2.928  15.488 -1.3165 -0.4923  0.3654
  912MPD2    H313412   4.208   2.709  15.407  1.3134 -1.2314 -0.3065
  912MPD2     N13413   4.259   2.511  15.813 -0.1718  1.1325  0.2687
  912MPD2    H513414   4.263   2.531  15.912 -0.2952 -0.8563  0.6729
  912MPD2    N113415   4.284   3.000  15.745 -0.7147 -0.0702  0.5044
  912MPD2    H713416   4.300   3.063  15.667  1.3087 -0.6398  0.4533
  913MPD2     C13417   0.180   4.464  10.730  0.3170 -0.0413 -0.4478
  913MPD2    C113418   0.225   4.569  10.817 -0.8602 -0.9144  0.0636
  913MPD2    C213419   0.218   4.702  10.770 -0.0757 -0.4505  0.6175
  913MPD2    C313420   0.159   4.730  10.644 -1.1881 -0.3252 -0.3688
  913MPD2    C413421   0.110   4.625  10.570  0.4279 -0.1244 -0.4923
  913MPD2    C513422   0.121   4.492  10.608 -0.6271 -0.3308 -0.1824
  913MPD2     H13423   0.258   0.053  10.819 -2.6810  0.1787  1.6219
  913MPD2    H113424   0.050   4.638  10.481 -1.1329 -1.1265  0.4032
  913MPD2    H213425   0.180   4.361  10.763  1.8575  0.0574 -0.1361
  913MPD2    H313426   0.072   4.416  10.549  0.4461 -1.8773  0.9059
  913MPD2     N13427   0.129   0.120  10.588 -0.2088 -0.5651 -0.1714
  913MPD2    H513428   0.057   0.118  10.516 -1.0953  0.8022  0.6857
  913MPD2    N113429   0.299   4.529  10.927 -1.2469  0.0627  0.8253
  913MPD2    H713430   0.309   4.429  10.941 -0.1346 -0.0005 -0.2984
  914MPD2     C13431   3.432   0.001  12.333  1.0450 -1.5090 -0.4666
  914MPD2    C113432   3.456   0.098  12.426 -0.1331  0.6927 -0.4796
  914MPD2    C213433   3.514   0.058  12.548 -1.0535  0.2877  0.0470
  914MPD2    C313434   3.516   4.661  12.585  0.3380  0.0869  0.5799
  914MPD2    C413435   3.492   4.569  12.488  0.2674 -0.2073 -0.2034
  914MPD2    C513436   3.461   4.609  12.358 -0.3337  0.5850  0.2958
  914MPD2     H13437   3.549   0.130  12.621  0.8860  0.1324 -0.7207
  914MPD2    H113438   3.485   4.461  12.497 -2.2515  0.2323  3.1657
  914MPD2    H213439   3.407   0.028  12.231  3.8246 -0.2659 -0.8451
  914MPD2    H313440   3.439   4.534  12.283 -0.5639  0.9927 -0.0454
  914MPD2     N13441   3.551   4.636  12.715 -0.0342 -0.0341  0.4466
  914MPD2    H513442   3.588   4.713  12.770 -0.3482  0.3383  0.1391
  914MPD2    N113443   3.416   0.228  12.398 -0.8960 -0.1466 -0.2106
  914MPD2    H713444   3.356   0.224  12.316 -1.0549 -0.9634 -0.0601
  915MPD2     C13445   1.494   4.178  15.591 -0.3451  0.5448 -0.1145
  915MPD2    C113446   1.370   4.217  15.552 -0.2145  0.2482 -0.1424
  915MPD2    C213447   1.272   4.228  15.647  0.0850 -0.1518  0.1756
  915MPD2    C313448   1.296   4.220  15.786 -0.1117  0.2949 -0.6167
  915MPD2    C413449   1.425   4.196  15.822 -0.7601 -0.1749  0.5684
  915MPD2    C513450   1.518   4.164  15.726 -0.3299 -0.5027  0.3433
  915MPD2     H13451   1.172   4.230  15.606 -0.1905 -0.2772  0.8398
  915MPD2    H113452   1.463   4.189  15.924  3.2476  0.4181 -0.8784
  915MPD2    H213453   1.570   4.167  15.514 -1.1577  0.8943 -0.9652
  915MPD2    H313454   1.619   4.136  15.750 -0.4960 -2.1718 -0.9347
  915MPD2     N13455   1.193   4.224  15.879  0.1544  0.6098 -0.0865
  915MPD2    H513456   1.101   4.236  15.840  0.5347 -0.5173 -1.3345
  915MPD2    N113457   1.337   4.223  15.415  0.3428  0.3832 -0.4401
  915MPD2    H713458   1.406   4.192  15.347  0.4557  1.9310 -1.0377
  916MPD2     C13459   3.915   2.641  15.532  0.0393  0.1723  0.6209
  916MPD2    C113460   3.886   2.593  15.659  0.2467 -0.5796 -0.1073
  916MPD2    C213461   3.870   2.451  15.674 -0.4780  0.1938 -0.3531
  916MPD2    C313462   3.897   2.365  15.567 -0.0613 -0.3302  0.0114
  916MPD2    C413463   3.916   2.414  15.438 -0.3748 -0.7078  0.5534
  916MPD2    C513464   3.912   2.552  15.428  0.3692 -0.2652  0.4071
  916MPD2     H13465   3.860   2.414  15.776  0.0093 -0.5728 -0.5863
  916MPD2    H113466   3.931   2.359  15.346 -1.2649 -0.0053 -0.0183
  916MPD2    H213467   3.909   2.747  15.511 -0.0946 -0.2554 -1.4641
  916MPD2    H313468   3.909   2.595  15.329  2.6286 -0.9715  0.0393
  916MPD2     N13469   3.915   2.227  15.602 -0.1265  0.5447 -0.3322
  916MPD2    H513470   3.901   2.204  15.700  3.2431  1.7212  0.4484
  916MPD2    N113471   3.864   2.695  15.756  0.0234 -0.3280 -0.2713
  916MPD2    H713472   3.869   2.787  15.715 -1.0119  0.5681  1.6235
  917MPD2     C13473   4.070   0.470  11.378 -0.0301 -0.3506  0.1585
  917MPD2    C113474   4.155   0.533  11.468  0.7738 -0.5813  0.0131
  917MPD2    C213475   4.215   0.654  11.439 -0.0929 -0.0534  0.1896
  917MPD2    C313476   4.179   0.719  11.322 -0.2182  0.0238  1.1791
  917MPD2    C413477   4.086   0.663  11.239  0.0418  0.1793 -0.5473
  917MPD2    C513478   4.034   0.543  11.265  0.2696  0.2553  0.0471
  917MPD2     H13479   4.285   0.695  11.510 -0.2480 -1.7313  1.3181
  917MPD2    H113480   4.038   0.724  11.163  0.6396  2.4989  0.9102
  917MPD2    H213481   4.035   0.368  11.385 -0.6634 -0.1135  0.4443
  917MPD2    H313482   3.959   0.506  11.197  1.1871  1.3009 -1.5390
  917MPD2     N13483   4.233   0.848  11.298  0.2480  0.6822  0.3625
  917MPD2    H513484   4.194   0.906  11.224  0.1765 -0.7230 -0.7096
  917MPD2    N113485   4.164   0.469  11.594  0.1022  0.3026  0.1502
  917MPD2    H713486   4.104   0.388  11.606  0.0869 -0.0512 -2.4958
  918MPD2     C13487   4.620   0.694  12.483  0.2180  0.2563  0.8547
  918MPD2    C113488   4.689   0.614  12.400 -0.6315  0.3683  0.0548
  918MPD2    C213489   4.630   0.578  12.278  0.2102 -0.2629 -0.0500
  918MPD2    C313490   4.495   0.597  12.255  0.0290 -0.4561 -0.4195
  918MPD2    C413491   4.427   0.677  12.337  0.0508 -0.4482 -0.6135
  918MPD2    C513492   4.488   0.725  12.454 -0.2857 -0.1666 -0.1309
  918MPD2     H13493   4.686   0.513  12.211  0.0439  1.0245 -1.4377
  918MPD2    H113494   4.321   0.700  12.327 -0.3177 -1.6594  0.3966
  918MPD2    H213495   4.661   0.737  12.573  0.2243  0.4551  0.7588
  918MPD2    H313496   4.433   0.790  12.521  0.0398 -0.4692  0.4338
  918MPD2     N13497   4.427   0.547  12.141 -0.0538  0.1427 -0.0584
  918MPD2    H513498   4.480   0.517  12.059  1.1107  1.3739  0.2424
  918MPD2    N113499   0.085   0.575  12.422 -0.9942  0.3198  0.5786
  918MPD2    H713500   0.124   0.509  12.355 -2.0686  1.0264 -0.7281
  919MPD2     C13501   0.195   4.565  11.717 -0.3443  0.1518 -0.1592
  919MPD2    C113502   0.180   4.443  11.645 -0.0992  1.0371  0.0713
  919MPD2    C213503   0.130   4.449  11.519 -0.5160 -0.4192  0.2621
  919MPD2    C313504   0.082   4.567  11.464  0.7198  0.0869 -0.1407
  919MPD2    C413505   0.100   4.688  11.531 -0.1780  0.1849  0.5139
  919MPD2    C513506   0.161   4.685  11.653  0.5337  0.3448  0.4928
  919MPD2     H13507   0.102   4.352  11.480  1.4421 -0.1382 -1.8458
  919MPD2    H113508   0.066   0.043  11.486  1.7995  1.9353  2.6413
  919MPD2    H213509   0.237   4.569  11.818 -2.6167 -3.9037  0.9134
  919MPD2    H313510   0.162   0.045  11.699 -0.3402  0.4100  0.3759
  919MPD2     N13511   0.032   4.581  11.332  0.4804  0.0227  0.2509
  919MPD2    H513512   0.029   4.677  11.297 -0.3515 -0.1430 -0.1223
  919MPD2    N113513   0.189   4.324  11.713 -0.2900 -0.6293 -0.4813
  919MPD2    H713514   0.172   4.238  11.661  0.7229 -1.8632  1.2538
  920MPD2     C13515   4.534   0.561  10.684 -0.1920 -1.0197 -0.2717
  920MPD2    C113516   4.444   0.469  10.642 -0.2690 -0.7896  0.0044
  920MPD2    C213517   4.455   0.343  10.708  0.1363 -0.0852 -0.6814
  920MPD2    C313518   4.546   0.314  10.809 -0.2507 -0.1067  0.4380
  920MPD2    C413519   4.632   0.415  10.848 -0.5266  0.2001  0.7619
  920MPD2    C513520   4.625   0.536  10.788  0.2960 -0.1224  0.1422
  920MPD2     H13521   4.385   0.269  10.671 -2.1047  1.1627  0.9990
  920MPD2    H113522   4.701   0.398  10.930  0.3978 -0.1531 -0.0808
  920MPD2    H213523   4.531   0.662  10.646 -0.4112 -0.0321  2.3494
  920MPD2    H313524   4.690   0.615  10.824  1.3495 -0.9515  0.0692
  920MPD2     N13525   4.552   0.180  10.860  0.0780  0.0890 -0.6033
  920MPD2    H513526   4.480   0.116  10.827 -0.3227  0.4153 -0.3550
  920MPD2    N113527   4.350   0.488  10.544 -0.3549  0.3947 -0.2214
  920MPD2    H713528   4.284   0.416  10.517  1.5048 -1.7761  1.0470
  921MPD2     C13529   0.914   3.232  16.735  0.4560  0.5015 -0.0654
  921MPD2    C113530   0.958   3.119  16.686  0.4085  0.0175 -0.9283
  921MPD2    C213531   0.873   3.013  16.679 -0.4890  0.1927  0.2309
  921MPD2    C313532   0.734   3.037  16.701  0.1699  0.2433 -0.8443
  921MPD2    C413533   0.696   3.161  16.749  0.5445  0.6709  0.5041
  921MPD2    C513534   0.792   3.255  16.769 -0.5038 -0.0202 -1.1041
  921MPD2     H13535   0.908   2.914  16.651 -1.3162 -0.3326  1.0214
  921MPD2    H113536   0.593   3.194  16.756  1.2103  3.0624 -1.1198
  921MPD2    H213537   0.985   3.314  16.739  0.5345  0.4935 -1.2661
  921MPD2    H313538   0.763   3.357  16.791  2.0628  0.3884  0.3619
  921MPD2     N13539   0.632   2.947  16.668 -0.2718  0.0705 -0.3501
  921MPD2    H513540   0.542   2.989  16.688  0.0706  1.1203 -1.0481
  921MPD2    N113541   1.097   3.117  16.642  0.5121  0.0771 -0.0809
  921MPD2    H713542   1.164   3.193  16.649  0.8312 -0.2577  0.5608
  922MPD2     C13543   1.799   0.712  17.087 -0.6956 -0.0518 -0.2084
  922MPD2    C113544   1.821   0.754  17.214 -0.2878 -0.7906  0.0156
  922MPD2    C213545   1.730   0.725  17.316  0.0304  0.4235 -0.1436
  922MPD2    C313546   1.617   0.641  17.283 -0.3702  0.2289  0.3780
  922MPD2    C413547   1.602   0.584  17.152  0.5670 -0.1525 -0.3499
  922MPD2    C513548   1.689   0.629  17.055  0.5505  0.1454 -0.5117
  922MPD2     H13549   1.753   0.771  17.411 -1.1759  0.5024  0.1115
  922MPD2    H113550   1.516   0.525  17.123 -0.0187  0.7299 -0.4169
  922MPD2    H213551   1.859   0.755  17.007  0.5445  0.6378  1.0864
  922MPD2    H313552   1.679   0.597  16.952  0.1004 -0.9464 -0.1333
  922MPD2     N13553   1.513   0.622  17.380 -0.3324  0.7762 -0.0848
  922MPD2    H513554   1.444   0.558  17.343  1.0672 -1.7263  1.6570
  922MPD2    N113555   1.935   0.841  17.245  0.3940 -0.8018  0.0295
  922MPD2    H713556   1.931   0.876  17.341  0.1777  0.5363 -0.4658
  923MPD2     C13557   2.695   2.913   9.132 -0.2908  0.0134 -0.5292
  923MPD2    C113558   2.658   3.028   9.195 -0.7892 -0.2780 -0.1824
  923MPD2    C213559   2.738   3.065   9.300 -0.0071 -0.2756 -0.3406
  923MPD2    C313560   2.841   2.984   9.352  0.2134 -0.5448 -0.5401
  923MPD2    C413561   2.872   2.869   9.287  0.2930 -0.5013  0.0347
  923MPD2    C513562   2.800   2.834   9.171  0.3047 -0.0820  0.1047
  923MPD2     H13563   2.723   3.163   9.345 -1.8683 -0.8268  0.2225
  923MPD2    H113564   2.962   2.816   9.315 -1.2007 -2.2480  1.5032
  923MPD2    H213565   2.633   2.887   9.047  1.6613 -1.8318 -1.3823
  923MPD2    H313566   2.825   2.747   9.112 -2.4231 -0.2036 -0.8815
  923MPD2     N13567   2.928   3.025   9.461  0.5308 -0.0434 -0.6575
  923MPD2    H513568   3.009   2.965   9.474 -1.7240 -2.6301  1.5589
  923MPD2    N113569   2.548   3.106   9.154  0.4374  0.6296  0.0556
  923MPD2    H713570   2.508   3.083   9.064  0.8655 -0.6614  0.1970
  924MPD2     C13571   3.349   0.710  16.302  0.4551 -0.2230  0.7931
  924MPD2    C113572   3.317   0.807  16.211 -0.2613 -0.6812  0.8653
  924MPD2    C213573   3.344   0.941  16.247  0.3160  0.0794 -0.4712
  924MPD2    C313574   3.402   0.981  16.362  1.2510  0.0350 -0.3050
  924MPD2    C413575   3.441   0.881  16.452  0.4646  0.1156  0.1348
  924MPD2    C513576   3.408   0.747  16.423 -0.1874  0.1071 -0.1564
  924MPD2     H13577   3.321   1.016  16.173 -1.5335  0.4502  0.4833
  924MPD2    H113578   3.495   0.907  16.542  0.1457 -0.7854  0.5859
  924MPD2    H213579   3.318   0.608  16.280 -0.3517  0.2898 -0.4525
  924MPD2    H313580   3.439   0.674  16.498  1.0473 -0.9430 -1.7064
  924MPD2     N13581   3.410   1.118  16.384  0.6885 -0.2065 -0.5218
  924MPD2    H513582   3.369   1.177  16.311  3.3380  0.9440 -1.0691
  924MPD2    N113583   3.242   0.769  16.096 -0.6550  0.6602  0.3501
  924MPD2    H713584   3.206   0.674  16.089  1.0833 -0.0519  0.8213
  925MPD2     C13585   1.913   3.789  15.148  0.6052 -0.0067 -0.1806
  925MPD2    C113586   1.786   3.752  15.092  0.0172 -0.2292  0.0448
  925MPD2    C213587   1.676   3.794  15.164 -0.0980 -0.2498 -0.0133
  925MPD2    C313588   1.696   3.858  15.293 -0.5941  0.3640  0.3880
  925MPD2    C413589   1.822   3.895  15.338 -0.8367  0.3977 -0.2647
  925MPD2    C513590   1.926   3.858  15.259 -0.4702  0.3797 -0.2414
  925MPD2     H13591   1.576   3.764  15.138 -0.0053 -0.1165 -0.5190
  925MPD2    H113592   1.843   3.946  15.431 -0.5792  0.5117 -0.3875
  925MPD2    H213593   2.006   3.770  15.095  0.9453  1.2245 -0.0301
  925MPD2    H313594   2.024   3.894  15.287  0.6354 -0.6384 -2.8632
  925MPD2     N13595   1.596   3.898  15.386 -0.1303 -0.0462 -0.6059
  925MPD2    H513596   1.627   3.907  15.482  0.3461  2.8028 -1.0338
  925MPD2    N113597   1.763   3.659  14.989  0.1149 -0.8805 -0.2122
  925MPD2    H713598   1.663   3.648  14.970  0.2468 -1.8715 -0.3436
  926MPD2     C13599   0.381   1.740  13.822 -0.2885  0.1419 -0.4505
  926MPD2    C113600   0.283   1.811  13.758  1.0190  0.1839  0.1580
  926MPD2    C213601   0.284   1.813  13.622 -0.0243  0.2741  0.7024
  926MPD2    C313602   0.379   1.756  13.537 -0.1819  0.3055  0.2303
  926MPD2    C413603   0.471   1.673  13.599 -0.6753 -0.3680 -0.1380
  926MPD2    C513604   0.478   1.671  13.738 -0.3667 -0.4595 -0.0931
  926MPD2     H13605   0.210   1.877  13.574  0.7711  0.3001 -0.4949
  926MPD2    H113606   0.547   1.627  13.536  0.0283  0.3237  0.2131
  926MPD2    H213607   0.384   1.716  13.928  1.0186 -0.2434 -0.5733
  926MPD2    H313608   0.554   1.610  13.787  0.5597 -0.1560 -1.1579
  926MPD2     N13609   0.391   1.777  13.398 -0.2078 -0.2427  0.2922
  926MPD2    H513610   0.469   1.729  13.353  0.3447  0.5693  0.3901
  926MPD2    N113611   0.182   1.891  13.816 -0.4626 -0.9272 -0.2194
  926MPD2    H713612   0.119   1.945  13.758 -0.1371 -0.3334 -0.0238
  927MPD2     C13613   1.303   3.842   0.269 -0.2483 -0.2091 -0.2075
  927MPD2    C113614   1.211   3.916   0.202  0.2730 -0.1262 -0.5316
  927MPD2    C213615   1.189   3.898   0.070 -0.5743 -0.9230  0.6785
  927MPD2    C313616   1.266   3.814  17.741 -0.5236  0.4159  0.0057
  927MPD2    C413617   1.372   3.750   0.056  0.5422 -0.7441  0.6185
  927MPD2    C513618   1.386   3.762   0.192  0.2095 -0.1306  0.2587
  927MPD2     H13619   1.119   3.954   0.008  0.9025  1.4488  1.1911
  927MPD2    H113620   1.439   3.678   0.009 -0.4340  0.0117 -1.9593
  927MPD2    H213621   1.309   3.847   0.377 -2.8052 -3.2237  0.0734
  927MPD2    H313622   1.467   3.714   0.247 -0.3142 -0.7716  0.4663
  927MPD2     N13623   1.232   3.804  17.602  0.2570  0.2671 -0.5374
  927MPD2    H513624   1.160   3.862  17.560  0.3049  2.0572  1.8903
  927MPD2    N113625   1.140   4.005   0.275  0.0906 -0.3821  0.2639
  927MPD2    H713626   1.173   4.012   0.371 -0.7283  0.1690  0.5033
  928MPD2     C13627   2.694   3.002   0.846  0.3501  0.1803  0.1295
  928MPD2    C113628   2.807   3.033   0.919  0.3101  0.1208 -0.3929
  928MPD2    C213629   2.936   2.995   0.879 -0.4768 -0.4822 -0.3461
  928MPD2    C313630   2.954   2.911   0.770 -0.4501  0.7880  0.1163
  928MPD2    C413631   2.835   2.882   0.698  0.1674  0.5923 -0.1653
  928MPD2    C513632   2.711   2.924   0.736 -0.0096 -0.0040  0.5536
  928MPD2     H13633   3.023   3.034   0.931  0.2509 -1.5320 -0.7614
  928MPD2    H113634   2.829   2.828   0.604  0.4366  0.0422  0.1332
  928MPD2    H213635   2.599   3.046   0.875 -0.3725 -0.3205 -1.4206
  928MPD2    H313636   2.632   2.903   0.665  0.5258 -1.9177  0.5115
  928MPD2     N13637   3.071   2.856   0.724 -0.0030 -0.4778  0.0144
  928MPD2    H513638   3.072   2.808   0.635 -0.2913 -0.1663 -0.1573
  928MPD2    N113639   2.783   3.108   1.035  0.2042 -0.3079 -0.3390
  928MPD2    H713640   2.691   3.141   1.061  0.5506  0.1755  0.2938
  929MPD2     C13641   2.619   3.566   9.751  0.3118 -0.0744 -0.4115
  929MPD2    C113642   2.610   3.454   9.828 -0.7796  0.0354  0.5615
  929MPD2    C213643   2.575   3.334   9.773 -0.3923  0.5035 -0.2054
  929MPD2    C313644   2.506   3.328   9.657 -0.0119 -0.4193  0.8313
  929MPD2    C413645   2.529   3.441   9.578  0.3805  0.4158  0.4558
  929MPD2    C513646   2.585   3.556   9.622 -0.2460  0.2838 -0.1330
  929MPD2     H13647   2.584   3.249   9.840 -1.1297  2.9031  2.9334
  929MPD2    H113648   2.499   3.425   9.475  0.9018  0.6331  0.2711
  929MPD2    H213649   2.657   3.660   9.788  0.7121 -0.1317 -0.6642
  929MPD2    H313650   2.586   3.641   9.555 -2.3375 -0.0072 -0.5385
  929MPD2     N13651   2.433   3.217   9.609 -0.0915  0.2090 -1.0030
  929MPD2    H513652   2.435   3.204   9.508 -0.0080  0.5692 -1.0480
  929MPD2    N113653   2.634   3.473   9.971 -0.1287 -0.4895 -0.0943
  929MPD2    H713654   2.655   3.568  10.001 -1.1941 -0.5504  0.8422
  930MPD2     C13655   0.001   0.096  14.330 -0.7080 -0.6324  0.5224
  930MPD2    C113656   4.735   0.223  14.277  0.6032  0.3428  0.6106
  930MPD2    C213657   4.729   0.232  14.143  0.0523  0.0552 -0.1939
  930MPD2    C313658   4.728   0.125  14.061  0.7343 -0.2167 -0.4158
  930MPD2    C413659   0.005   0.002  14.118  0.3087  0.0710  0.0555
  930MPD2    C513660   0.000   4.721  14.254 -0.3330 -0.8902  0.1886
  930MPD2     H13661   4.722   0.328  14.093 -0.1228  0.7660  1.2085
  930MPD2    H113662   0.006   4.654  14.052  0.9859  0.6876 -0.7477
  930MPD2    H213663   0.016   0.087  14.437 -0.1635 -0.5454  0.4525
  930MPD2    H313664   4.735   4.622  14.296  1.4486 -1.8943 -2.0479
  930MPD2     N13665   0.006   0.151  13.922 -0.0363 -0.4212  0.4889
  930MPD2    H513666   0.003   0.247  13.892 -2.3925 -0.3887  0.8339
  930MPD2    N113667   0.049   0.335  14.343 -0.0606  0.0097 -0.2240
  930MPD2    H713668   0.052   0.421  14.289  1.1656 -1.3275 -2.2867
  931MPD2     C13669   0.888   4.477   0.940 -0.2896 -0.0954  0.3507
  931MPD2    C113670   0.892   4.351   0.889  0.7101  0.1339  0.4454
  931MPD2    C213671   0.866   4.243   0.971  0.6000 -0.6872  0.4433
  931MPD2    C313672   0.813   4.258   1.096 -0.9167 -0.6952  0.7176
  931MPD2    C413673   0.825   4.385   1.153 -0.0108  0.0488  0.7460
  931MPD2    C513674   0.857   4.493   1.073  0.6977 -0.4359 -0.2861
  931MPD2     H13675   0.847   4.146   0.926 -2.0213 -0.1101  0.2900
  931MPD2    H113676   0.783   4.399   1.252 -0.8079 -0.0634  0.4253
  931MPD2    H213677   0.914   4.563   0.879  1.9255 -0.7303  0.4123
  931MPD2    H313678   0.846   4.595   1.108  0.9350 -0.9813  1.4129
  931MPD2     N13679   0.742   4.157   1.162 -0.2308 -0.0954  0.1327
  931MPD2    H513680   0.684   4.179   1.243 -1.4375  0.4870 -0.9016
  931MPD2    N113681   0.921   4.336   0.753 -0.1962  0.1942 -0.5602
  931MPD2    H713682   0.901   4.414   0.691  1.5756  0.7938 -0.4058
  932MPD2     C13683   2.296   3.982  11.403  0.0656  0.3304 -0.1573
  932MPD2    C113684   2.372   4.062  11.470 -0.0497  0.1708 -0.0254
  932MPD2    C213685   2.470   4.016  11.558  0.4046 -0.5706 -0.4195
  932MPD2    C313686   2.502   3.876  11.549 -0.0756 -0.1484 -0.0313
  932MPD2    C413687   2.431   3.797  11.460 -0.0514 -0.3892 -0.3729
  932MPD2    C513688   2.323   3.845  11.397 -0.6647  0.0105  0.2962
  932MPD2     H13689   2.527   4.089  11.614  1.7669 -0.9498 -1.2871
  932MPD2    H113690   2.458   3.693  11.450  0.3465 -0.2183 -1.0924
  932MPD2    H213691   2.203   4.018  11.359 -1.9597 -1.1000  2.9968
  932MPD2    H313692   2.245   3.788  11.347  0.3334 -1.3329  0.2649
  932MPD2     N13693   2.604   3.822  11.631 -0.0434  0.0487  0.4590
  932MPD2    H513694   2.637   3.729  11.604  0.1370 -0.4504  2.4023
  932MPD2    N113695   2.344   4.200  11.474  0.4150 -0.1334  0.1824
  932MPD2    H713696   2.419   4.255  11.517  1.7851 -0.0264 -2.3729
  933MPD2     C13697   2.373   3.615   1.153 -0.3446  0.3744 -0.3994
  933MPD2    C113698   2.460   3.617   1.261  0.0612 -0.6735 -0.1409
  933MPD2    C213699   2.467   3.730   1.337 -0.5894 -0.1083 -0.4594
  933MPD2    C313700   2.393   3.838   1.298  0.0577 -0.0453 -0.3979
  933MPD2    C413701   2.305   3.841   1.194 -0.5324 -0.2072  0.1976
  933MPD2    C513702   2.299   3.726   1.121 -0.1267  0.3690 -0.4508
  933MPD2     H13703   2.546   3.742   1.410 -0.0523 -1.1181 -0.8713
  933MPD2    H113704   2.251   3.930   1.163 -1.9781 -0.7435  1.2029
  933MPD2    H213705   2.376   3.528   1.088 -0.7341 -0.5550  0.8287
  933MPD2    H313706   2.237   3.724   1.032  1.0228 -0.9792 -1.2037
  933MPD2     N13707   2.426   3.963   1.358  0.4708 -0.4631 -0.2939
  933MPD2    H513708   2.490   3.959   1.436 -0.4123 -0.6628  0.4159
  933MPD2    N113709   2.527   3.494   1.274  0.2575  0.4155 -0.1250
  933MPD2    H713710   2.523   3.431   1.195  0.8001  1.5562 -1.0752
  934MPD2     C13711   3.848   0.543   1.503 -0.1661 -0.0731  0.0322
  934MPD2    C113712   3.961   0.508   1.437 -0.0501 -0.1006  0.3032
  934MPD2    C213713   3.954   0.400   1.352  0.1346 -0.1937  0.2352
  934MPD2    C313714   3.836   0.335   1.334  0.0427 -0.4248 -0.1332
  934MPD2    C413715   3.726   0.386   1.394  0.3841  0.8666  0.0238
  934MPD2    C513716   3.734   0.476   1.483 -0.0965 -0.6690  0.3960
  934MPD2     H13717   4.047   0.371   1.304  0.5109  1.8166 -0.2595
  934MPD2    H113718   3.626   0.346   1.384 -0.0482  1.4596  1.8428
  934MPD2    H213719   3.851   0.613   1.585 -2.1148  2.1986 -1.8247
  934MPD2    H313720   3.640   0.517   1.518 -0.6874 -0.6270 -1.2432
  934MPD2     N13721   3.818   0.220   1.260 -0.5700  0.2891  0.3104
  934MPD2    H513722   3.719   0.203   1.248 -0.6196  0.7192  0.1247
  934MPD2    N113723   4.078   0.590   1.443  0.1726  0.3283  0.0348
  934MPD2    H713724   4.166   0.549   1.412 -0.6417  1.0794 -3.1958
  935MPD2     C13725   4.371   4.139   1.157  0.2551  0.5251 -0.0121
  935MPD2    C113726   4.270   4.111   1.073 -1.0394  0.5712 -0.1337
  935MPD2    C213727   4.173   4.207   1.051  0.0220  0.4120  0.1660
  935MPD2    C313728   4.168   4.318   1.132  0.1949 -0.9894  0.0751
  935MPD2    C413729   4.273   4.342   1.217 -0.3968 -0.6157 -0.3988
  935MPD2    C513730   4.381   4.260   1.220  0.8534  0.1514  0.8284
  935MPD2     H13731   4.091   4.181   0.986  1.1270  0.8487 -1.3912
  935MPD2    H113732   4.278   4.429   1.280 -1.0449 -1.2667  0.5502
  935MPD2    H213733   4.447   4.062   1.165 -0.2927 -0.1581 -1.5545
  935MPD2    H313734   4.468   4.279   1.281  0.4171  0.6069  1.3149
  935MPD2     N13735   4.069   4.416   1.125 -0.6278  0.4586 -0.5480
  935MPD2    H513736   4.070   4.475   1.207  1.9485 -0.6061  0.1634
  935MPD2    N113737   4.252   3.990   1.003 -0.0811  0.2949  0.3555
  935MPD2    H713738   4.177   3.986   0.934  1.2141 -1.7688 -0.9338
  936MPD2     C13739   3.071   2.157  12.391  0.0932  0.0019 -0.6522
  936MPD2    C113740   2.967   2.188  12.480 -0.2240 -0.3190 -0.0341
  936MPD2    C213741   2.897   2.306  12.467  0.2966  0.4716  0.6262
  936MPD2    C313742   2.947   2.401  12.376  0.6090  0.6083 -0.4777
  936MPD2    C413743   3.050   2.373  12.290 -0.3041 -0.5967 -0.2777
  936MPD2    C513744   3.118   2.247  12.297  0.2374  0.3784  0.7865
  936MPD2     H13745   2.819   2.327  12.539  0.9343  1.9382  0.8899
  936MPD2    H113746   3.094   2.444  12.221 -0.4903 -1.1510 -0.9669
  936MPD2    H213747   3.115   2.058  12.382 -0.4805 -0.5271  2.3856
  936MPD2    H313748   3.207   2.229  12.238  0.4449 -0.2440  1.2995
  936MPD2     N13749   2.898   2.533  12.373 -0.0392  0.6188 -0.3386
  936MPD2    H513750   2.943   2.595  12.306  1.3699  0.0805  0.0992
  936MPD2    N113751   2.925   2.105  12.582 -0.4944 -0.1066 -0.3550
  936MPD2    H713752   2.852   2.148  12.636 -2.3451  0.4286 -3.2494
  937MPD2     C13753   0.407   3.624  11.651 -0.4676 -0.6788 -0.1018
  937MPD2    C113754   0.464   3.750  11.666  0.7973  0.5125  0.4933
  937MPD2    C213755   0.564   3.790  11.583  0.6143 -0.1328  0.4102
  937MPD2    C313756   0.636   3.703  11.506 -0.2965  1.0188  0.4584
  937MPD2    C413757   0.587   3.572  11.497  0.2222 -1.4288 -0.4356
  937MPD2    C513758   0.465   3.544  11.551  0.7335 -0.3377  0.0241
  937MPD2     H13759   0.593   3.894  11.591 -4.0682  1.1511  0.8776
  937MPD2    H113760   0.644   3.496  11.445 -0.9116 -3.1596  0.8293
  937MPD2    H213761   0.329   3.585  11.714 -2.1913  0.5070 -1.5060
  937MPD2    H313762   0.419   3.449  11.528 -0.3919 -0.1823  1.6833
  937MPD2     N13763   0.738   3.751  11.419  0.1344  0.5457  0.4212
  937MPD2    H513764   0.766   3.847  11.438 -0.2046  1.3774 -3.3432
  937MPD2    N113765   0.388   3.855  11.738 -0.3410  0.7444  0.2390
  937MPD2    H713766   0.408   3.950  11.711  2.7476 -1.0643 -3.7610
  938MPD2     C13767   3.358   4.200   0.656  0.0982 -0.2418 -0.4276
  938MPD2    C113768   3.308   4.325   0.682 -0.1981  0.1172  0.2833
  938MPD2    C213769   3.245   4.367   0.802 -0.3455  0.1554  0.0268
  938MPD2    C313770   3.240   4.268   0.898 -0.7378 -0.5444  0.0548
  938MPD2    C413771   3.286   4.140   0.869  1.2718 -0.0137 -0.8936
  938MPD2    C513772   3.340   4.101   0.753 -0.0809  0.3220  0.0642
  938MPD2     H13773   3.208   4.468   0.815 -0.0349 -0.0521  2.4744
  938MPD2    H113774   3.279   4.064   0.946  0.5911  0.3734 -0.5743
  938MPD2    H213775   3.407   4.183   0.561  2.0388 -0.1181  0.5400
  938MPD2    H313776   3.373   3.998   0.742  2.5648  0.8996  2.7246
  938MPD2     N13777   3.185   4.286   1.022 -0.0462  0.2811 -0.1295
  938MPD2    H513778   3.196   4.210   1.089  2.1797  0.9162  0.2292
  938MPD2    N113779   3.321   4.414   0.572 -0.0960 -0.4542 -0.1617
  938MPD2    H713780   3.390   4.405   0.498 -1.8014  1.3021 -1.9823
  939MPD2     C13781   4.252   0.661   0.309 -0.5338 -1.1496 -0.7628
  939MPD2    C113782   4.378   0.659   0.371  0.5339 -0.4285  0.5734
  939MPD2    C213783   4.453   0.547   0.357 -0.5694  0.1351  0.7602
  939MPD2    C313784   4.426   0.453   0.257 -0.5543  0.3466  1.1030
  939MPD2    C413785   4.313   0.464   0.182 -0.1757  0.1195 -1.0245
  939MPD2    C513786   4.218   0.564   0.224 -0.3643 -0.4806  0.1284
  939MPD2     H13787   4.544   0.539   0.416  1.4666  4.4196 -1.7999
  939MPD2    H113788   4.286   0.399   0.099  0.1260  0.1421 -1.1391
  939MPD2    H213789   4.183   0.743   0.324  2.4359  1.4248 -1.1230
  939MPD2    H313790   4.118   0.578   0.186  0.2076  1.8003 -0.5521
  939MPD2     N13791   4.514   0.345   0.239 -0.0056 -0.2366  0.0969
  939MPD2    H513792   4.584   0.333   0.311  0.2598 -2.5541 -0.5699
  939MPD2    N113793   4.417   0.766   0.453 -0.1569  0.2850 -0.0814
  939MPD2    H713794   4.345   0.834   0.473  0.3419  0.7968 -0.0337
  940MPD2     C13795   3.034   1.254  13.404 -0.2183  0.0427  0.9332
  940MPD2    C113796   3.155   1.329  13.408  0.5035  0.8265  0.1847
  940MPD2    C213797   3.183   1.405  13.297  0.3417 -0.2151  0.2360
  940MPD2    C313798   3.109   1.410  13.176  0.4303 -0.2846 -0.6588
  940MPD2    C413799   2.997   1.331  13.181 -0.6887 -0.2477  0.3383
  940MPD2    C513800   2.961   1.254  13.292  0.2384 -0.2993  0.2474
  940MPD2     H13801   3.280   1.452  13.305  0.4399 -0.1923 -0.9603
  940MPD2    H113802   2.935   1.326  13.093  1.3832 -0.1417 -1.1241
  940MPD2    H213803   3.002   1.193  13.488  1.5942 -2.5175 -0.2171
  940MPD2    H313804   2.870   1.196  13.284  0.6764 -0.7344 -1.5716
  940MPD2     N13805   3.138   1.482  13.061 -0.3163 -0.2441  0.1269
  940MPD2    H513806   3.060   1.487  12.997  0.3458  2.3922 -0.4517
  940MPD2    N113807   3.240   1.343  13.520 -0.0664 -0.7789  0.0036
  940MPD2    H713808   3.306   1.420  13.524 -0.9422  0.0816 -2.0803
  941MPD2     C13809   2.023   1.889  10.643  0.3892  0.2850  0.2428
  941MPD2    C113810   2.101   1.772  10.634  0.9654 -0.2242 -0.2287
  941MPD2    C213811   2.107   1.679  10.745  0.2286  0.6204 -0.8437
  941MPD2    C313812   2.028   1.702  10.856 -0.2204 -0.4587 -0.0634
  941MPD2    C413813   1.957   1.822  10.869 -0.1249 -0.4374  0.5172
  941MPD2    C513814   1.964   1.914  10.764  0.1150 -0.5886  0.1234
  941MPD2     H13815   2.170   1.592  10.726 -0.8810  0.4127 -3.4715
  941MPD2    H113816   1.890   1.851  10.949 -0.0283 -0.8061  0.7328
  941MPD2    H213817   2.008   1.966  10.568  0.4257 -2.2754 -2.3917
  941MPD2    H313818   1.913   2.009  10.771  1.3707  0.0905  0.0167
  941MPD2     N13819   2.016   1.608  10.954  0.3262  0.1186  0.5448
  941MPD2    H513820   1.952   1.625  11.031 -1.6126 -0.5012 -0.9427
  941MPD2    N113821   2.174   1.740  10.519 -0.0753 -0.1248  0.6601
  941MPD2    H713822   2.219   1.650  10.530 -1.0668 -0.7886 -0.7824
  942MPD2     C13823   1.472   3.718   9.934  0.5211 -0.4513  0.3999
  942MPD2    C113824   1.537   3.732   9.813 -0.1873 -0.2007 -0.4858
  942MPD2    C213825   1.614   3.622   9.760 -0.4290 -0.0681 -0.1277
  942MPD2    C313826   1.619   3.495   9.827  0.8083  0.6086 -0.1811
  942MPD2    C413827   1.534   3.484   9.935 -0.7019  0.5028  0.2645
  942MPD2    C513828   1.463   3.590   9.986  0.9429  0.3190  0.1650
  942MPD2     H13829   1.673   3.645   9.672  0.4004  1.5298  0.8453
  942MPD2    H113830   1.528   3.388   9.986  1.1552  0.9965  1.3985
  942MPD2    H213831   1.419   3.799   9.983  1.1299 -0.9428  1.8887
  942MPD2    H313832   1.381   3.580  10.056  0.0139  3.9136 -0.4049
  942MPD2     N13833   1.717   3.399   9.800 -0.5244  0.0597  0.5440
  942MPD2    H513834   1.707   3.314   9.855 -2.3420  0.0278  0.1818
  942MPD2    N113835   1.545   3.855   9.743  0.6559  0.5976 -0.1447
  942MPD2    H713836   1.605   3.859   9.661 -0.5054  0.2936 -1.0048
  943MPD2     C13837   0.885   1.797   9.992  0.2803 -0.8584  0.1670
  943MPD2    C113838   0.888   1.677  10.058  0.1626  0.0314 -0.3922
  943MPD2    C213839   1.010   1.609  10.078  0.0889  0.1538 -0.1267
  943MPD2    C313840   1.125   1.676  10.053  0.1238 -0.0575  0.9906
  943MPD2    C413841   1.119   1.803  10.000 -0.4137  0.2294 -0.3453
  943MPD2    C513842   1.000   1.849   9.951 -0.0917  0.0911  0.3135
  943MPD2     H13843   1.008   1.509  10.119  1.2601 -0.2145 -0.9788
  943MPD2    H113844   1.207   1.865   9.988 -1.1692  1.3341 -0.1521
  943MPD2    H213845   0.793   1.843   9.957  0.4822 -1.2078 -0.8428
  943MPD2    H313846   1.000   1.952   9.914  1.6840  0.5763  1.6510
  943MPD2     N13847   1.251   1.622  10.087  0.0570 -0.2755 -0.0925
  943MPD2    H513848   1.330   1.685  10.081  0.4514 -0.9522 -1.7295
  943MPD2    N113849   0.767   1.613  10.075 -0.0043  0.0125  0.0328
  943MPD2    H713850   0.690   1.655  10.023  0.7462  0.6599 -0.5616
  944MPD2     C13851   0.828   4.453  11.174 -0.5650  0.0169  0.5636
  944MPD2    C113852   0.757   4.549  11.115 -0.6157  0.4512  0.8003
  944MPD2    C213853   0.742   4.666  11.172 -0.2174  0.8006 -0.9605
  944MPD2    C313854   0.787   4.701  11.301  0.9524 -0.1202  0.4707
  944MPD2    C413855   0.867   4.604  11.364  0.6470  0.4980  0.0139
  944MPD2    C513856   0.888   4.486  11.295 -0.3752  0.3034  0.4870
  944MPD2     H13857   0.684   0.006  11.124  0.3724  1.5301 -0.5087
  944MPD2    H113858   0.917   4.616  11.459 -0.2508  0.3031  0.5131
  944MPD2    H213859   0.854   4.360  11.123 -3.3131 -0.3035 -0.2121
  944MPD2    H313860   0.951   4.410  11.341  1.6314  1.9195  0.4293
  944MPD2     N13861   0.759   0.086  11.372  0.2895 -0.1253 -0.2259
  944MPD2    H513862   0.698   0.148  11.320 -1.3161 -0.8187  0.8210
  944MPD2    N113863   0.716   4.534  10.983  0.0415 -0.0535  0.1814
  944MPD2    H713864   0.751   4.448  10.942  0.8612 -1.4432  3.8212
    1TMC1    C113865   4.199   0.772  14.909 -0.6927 -0.6710 -0.2874
    1TMC1    C213866   4.333   0.750  14.905  0.0307 -0.9451 -0.5955
    1TMC1    C313867   4.372   0.631  14.847 -0.2503 -0.2709 -0.7052
    1TMC1    C413868   4.103   0.696  14.856 -0.6935 -0.1948 -0.2859
    1TMC1    C513869   4.145   0.584  14.795  0.9946  0.3292 -0.6266
    1TMC1    C613870   4.278   0.552  14.789 -0.8803 -0.1768  0.1382
    1TMC1     C13871   4.167   0.914  14.945  0.1489 -0.3004 -0.2596
    1TMC1     O13872   4.245   0.972  15.018  0.0996  0.1524 -0.0161
    1TMC1     H13873   4.396   0.826  14.949 -3.2906  0.5335  1.5743
    1TMC1    H113874   3.996   0.717  14.853 -1.1746 -2.5637  0.1463
    1TMC1    H213875   4.313   0.466  14.733 -0.0708  0.7778 -0.8079
    1TMC1    C713876   4.043   0.494  14.744 -0.3973 -0.1598  0.1278
    1TMC1    C813877   4.502   0.571  14.878 -0.9545  0.5752  0.5309
    1TMC1    O113878   3.931   0.483  14.794 -0.0168 -0.0143 -0.0004
    1TMC1    O213879   4.511   0.450  14.885 -0.0863 -0.2351  0.1402
    1TMC1    O313880   4.094   0.421  14.650 -0.1240  0.2984 -0.3462
    1TMC1    H313881   4.178   0.458  14.616 -0.1635 -0.4332 -1.2503
    1TMC1    O513882   4.560   0.655  14.968 -0.3546 -0.0855 -0.2459
    1TMC1    H513883   4.560   0.743  14.926  2.2747 -0.6339 -1.3991
    2MPD2     C13884   4.012   1.386  14.830 -0.2492 -0.7971  0.7936
    2MPD2    C113885   3.983   1.303  14.719  0.0622  0.3229 -0.1655
    2MPD2    C213886   4.007   1.167  14.728 -0.1367  0.9072  0.0051
    2MPD2    C313887   4.065   1.112  14.844  0.2764 -0.0172 -0.2313
    2MPD2    C413888   4.101   1.198  14.947 -0.2649  0.2665 -0.0842
    2MPD2    C513889   4.058   1.328  14.947 -0.3958  1.1585  0.1031
    2MPD2     H13890   3.965   1.105  14.650  4.3249  2.0611 -3.3509
    2MPD2    H113891   4.142   1.172  15.045  0.3335 -0.2581 -0.4717
    2MPD2    H213892   3.994   1.492  14.813  2.0597 -0.3047  1.3017
    2MPD2    H313893   4.093   1.396  15.025  0.7418 -0.6269  1.1439
    2MPD2     N13894   4.084   0.971  14.850  0.7990  0.7460  0.5041
    2MPD2    H513895   4.040   0.908  14.783  0.9948 -1.2298  2.2262
    2MPD2    N113896   3.936   1.369  14.601  0.1042 -0.0699  0.7391
    2MPD2    H713897   3.900   1.464  14.602  1.0637  0.2891  1.0096
    3TMC2    C113898   3.893   1.408  14.372  0.6396  0.5119 -0.2625
    3TMC2    C213899   3.927   1.541  14.381 -0.2681  0.1707  0.3990
    3TMC2    C313900   3.911   1.616  14.259 -0.0405 -0.4115  0.0099
    3TMC2    C413901   3.866   1.347  14.251 -0.3993  0.3600 -0.4911
    3TMC2    C513902   3.853   1.428  14.135  0.2357 -0.7828  0.1493
    3TMC2    C613903   3.878   1.562  14.141  1.1594 -0.5741 -0.0044
    3TMC2     C13904   3.936   1.315  14.472 -0.9153  0.0804  0.2329
    3TMC2     O13905   3.986   1.207  14.444  0.0893  0.5339  0.0615
    3TMC2     H13906   3.948   1.578  14.481 -0.1801  0.3844  0.3022
    3TMC2    H113907   3.848   1.240  14.244  2.0180 -0.0331 -0.7310
    3TMC2    H213908   3.880   1.623  14.051  0.0505 -0.2644  0.1822
    3TMC2    C713909   3.793   1.370  14.018  0.3317  0.5335 -0.6594
    3TMC2    C813910   3.937   1.760  14.265 -0.6782 -0.0809 -0.4258
    3TMC2    O113911   3.800   1.248  14.016 -0.8169 -0.0077  0.1230
    3TMC2    O213912   3.933   1.832  14.168 -0.0236  0.1121  0.5094
    3TMC2    O513913   3.933   1.793  14.394 -0.0493  0.3370 -0.1705
    3TMC2    H513914   3.951   1.890  14.394  2.5517 -0.1415  0.1546
    4TMC2    C113915   3.253   2.043  13.540  0.1346 -1.1211 -0.3812
    4TMC2    C213916   3.200   2.011  13.417 -0.2311 -0.1956 -0.1932
    4TMC2    C313917   3.256   1.900  13.357 -0.2225 -0.0333 -0.6432
    4TMC2    C413918   3.354   1.971  13.598 -0.3317 -0.2146 -0.0825
    4TMC2    C513919   3.391   1.851  13.533  0.3461 -0.4761 -0.6665
    4TMC2    C613920   3.342   1.811  13.412  0.2472  0.3717  0.5469
    4TMC2     C13921   3.195   2.141  13.629 -0.3701 -0.0742 -0.2582
    4TMC2     O13922   3.245   2.140  13.741  0.5076  0.1199  0.3639
    4TMC2     H13923   3.108   2.054  13.378 -0.9904  0.8563  2.7769
    4TMC2    H113924   3.406   2.006  13.687 -0.4296 -1.4483  0.4613
    4TMC2    H213925   3.362   1.720  13.357 -0.2038  1.5095 -1.4783
    4TMC2    C713926   3.461   1.761  13.629 -0.8024  0.7912 -0.0986
    4TMC2    C813927   3.182   1.844  13.241 -0.0183  0.2480 -0.0691
    4TMC2    O113928   3.457   1.791  13.745  1.2403 -0.3783  0.1780
    4TMC2    O213929   3.116   1.743  13.257 -0.3146  0.5755 -0.0038
    4TMC2    O513930   3.132   1.943  13.162 -0.6606 -0.0440  0.5968
    4TMC2    H513931   3.200   2.013  13.152  1.0032 -1.8278 -0.5289
    5MPD2     C13932   2.889   2.513  13.802  0.0137 -0.3376 -0.0551
    5MPD2    C113933   2.844   2.477  13.677  0.1062  0.5022  0.1402
    5MPD2    C213934   2.903   2.366  13.608 -0.2292  0.1698  0.0081
    5MPD2    C313935   3.016   2.302  13.656 -0.2344  0.2598 -0.4700
    5MPD2    C413936   3.064   2.351  13.776  0.3400  0.2097 -0.3466
    5MPD2    C513937   3.004   2.458  13.839  0.0326  0.0122  0.0713
    5MPD2     H13938   2.867   2.337  13.510  0.1584  0.0434 -0.0943
    5MPD2    H113939   3.157   2.320  13.824  0.5349  0.1854 -0.7445
    5MPD2    H213940   2.848   2.598  13.854 -0.5536 -0.9599  0.5199
    5MPD2    H313941   3.045   2.490  13.935 -1.5706 -0.2535  0.8431
    5MPD2     N13942   3.083   2.203  13.585  0.1010  0.3124 -0.0193
    5MPD2    H513943   3.053   2.188  13.489  2.0884 -2.0106 -0.2417
    5MPD2    N113944   2.736   2.554  13.634 -0.1544  0.7420  0.0965
    5MPD2    H713945   2.713   2.627  13.700 -1.8969  0.0817  0.2089
    6MPD1     C13946   2.322   4.371  13.510 -0.1483  0.0101  0.0839
    6MPD1    C113947   2.377   4.341  13.386  0.4126  0.9620 -0.6345
    6MPD1    C213948   2.405   4.207  13.373  0.5482 -0.0971  0.7994
    6MPD1    C313949   2.363   4.109  13.463 -0.2877  0.0031 -0.2964
    6MPD1    C413950   2.304   4.143  13.579  0.2235 -0.5936  0.1077
    6MPD1    C513951   2.296   4.278  13.606  0.4034 -0.0788 -0.1627
    6MPD1     H13952   2.457   4.184  13.281  0.0992  1.5778  0.1178
    6MPD1    H113953   2.249   4.080  13.649  1.7922 -1.3177  0.6736
    6MPD1    H213954   2.305   4.473  13.542 -2.1884 -0.7058  1.2596
    6MPD1    H313955   2.250   4.311  13.698 -0.4394  0.4573 -0.7832
    6MPD1     N13956   2.394   3.973  13.446 -0.0968 -0.8355  0.3779
    6MPD1    H513957   2.362   3.912  13.521 -1.0441  1.3276  1.7322
    6MPD1    N113958   2.440   4.437  13.302  0.2589 -0.9252  1.0640
    6MPD1    H613959   2.461   4.397  13.211 -0.3163  0.5291  0.2890
    6MPD1    H713960   2.391   4.525  13.289  1.1537 -0.4014  1.2109
    7MPD2     C13961   2.599   3.320  13.815  0.6274  0.1477  0.0516
    7MPD2    C113962   2.541   3.296  13.692  0.4410 -0.1977  0.2059
    7MPD2    C213963   2.486   3.171  13.673  0.3508  0.1528  0.1369
    7MPD2    C313964   2.510   3.065  13.758 -0.0028  0.1761  0.1384
    7MPD2    C413965   2.581   3.089  13.873  0.0876 -0.0980  0.2206
    7MPD2    C513966   2.621   3.220  13.901  0.7878 -0.0747 -0.6534
    7MPD2     H13967   2.456   3.148  13.572  2.1516 -0.4493 -0.2498
    7MPD2    H113968   2.599   3.006  13.941  0.3996 -1.1971 -1.1959
    7MPD2    H213969   2.636   3.416  13.849  0.5268 -0.0629  0.7460
    7MPD2    H313970   2.680   3.234  13.991 -1.5769  1.2355  0.6769
    7MPD2     N13971   2.469   2.934  13.734 -0.1749  0.1986 -0.0135
    7MPD2    H513972   2.517   2.867  13.794  0.5232  1.5941  0.9998
    7MPD2    N113973   2.524   3.393  13.593 -0.1585  0.0593  0.6620
    7MPD2    H713974   2.479   3.358  13.509  0.9172  1.4232 -0.4907
    8TMC3    C113975   2.379   2.769  13.593  0.4821  0.7377 -0.7777
    8TMC3    C213976   2.496   2.698  13.616  0.6592 -0.2455 -0.2381
    8TMC3    C313977   2.537   2.613  13.515 -0.0296  0.5061 -0.6083
    8TMC3    C413978   2.311   2.759  13.471 -0.6962 -0.1121  0.0691
    8TMC3    C513979   2.359   2.682  13.373 -0.2785  0.2190  0.1574
    8TMC3    C613980   2.475   2.612  13.390 -0.4457  0.3566  0.2345
    8TMC3     C13981   2.370   2.901  13.649 -0.0088 -0.2171  0.3126
    8TMC3     O13982   2.296   2.975  13.587 -0.2038  0.3860  0.0636
    8TMC3     H13983   2.561   2.712  13.701  0.2871  1.4330 -0.2411
    8TMC3    H113984   2.212   2.802  13.466 -0.6429  0.3686  2.7768
    8TMC3    H213985   2.499   2.544  13.309  2.1808  1.4867  0.0487
    8TMC3    C713986   2.352   2.751  13.252  0.8135 -0.2511  0.7297
    8TMC3    C813987   2.666   2.537  13.519 -0.3521 -0.6705 -0.6982
    8TMC3    O113988   2.384   2.691  13.153 -0.6373 -0.3297 -0.0597
    8TMC3    O213989   2.683   2.448  13.437 -0.3303  0.5034 -0.1899
    9TMC3    C113990   2.469   3.764  13.337  0.4530  0.4166 -0.8493
    9TMC3    C213991   2.447   3.689  13.228  0.1201  0.2422  0.7570
    9TMC3    C313992   2.473   3.554  13.243  0.3732  0.4474  0.5240
    9TMC3    C413993   2.511   3.712  13.456 -0.0512  0.8758  0.4351
    9TMC3    C513994   2.543   3.578  13.463  0.7336 -0.7025 -0.0885
    9TMC3    C613995   2.519   3.502  13.354 -0.0173 -0.0427 -0.5807
    9TMC3     C13996   2.451   3.912  13.332  0.1655 -0.2227 -0.0670
    9TMC3     O13997   2.465   3.957  13.224  0.1626  0.0863  0.5893
    9TMC3     H13998   2.399   3.712  13.133 -0.9112 -1.9334  0.7544
    9TMC3    H113999   2.529   3.778  13.540  0.3759  0.9473  0.2868
    9TMC3    H214000   2.560   3.402  13.357 -2.7851 -1.1556  0.5003
    9TMC3    C714001   2.564   3.521  13.591  0.5030 -0.0190 -0.0323
    9TMC3    C814002   2.421   3.464  13.143 -1.1242 -0.2042 -0.2964
    9TMC3    O114003   2.586   3.595  13.690 -0.1639  0.3334 -0.1752
    9TMC3    O214004   2.397   3.497  13.028  0.2924 -0.7447 -0.1003
   10MPD2     C14005   2.327   2.970  13.051 -0.2758  0.7591  0.9181
   10MPD2    C114006   2.326   2.988  13.189  0.0661 -0.3008  0.1487
   10MPD2    C214007   2.329   3.119  13.238  0.4619  0.0087  0.4675
   10MPD2    C314008   2.344   3.228  13.150 -0.2218  0.1432  0.1223
   10MPD2    C414009   2.352   3.215  13.014  0.5970  0.1892  0.4391
   10MPD2    C514010   2.338   3.085  12.969 -0.0541 -0.1710  0.1715
   10MPD2     H14011   2.341   3.127  13.346 -0.1876 -2.4979  0.7311
   10MPD2    H114012   2.361   3.292  12.938  2.2614 -1.7015 -1.2844
   10MPD2    H214013   2.333   2.878  12.993 -1.3700  1.2504  0.0341
   10MPD2    H314014   2.331   3.071  12.862 -0.5654  1.4436 -0.0082
   10MPD2     N14015   2.383   3.350  13.210 -0.1870  0.2887  0.4601
   10MPD2    H514016   2.385   3.352  13.312 -0.7893  2.6571  0.4050
   10MPD2    N114017   2.329   2.884  13.278  0.7002 -0.0008  0.6881
   10MPD2    H714018   2.317   2.905  13.376 -0.4434 -0.3712  0.6259
   11MPD2     C14019   3.664   1.317  13.752  0.0863 -0.1553 -0.0472
   11MPD2    C114020   3.651   1.434  13.824  0.4037  0.1702  0.6956
   11MPD2    C214021   3.590   1.540  13.768  0.3256  0.0871 -0.1212
   11MPD2    C314022   3.555   1.538  13.635 -0.2460  0.2468 -0.2265
   11MPD2    C414023   3.570   1.424  13.559 -0.0855 -0.5849 -1.0284
   11MPD2    C514024   3.621   1.312  13.621 -0.5077  0.7673 -0.5093
   11MPD2     H14025   3.577   1.627  13.831  0.6510 -0.3309  0.5278
   11MPD2    H114026   3.546   1.419  13.453 -2.2566  1.1175 -0.6148
   11MPD2    H214027   3.707   1.226  13.795 -1.0730  0.1726  1.7985
   11MPD2    H314028   3.626   1.222  13.561 -1.6715 -0.5100  1.3111
   11MPD2     N14029   3.499   1.644  13.568  0.2024 -0.1657 -0.3151
   11MPD2    H514030   3.491   1.630  13.467  0.3769 -1.3296 -0.1663
   11MPD2    N114031   3.718   1.459  13.944  0.2222 -0.5239 -0.0997
   11MPD2    H714032   3.700   1.552  13.982  1.2516 -0.1315 -0.5755
    1MPD1     C14033   1.579   3.426  16.658  0.5660  0.5394 -0.5477
    1MPD1    C114034   1.602   3.361  16.542 -0.0746  0.1699 -0.3997
    1MPD1    C214035   1.732   3.351  16.489  0.5314 -0.5045 -0.2764
    1MPD1    C314036   1.834   3.410  16.564  0.1105  0.0965 -0.0741
    1MPD1    C414037   1.809   3.483  16.676  0.7942  0.6769 -1.1996
    1MPD1    C514038   1.683   3.492  16.717 -0.6907 -0.0270 -0.2400
    1MPD1     H14039   1.747   3.305  16.392  0.1616 -2.4839  0.6060
    1MPD1    H114040   1.893   3.535  16.722  0.5032  0.1119 -0.0089
    1MPD1    H214041   1.481   3.435  16.703  0.9293 -0.9168  0.5307
    1MPD1    H314042   1.650   3.539  16.810  0.2181  0.4528 -0.1648
    1MPD1     N14043   1.974   3.394  16.526 -0.3512 -0.0267 -0.2182
    1MPD1    H514044   2.041   3.432  16.592  0.9225 -1.0273 -0.9102
    1MPD1    N114045   1.496   3.316  16.463  0.0168 -0.1300 -0.5872
    1MPD1    H614046   1.512   3.225  16.420  0.6430  0.6074 -1.8913
    1MPD1    H714047   1.407   3.319  16.514 -0.2758 -1.9325 -0.9601
    2MPD1     C14048   2.655   3.701  16.970  0.0359 -0.6793  0.4990
    2MPD1    C114049   2.524   3.739  16.937 -0.5829  0.7518 -0.1942
    2MPD1    C214050   2.448   3.672  16.846  0.5352  0.7535 -0.7180
    2MPD1    C314051   2.487   3.543  16.816  0.5316  0.4801  0.2789
    2MPD1    C414052   2.605   3.497  16.867 -0.7241  0.5338  0.4237
    2MPD1    C514053   2.692   3.576  16.932  0.3274 -0.3789 -0.5020
    2MPD1     H14054   2.356   3.713  16.805  0.0005  0.4183  0.1460
    2MPD1    H114055   2.634   3.393  16.869 -1.1561  0.4120  0.3412
    2MPD1    H214056   2.719   3.769  17.025  0.9624 -0.8603 -0.3550
    2MPD1    H314057   2.788   3.540  16.967  0.5016 -0.4416 -1.0459
    2MPD1     N14058   2.419   3.474  16.710 -0.1172  0.0057 -0.3618
    2MPD1    H514059   2.330   3.512  16.681 -0.3287  0.9034  1.4748
    2MPD1    N114060   2.483   3.871  16.964  0.5749  0.1895 -0.3293
    2MPD1    H614061   2.382   3.880  16.970  0.5804 -0.2478  0.4373
    2MPD1    H714062   2.534   3.907  17.044 -1.8704  1.6576  0.5638
    3TMC3    C114063   2.384   3.328  16.527  0.7446 -0.0835  0.0621
    3TMC3    C214064   2.455   3.289  16.413 -0.3167  0.1294 -0.4662
    3TMC3    C314065   2.377   3.266  16.301 -0.0543 -0.0047 -0.7179
    3TMC3    C414066   2.248   3.352  16.526  0.1095  0.0922  0.6166
    3TMC3    C514067   2.176   3.321  16.414  0.3015 -0.0468 -0.4321
    3TMC3    C614068   2.235   3.270  16.301  0.0048  1.2415  0.1035
    3TMC3     C14069   2.468   3.361  16.640  0.0626 -0.0544  0.0318
    3TMC3     O14070   2.576   3.307  16.640  0.3574 -0.2113  0.8299
    3TMC3     H14071   2.563   3.278  16.417 -0.4668 -2.3911 -2.7821
    3TMC3    H114072   2.197   3.343  16.621 -1.1525  1.4223  0.0609
    3TMC3    H214073   2.173   3.232  16.221  0.6283 -3.0748  1.6812
    3TMC3    C714074   2.028   3.328  16.417 -0.5873  0.2116  0.4399
    3TMC3    C814075   2.444   3.201  16.188 -0.0603 -0.2400  0.3254
    3TMC3    O114076   1.962   3.282  16.324 -0.3476 -0.0165 -0.3983
    3TMC3    O214077   2.364   3.151  16.111 -0.3792  0.0611  0.0230
    4MPD1     C14078   2.837   3.058  15.892  0.3699  0.8005 -0.9036
    4MPD1    C114079   2.881   3.089  16.013  0.6984 -0.2258 -0.1377
    4MPD1    C214080   2.791   3.136  16.106 -0.1532  0.6383  0.8056
    4MPD1    C314081   2.659   3.145  16.081  0.1649 -0.3502  0.1563
    4MPD1    C414082   2.611   3.102  15.964  0.2205  0.0605 -0.4469
    4MPD1    C514083   2.703   3.064  15.871  0.5542  0.6650 -0.4111
    4MPD1     H14084   2.839   3.168  16.198  1.2641  2.1219 -0.4725
    4MPD1    H114085   2.507   3.107  15.932 -0.0744 -1.7444  0.2349
    4MPD1    H214086   2.892   3.021  15.807  2.1942 -0.1204  0.6769
    4MPD1    H314087   2.668   3.040  15.771  0.4569 -0.7113 -0.0535
    4MPD1     N14088   2.580   3.204  16.185  0.6856  0.6010  0.0721
    4MPD1    H514089   2.642   3.242  16.255  1.2944  0.7288 -0.5304
    4MPD1    N114090   3.020   3.091  16.030 -0.6750 -0.3586 -0.3178
    4MPD1    H614091   3.041   3.111  16.128 -0.3253  1.2699 -0.7281
    4MPD1    H714092   3.066   3.013  15.983  0.9532  0.7033 -0.4753
    1TCq1    O114093   2.463   3.144  11.623  0.5258 -0.9596  0.5818
    1TCq1    C114094   2.357   3.084  11.578 -0.4038 -0.0250  0.6789
    1TCq1    O214095   2.323   3.087  11.461 -0.0291 -0.4290 -0.2301
    1TCq1    C214096   2.291   3.012  11.690  0.2098 -0.2075  0.5920
    1TCq1    C314097   2.362   2.949  11.787  0.0242  0.1681 -0.2057
    1TCq1    C414098   2.291   2.895  11.886 -0.3126  0.0029  0.1800
    1TCq1    C514099   2.156   2.910  11.892  0.3331  0.4725  0.0453
    1TCq1    C614100   2.088   2.951  11.778 -0.0940  0.4008 -0.2820
    1TCq1    C714101   2.158   3.010  11.682  0.7148  0.3020  0.1715
    1TCq1    C814102   1.945   2.977  11.781  0.1077  0.5459 -0.0281
    1TCq1    O414103   1.891   2.982  11.891  0.2440 -0.5106  0.0762
    1TCq1    C914104   2.361   2.866  12.015 -0.3289 -0.1892 -0.2532
    1TCq1    O514105   2.286   2.861  12.114 -0.5289  0.3435  0.4893
    1TCq1    O614106   2.485   2.845  12.011 -0.2569 -0.8006  1.0912
    1TCq1    H114107   2.448   3.156  11.719 -1.6746 -1.5277  0.2880
    1TCq1    H214108   2.461   2.991  11.803 -0.5279  1.2231  0.5037
    1TCq1    H314109   2.102   2.872  11.978  1.4560  1.0560  0.9895
    1TCq1    H414110   2.112   3.082  11.615  0.4076  0.7172  0.8293
    2MPD1     C14111   1.487   3.017  11.560  0.0408 -0.4388  0.0378
    2MPD1    C114112   1.577   2.987  11.461 -0.0734 -0.6621  0.0637
    2MPD1    C214113   1.705   2.971  11.496 -0.2219  0.8362 -0.3417
    2MPD1    C314114   1.750   2.993  11.627 -0.4707  0.1346 -0.4430
    2MPD1    C414115   1.655   3.012  11.723  0.2058 -0.0451 -0.1954
    2MPD1    C514116   1.527   3.040  11.685  0.0613 -0.2564  0.6197
    2MPD1     H14117   1.774   2.932  11.422  2.6060 -1.4605  3.4598
    2MPD1    H114118   1.681   3.011  11.828  1.2109 -0.6322 -0.4450
    2MPD1    H214119   1.380   3.028  11.549 -0.1593 -0.0136  2.4958
    2MPD1    H314120   1.452   3.067  11.758  1.1878 -1.0496  2.0619
    2MPD1     N14121   1.888   2.986  11.656 -0.2450  0.1059  0.3396
    2MPD1    H514122   1.952   2.963  11.581 -1.2451 -1.9342  0.0866
    2MPD1    N114123   1.543   2.990  11.326 -0.0026  0.6357  0.4388
    2MPD1    H614124   1.592   2.917  11.275  2.6739  3.2448 -0.7198
    2MPD1    H714125   1.443   2.973  11.318 -0.2236  1.2210  1.8666
    1TMC1    C114126   1.541   1.201   1.068 -0.4216 -0.4423  0.5841
    1TMC1    C214127   1.617   1.299   1.009  0.0946  0.5187 -0.8428
    1TMC1    C314128   1.749   1.280   0.980 -0.4898  0.1782  0.0633
    1TMC1    C414129   1.594   1.077   1.086  0.2572  0.2623  0.2563
    1TMC1    C514130   1.722   1.063   1.038 -1.1508  0.2023  0.2884
    1TMC1    C614131   1.805   1.155   0.993 -0.1021 -0.2665  0.4551
    1TMC1     C14132   1.406   1.235   1.120 -0.2064  0.2585 -0.6138
    1TMC1     O14133   1.372   1.351   1.138  0.0119  0.2624  0.5546
    1TMC1     H14134   1.561   1.390   0.991 -1.7691 -0.3256  0.7036
    1TMC1    H114135   1.557   0.992   1.142  0.2268  2.2089  3.1767
    1TMC1    H214136   1.912   1.143   0.977 -0.8973 -2.0250 -3.5567
    1TMC1    C714137   1.767   0.927   1.026  0.2353  0.0379  0.7256
    1TMC1    C814138   1.826   1.386   0.922  0.8321 -0.2725  0.0384
    1TMC1    O114139   1.730   0.836   1.098 -0.3308  0.2918 -0.7958
    1TMC1    O214140   1.929   1.367   0.855  0.5273 -0.6995  0.1019
    1TMC1    O314141   1.844   0.921   0.910 -0.7290  0.4857  0.1043
    1TMC1    H314142   1.833   0.995   0.847 -0.8670  0.6769  0.3542
    1TMC1    O514143   1.799   1.498   0.995  0.5228 -0.4473  0.3776
    1TMC1    H514144   1.724   1.484   1.057  0.4251 -0.7974  0.1845
    2MPD1     C14145   0.938   1.057   1.265 -0.4377 -0.3913 -0.1707
    2MPD1    C114146   1.011   0.953   1.208 -0.1006 -0.8008 -0.7191
    2MPD1    C214147   1.144   0.976   1.167  0.5269  0.3492 -0.6620
    2MPD1    C314148   1.199   1.107   1.171 -0.1541  0.3398 -0.1249
    2MPD1    C414149   1.128   1.205   1.226  0.0175  0.6351  0.0900
    2MPD1    C514150   0.999   1.181   1.262 -0.1256 -0.2440 -0.3311
    2MPD1     H14151   1.195   0.891   1.125 -0.2564 -1.7109  2.5461
    2MPD1    H114152   1.168   1.306   1.225 -0.4599  0.8295  0.6730
    2MPD1    H214153   0.834   1.050   1.294  0.4004  2.0558  3.3845
    2MPD1    H314154   0.948   1.268   1.302  1.2113 -0.3235  1.5632
    2MPD1     N14155   1.332   1.117   1.123  0.5340 -0.4163 -0.0973
    2MPD1    H514156   1.374   1.036   1.079 -1.5655 -0.4119 -2.0782
    2MPD1    N114157   0.957   0.822   1.211  0.0087  0.0378  0.0113
    2MPD1    H614158   0.998   0.769   1.135 -1.3743 -3.1078  1.4530
    2MPD1    H714159   0.857   0.832   1.194  0.1681 -1.2253 -1.6325
    1MPD1     C14160   4.344   2.802  12.336  0.5130 -0.1097 -0.1337
    1MPD1    C114161   4.299   2.827  12.211  0.0601 -0.4588 -1.2248
    1MPD1    C214162   4.329   2.947  12.152 -0.4111 -0.8556  0.1082
    1MPD1    C314163   4.402   3.039  12.225  1.1857  0.4317 -0.0884
    1MPD1    C414164   4.428   3.017  12.358  0.0215  0.1970 -0.0053
    1MPD1    C514165   4.410   2.897  12.413 -0.6137 -0.2568  0.3977
    1MPD1     H14166   4.310   2.961  12.046  0.4860 -1.7851 -0.1700
    1MPD1    H114167   4.484   3.085  12.421  1.4843  0.4635 -1.5935
    1MPD1    H214168   4.320   2.711  12.390  0.8340 -0.2026 -0.1474
    1MPD1    H314169   4.448   2.868  12.511 -0.2809 -1.0502  0.0362
    1MPD1     N14170   4.464   3.154  12.159  0.0516 -0.3769  0.5732
    1MPD1    H514171   4.468   3.141  12.058 -2.0529  2.0668  0.1840
    1MPD1    N114172   4.209   2.743  12.148  0.6201  0.5165 -0.1906
    1MPD1    H614173   4.225   2.648  12.181 -1.5669  0.4387  0.6960
    1MPD1    H714174   4.228   2.736  12.049 -0.6839  0.7834 -0.4640
    2MPD1     C14175   3.482   4.156  11.527 -0.4757 -0.5206 -0.3506
    2MPD1    C114176   3.430   4.046  11.466  0.4439  0.4776 -0.0070
    2MPD1    C214177   3.499   3.993  11.357  0.0459  0.2048 -0.3274
    2MPD1    C314178   3.616   4.053  11.309  0.5452 -0.3201  0.2189
    2MPD1    C414179   3.658   4.170  11.369  0.4083 -0.0335 -0.3860
    2MPD1    C514180   3.590   4.218  11.477  0.2007  0.4697 -0.4416
    2MPD1     H14181   3.457   3.902  11.318  0.7350 -0.5175  0.6218
    2MPD1    H114182   3.756   4.213  11.351  0.1494  0.1606 -1.2885
    2MPD1    H214183   3.439   4.192  11.620 -0.6368 -0.3483 -0.4915
    2MPD1    H314184   3.628   4.302  11.534 -1.1802  0.0747  1.0553
    2MPD1     N14185   3.687   4.002  11.196  0.6318 -0.3389  0.0862
    2MPD1    H514186   3.771   4.050  11.165  1.5354 -0.9742  1.5379
    2MPD1    N114187   3.314   3.980  11.512 -0.3308 -0.0132 -0.1222
    2MPD1    H614188   3.268   4.015  11.595  1.2324  0.5737  0.4932
    2MPD1    H714189   3.333   3.880  11.514  0.3730  0.1140 -0.4815
    3MPD1     C14190   3.271   4.011  10.384 -0.6330 -0.7468 -0.4804
    3MPD1    C114191   3.252   3.904  10.468 -0.1035  0.4219  0.2274
    3MPD1    C214192   3.359   3.865  10.550 -0.4912  0.0606  0.6882
    3MPD1    C314193   3.476   3.936  10.563  0.6947  0.2577  0.3595
    3MPD1    C414194   3.483   4.043  10.476  0.2372  0.1974  0.3542
    3MPD1    C514195   3.388   4.079  10.385  0.1182 -0.1866 -0.4706
    3MPD1     H14196   3.353   3.778  10.614  0.4057 -0.7981 -0.3820
    3MPD1    H114197   3.566   4.112  10.484 -0.8020  1.4067  0.8912
    3MPD1    H214198   3.193   4.042  10.316 -0.5956 -0.4131 -0.3715
    3MPD1    H314199   3.398   4.174  10.332  0.7686 -0.3032 -0.5619
    3MPD1     N14200   3.577   3.896  10.646 -0.8810  0.0086 -0.4340
    3MPD1    H514201   3.555   3.816  10.705 -1.6950 -0.1091 -0.9066
    3MPD1    N114202   3.146   3.815  10.435  0.2339  0.2909  0.1098
    3MPD1    H614203   3.110   3.764  10.515  0.6791  0.1261  0.2026
    3MPD1    H714204   3.065   3.872  10.408  0.5152  0.1564 -1.0181
    4MPD2     C14205   4.475   3.961  11.947  0.0600  0.0377  0.2041
    4MPD2    C114206   4.560   3.864  11.904  0.2311  0.4756  0.0697
    4MPD2    C214207   4.622   3.871  11.786  0.2318 -0.4103 -0.1599
    4MPD2    C314208   4.612   3.978  11.700 -0.0635 -0.2245 -0.5812
    4MPD2    C414209   4.526   4.082  11.740  0.2392  0.2054 -0.0620
    4MPD2    C514210   4.458   4.072  11.863 -0.4486  0.4713 -0.9509
    4MPD2     H14211   4.690   3.792  11.758  0.3660 -0.4985  0.4145
    4MPD2    H114212   4.506   4.162  11.670 -3.5926 -1.0601 -0.3900
    4MPD2    H214213   4.437   3.966  12.048  0.2192  0.4758  0.2432
    4MPD2    H314214   4.389   4.150  11.892  0.1832  0.2008  1.2992
    4MPD2     N14215   4.688   3.993  11.583 -0.4600  0.1088  0.0582
    4MPD2    H514216   4.675   4.077  11.527 -1.0948  0.5901  0.9235
    4MPD2    N114217   4.603   3.755  11.977  0.1127 -0.2179 -0.3481
    4MPD2    H714218   4.657   3.685  11.927  1.2557  0.8223 -0.5709
    5TMC3    C114219   4.632   3.599  12.134  0.8124 -0.0851  0.1105
    5TMC3    C214220   4.553   3.498  12.179 -0.2663 -0.3160  0.6027
    5TMC3    C314221   4.555   3.371  12.124  0.4412  0.7494 -0.0730
    5TMC3    C414222   4.730   3.565  12.051 -0.0065 -0.1753 -0.5803
    5TMC3    C514223   0.002   3.438  12.008 -0.3625  0.3004  0.4944
    5TMC3    C614224   4.658   3.336  12.045 -0.1102  0.1926  0.0531
    5TMC3     C14225   4.559   3.719  12.097 -0.0470  0.6638  0.7185
    5TMC3     O14226   4.484   3.773  12.179  0.4208  0.2126 -0.0811
    5TMC3     H14227   4.463   3.512  12.238 -0.6005  3.5802 -0.8627
    5TMC3    H114228   0.063   3.642  12.022 -1.2639  1.3929  0.5351
    5TMC3    H214229   4.668   3.240  11.995 -0.3509  0.2328 -0.0718
    5TMC3    C714230   0.019   3.454  11.866  0.3898 -0.6790  0.5547
    5TMC3    C814231   4.512   3.268  12.210 -0.1086 -0.9731 -0.3173
    5TMC3    O114232   4.707   3.556  11.828  0.2520 -0.4552  0.4194
    5TMC3    O214233   4.484   3.316  12.322 -0.0577  0.2194  0.2312
    6TMC3    C114234   3.741   3.869  11.009  0.3547 -0.7740 -0.5507
    6TMC3    C214235   3.683   3.868  10.884  0.0008  0.4949 -0.3963
    6TMC3    C314236   3.766   3.902  10.777  0.5703  0.7480 -0.4848
    6TMC3    C414237   3.874   3.896  11.026  0.1910  0.0575 -0.8929
    6TMC3    C514238   3.951   3.930  10.919  0.4509  0.6270  0.6905
    6TMC3    C614239   3.899   3.929  10.789 -0.0014 -0.0872  0.0528
    6TMC3     C14240   3.645   3.901  11.116 -0.4753  0.0395 -0.1985
    6TMC3     O14241   3.531   3.855  11.115 -0.2920  0.3369 -0.4119
    6TMC3     H14242   3.576   3.855  10.876  0.0549  0.1077 -0.5185
    6TMC3    H114243   3.915   3.899  11.126 -1.2670 -1.0244 -0.2592
    6TMC3    H214244   3.945   3.963  10.697 -0.0958 -1.7623 -0.6066
    6TMC3    C714245   4.097   3.912  10.932  0.6239  0.3138  0.2958
    6TMC3    C814246   3.703   3.957  10.667  0.5979 -0.5829  0.8326
    6TMC3    O114247   4.138   3.863  11.034 -0.0248  0.5254  0.6706
    6TMC3    O214248   3.756   4.057  10.620 -0.9347  0.1218  0.4275
    7MPD2     C14249   0.164   3.339  11.390 -0.0674  0.1581 -0.7637
    7MPD2    C114250   0.136   3.457  11.459 -0.2078 -0.4093  0.9675
    7MPD2    C214251   0.105   3.457  11.589  0.3138 -0.4497 -0.2774
    7MPD2    C314252   0.092   3.339  11.660 -0.3099 -0.0897  0.3365
    7MPD2    C414253   0.121   3.224  11.595 -0.3699  0.5710  0.3105
    7MPD2    C514254   0.150   3.221  11.459  0.1006  0.0695 -0.4224
    7MPD2     H14255   0.104   3.552  11.642 -2.4950 -1.1335  0.8755
    7MPD2    H114256   0.111   3.124  11.636  0.2327  0.8028  1.0072
    7MPD2    H214257   0.195   3.337  11.286  1.0098 -3.0631 -0.3960
    7MPD2    H314258   0.167   3.123  11.416  0.3476 -1.2988  2.7317
    7MPD2     N14259   0.052   3.344  11.797 -0.1659  0.0085  0.3090
    7MPD2    H514260   0.068   3.260  11.851 -1.1698 -0.6525 -0.4185
    7MPD2    N114261   0.155   3.585  11.406  0.3865  0.2469  0.3355
    7MPD2    H714262   0.136   3.659  11.473 -1.0942 -0.6744  0.9420
    8TMC3    C114263   0.167   3.752  11.243 -0.1981 -0.6386  0.3471
    8TMC3    C214264   0.070   3.764  11.149 -0.5982 -0.2990 -0.4079
    8TMC3    C314265   4.706   3.855  11.186  0.3087 -0.5689 -0.1638
    8TMC3    C414266   0.172   3.829  11.360  0.3118 -0.3910  0.3184
    8TMC3    C514267   0.076   3.915  11.391 -0.2914  0.0871  0.6513
    8TMC3    C614268   4.707   3.922  11.302  0.1098 -0.0491  0.1324
    8TMC3     C14269   0.200   3.611  11.275  0.2084 -0.2321  0.0713
    8TMC3     O14270   0.225   3.531  11.187  0.3523 -0.1441 -0.8258
    8TMC3     H14271   0.062   3.689  11.072  1.5348  0.3089 -1.2029
    8TMC3    H114272   0.254   3.819  11.430 -1.2263  2.1779  2.4471
    8TMC3    H214273   4.631   3.997  11.320 -0.7890 -0.8532 -0.2987
    8TMC3    C714274   0.041   3.901  11.529 -0.2304  0.2062  0.4662
    8TMC3    C814275   4.587   3.859  11.109  0.8361 -1.1689 -0.2416
    8TMC3    O114276   0.078   3.794  11.570  0.6012 -0.4176 -0.5643
    8TMC3    O214277   4.490   3.922  11.157 -0.0025  0.3113 -0.2581
    9MPD2     C14278   4.573   3.876  10.743 -0.2044  0.0668  0.1662
    9MPD2    C114279   4.523   3.865  10.872 -0.1952  0.6610  0.1739
    9MPD2    C214280   4.393   3.885  10.898  0.0459 -0.0681 -0.1400
    9MPD2    C314281   4.304   3.911  10.798 -0.0407 -0.1036 -0.2549
    9MPD2    C414282   4.349   3.913  10.672  0.5369  1.4438  0.1756
    9MPD2    C514283   4.483   3.909  10.642  0.3036 -0.0436 -0.4425
    9MPD2     H14284   4.361   3.859  10.998  0.2507 -1.0265 -0.3226
    9MPD2    H114285   4.284   3.947  10.593  1.2887  2.0925 -0.1647
    9MPD2    H214286   4.679   3.876  10.720 -0.1784  2.7258  0.2326
    9MPD2    H314287   4.522   3.919  10.542 -0.6639  2.1315 -0.6127
    9MPD2     N14288   4.168   3.933  10.814 -0.2567  0.5047 -0.4644
    9MPD2    H514289   4.125   3.965  10.727 -0.5433 -0.5815 -0.7156
    9MPD2    N114290   4.609   3.838  10.978  0.0733 -0.7516  0.3906
    9MPD2    H714291   4.707   3.823  10.955 -0.2330 -3.6377  0.9688
    1MPD1     C14292   3.432   1.120  17.333 -0.3748  0.4767 -0.0466
    1MPD1    C114293   3.357   1.213  17.403  0.2851 -0.3462 -0.0789
    1MPD1    C214294   3.251   1.176  17.476  0.3434  0.1569 -0.2957
    1MPD1    C314295   3.212   1.042  17.495  0.6782  0.1640  0.7322
    1MPD1    C414296   3.294   0.953  17.437  0.5979 -0.2108  0.7575
    1MPD1    C514297   3.400   0.989  17.352  0.0584  0.1908 -0.5584
    1MPD1     H14298   3.192   1.252  17.527  0.5741 -0.0895  0.3412
    1MPD1    H114299   3.280   0.847  17.458  0.6053 -0.5416 -0.9614
    1MPD1    H214300   3.515   1.143  17.267 -2.8262 -0.0901 -3.2641
    1MPD1    H314301   3.467   0.917  17.309  1.6275  0.9151  0.6844
    1MPD1     N14302   3.099   0.990  17.562 -0.7811  0.2415  0.1621
    1MPD1    H514303   3.084   0.890  17.562  1.2831 -0.0607  3.2807
    1MPD1    N114304   3.387   1.352  17.387  0.2539  0.6035 -0.0489
    1MPD1    H614305   3.485   1.377  17.374  0.6385 -0.2705  1.1701
    1MPD1    H714306   3.367   1.397  17.476 -1.7176 -1.0283  0.3220
    2TMC2    C114307   2.815   0.858   0.120  0.3224 -0.2834  0.2049
    2TMC2    C214308   2.750   0.775   0.027 -0.6301 -0.1049 -0.2008
    2TMC2    C314309   2.778   0.792  17.642  0.0884  0.3968 -0.9505
    2TMC2    C414310   2.897   0.968   0.081 -0.5414  0.8853  0.1329
    2TMC2    C514311   2.909   0.977  17.693  0.3183 -0.5071 -0.2412
    2TMC2    C614312   2.863   0.889  17.598  0.4943 -0.4290 -0.1542
    2TMC2     C14313   2.793   0.844   0.263  0.3558  0.4053 -0.3166
    2TMC2     O14314   2.777   0.944   0.326  0.0371 -0.2365  0.4393
    2TMC2     H14315   2.673   0.707   0.061 -1.5437  1.3158  0.5705
    2TMC2    H114316   2.937   1.046   0.146  0.3887  0.1555  0.4382
    2TMC2    H214317   2.874   0.907  17.491  0.5049 -0.9200 -0.2357
    2TMC2    C714318   3.009   1.066  17.634 -0.0093 -0.1733 -0.2471
    2TMC2    C814319   2.769   0.680  17.546 -0.2972 -0.1281  0.2828
    2TMC2    O114320   3.020   1.182  17.672 -0.3767  0.1172 -0.3407
    2TMC2    O214321   2.754   0.707  17.423 -0.7113  0.4233 -0.1046
    2TMC2    O514322   2.697   0.584  17.603 -0.1772 -0.8223  0.7450
    2TMC2    H514323   2.708   0.569  17.699 -1.3753  1.3410  1.2167
    3MPD1     C14324   2.861   0.604   0.708  0.0690  0.4334 -0.0043
    3MPD1    C114325   2.892   0.513   0.614  0.5345 -0.3729 -0.4984
    3MPD1    C214326   2.885   0.558   0.482  0.2696  0.0553 -0.5560
    3MPD1    C314327   2.824   0.675   0.445 -0.3439 -0.3111  0.2122
    3MPD1    C414328   2.776   0.761   0.542 -0.3670  0.2756  0.4448
    3MPD1    C514329   2.806   0.727   0.672  0.5978  0.2445 -0.8247
    3MPD1     H14330   2.913   0.495   0.398  0.7672 -0.9268  0.3427
    3MPD1    H114331   2.716   0.851   0.528  1.1471  1.0518 -1.1373
    3MPD1    H214332   2.872   0.591   0.815 -3.4060 -1.4055  0.1559
    3MPD1    H314333   2.767   0.793   0.750  1.0154  0.0966 -0.4963
    3MPD1     N14334   2.815   0.711   0.304 -0.5168 -0.2961  0.2370
    3MPD1    H514335   2.851   0.645   0.235  2.1492  1.7600 -0.3454
    3MPD1    N114336   2.969   0.402   0.649  0.2277  0.0397  0.6797
    3MPD1    H614337   2.980   0.335   0.573  0.0209 -1.3772  1.9048
    3MPD1    H714338   2.947   0.357   0.737 -1.5335  1.6378  1.0710
    1TMC1    C114339   2.054   1.352  13.890  0.1485 -0.5175  0.6073
    1TMC1    C214340   1.935   1.297  13.846  0.2827  0.0581  0.2050
    1TMC1    C314341   1.829   1.379  13.816  0.8160  1.0632  0.4133
    1TMC1    C414342   2.066   1.485  13.911  0.0351 -0.6694  0.4752
    1TMC1    C514343   1.959   1.562  13.882  0.9990  0.0996 -0.2382
    1TMC1    C614344   1.837   1.515  13.842  0.4378  0.4508  0.6064
    1TMC1     C14345   2.170   1.272  13.904  0.3941  0.3746  0.0828
    1TMC1     O14346   2.271   1.336  13.870 -0.1756  0.1128 -0.0561
    1TMC1     H14347   1.931   1.189  13.833  0.8077  0.2663 -1.6756
    1TMC1    H114348   2.152   1.532  13.958 -1.0568 -0.0020  1.8190
    1TMC1    H214349   1.759   1.585  13.812 -0.6979 -1.8886 -1.9592
    1TMC1    C714350   1.970   1.705  13.885  0.2065 -0.4646 -0.1384
    1TMC1    C814351   1.696   1.320  13.799 -0.5710 -0.4729  0.6507
    1TMC1    O114352   1.874   1.776  13.908 -0.3728  0.3828  0.5535
    1TMC1    O214353   1.683   1.202  13.771  0.1690 -0.3008  0.6865
    1TMC1    O314354   2.081   1.726  13.815 -0.0974 -0.8761  0.0511
    1TMC1    H314355   2.099   1.646  13.762 -2.8260 -0.8311 -0.9392
    1TMC1    O514356   1.620   1.392  13.889  0.3879 -0.1072  0.0997
    1TMC1    H514357   1.636   1.489  13.885 -2.3234  0.3599  0.4066
    2MPD2     C14358   2.370   1.060  13.920  0.6573 -0.6969  0.1409
    2MPD2    C114359   2.242   1.039  13.950 -0.6848  0.1028  0.4506
    2MPD2    C214360   2.200   0.915  13.997 -0.3621  0.4902  0.0838
    2MPD2    C314361   2.293   0.811  14.017  0.0265  0.3582 -0.1752
    2MPD2    C414362   2.427   0.836  13.990 -0.1000  0.3437  0.0802
    2MPD2    C514363   2.464   0.963  13.944 -1.0445  0.0430  0.2416
    2MPD2     H14364   2.094   0.895  14.001 -0.1881 -0.0715  1.9427
    2MPD2    H114365   2.512   0.776  14.020  1.5555  3.3135  1.2626
    2MPD2    H214366   2.408   1.147  13.868  0.3329 -0.2352  0.6811
    2MPD2    H314367   2.570   0.973  13.923 -0.7497 -1.2419  1.0920
    2MPD2     N14368   2.250   0.697  14.085  0.3314  0.1650  0.3287
    2MPD2    H514369   2.155   0.690  14.119  0.9040  1.9416  2.2603
    2MPD2    N114370   2.145   1.141  13.928 -0.8746  0.1486  0.2353
    2MPD2    H714371   2.048   1.111  13.935 -0.9808  0.7600  1.4542
    3TCq1    O114372   2.460   0.167  14.490 -0.6596  0.2217  0.5077
    3TCq1    C114373   2.488   0.292  14.438 -0.7542  0.5526 -0.3151
    3TCq1    O214374   2.596   0.347  14.456  0.1566 -0.1807 -0.0371
    3TCq1    C214375   2.375   0.343  14.365 -0.6638 -0.3419 -1.1242
    3TCq1    C314376   2.256   0.336  14.429 -1.0163  0.0000  0.7463
    3TCq1    C414377   2.156   0.414  14.374 -0.1171 -0.5555 -0.6347
    3TCq1    C514378   2.171   0.500  14.269  0.0238  0.8565 -0.6347
    3TCq1    C614379   2.295   0.505  14.217 -0.2714 -0.4832 -0.0702
    3TCq1    C714380   2.402   0.428  14.263  0.1558 -0.2601 -0.1896
    3TCq1    C814381   2.344   0.602  14.116 -0.2602 -0.0708  0.0903
    3TCq1    O414382   2.448   0.569  14.061  0.3127  0.4099  0.1510
    3TCq1    C914383   2.034   0.411  14.449  0.0584  0.1253  0.1319
    3TCq1    O514384   2.038   0.351  14.559  0.3782 -0.1171  0.1443
    3TCq1    O614385   1.949   0.491  14.409 -0.0843 -0.1447  0.2853
    3TCq1    H114386   2.384   0.132  14.439  0.7354 -1.3548 -0.4825
    3TCq1    H214387   2.235   0.266  14.510  0.4198  1.6959  2.5693
    3TCq1    H314388   2.086   0.564  14.245  1.4960  3.0676 -0.0057
    3TCq1    H414389   2.505   0.443  14.234  0.2916  2.0926  1.5266
    1MPD2     C14390   1.964   2.226  15.029  0.9135  0.1113  0.1056
    1MPD2    C114391   1.868   2.137  15.060 -0.8055 -0.0341  0.6702
    1MPD2    C214392   1.903   2.006  15.039 -0.7193  0.1645  0.2727
    1MPD2    C314393   2.026   1.962  15.006  0.1295  0.3877  0.2187
    1MPD2    C414394   2.130   2.051  14.977 -0.4462 -0.2319 -0.3010
    1MPD2    C514395   2.093   2.183  14.992  0.0374  0.1053 -0.1093
    1MPD2     H14396   1.824   1.935  15.060  2.7773 -4.2559 -1.5027
    1MPD2    H114397   2.232   2.030  14.948 -0.3868  1.1014 -1.0394
    1MPD2    H214398   1.946   2.333  15.035  0.4982  0.0714 -0.4467
    1MPD2    H314399   2.169   2.252  14.960 -0.4290  0.7958  0.2523
    1MPD2     N14400   2.027   1.824  14.981 -0.2577  0.1585 -0.0195
    1MPD2    H514401   1.942   1.772  14.997  0.1965 -1.3505 -2.4709
    1MPD2    N114402   1.739   2.187  15.112  0.0097  0.3595  0.2703
    1MPD2    H714403   1.712   2.282  15.089  0.0153  0.2325 -0.2591
    2TMC3    C114404   1.513   2.168  15.189 -0.4667 -0.6776 -0.9249
    2TMC3    C214405   1.429   2.080  15.245  0.3549 -0.5706 -0.0650
    2TMC3    C314406   1.304   2.072  15.199 -0.0262  0.2478  0.3568
    2TMC3    C414407   1.467   2.262  15.105 -0.0011  0.9632 -0.3181
    2TMC3    C514408   1.336   2.258  15.067 -0.3025 -0.7615  0.6683
    2TMC3    C614409   1.256   2.153  15.100 -0.1750 -0.2046 -0.5146
    2TMC3     C14410   1.639   2.104  15.164 -0.0791  0.8731  0.1195
    2TMC3     O14411   1.630   1.981  15.181  0.3068 -0.0316 -0.1985
    2TMC3     H14412   1.458   2.017  15.329  0.3869  0.9948  1.0952
    2TMC3    H114413   1.534   2.323  15.045  1.9077 -0.8672 -0.0339
    2TMC3    H214414   1.162   2.127  15.053  0.0159 -2.3219  0.2505
    2TMC3    C714415   1.275   2.356  14.985 -0.4526 -0.6288  0.5254
    2TMC3    C814416   1.266   1.937  15.177 -0.6477 -0.0503 -0.2408
    2TMC3    O114417   1.167   2.330  14.936  0.1487  0.5663 -0.5015
    2TMC3    O214418   1.152   1.906  15.163  0.6671  0.3437  0.1120
    3TCq1    O114419   1.835   3.238  15.181 -0.5747 -0.1034  0.2858
    3TCq1    C114420   1.726   3.295  15.121 -0.0570 -0.0461  0.7760
    3TCq1    O214421   1.623   3.327  15.177  0.4848  0.1030 -0.1145
    3TCq1    C214422   1.727   3.218  14.997  0.0013 -1.1313  0.5125
    3TCq1    C314423   1.837   3.207  14.916 -0.1090 -0.5718 -0.1681
    3TCq1    C414424   1.820   3.161  14.786 -0.3208  0.0163 -0.3692
    3TCq1    C514425   1.708   3.101  14.738 -1.0043  0.3166  0.0669
    3TCq1    C614426   1.602   3.101  14.828  0.4342  0.0990  0.5221
    3TCq1    C714427   1.604   3.160  14.952 -0.3323 -0.3733 -0.4476
    3TCq1    C814428   1.486   3.026  14.785 -0.0377  1.0497  0.5359
    3TCq1    O414429   1.450   3.022  14.667  0.1795 -0.1257  0.3067
    3TCq1    C914430   1.933   3.169  14.696  0.3932 -0.2539 -0.0697
    3TCq1    O514431   1.910   3.154  14.573  0.0295  0.7492  0.2851
    3TCq1    O614432   2.042   3.208  14.744 -0.2464 -0.1390 -0.1682
    3TCq1    H114433   1.897   3.191  15.121  0.1342  1.5409 -0.2796
    3TCq1    H214434   1.934   3.243  14.947 -0.1276 -0.2948 -0.4398
    3TCq1    H314435   1.702   3.077  14.633  1.3119 -0.5310  0.1249
    3TCq1    H414436   1.519   3.145  15.018 -1.0163  2.3743 -0.6999
    4MPD2     C14437   1.286   2.813  14.756 -0.0051  0.4987 -0.5112
    4MPD2    C114438   1.391   2.808  14.853  0.1900  0.3703 -0.3574
    4MPD2    C214439   1.403   2.694  14.929 -0.3649 -0.0688 -0.1696
    4MPD2    C314440   1.325   2.586  14.910  0.4891  0.7218 -0.0939
    4MPD2    C414441   1.222   2.595  14.815  0.2481  0.3659 -0.5142
    4MPD2    C514442   1.197   2.708  14.749 -0.4880  0.4948 -0.1280
    4MPD2     H14443   1.491   2.680  14.991  0.2954  1.8844 -0.6907
    4MPD2    H114444   1.166   2.508  14.782 -0.3280 -0.6713  3.1086
    4MPD2    H214445   1.260   2.900  14.697  1.9410  0.9637 -0.6709
    4MPD2    H314446   1.114   2.718  14.680  0.5453 -2.0075 -1.7536
    4MPD2     N14447   1.354   2.468  14.977  0.5541 -0.5792 -1.1394
    4MPD2    H514448   1.448   2.462  15.014 -0.4065  0.9132  1.5275
    4MPD2    N114449   1.480   2.918  14.869 -0.2604  0.0896 -0.6311
    4MPD2    H714450   1.542   2.921  14.949  0.8358 -1.8784 -1.4220
    5TMC2    C114451   1.873   1.497  14.919 -0.6321 -0.5412 -0.5680
    5TMC2    C214452   1.913   1.409  15.014 -0.3110 -0.1348  0.0447
    5TMC2    C314453   2.041   1.419  15.060 -0.1026  0.1543  0.8450
    5TMC2    C414454   1.963   1.593  14.880  0.0079  0.6883  0.3521
    5TMC2    C514455   2.086   1.608  14.937 -0.2050 -0.1168 -0.6027
    5TMC2    C614456   2.121   1.526  15.034  0.3282 -0.4509 -0.3480
    5TMC2     C14457   1.757   1.571  14.968  0.3316  0.5102 -0.1891
    5TMC2     O14458   1.772   1.692  14.975  0.3724  0.5570  0.3022
    5TMC2     H14459   1.854   1.326  15.049  0.9601 -1.4238 -0.8389
    5TMC2    H114460   1.929   1.666  14.807 -0.4165 -0.6333 -0.7755
    5TMC2    H214461   2.214   1.550  15.085 -0.1316  1.9279 -0.6464
    5TMC2    C714462   2.134   1.741  14.960 -0.0887  0.3051  0.2617
    5TMC2    C814463   2.071   1.329  15.172 -0.2741 -0.0785  0.1369
    5TMC2    O114464   2.258   1.769  14.961  0.0483 -0.2753  0.1870
    5TMC2    O214465   1.985   1.294  15.252  0.3132 -0.3920  0.3546
    5TMC2    O514466   2.192   1.370  15.197 -0.2945 -0.0840 -0.4167
    5TMC2    H514467   2.248   1.378  15.117  0.4783  0.2341  0.1487
    6MPD2     C14468   1.280   1.626  15.132  0.0236  0.1788  0.6484
    6MPD2    C114469   1.385   1.718  15.132  0.4430 -0.5529  0.0968
    6MPD2    C214470   1.505   1.670  15.091  0.2492 -0.0354  0.2310
    6MPD2    C314471   1.533   1.536  15.061  0.6690 -0.5676 -0.0304
    6MPD2    C414472   1.427   1.442  15.072  0.0171  0.6320 -0.1803
    6MPD2    C514473   1.299   1.491  15.102 -0.7731  0.2335 -0.5028
    6MPD2     H14474   1.581   1.745  15.076 -0.0547 -0.2597 -2.4651
    6MPD2    H114475   1.432   1.334  15.060 -1.5074  0.5078  0.3023
    6MPD2    H214476   1.178   1.659  15.152 -0.0029 -0.1046  0.9722
    6MPD2    H314477   1.211   1.427  15.105  1.0778 -2.3690 -1.4857
    6MPD2     N14478   1.655   1.491  15.010 -0.1659  0.1532 -0.8401
    6MPD2    H514479   1.659   1.391  14.994 -1.3927 -0.1284  0.6206
    6MPD2    N114480   1.379   1.858  15.153  0.5031  0.2069 -0.2306
    6MPD2    H714481   1.469   1.903  15.145 -0.2655  1.3712 -2.1995
  945NH3     N114482   0.495   3.068  11.071 -0.1518  0.0746 -0.1353
  945NH3     H214483   0.497   3.028  11.164  1.1050 -0.5682 -0.4449
  945NH3     H314484   0.496   3.166  11.096 -1.4637  0.2063 -0.5436
  945NH3     H414485   0.588   3.050  11.036  0.3158  2.4248 -0.0936
  946SOD     NA14486   1.315   1.082  14.695  0.1263  0.0208  0.0861
  947SOD     NA14487   1.328   2.090  13.090 -0.3942 -0.1044  0.3721
  948SOD     NA14488   2.299   1.360   0.003 -0.2661 -0.0845 -0.2656
  949SOD     NA14489   2.974   2.379  11.411 -0.3689  0.0527 -0.0580
  950SOD     NA14490   0.175   1.065   5.143  0.3723  0.3267 -0.2260
  951SOD     NA14491   1.171   0.094  16.376 -0.3025  0.0569  0.0357
  952SOD     NA14492   2.223   1.862  15.508  0.2704  0.1141  0.2186
  953SOD     NA14493   3.804   2.129  15.178  0.1099 -0.4944  0.5584
  954SOL     OW14494   3.030   0.204   4.492 -0.2174 -0.5137 -0.4017
  954SOL    HW114495   3.088   0.267   4.449  0.7973 -1.1792 -0.0195
  954SOL    HW214496   2.967   0.254   4.543  0.4696  0.6876 -0.7445
  955SOL     OW14497   4.125   0.248   1.616 -0.1342  0.1921 -0.3907
  955SOL    HW114498   4.115   0.193   1.694 -3.3699  0.3206 -0.6993
  955SOL    HW214499   4.035   0.238   1.585 -0.3605  0.4730  0.1828
  956SOL     OW14500   1.561   0.898   1.909 -0.1042 -0.3000 -0.6126
  956SOL    HW114501   1.475   0.855   1.914 -0.1591 -0.1058  0.0995
  956SOL    HW214502   1.581   0.889   2.002  0.9144  0.5844 -0.7522
  957SOL     OW14503   0.240   3.318   2.427 -0.3386 -0.3843  0.0724
  957SOL    HW114504   0.330   3.338   2.453 -0.3463 -0.6203  0.2895
  957SOL    HW214505   0.252   3.232   2.387  0.4105  0.3646 -1.2863
  958SOL     OW14506   1.892   2.588   1.148 -0.4911  0.2613  0.1903
  958SOL    HW114507   1.878   2.614   1.057 -0.7081 -0.1053  0.1170
  958SOL    HW214508   1.877   2.670   1.195 -1.2131  0.1789  0.1029
  959SOL     OW14509   4.245   2.017   7.655  0.1268  0.8354  0.7530
  959SOL    HW114510   4.185   2.077   7.612  0.0856  1.4421  1.6573
  959SOL    HW214511   4.286   2.070   7.724  3.5164  1.0036 -1.3976
  960SOL     OW14512   0.883   2.575  10.580 -0.3077  0.8655  0.1162
  960SOL    HW114513   0.932   2.647  10.540  0.2675  0.7946  0.7003
  960SOL    HW214514   0.836   2.616  10.653  0.4521 -1.7525  2.0742
  961SOL     OW14515   2.182   3.966  16.504  0.2285  0.4632  0.0747
  961SOL    HW114516   2.225   4.050  16.518 -1.1637  0.9476  1.5493
  961SOL    HW214517   2.250   3.908  16.538 -2.4329 -2.2035  0.9030
  962SOL     OW14518   1.354   0.634   9.030 -0.3400  0.1322 -0.6464
  962SOL    HW114519   1.317   0.707   9.080  1.5236 -0.8300  2.0942
  962SOL    HW214520   1.269   0.593   9.012  0.2218 -1.0250 -0.6144
  963SOL     OW14521   0.281   2.758  15.567 -0.3385  0.5066  0.0737
  963SOL    HW114522   0.215   2.813  15.525 -2.9314 -1.7021  1.2645
  963SOL    HW214523   0.333   2.731  15.492 -1.0789  0.7848 -0.5392
  964SOL     OW14524   1.457   4.114  14.680 -0.2051 -0.6206  0.0685
  964SOL    HW114525   1.504   4.101  14.763 -1.9412 -1.1410  0.9651
  964SOL    HW214526   1.376   4.069  14.704 -1.3776  0.7420 -1.3922
  965SOL     OW14527   2.609   1.285   2.178  0.0989  0.0066  0.3662
  965SOL    HW114528   2.547   1.308   2.109 -0.3781 -0.9994  0.4594
  965SOL    HW214529   2.584   1.358   2.234  2.9014  2.0270 -1.0652
  966SOL     OW14530   1.688   1.823   9.516  0.2807 -0.5088 -0.4325
  966SOL    HW114531   1.781   1.844   9.504  0.8979 -2.5410  0.6355
  966SOL    HW214532   1.678   1.817   9.611  1.4148 -2.2268 -0.4072
  967SOL     OW14533   4.280   1.115   8.894  0.1168 -0.3866 -0.2618
  967SOL    HW114534   4.361   1.073   8.865  0.7124 -0.8444  2.1016
  967SOL    HW214535   4.220   1.043   8.914 -0.0882  0.8410  3.3773
  968SOL     OW14536   3.952   3.586   9.159 -0.5266  0.3515  0.1415
  968SOL    HW114537   3.977   3.519   9.223 -1.5228 -0.0384  0.1233
  968SOL    HW214538   4.036   3.623   9.132 -0.2045 -0.2003  0.3734
  969SOL     OW14539   1.554   1.524  11.075  0.5494 -0.0709  0.5571
  969SOL    HW114540   1.539   1.613  11.107  0.0435  0.0199  0.0527
  969SOL    HW214541   1.592   1.544  10.990 -1.1601 -1.6773 -0.5952
  970SOL     OW14542   3.111   2.901  17.204  0.0605  0.2067 -0.5740
  970SOL    HW114543   3.040   2.871  17.147 -1.8590  1.9050  0.9203
  970SOL    HW214544   3.130   2.986  17.165 -0.4753  0.9477  0.8069
  971SOL     OW14545   0.750   2.173  11.077 -0.8443 -0.3542  0.0840
  971SOL    HW114546   0.694   2.251  11.075  0.8233  0.8475  1.2308
  971SOL    HW214547   0.829   2.196  11.029 -1.8656  0.8169 -1.0336
  972SOL     OW14548   4.381   1.863   4.649 -0.0553  0.0562 -0.3588
  972SOL    HW114549   4.411   1.943   4.693  0.9401  0.0039 -0.9217
  972SOL    HW214550   4.292   1.892   4.629  0.4654  0.2945 -2.3383
  973SOL     OW14551   4.213   2.510   0.579  0.1336  0.5520 -0.0056
  973SOL    HW114552   4.149   2.549   0.638 -0.4813  0.0651 -0.3477
  973SOL    HW214553   4.228   2.580   0.514 -0.5847 -0.8956 -1.7325
  974SOL     OW14554   3.110   0.467  10.016 -0.1109 -0.2790  0.0173
  974SOL    HW114555   3.045   0.461  10.086 -0.4624  1.4562 -0.1634
  974SOL    HW214556   3.187   0.494  10.066  0.2270  0.4088 -0.8874
  975SOL     OW14557   0.719   0.392   4.585  0.0157 -0.0871  0.3564
  975SOL    HW114558   0.719   0.313   4.638  2.4247 -0.8316 -0.7846
  975SOL    HW214559   0.640   0.438   4.613 -0.3367  0.2450 -1.1918
  976SOL     OW14560   2.680   4.720   0.239 -0.4189 -0.1580 -0.4228
  976SOL    HW114561   2.590   0.011   0.256 -0.6566 -0.2233 -1.5943
  976SOL    HW214562   2.697   4.670   0.318  1.2130  0.0435 -0.6539
  977SOL     OW14563   3.119   2.893   6.427 -0.1762  0.7857  0.0564
  977SOL    HW114564   3.201   2.942   6.427  0.2015  0.1495  1.0772
  977SOL    HW214565   3.099   2.859   6.340 -0.9758  0.0882  0.5269
  978SOL     OW14566   1.605   4.635   4.922  0.4934  0.0160 -0.6026
  978SOL    HW114567   1.511   4.623   4.925  0.3919  1.3606  2.1366
  978SOL    HW214568   1.622   4.729   4.909  1.5855 -0.2990 -1.4432
  979SOL     OW14569   2.632   3.138  13.250  0.4128 -0.1630  0.2846
  979SOL    HW114570   2.539   3.149  13.228 -0.2712 -3.0981  1.7543
  979SOL    HW214571   2.668   3.098  13.171 -2.1574 -0.6013 -0.6774
  980SOL     OW14572   3.406   3.327   5.502  0.2797  0.0002  0.3812
  980SOL    HW114573   3.344   3.385   5.459  0.9431 -0.8802 -1.7426
  980SOL    HW214574   3.457   3.388   5.554  1.4420  0.3909 -1.2290
  981SOL     OW14575   1.493   4.165   8.598 -0.1016 -0.3201  0.6292
  981SOL    HW114576   1.454   4.193   8.681  1.9991  1.3723  1.0545
  981SOL    HW214577   1.420   4.119   8.556 -1.5236  0.7255  1.9423
  982SOL     OW14578   3.143   3.267   4.960  0.6522 -0.4078 -0.7373
  982SOL    HW114579   3.216   3.317   4.925  0.7854 -0.0881 -0.0046
  982SOL    HW214580   3.155   3.180   4.921 -0.6872 -0.0811 -1.8961
  983SOL     OW14581   2.101   2.089   5.724  0.3315 -0.7979  0.3681
  983SOL    HW114582   2.105   2.179   5.756 -1.3590 -0.1839 -1.1605
  983SOL    HW214583   2.106   2.098   5.629 -0.9580  1.1007  0.4821
  984SOL     OW14584   1.082   3.423   2.557  0.4253 -0.4390 -0.3726
  984SOL    HW114585   1.051   3.347   2.607 -2.0517  1.3657  0.7988
  984SOL    HW214586   1.038   3.490   2.609 -0.1450 -1.5794  0.6300
  985SOL     OW14587   0.445   4.527   4.212 -0.1426  0.6853  0.0584
  985SOL    HW114588   0.524   4.495   4.169 -1.1346 -0.5396 -0.8449
  985SOL    HW214589   0.392   4.550   4.135 -1.3274 -2.4341 -0.0704
  986SOL     OW14590   3.583   1.948  16.124  0.2840  0.0070 -0.0389
  986SOL    HW114591   3.676   1.965  16.139  0.2034  1.1331 -0.8212
  986SOL    HW214592   3.555   2.026  16.076 -2.5903 -1.3902 -0.6222
  987SOL     OW14593   1.105   0.822   8.703 -0.0789 -0.3050 -0.1651
  987SOL    HW114594   1.066   0.884   8.641  0.3946 -0.1648 -0.3213
  987SOL    HW214595   1.048   0.855   8.772  1.3460  2.7470 -0.4364
  988SOL     OW14596   2.091   1.032  10.530  0.2054  0.5805  0.7033
  988SOL    HW114597   2.056   1.114  10.564  1.9505  1.6807 -0.1490
  988SOL    HW214598   2.170   1.059  10.483  0.3842  0.2599  0.8214
  989SOL     OW14599   0.477   4.409   6.699  0.5614 -0.8549  0.0756
  989SOL    HW114600   0.569   4.396   6.724  0.6971  1.0836  0.5927
  989SOL    HW214601   0.468   4.340   6.634  1.4401  0.7666 -1.7683
  990SOL     OW14602   1.722   2.971   7.164 -0.1411  0.3307  0.3203
  990SOL    HW114603   1.799   2.968   7.107 -0.3076  1.5906  0.0170
  990SOL    HW214604   1.712   2.880   7.193  0.2869  0.1585 -0.0812
  991SOL     OW14605   0.023   2.418  17.487  0.7521  0.2477 -0.1496
  991SOL    HW114606   0.108   2.384  17.515 -0.5728 -0.4829  2.9600
  991SOL    HW214607   4.702   2.387  17.556  0.1123 -2.0153 -1.7258
  992SOL     OW14608   4.379   0.714  17.229 -0.2119 -0.1969  0.4176
  992SOL    HW114609   4.329   0.668  17.161 -1.0075  1.0298  0.1814
  992SOL    HW214610   4.399   0.649  17.297 -2.0566 -1.3207 -0.0984
  993SOL     OW14611   3.865   3.545   2.207  0.1238 -0.1207  0.2030
  993SOL    HW114612   3.865   3.639   2.225  1.6124 -0.5349  2.3392
  993SOL    HW214613   3.779   3.522   2.242  0.4673 -1.3075  0.2626
  994SOL     OW14614   3.708   3.203   2.680  0.0505 -0.2731 -0.1420
  994SOL    HW114615   3.797   3.230   2.703 -0.9423  1.2324  1.9423
  994SOL    HW214616   3.708   3.219   2.586 -1.1708  0.1341 -0.0707
  995SOL     OW14617   4.524   0.325  17.539  0.0499  0.1051 -0.2225
  995SOL    HW114618   4.500   0.236  17.515 -1.7927 -0.1743  2.5307
  995SOL    HW214619   4.476   0.338  17.621 -0.4055  0.1512 -0.4978
  996SOL     OW14620   2.073   4.736   9.571 -0.2453 -0.3358  0.6763
  996SOL    HW114621   2.081   4.719   9.665 -2.9219 -0.4872  0.8897
  996SOL    HW214622   2.074   4.653   9.525  2.1839 -0.0800  0.2955
  997SOL     OW14623   3.440   0.775   5.817 -0.4642 -0.3191  0.3809
  997SOL    HW114624   3.462   0.812   5.732 -0.3743 -1.0695  0.0747
  997SOL    HW214625   3.353   0.815   5.823  0.1795  0.8830  1.7039
  998SOL     OW14626   0.750   1.735   8.240 -0.0072  0.0375  0.0032
  998SOL    HW114627   0.717   1.660   8.288  0.2781 -0.5877 -0.7690
  998SOL    HW214628   0.843   1.710   8.235 -0.2495 -0.8252 -0.1262
  999SOL     OW14629   0.642   1.889   6.654  0.0223 -0.1002 -0.8711
  999SOL    HW114630   0.625   1.797   6.636  0.9766 -0.8722  2.0278
  999SOL    HW214631   0.565   1.924   6.700 -0.6728 -1.6949 -0.8463
 1000SOL     OW14632   0.906   0.788   9.961 -0.3230  0.2092 -0.6123
 1000SOL    HW114633   0.849   0.796  10.038  1.1944 -0.8837  0.6354
 1000SOL    HW214634   0.987   0.805  10.009 -1.2467 -2.7648  2.0066
 1001SOL     OW14635   1.041   0.253  15.168  0.0654 -0.1572  0.5370
 1001SOL    HW114636   1.065   0.292  15.084 -0.6192  1.1743  0.9488
 1001SOL    HW214637   0.993   0.174  15.145  1.9010 -1.0365 -0.3304
 1002SOL     OW14638   1.916   3.398  14.207 -0.9198  0.2276  0.9276
 1002SOL    HW114639   1.958   3.344  14.274 -2.8369 -0.5553  1.4679
 1002SOL    HW214640   1.965   3.480  14.210  1.5156 -1.0066 -4.4392
 1003SOL     OW14641   0.520   4.121  13.165 -0.1890  0.8555  0.3773
 1003SOL    HW114642   0.593   4.146  13.221  0.5522  1.4963 -0.8697
 1003SOL    HW214643   0.569   4.130  13.083 -1.9515  0.4057 -0.7321
 1004SOL     OW14644   3.335   0.731   2.772 -0.1050 -0.2282 -0.0995
 1004SOL    HW114645   3.316   0.811   2.822 -1.6146 -3.7037  4.8873
 1004SOL    HW214646   3.251   0.701   2.738  0.1432 -1.1809  0.1464
 1005SOL     OW14647   3.565   2.198   6.091  0.0695  0.0592 -0.0155
 1005SOL    HW114648   3.499   2.166   6.152  0.6689  1.5973  1.4522
 1005SOL    HW214649   3.512   2.242   6.024 -2.0101 -1.6962  0.4794
 1006SOL     OW14650   3.105   1.838   1.944  0.3710 -0.0910  0.1996
 1006SOL    HW114651   3.114   1.847   2.039  0.0895  0.0325  0.2130
 1006SOL    HW214652   3.195   1.833   1.910  0.6853  2.7277  0.5972
 1007SOL     OW14653   0.736   0.826   2.494 -0.4223 -0.3653  0.1174
 1007SOL    HW114654   0.688   0.899   2.456  1.0668 -0.5148 -2.0376
 1007SOL    HW214655   0.823   0.864   2.489 -0.2164 -0.3710  3.2201
 1008SOL     OW14656   2.253   3.407   3.558  0.2781  0.0889  0.2873
 1008SOL    HW114657   2.254   3.430   3.651 -1.6540  0.4408  0.2180
 1008SOL    HW214658   2.210   3.322   3.558  1.4222 -0.4891  2.6190
 1009SOL     OW14659   4.389   0.854  11.777 -0.3993  0.1564 -0.1099
 1009SOL    HW114660   4.386   0.766  11.739 -1.6082  0.4699 -0.7290
 1009SOL    HW214661   4.441   0.833  11.855 -0.0638 -1.6923 -0.8426
 1010SOL     OW14662   3.637   3.939  12.777 -0.2240 -0.2600 -0.3872
 1010SOL    HW114663   3.544   3.954  12.794  0.6153  1.3456  2.7579
 1010SOL    HW214664   3.633   3.954  12.683 -0.9754  0.2511 -0.2759
 1011SOL     OW14665   4.530   0.287   4.681 -0.0055 -0.1932  0.4918
 1011SOL    HW114666   4.605   0.227   4.688  2.0920  2.4563  0.4709
 1011SOL    HW214667   4.530   0.330   4.767  0.7549  2.0800 -0.6522
 1012SOL     OW14668   0.844   4.286  10.891 -0.0887  0.3400 -0.6161
 1012SOL    HW114669   0.937   4.299  10.907  0.3464 -3.1058 -0.3084
 1012SOL    HW214670   0.843   4.192  10.877  2.5623  0.0858  0.9043
 1013SOL     OW14671   0.678   3.637   9.335  0.1219  0.2500  0.2971
 1013SOL    HW114672   0.676   3.728   9.308 -0.9389  0.7289  2.0011
 1013SOL    HW214673   0.617   3.598   9.273  0.7484 -2.4630  1.3818
 1014SOL     OW14674   4.267   1.886   3.401 -0.2539  0.0642  0.1879
 1014SOL    HW114675   4.349   1.920   3.437  0.1677  0.0699 -0.7740
 1014SOL    HW214676   4.237   1.962   3.351 -0.6416  0.2980  0.7753
 1015SOL     OW14677   1.974   1.869   0.214  0.1391  0.4268  0.1486
 1015SOL    HW114678   1.909   1.938   0.200 -0.0350  0.3675  0.6540
 1015SOL    HW214679   2.041   1.923   0.257  1.0256 -0.2058 -0.4327
 1016SOL     OW14680   0.666   4.407  10.173  0.0157 -0.4082 -0.1983
 1016SOL    HW114681   0.740   4.372  10.224 -0.7163  1.2058  1.9990
 1016SOL    HW214682   0.707   4.480  10.127 -3.0115  0.7107 -1.1154
 1017SOL     OW14683   4.310   4.032  13.509  0.5874  0.4784  0.2571
 1017SOL    HW114684   4.244   4.069  13.567 -1.5093 -1.7561 -0.7123
 1017SOL    HW214685   4.262   3.971  13.454  1.9566  0.3128 -0.7501
 1018SOL     OW14686   3.528   3.831  17.055  0.8421 -0.4973 -0.2341
 1018SOL    HW114687   3.580   3.757  17.085  1.8653  0.4937  0.4500
 1018SOL    HW214688   3.442   3.793  17.043  0.4692  0.0418  0.7737
 1019SOL     OW14689   1.551   2.969   5.021  0.2977 -0.2472  0.0734
 1019SOL    HW114690   1.601   3.050   5.019 -1.6558  0.8683 -2.4848
 1019SOL    HW214691   1.542   2.937   4.932  2.8875 -0.9711  0.0788
 1020SOL     OW14692   1.497   1.046   2.535 -0.1320  0.1890 -0.1128
 1020SOL    HW114693   1.567   0.980   2.538 -0.6888 -0.3702  0.8213
 1020SOL    HW214694   1.497   1.075   2.444  0.3416 -1.0176 -0.5019
 1021SOL     OW14695   3.348   0.892   9.806  0.5861  0.2093  0.5029
 1021SOL    HW114696   3.410   0.820   9.815 -0.9295 -0.9087  1.8851
 1021SOL    HW214697   3.378   0.945   9.880  1.5432  1.2152 -0.5955
 1022SOL     OW14698   1.369   4.569  11.337  0.2460 -0.5260 -0.1425
 1022SOL    HW114699   1.380   4.527  11.252 -0.6182 -0.9197 -0.0601
 1022SOL    HW214700   1.291   4.620  11.314  1.6178  2.0447  0.8993
 1023SOL     OW14701   4.616   2.275   9.350 -0.8207  0.2504 -0.6364
 1023SOL    HW114702   4.602   2.305   9.260  0.2727 -1.5148 -1.3811
 1023SOL    HW214703   4.526   2.252   9.374 -0.3010 -0.0983  0.9569
 1024SOL     OW14704   3.316   4.673   6.683  0.4114 -0.4946  0.3920
 1024SOL    HW114705   3.241   4.615   6.674  0.0326  0.3620 -2.0688
 1024SOL    HW214706   3.311   4.692   6.777 -0.3337  0.1645  0.2201
 1025SOL     OW14707   3.867   4.379  13.619 -0.1351 -0.1299 -0.0028
 1025SOL    HW114708   3.903   4.359  13.532  0.8244  1.2627  0.0626
 1025SOL    HW214709   3.869   4.299  13.670 -0.0439  1.0376  1.8119
 1026SOL     OW14710   0.290   3.653  16.650  0.4776 -0.3174 -0.0498
 1026SOL    HW114711   0.205   3.690  16.627  1.0949  0.7261 -0.6576
 1026SOL    HW214712   0.258   3.563  16.649  0.4946 -0.3097 -1.5731
 1027SOL     OW14713   2.725   1.690  15.386  0.2765 -0.2217  0.4803
 1027SOL    HW114714   2.689   1.680  15.298 -0.0942  1.4641  0.4592
 1027SOL    HW214715   2.666   1.626  15.426 -1.0905  0.9365  0.3247
 1028SOL     OW14716   3.546   1.740   5.328  0.3013 -0.2078 -0.3752
 1028SOL    HW114717   3.638   1.719   5.337  0.1188 -0.0708  1.7205
 1028SOL    HW214718   3.549   1.768   5.236 -1.9912  0.5782 -0.2310
 1029SOL     OW14719   3.403   2.013   3.312  0.6276  0.3130  0.0197
 1029SOL    HW114720   3.439   1.989   3.226 -1.0675  2.2271 -1.2208
 1029SOL    HW214721   3.333   2.072   3.285 -0.2293 -1.0329 -0.7351
 1030SOL     OW14722   4.353   0.262  14.068 -0.3352  0.4844  0.0230
 1030SOL    HW114723   4.395   0.233  14.149  0.9655  1.6417 -0.2458
 1030SOL    HW214724   4.261   0.241  14.084 -0.3733 -0.3618 -1.3718
 1031SOL     OW14725   4.058   3.107  12.687  0.5086 -0.6537 -0.0688
 1031SOL    HW114726   4.056   3.027  12.634 -1.9424 -0.1907 -0.6991
 1031SOL    HW214727   4.134   3.158  12.660  0.9957 -0.6120  1.3968
 1032SOL     OW14728   1.958   3.839   6.443 -0.2295 -0.1561  0.2928
 1032SOL    HW114729   1.914   3.776   6.386 -0.5942  1.3113 -1.0351
 1032SOL    HW214730   2.050   3.828   6.420 -0.2794  0.5775 -0.2369
 1033SOL     OW14731   1.854   1.629   0.122 -0.4839 -0.4487 -0.0651
 1033SOL    HW114732   1.809   1.662   0.045  1.8592 -0.4524 -1.4255
 1033SOL    HW214733   1.868   1.711   0.171 -2.5443  0.0952 -0.3692
 1034SOL     OW14734   4.588   4.408   1.725  0.0046 -0.2621  1.1352
 1034SOL    HW114735   4.501   4.440   1.701 -0.2029 -1.0553  0.8410
 1034SOL    HW214736   4.569   4.314   1.732  1.3509 -0.4606  2.1854
 1035SOL     OW14737   3.347   2.034   2.503  0.4456  0.6455  0.1675
 1035SOL    HW114738   3.438   2.016   2.527  1.0228  0.0762 -2.5316
 1035SOL    HW214739   3.342   1.950   2.458 -0.7665  0.6854  0.2221
 1036SOL     OW14740   2.366   2.543  12.658 -0.3782  0.4996 -0.3418
 1036SOL    HW114741   2.306   2.556  12.586 -0.1030  0.9242 -0.4972
 1036SOL    HW214742   2.312   2.546  12.737 -0.5900  0.0138 -0.4666
 1037SOL     OW14743   2.193   1.633   6.842 -0.3845  0.2329 -0.4728
 1037SOL    HW114744   2.218   1.563   6.781  0.9136  0.6251 -0.3908
 1037SOL    HW214745   2.160   1.581   6.915  1.3185 -2.0740 -1.3729
 1038SOL     OW14746   4.331   4.129   7.388 -0.2820 -0.6906 -0.0383
 1038SOL    HW114747   4.352   4.079   7.467  0.9947  0.8085  0.5699
 1038SOL    HW214748   4.242   4.160   7.406  0.2737  0.2770  1.0262
 1039SOL     OW14749   1.584   1.406  12.071 -0.2939 -0.1989  0.2446
 1039SOL    HW114750   1.648   1.358  12.124 -1.3140 -0.7790  0.9489
 1039SOL    HW214751   1.553   1.464  12.140  2.6866  0.7055  0.8159
 1040SOL     OW14752   1.949   3.364   8.048 -0.5205 -0.0475  0.0701
 1040SOL    HW114753   2.010   3.344   8.119  0.0701 -0.6619 -0.6043
 1040SOL    HW214754   1.971   3.292   7.988  1.6715 -1.0228  2.0480
 1041SOL     OW14755   2.239   4.321   2.226  0.3970  0.5749  0.2151
 1041SOL    HW114756   2.321   4.286   2.261  1.4134  3.6237  0.9010
 1041SOL    HW214757   2.248   4.314   2.131 -0.5780  0.4680  0.1312
 1042SOL     OW14758   1.881   0.324   7.736  0.4554 -0.5055 -0.9063
 1042SOL    HW114759   1.805   0.379   7.720  1.0565  0.4282 -0.5720
 1042SOL    HW214760   1.930   0.385   7.792  2.8455 -1.3635 -2.0614
 1043SOL     OW14761   2.266   1.275   6.561 -0.4328 -0.1513 -0.0943
 1043SOL    HW114762   2.286   1.356   6.609 -0.2959  0.7499 -1.6770
 1043SOL    HW214763   2.316   1.202   6.597  0.5689  1.3432  1.5947
 1044SOL     OW14764   1.897   0.841   8.588 -0.0336  0.6166  0.0480
 1044SOL    HW114765   1.874   0.767   8.645  1.0246  0.7210  0.6173
 1044SOL    HW214766   1.865   0.914   8.642 -3.6006 -0.7744 -0.1931
 1045SOL     OW14767   4.449   3.308   5.645 -1.2554  0.5162  0.2037
 1045SOL    HW114768   4.524   3.366   5.661 -2.1518  1.7389 -0.0208
 1045SOL    HW214769   4.495   3.243   5.592  0.9918  1.7803  0.5560
 1046SOL     OW14770   4.114   4.353   2.856  1.0241  0.2795 -1.0553
 1046SOL    HW114771   4.166   4.284   2.815  0.3838 -1.2804  0.7406
 1046SOL    HW214772   4.182   4.369   2.920 -1.3243  1.0616  1.2222
 1047SOL     OW14773   0.643   4.684   2.560  0.3035  0.1864 -0.1962
 1047SOL    HW114774   0.708   4.637   2.613  1.1222  3.4265  1.6901
 1047SOL    HW214775   0.669   0.035   2.586 -2.4986  1.0812 -0.5274
 1048SOL     OW14776   4.508   1.780  13.181 -0.4998 -0.0588  0.3799
 1048SOL    HW114777   4.509   1.859  13.235  3.1259  0.1963 -0.0717
 1048SOL    HW214778   4.439   1.821  13.129  0.2530  0.6042 -0.0991
 1049SOL     OW14779   0.831   4.732   8.910  0.5952 -0.4645 -0.1598
 1049SOL    HW114780   0.897   0.055   8.942  0.0429 -0.2397  0.5497
 1049SOL    HW214781   0.847   0.001   8.815 -0.6542 -0.2477 -0.3644
 1050SOL     OW14782   3.456   0.046  15.813  0.0707  0.2748 -0.0393
 1050SOL    HW114783   3.413   4.699  15.825  0.7662 -0.2344 -1.0858
 1050SOL    HW214784   3.419   0.079  15.731 -0.5082  0.8393  0.4654
 1051SOL     OW14785   3.099   2.840  10.320  0.3070 -0.4741 -0.7998
 1051SOL    HW114786   3.021   2.868  10.369  1.2458 -0.9631  0.9615
 1051SOL    HW214787   3.171   2.889  10.359  0.4608 -2.0071  0.8345
 1052SOL     OW14788   0.672   3.684   3.017 -0.0889  0.3059 -0.4589
 1052SOL    HW114789   0.648   3.649   3.102 -2.4668 -0.5924 -1.4837
 1052SOL    HW214790   0.752   3.637   2.992  1.1613  1.5876  1.1701
 1053SOL     OW14791   1.470   0.115  10.581  0.6849 -0.0027  0.0880
 1053SOL    HW114792   1.428   0.202  10.580  0.8765  0.0880  0.0224
 1053SOL    HW214793   1.422   0.059  10.521  0.4166  0.5732 -0.2371
 1054SOL     OW14794   3.130   2.724   6.847  0.5501  0.0004 -0.1879
 1054SOL    HW114795   3.223   2.747   6.840  0.3866  1.3095  1.8117
 1054SOL    HW214796   3.104   2.753   6.934  0.7005 -1.0243  0.1936
 1055SOL     OW14797   3.628   2.024   7.561 -0.0704 -0.3395  0.2539
 1055SOL    HW114798   3.714   2.008   7.601  0.1475 -0.0337 -0.0868
 1055SOL    HW214799   3.586   1.943   7.589  2.0106 -2.4201 -2.6911
 1056SOL     OW14800   2.580   3.190   1.883  0.8054  0.0622 -0.1164
 1056SOL    HW114801   2.612   3.108   1.921 -1.5122 -0.8828 -0.2076
 1056SOL    HW214802   2.499   3.153   1.846  0.4108 -0.5104  1.3255
 1057SOL     OW14803   2.938   0.468   7.025  0.3770  0.2282 -0.1645
 1057SOL    HW114804   2.988   0.470   7.107 -0.1549 -1.9940  0.2290
 1057SOL    HW214805   2.849   0.485   7.059  0.5750 -0.3995  0.6856
 1058SOL     OW14806   0.294   1.493   9.016  0.1613 -0.1902 -0.1935
 1058SOL    HW114807   0.294   1.574   9.066  1.0129 -0.4723  0.2671
 1058SOL    HW214808   0.311   1.523   8.927  1.4579  1.9329  0.7586
 1059SOL     OW14809   1.524   2.649   7.425  0.1154  0.0955  0.3228
 1059SOL    HW114810   1.478   2.711   7.481  1.0918  0.1849  1.0261
 1059SOL    HW214811   1.549   2.592   7.498  2.3007 -0.2669 -0.6886
 1060SOL     OW14812   2.635   4.561   3.267  0.3946  0.0762 -0.0706
 1060SOL    HW114813   2.694   4.596   3.334  1.7712  0.0889 -1.2853
 1060SOL    HW214814   2.612   4.642   3.220  0.8647 -0.5399 -1.3685
 1061SOL     OW14815   0.994   1.656   5.179 -0.2165  0.0654 -0.3464
 1061SOL    HW114816   1.084   1.678   5.156  0.0776 -0.5463  0.1978
 1061SOL    HW214817   1.009   1.574   5.227  0.3701  0.8330  0.7703
 1062SOL     OW14818   0.008   1.664   6.613  0.6928  0.5862  0.1184
 1062SOL    HW114819   4.735   1.728   6.543 -2.1837  0.8554  0.7742
 1062SOL    HW214820   4.709   1.712   6.687 -1.1924  1.2517 -1.2427
 1063SOL     OW14821   1.763   2.631   3.123  0.0461 -0.0282 -0.2698
 1063SOL    HW114822   1.772   2.544   3.162 -0.9709 -0.1256 -0.2635
 1063SOL    HW214823   1.721   2.603   3.042 -1.3853 -0.9071  0.7918
 1064SOL     OW14824   1.272   2.079  14.507  0.3919 -0.3594 -0.0798
 1064SOL    HW114825   1.274   2.013  14.576  1.5223  0.3997  0.6008
 1064SOL    HW214826   1.228   2.150  14.554 -0.5977 -1.2071  0.2984
 1065SOL     OW14827   0.568   2.978   3.726 -0.2263  0.2751  0.1409
 1065SOL    HW114828   0.609   3.064   3.721  1.5799 -0.4989  1.8207
 1065SOL    HW214829   0.554   2.976   3.821  0.2374 -2.7634  0.1484
 1066SOL     OW14830   4.017   3.455  14.537  0.5623 -0.1426  0.2371
 1066SOL    HW114831   3.981   3.422  14.455 -0.3756 -0.0302  0.6076
 1066SOL    HW214832   4.096   3.505  14.517  0.2202  0.7686  1.1956
 1067SOL     OW14833   1.349   0.703   7.826  0.5295  0.1117  0.0290
 1067SOL    HW114834   1.276   0.642   7.828  1.5706 -1.0938  0.9606
 1067SOL    HW214835   1.410   0.654   7.881  1.0059  0.2224 -0.3985
 1068SOL     OW14836   1.249   0.870   6.673  0.4477  0.4572 -0.4884
 1068SOL    HW114837   1.314   0.940   6.675  0.6075  0.2933  0.3356
 1068SOL    HW214838   1.215   0.870   6.763  0.3956 -1.7748 -0.4944
 1069SOL     OW14839   2.676   4.485  13.451 -0.1365  0.5812  0.0838
 1069SOL    HW114840   2.590   4.458  13.421 -0.3764  0.1568  1.1407
 1069SOL    HW214841   2.675   4.580  13.439  0.5101  0.3776 -1.5456
 1070SOL     OW14842   0.347   2.043  14.640 -0.5831 -0.1567 -0.0765
 1070SOL    HW114843   0.398   2.002  14.570 -1.0478  0.9915 -1.0757
 1070SOL    HW214844   0.342   2.134  14.612  3.7332 -0.8390 -3.0126
 1071SOL     OW14845   3.090   0.177  15.066  0.1427  0.0850  0.2687
 1071SOL    HW114846   3.105   0.086  15.091  0.4773  0.4924  1.5884
 1071SOL    HW214847   3.053   0.168  14.978  1.3623  0.6423 -0.3010
 1072SOL     OW14848   3.098   3.700   5.463  0.0244  0.8731 -0.1993
 1072SOL    HW114849   3.091   3.778   5.408 -0.7756  2.1631  1.7584
 1072SOL    HW214850   3.007   3.694   5.491 -0.6278  2.5316 -1.9587
 1073SOL     OW14851   3.363   3.650  14.537  0.2433 -0.8952 -0.2065
 1073SOL    HW114852   3.357   3.578  14.474  0.5882 -1.0703 -0.0437
 1073SOL    HW214853   3.273   3.681  14.532 -0.2312 -2.2937 -0.4390
 1074SOL     OW14854   2.811   3.262  12.605  0.7255  0.3495 -1.1391
 1074SOL    HW114855   2.852   3.280  12.689  1.0019 -2.6284 -0.6384
 1074SOL    HW214856   2.718   3.282  12.620  0.5818 -1.8596  0.8855
 1075SOL     OW14857   2.665   1.813   0.415  0.2746  0.0415  0.3323
 1075SOL    HW114858   2.688   1.876   0.347  1.2700  3.5251  3.8298
 1075SOL    HW214859   2.576   1.788   0.389 -0.1737  1.0915  0.8393
 1076SOL     OW14860   3.026   3.267   5.396  0.2714 -0.0601 -0.3820
 1076SOL    HW114861   3.093   3.327   5.363  1.1901 -0.1939  1.2495
 1076SOL    HW214862   3.023   3.196   5.332  0.2606 -2.5496  2.3609
 1077SOL     OW14863   4.342   1.513   3.267 -0.2446  0.4844  0.1894
 1077SOL    HW114864   4.407   1.521   3.337 -1.0954 -1.6124  1.2236
 1077SOL    HW214865   4.406   1.511   3.196 -0.2772 -1.8479  0.2264
 1078SOL     OW14866   3.849   4.626  13.300 -0.4360  0.1254 -0.8972
 1078SOL    HW114867   3.895   4.589  13.375  0.3657 -2.2438 -2.5468
 1078SOL    HW214868   3.756   4.614  13.319 -0.1298  0.8118  1.0774
 1079SOL     OW14869   4.439   3.338   8.995  0.1608 -0.7984 -0.0032
 1079SOL    HW114870   4.372   3.278   8.964  0.0445 -0.3374 -0.6454
 1079SOL    HW214871   4.400   3.359   9.080 -1.1814 -0.0105 -0.8106
 1080SOL     OW14872   3.907   1.774  11.035 -0.3551  0.3134 -0.3986
 1080SOL    HW114873   3.859   1.725  10.968  0.0225  1.3476 -1.4253
 1080SOL    HW214874   3.882   1.864  11.013  0.3694  0.1423 -1.9399
 1081SOL     OW14875   4.302   0.550   8.998 -0.1522  0.3262 -0.0685
 1081SOL    HW114876   4.256   0.524   8.918 -0.0500 -0.4531  0.1176
 1081SOL    HW214877   4.239   0.611   9.036 -0.5459 -0.7510  1.0403
 1082SOL     OW14878   2.480   4.309   2.351  0.4572  0.2550 -0.1094
 1082SOL    HW114879   2.564   4.352   2.332  0.8961 -0.2859  0.6319
 1082SOL    HW214880   2.437   4.371   2.410 -1.0602 -1.8149  0.9292
 1083SOL     OW14881   1.849   1.452   5.003 -0.1983 -0.1840  0.7240
 1083SOL    HW114882   1.936   1.491   4.996 -0.1124 -0.0660  2.4049
 1083SOL    HW214883   1.843   1.413   5.091 -1.3203 -1.1349  0.2298
 1084SOL     OW14884   3.674   2.578   7.066  0.2116 -0.9995  0.4118
 1084SOL    HW114885   3.604   2.637   7.094  1.6613  0.3386  1.2077
 1084SOL    HW214886   3.697   2.624   6.986 -0.0316  1.3406  1.6959
 1085SOL     OW14887   1.097   1.009   5.084 -0.1349 -0.7504  0.0819
 1085SOL    HW114888   1.037   1.073   5.046 -0.1904 -1.6008 -1.2645
 1085SOL    HW214889   1.123   0.957   5.008  0.4511 -2.6883  1.6196
 1086SOL     OW14890   3.379   1.663   9.991 -0.5420  0.3081  0.4870
 1086SOL    HW114891   3.376   1.646  10.085 -5.1272 -0.2297  0.2387
 1086SOL    HW214892   3.287   1.656   9.968 -0.8409  1.6819  1.2706
 1087SOL     OW14893   3.390   3.480  14.911 -0.2029 -0.4769  0.5548
 1087SOL    HW114894   3.453   3.550  14.928 -1.7298  0.4107  2.5505
 1087SOL    HW214895   3.432   3.407  14.865  0.3079  0.4662 -0.4851
 1088SOL     OW14896   4.244   2.865  11.426 -0.0288 -0.2033 -0.1153
 1088SOL    HW114897   4.294   2.788  11.452 -3.3777 -2.1215  0.6339
 1088SOL    HW214898   4.243   2.925  11.500  1.1887 -0.6229  0.2440
 1089SOL     OW14899   2.712   2.069   2.491  0.0158  0.6018  0.3600
 1089SOL    HW114900   2.740   2.133   2.426 -0.0386 -1.6817 -1.8941
 1089SOL    HW214901   2.646   2.116   2.543 -1.6657 -1.3319 -0.0031
 1090SOL     OW14902   3.935   0.532   7.908 -0.6174 -0.5339 -0.2528
 1090SOL    HW114903   3.872   0.461   7.906 -2.7460  1.4163 -2.1628
 1090SOL    HW214904   3.904   0.587   7.836  2.6987  2.6130  0.6983
 1091SOL     OW14905   3.274   4.241   8.456  0.0546 -0.4335  0.1958
 1091SOL    HW114906   3.273   4.231   8.360 -1.2806  1.7329  0.0009
 1091SOL    HW214907   3.363   4.274   8.472 -0.6565  1.3880  0.3628
 1092SOL     OW14908   2.905   1.362   7.809 -0.2082 -0.4571  0.2480
 1092SOL    HW114909   2.881   1.312   7.887 -0.1376  0.0193  0.5726
 1092SOL    HW214910   2.999   1.367   7.826  0.1619 -1.1079 -1.5570
 1093SOL     OW14911   2.505   3.311   7.466 -0.0588 -0.2591 -0.0472
 1093SOL    HW114912   2.582   3.299   7.411 -0.9885  0.1595 -1.4280
 1093SOL    HW214913   2.464   3.225   7.464  0.0496 -0.3195  0.2708
 1094SOL     OW14914   0.536   3.551  13.274  0.0811  0.3274  0.0373
 1094SOL    HW114915   0.571   3.553  13.185 -0.6121  1.1186 -0.2226
 1094SOL    HW214916   0.510   3.639  13.302  0.0371  0.6758 -1.0963
 1095SOL     OW14917   0.947   2.475  12.981 -0.1824  0.1043  0.3575
 1095SOL    HW114918   0.852   2.471  12.968 -0.2440  0.5016  0.6749
 1095SOL    HW214919   0.981   2.462  12.893 -0.4291 -0.0989  0.2925
 1096SOL     OW14920   2.069   3.357   5.239  0.0886  0.4185 -0.1537
 1096SOL    HW114921   2.106   3.297   5.174  0.1887 -2.6362  2.7135
 1096SOL    HW214922   2.008   3.297   5.282  1.4994  0.2252  1.5848
 1097SOL     OW14923   4.677   4.489  11.941 -0.0420 -0.4143  0.4024
 1097SOL    HW114924   4.688   4.557  12.007  0.6197  0.7089 -0.8497
 1097SOL    HW214925   0.028   4.455  11.933  0.2807  0.2923  1.0356
 1098SOL     OW14926   2.874   2.678   2.798 -0.2820 -0.3552  0.5159
 1098SOL    HW114927   2.921   2.740   2.854 -0.0480 -0.4620  0.4386
 1098SOL    HW214928   2.823   2.734   2.739  0.8314 -2.2778 -2.2176
 1099SOL     OW14929   3.167   2.628   3.639  0.3530 -0.4966  0.1238
 1099SOL    HW114930   3.182   2.713   3.597 -0.5008  0.1037  1.0323
 1099SOL    HW214931   3.137   2.647   3.728 -0.0807  2.6668 -0.6817
 1100SOL     OW14932   4.356   2.404   4.627  0.0087  0.2560 -0.4613
 1100SOL    HW114933   4.268   2.371   4.643  0.1520 -0.5217 -1.3067
 1100SOL    HW214934   4.348   2.498   4.612 -2.7199  0.0426 -0.2971
 1101SOL     OW14935   0.427   3.781   4.482 -0.0476  0.3470 -0.5776
 1101SOL    HW114936   0.506   3.814   4.527 -0.8230  0.2929  0.8307
 1101SOL    HW214937   0.470   3.718   4.424 -0.5889 -0.6814  0.1340
 1102SOL     OW14938   3.531   0.750   2.381 -1.0021  1.0926  0.1648
 1102SOL    HW114939   3.587   0.738   2.305 -0.6734 -0.8979  0.7188
 1102SOL    HW214940   3.584   0.761   2.460 -1.6559  0.4923  0.6928
 1103SOL     OW14941   3.102   1.446   9.878 -0.0157  0.0352  0.3499
 1103SOL    HW114942   3.177   1.460   9.820 -0.6344 -0.2270 -0.5166
 1103SOL    HW214943   3.114   1.515   9.944 -0.1897 -2.6493  3.1649
 1104SOL     OW14944   2.907   3.833   2.004  0.1302 -0.2544  0.3294
 1104SOL    HW114945   3.000   3.842   2.023  0.0517  2.8811 -0.8928
 1104SOL    HW214946   2.872   3.893   2.070 -0.7288  0.6235 -0.9534
 1105SOL     OW14947   2.587   4.263   8.935  0.4820  0.0516  0.3785
 1105SOL    HW114948   2.622   4.342   8.976 -1.4375  0.1528  1.8400
 1105SOL    HW214949   2.559   4.215   9.013  0.9195 -1.4026 -0.3444
 1106SOL     OW14950   4.109   4.162   2.158  0.3942 -0.0622 -0.3269
 1106SOL    HW114951   4.130   4.084   2.107 -0.2352 -2.0218  2.3800
 1106SOL    HW214952   4.164   4.156   2.237 -2.4218 -5.1404  1.2639
 1107SOL     OW14953   4.595   2.146  12.975  0.0842 -0.1522  0.0808
 1107SOL    HW114954   4.672   2.137  12.919  0.2360  1.9894 -0.0519
 1107SOL    HW214955   4.570   2.054  12.983 -1.9101  0.3228 -0.5762
 1108SOL     OW14956   2.378   1.536  13.722  0.5738 -0.7478 -0.1514
 1108SOL    HW114957   2.397   1.445  13.742 -0.1626 -0.2568  2.7385
 1108SOL    HW214958   2.455   1.585  13.751  0.4751 -0.8016  0.1916
 1109SOL     OW14959   2.590   1.172   8.224 -0.0405 -0.0734 -0.3943
 1109SOL    HW114960   2.577   1.263   8.249 -0.8428  0.0035 -1.1155
 1109SOL    HW214961   2.499   1.147   8.210 -0.9091  2.0350  1.6304
 1110SOL     OW14962   1.414   4.470   8.952  0.4445  0.3999 -0.6308
 1110SOL    HW114963   1.367   4.551   8.932 -0.3802  0.3339  1.0113
 1110SOL    HW214964   1.405   4.427   8.867 -2.2739  1.2267 -0.7437
 1111SOL     OW14965   2.355   3.313   7.967  0.3415 -0.3577  0.6814
 1111SOL    HW114966   2.310   3.371   7.905 -1.2720 -1.5928  0.7125
 1111SOL    HW214967   2.414   3.263   7.910 -0.7215  0.3301 -1.0127
 1112SOL     OW14968   1.814   3.411   3.181  0.4289 -0.0740 -0.1930
 1112SOL    HW114969   1.860   3.446   3.257 -1.8183 -1.1572  1.6761
 1112SOL    HW214970   1.883   3.394   3.118 -1.0447 -1.7411 -1.3235
 1113SOL     OW14971   4.232   2.341   7.482 -0.1306  0.2439  0.4589
 1113SOL    HW114972   4.286   2.351   7.404  0.7947  3.8431  1.5214
 1113SOL    HW214973   4.227   2.427   7.524  1.4207  1.2191 -1.3617
 1114SOL     OW14974   2.839   0.322  16.055 -0.1210 -0.3269  0.3444
 1114SOL    HW114975   2.859   0.351  15.966 -2.5840  0.9388  0.2032
 1114SOL    HW214976   2.744   0.313  16.059 -0.0936 -0.2871  1.1280
 1115SOL     OW14977   3.282   0.389   8.817  0.5718 -0.4876  0.0084
 1115SOL    HW114978   3.270   0.303   8.856  2.6235  0.4616  2.7536
 1115SOL    HW214979   3.377   0.382   8.804  0.6636  0.2439  0.2684
 1116SOL     OW14980   2.898   1.505   4.452  0.4290  0.1540  0.1311
 1116SOL    HW114981   2.832   1.543   4.394 -0.4698 -2.7858 -0.7783
 1116SOL    HW214982   2.946   1.587   4.446  0.7516  0.0322  1.0422
 1117SOL     OW14983   4.510   3.511   3.949 -0.4659  0.4320  0.4389
 1117SOL    HW114984   4.570   3.436   3.951 -1.0659 -0.0314  1.3297
 1117SOL    HW214985   4.439   3.485   3.891 -0.0982  0.4732 -0.0282
 1118SOL     OW14986   1.515   0.534   3.082  0.2421  0.2989 -0.1389
 1118SOL    HW114987   1.464   0.613   3.067  1.8224  0.9434 -2.0534
 1118SOL    HW214988   1.513   0.531   3.178  2.7207  3.9875  0.0343
 1119SOL     OW14989   4.359   0.832   8.711  0.3143  0.1568 -0.1423
 1119SOL    HW114990   4.413   0.893   8.660 -1.2668  3.8141  2.5668
 1119SOL    HW214991   4.408   0.844   8.792  1.8609 -0.1156 -1.0320
 1120SOL     OW14992   0.391   0.340  13.214  0.1754  0.3410 -0.5283
 1120SOL    HW114993   0.324   0.273  13.199 -0.4420  1.0021 -0.7106
 1120SOL    HW214994   0.450   0.287  13.267  0.3798  1.3142  0.2084
 1121SOL     OW14995   3.500   3.395   7.534  0.0193  0.5814 -0.5456
 1121SOL    HW114996   3.442   3.443   7.475  0.3495 -0.9822 -2.1586
 1121SOL    HW214997   3.444   3.367   7.607  0.1565 -1.6071 -1.2922
 1122SOL     OW14998   0.518   4.731  10.064 -0.2151  0.2205 -0.1772
 1122SOL    HW114999   0.523   4.686  10.148  1.5917  1.5524  0.4221
 1122SOL    HW215000   0.486   4.658  10.010  0.9371 -0.4600  0.0551
 1123SOL     OW15001   2.419   3.476   4.045 -0.2104 -0.1543  0.5579
 1123SOL    HW115002   2.383   3.497   3.959  2.1094  0.5560 -0.2446
 1123SOL    HW215003   2.455   3.387   4.041 -2.5283 -1.0750  0.7178
 1124SOL     OW15004   1.998   3.147  14.322  0.5345  1.0083  0.2865
 1124SOL    HW115005   2.034   3.059  14.325  0.0526  0.6868 -3.2734
 1124SOL    HW215006   1.971   3.152  14.413 -2.5354  0.6287 -0.5928
 1125SOL     OW15007   0.115   0.359  12.942  0.4698  0.6682  0.3464
 1125SOL    HW115008   0.081   0.419  13.008  1.5548  0.7806  0.8141
 1125SOL    HW215009   0.208   0.380  12.941  0.5146  0.3949 -1.2331
 1126SOL     OW15010   2.066   1.208   2.017  0.1609 -0.4242 -0.2838
 1126SOL    HW115011   2.134   1.146   2.044  1.1262  0.4944 -0.6383
 1126SOL    HW215012   2.093   1.274   2.081  0.1792 -2.1994  1.5615
 1127SOL     OW15013   3.472   3.187   6.314 -0.1332 -0.7479  0.4035
 1127SOL    HW115014   3.406   3.255   6.311  0.7639  0.1040 -0.1760
 1127SOL    HW215015   3.454   3.140   6.396  0.4529 -0.5442  0.6524
 1128SOL     OW15016   0.282   3.900   7.957  0.0190  0.0121  0.2548
 1128SOL    HW115017   0.257   3.908   7.865 -1.7992  0.4663  0.8059
 1128SOL    HW215018   0.233   3.973   7.993  0.8911 -0.4277  2.3437
 1129SOL     OW15019   1.688   1.217  12.277  0.0505 -0.5213  0.1964
 1129SOL    HW115020   1.755   1.270  12.322  0.1881 -0.7103  0.2140
 1129SOL    HW215021   1.746   1.163  12.223  0.9573  0.7535 -0.1181
 1130SOL     OW15022   3.299   3.992  13.635 -0.2219  0.2329  0.0255
 1130SOL    HW115023   3.287   4.027  13.723  2.7411  0.7532  0.2481
 1130SOL    HW215024   3.282   4.072  13.584 -2.1518 -0.4854 -0.4614
 1131SOL     OW15025   0.438   2.319  14.145 -0.2422  0.4354 -0.0233
 1131SOL    HW115026   0.511   2.305  14.205 -1.9403  0.0743  1.9551
 1131SOL    HW215027   0.445   2.413  14.131 -1.4941  0.3828 -1.0172
 1132SOL     OW15028   4.685   1.061   0.257 -0.2321 -0.3381 -0.2015
 1132SOL    HW115029   4.615   0.996   0.250  0.3346 -0.9103 -0.5463
 1132SOL    HW215030   4.651   1.109   0.332 -0.0321  0.6360 -0.7314
 1133SOL     OW15031   2.823   1.162   8.695 -0.0122 -0.2772  0.1003
 1133SOL    HW115032   2.843   1.069   8.708  1.8181  0.2757  1.2232
 1133SOL    HW215033   2.729   1.156   8.676 -0.0723  1.3440 -0.0495
 1134SOL     OW15034   4.365   1.176  10.362  0.6447 -1.1444 -0.2563
 1134SOL    HW115035   4.459   1.175  10.381  0.9013  1.6450 -1.4180
 1134SOL    HW215036   4.366   1.119  10.285 -0.9242  1.1089 -1.9238
 1135SOL     OW15037   3.453   4.503  10.053  0.1320 -0.0457  0.5372
 1135SOL    HW115038   3.372   4.458  10.074 -0.2539  0.2984 -0.2148
 1135SOL    HW215039   3.416   4.559   9.985  0.0432 -1.8200 -0.8663
 1136SOL     OW15040   1.763   2.306   5.845 -0.4081 -0.5696  0.6436
 1136SOL    HW115041   1.722   2.321   5.760 -3.0498 -0.9044  1.8819
 1136SOL    HW215042   1.858   2.309   5.829 -0.3401  0.5580  1.2430
 1137SOL     OW15043   3.581   1.557  11.636  0.1924  0.2264  0.5450
 1137SOL    HW115044   3.631   1.519  11.708  0.1622  0.4178  0.6676
 1137SOL    HW215045   3.492   1.568  11.670  0.6077  0.5703  1.5234
 1138SOL     OW15046   1.358   2.511   4.282 -0.4138  0.6738  0.8182
 1138SOL    HW115047   1.413   2.589   4.276  0.3087  0.2035  1.3334
 1138SOL    HW215048   1.291   2.531   4.347 -0.5412 -0.7033  1.1181
 1139SOL     OW15049   3.939   2.257   8.750  0.4876  0.5648  0.4772
 1139SOL    HW115050   3.884   2.334   8.766  1.8773  1.9211 -1.3792
 1139SOL    HW215051   3.919   2.237   8.659  2.2034  0.6699  0.0793
 1140SOL     OW15052   3.036   3.436  13.060  0.3985  0.1887 -0.2486
 1140SOL    HW115053   3.037   3.402  13.149 -1.0642  0.4825 -0.1254
 1140SOL    HW215054   3.125   3.405  13.042 -0.0008 -1.3621  0.4141
 1141SOL     OW15055   1.768   0.648  11.331  0.4053 -0.3341 -0.3264
 1141SOL    HW115056   1.720   0.723  11.295 -1.2074 -1.3898 -0.3759
 1141SOL    HW215057   1.852   0.693  11.339 -0.2929  0.7701  0.8347
 1142SOL     OW15058   1.363   0.269  16.252 -0.1675  0.1390 -0.0346
 1142SOL    HW115059   1.434   0.222  16.207  1.3696  1.3635  1.0882
 1142SOL    HW215060   1.395   0.280  16.341  0.4236 -1.9083  0.0029
 1143SOL     OW15061   1.637   2.862   5.738 -0.5035  0.1144 -0.1146
 1143SOL    HW115062   1.597   2.776   5.740 -0.8638  0.2237 -2.4966
 1143SOL    HW215063   1.720   2.842   5.695 -1.3814 -0.4308 -1.5544
 1144SOL     OW15064   1.173   2.682   7.230 -0.0102 -0.1615  0.0780
 1144SOL    HW115065   1.222   2.762   7.248 -1.5389  0.7662  0.2015
 1144SOL    HW215066   1.112   2.718   7.164 -1.3425  1.3655  2.1333
 1145SOL     OW15067   1.375   2.646  11.807 -0.0978 -0.8308  0.4055
 1145SOL    HW115068   1.340   2.708  11.742 -1.8967 -1.6533  0.6026
 1145SOL    HW215069   1.346   2.561  11.775 -0.7462  0.8197 -3.4334
 1146SOL     OW15070   4.599   0.910   3.048 -0.5136  0.1728 -0.0136
 1146SOL    HW115071   4.508   0.903   3.018 -0.1378 -0.0961 -1.0837
 1146SOL    HW215072   4.631   0.921   2.959 -0.2457  2.8957  0.4112
 1147SOL     OW15073   2.681   3.136  14.831  0.7244  0.1640  0.3096
 1147SOL    HW115074   2.597   3.100  14.859 -0.3200  0.4088 -2.4860
 1147SOL    HW215075   2.704   3.070  14.765  1.8305 -0.1763  1.0293
 1148SOL     OW15076   4.143   2.538   5.476 -0.1155  0.1419 -0.1125
 1148SOL    HW115077   4.228   2.583   5.474 -0.2049  0.3053 -0.2135
 1148SOL    HW215078   4.098   2.598   5.535 -1.7159 -2.5175  1.3720
 1149SOL     OW15079   1.141   3.855   5.857  0.4366  0.2986  0.0879
 1149SOL    HW115080   1.232   3.855   5.887 -0.1484 -0.9302  1.8577
 1149SOL    HW215081   1.156   3.870   5.764 -1.4876 -1.6116 -0.5159
 1150SOL     OW15082   3.978   4.382   7.269  0.2022 -0.4164  0.1202
 1150SOL    HW115083   4.022   4.395   7.185 -2.7182  0.6535 -1.2422
 1150SOL    HW215084   3.958   4.473   7.290  1.0437 -0.3195  0.5117
 1151SOL     OW15085   4.460   1.844  13.995  0.1714 -0.3815  0.0051
 1151SOL    HW115086   4.396   1.789  14.042  0.9627 -1.5513 -0.2746
 1151SOL    HW215087   4.399   1.896  13.944 -0.5791  0.6159  1.9029
 1152SOL     OW15088   1.002   2.604   7.542 -0.4022 -0.7398 -0.0809
 1152SOL    HW115089   1.055   2.568   7.470 -1.4210 -1.2618 -0.5671
 1152SOL    HW215090   0.983   2.522   7.587 -0.1729 -1.6489 -1.6113
 1153SOL     OW15091   2.866   3.055   6.223 -0.1747 -0.0459 -0.0913
 1153SOL    HW115092   2.850   2.961   6.228 -4.0978  0.6153 -0.4746
 1153SOL    HW215093   2.881   3.062   6.128  0.8076 -0.8311  0.0068
 1154SOL     OW15094   3.060   0.633   8.177 -0.2591 -0.4275 -0.0868
 1154SOL    HW115095   2.991   0.679   8.225  0.9049 -0.1426  1.2906
 1154SOL    HW215096   3.116   0.597   8.245 -0.7356 -0.4872  0.2770
 1155SOL     OW15097   1.175   2.870   8.973  0.0759 -0.1264  0.2698
 1155SOL    HW115098   1.131   2.839   8.895 -0.2117  0.9525  0.0059
 1155SOL    HW215099   1.177   2.796   9.034  0.4029 -0.2243  0.1435
 1156SOL     OW15100   0.115   1.798  12.903 -0.5563 -0.7088 -0.4656
 1156SOL    HW115101   0.137   1.707  12.922  0.9587 -0.6571 -1.9245
 1156SOL    HW215102   0.020   1.802  12.915 -0.2372 -0.7822  1.9502
 1157SOL     OW15103   3.594   0.888   0.238  0.2198  0.0384  0.7187
 1157SOL    HW115104   3.517   0.945   0.227 -0.7507 -1.1324  1.4528
 1157SOL    HW215105   3.621   0.905   0.328  0.4551  0.4956  0.5648
 1158SOL     OW15106   2.773   1.629  14.569 -0.6003 -0.1566 -0.2709
 1158SOL    HW115107   2.825   1.703  14.536 -1.1354  0.0619 -0.6326
 1158SOL    HW215108   2.812   1.599  14.652 -1.4019 -0.0261  0.1500
 1159SOL     OW15109   4.306   0.079   1.959 -0.3877  0.5599 -0.2553
 1159SOL    HW115110   4.219   0.086   1.918 -0.5948 -1.0997 -0.0811
 1159SOL    HW215111   4.364   0.077   1.883 -1.6847  0.2604 -1.2303
 1160SOL     OW15112   1.813   1.984  14.463  0.7383 -0.3988  1.0619
 1160SOL    HW115113   1.836   2.052  14.400 -1.5268 -0.3721  0.2593
 1160SOL    HW215114   1.753   1.928  14.414  0.8501  1.5905 -1.3827
 1161SOL     OW15115   0.178   2.348  16.158 -0.2216 -0.2411  0.0279
 1161SOL    HW115116   0.195   2.325  16.066  0.9537  4.3492 -0.9104
 1161SOL    HW215117   0.202   2.440  16.151  0.2409 -0.2713  1.3470
 1162SOL     OW15118   0.762   4.025   9.393  0.1035  0.3505 -0.3158
 1162SOL    HW115119   0.715   3.965   9.334  1.2255 -0.0284 -0.8288
 1162SOL    HW215120   0.851   3.991   9.409 -0.2165 -0.5641 -0.4524
 1163SOL     OW15121   2.321   1.035   8.161 -0.2782  0.4293 -0.0707
 1163SOL    HW115122   2.308   1.017   8.254  0.3145 -1.6113 -0.3620
 1163SOL    HW215123   2.379   0.963   8.134 -0.0550  1.0095 -1.1313
 1164SOL     OW15124   1.531   1.545   5.773 -0.0666 -0.6097 -0.0785
 1164SOL    HW115125   1.475   1.621   5.792 -0.2443 -0.1210 -2.4875
 1164SOL    HW215126   1.572   1.521   5.855  0.7283 -0.9152 -0.5666
 1165SOL     OW15127   2.707   1.734   6.895 -0.1511  0.2362 -0.0845
 1165SOL    HW115128   2.784   1.691   6.934 -0.6571  0.7101  1.4141
 1165SOL    HW215129   2.646   1.745   6.967  0.3305 -0.2194  0.3986
 1166SOL     OW15130   3.354   3.285   6.849  1.2332 -0.6555 -0.1714
 1166SOL    HW115131   3.388   3.359   6.898 -0.3887 -1.5469  2.2931
 1166SOL    HW215132   3.345   3.332   6.767  3.6497 -1.1541 -0.7075
 1167SOL     OW15133   4.099   0.055   4.620  0.0401 -0.3969  0.0111
 1167SOL    HW115134   4.076   0.010   4.539 -0.5219  0.1441 -0.1336
 1167SOL    HW215135   4.195   0.046   4.614  0.1934  0.7315  0.8277
 1168SOL     OW15136   0.149   3.957   9.324 -0.0119 -0.1748 -0.0019
 1168SOL    HW115137   0.122   3.958   9.416 -3.8138  0.9245 -1.1099
 1168SOL    HW215138   0.219   3.892   9.317  0.4323  0.4030 -0.8762
 1169SOL     OW15139   4.050   2.405   4.364 -0.4055 -0.3223  0.2549
 1169SOL    HW115140   4.097   2.488   4.367  0.4191 -0.8094  0.6877
 1169SOL    HW215141   4.077   2.372   4.450 -0.9262 -1.4093  0.0057
 1170SOL     OW15142   1.202   4.517  10.202 -1.0130  0.2580 -0.0828
 1170SOL    HW115143   1.264   4.463  10.152  0.4145  0.5328  1.3920
 1170SOL    HW215144   1.147   4.545  10.129  0.0394 -0.0687 -1.0061
 1171SOL     OW15145   3.102   2.837   2.096 -0.7090 -0.3501 -1.0160
 1171SOL    HW115146   3.049   2.813   2.173  0.5420 -0.6670 -0.2517
 1171SOL    HW215147   3.030   2.838   2.032 -1.0930  2.4995 -0.5335
 1172SOL     OW15148   0.909   3.750   7.249  0.4670  0.0815  0.5826
 1172SOL    HW115149   0.913   3.764   7.344  0.6956 -0.4277  0.6475
 1172SOL    HW215150   1.002   3.753   7.229  0.7846 -1.1789  1.7960
 1173SOL     OW15151   3.251   2.019   5.651 -0.4556  0.4825  0.2025
 1173SOL    HW115152   3.289   1.948   5.599  2.4520  1.6000  0.7712
 1173SOL    HW215153   3.196   2.045   5.578  0.4600 -0.1142 -0.7081
 1174SOL     OW15154   0.489   2.551   3.156 -0.0371  0.1686  0.2645
 1174SOL    HW115155   0.413   2.558   3.100  1.2816 -2.3888 -1.8553
 1174SOL    HW215156   0.442   2.546   3.239 -0.8014 -0.6671 -0.2218
 1175SOL     OW15157   0.759   3.765   0.333 -0.0115 -0.0303 -0.6902
 1175SOL    HW115158   0.807   3.697   0.285 -3.2029 -1.3230 -2.1016
 1175SOL    HW215159   0.818   3.798   0.400 -1.1141 -2.6888  1.5976
 1176SOL     OW15160   3.341   2.761   1.975  0.0523  0.0390 -0.6995
 1176SOL    HW115161   3.315   2.727   1.889  0.1080 -1.3321 -0.1693
 1176SOL    HW215162   3.253   2.774   2.010  1.2825 -1.2997  2.8968
 1177SOL     OW15163   2.032   1.139   4.421  0.6608  0.2645  0.4036
 1177SOL    HW115164   1.991   1.089   4.351  0.7742 -0.8459  1.1330
 1177SOL    HW215165   2.008   1.083   4.495 -0.1049  0.4626  0.3099
 1178SOL     OW15166   3.371   0.596  11.952  0.4852  0.1101  0.0197
 1178SOL    HW115167   3.390   0.561  11.865 -0.3173 -3.4059  1.2926
 1178SOL    HW215168   3.301   0.535  11.975  0.6405 -0.1715 -0.2686
 1179SOL     OW15169   3.558   2.104   5.426  0.1489  0.1264  0.2745
 1179SOL    HW115170   3.487   2.111   5.363 -0.6442 -1.6546  0.9699
 1179SOL    HW215171   3.613   2.179   5.404 -1.0666  0.8964 -0.1763
 1180SOL     OW15172   4.438   2.874   3.115  0.8933  0.2240 -0.2474
 1180SOL    HW115173   4.531   2.852   3.119  0.7413 -0.5796 -1.1262
 1180SOL    HW215174   4.427   2.897   3.023 -0.0287  0.1880 -0.1388
 1181SOL     OW15175   3.740   0.092   2.365  0.1764 -0.2330  0.5274
 1181SOL    HW115176   3.778   0.140   2.438  1.5403  0.0153 -0.3447
 1181SOL    HW215177   3.703   0.016   2.410 -1.2667  1.0864  1.6064
 1182SOL     OW15178   2.889   1.253  12.791  0.5758 -0.1500  0.6186
 1182SOL    HW115179   2.962   1.191  12.783  0.5804 -0.1002  0.3090
 1182SOL    HW215180   2.820   1.187  12.795 -0.2402  0.6498 -0.3851
 1183SOL     OW15181   4.272   1.609   0.938  0.4360 -0.1141 -0.1414
 1183SOL    HW115182   4.290   1.683   0.996 -2.7235 -0.7011  1.5953
 1183SOL    HW215183   4.187   1.571   0.958  0.4841  0.0032  0.2839
 1184SOL     OW15184   2.646   0.678  16.661 -0.5507  0.0156  0.2840
 1184SOL    HW115185   2.712   0.654  16.727 -0.2869 -0.7229 -0.2534
 1184SOL    HW215186   2.665   0.770  16.643  0.8143 -0.2288  0.4548
 1185SOL     OW15187   3.172   0.176  12.939  0.1648  0.2846  0.5980
 1185SOL    HW115188   3.249   0.184  12.883 -0.1958 -0.6435 -0.0310
 1185SOL    HW215189   3.198   0.107  12.999  0.1880 -0.6893 -0.5475
 1186SOL     OW15190   1.766   1.109   8.312 -0.5837  0.6730 -0.4471
 1186SOL    HW115191   1.704   1.081   8.379 -0.7129  1.6273 -0.1633
 1186SOL    HW215192   1.780   1.198   8.344  0.0509  0.0869  0.9205
 1187SOL     OW15193   2.792   3.705  10.884 -0.1511 -0.0872 -0.1507
 1187SOL    HW115194   2.730   3.679  10.817 -0.5269  1.1022 -0.2738
 1187SOL    HW215195   2.864   3.735  10.828 -0.4088 -1.6940 -1.3324
 1188SOL     OW15196   3.779   2.096   7.912  0.0310 -0.2660 -0.9929
 1188SOL    HW115197   3.691   2.131   7.900 -0.8889 -2.5987 -1.0613
 1188SOL    HW215198   3.798   2.063   7.825  2.3891 -0.9461 -0.2262
 1189SOL     OW15199   1.086   4.592   6.175  0.1743  0.5335  0.6924
 1189SOL    HW115200   1.033   4.593   6.255  0.1701  0.7544  0.6880
 1189SOL    HW215201   1.048   4.521   6.124 -2.0911  2.6115 -0.5408
 1190SOL     OW15202   2.903   0.314   8.272  0.5619 -0.3240  0.3920
 1190SOL    HW115203   2.873   0.333   8.184  1.8237 -0.5633 -0.0939
 1190SOL    HW215204   2.825   0.344   8.318  0.5059  0.4038 -0.1825
 1191SOL     OW15205   0.053   1.496   6.356  0.7590  0.3380  0.3484
 1191SOL    HW115206   4.696   1.504   6.365  0.0420 -4.2523 -3.0888
 1191SOL    HW215207   0.077   1.523   6.445 -0.5746  1.3129  0.4111
 1192SOL     OW15208   0.414   0.357   9.767  0.2870 -0.4046  0.1590
 1192SOL    HW115209   0.487   0.314   9.723  0.0032  0.3679 -1.0806
 1192SOL    HW215210   0.411   0.315   9.853  0.4121 -1.8105 -0.5342
 1193SOL     OW15211   0.124   3.555   4.608  0.1275  0.3128  0.0704
 1193SOL    HW115212   0.076   3.519   4.683  0.0977 -0.6970 -0.4352
 1193SOL    HW215213   0.209   3.517   4.633  0.0998  0.9553  1.1386
 1194SOL     OW15214   4.178   2.578   7.621 -0.2645  0.2306  0.7688
 1194SOL    HW115215   4.126   2.658   7.617 -0.6999 -0.2733 -4.0051
 1194SOL    HW215216   4.265   2.613   7.637 -1.4964  3.2569  0.8588
 1195SOL     OW15217   1.295   0.252   6.513 -0.3001  0.6018  0.3659
 1195SOL    HW115218   1.325   0.289   6.596 -3.1015  1.1601  1.1412
 1195SOL    HW215219   1.199   0.257   6.510 -0.3969 -1.4233  0.1848
 1196SOL     OW15220   1.552   0.897  10.618 -0.0353  0.2071  0.3711
 1196SOL    HW115221   1.627   0.909  10.676  0.2369  0.3681 -0.0136
 1196SOL    HW215222   1.490   0.853  10.675 -2.5898  2.6000 -0.5750
 1197SOL     OW15223   3.125   1.369   4.405  0.2094 -0.6199  0.0929
 1197SOL    HW115224   3.115   1.419   4.324 -0.7785 -3.7180 -1.6757
 1197SOL    HW215225   3.036   1.384   4.437  0.3848  2.2234 -0.7251
 1198SOL     OW15226   1.018   2.432   3.529 -0.3994 -0.1347 -0.0824
 1198SOL    HW115227   0.952   2.401   3.590  2.9940 -2.0603  2.6533
 1198SOL    HW215228   0.998   2.524   3.543 -1.9576 -0.0128 -3.1724
 1199SOL     OW15229   2.647   1.519   6.080  0.2995  0.1401  0.2757
 1199SOL    HW115230   2.565   1.566   6.096 -0.6933 -0.7969 -1.9727
 1199SOL    HW215231   2.701   1.583   6.033  0.1614  0.5209  0.6371
 1200SOL     OW15232   0.899   3.537   5.465  0.4833 -0.3257  0.9337
 1200SOL    HW115233   0.859   3.503   5.545  1.8351 -0.1383  1.6975
 1200SOL    HW215234   0.958   3.590   5.518  0.4008  0.7990 -0.1037
 1201SOL     OW15235   2.950   0.787   2.613  0.0691  0.3260 -0.1278
 1201SOL    HW115236   2.951   0.825   2.525  1.5102 -1.8207 -1.0406
 1201SOL    HW215237   3.021   0.724   2.610 -0.0184  0.2764 -1.2538
 1202SOL     OW15238   2.151   2.710   4.577  0.0873  0.2042  0.1577
 1202SOL    HW115239   2.092   2.641   4.546  1.0474 -0.6180  0.1528
 1202SOL    HW215240   2.190   2.660   4.649  0.1838  0.9559  0.6264
 1203SOL     OW15241   1.438   4.667   6.412 -1.0219 -0.2013  0.7549
 1203SOL    HW115242   1.408   4.627   6.330 -0.0839  1.1363 -0.2402
 1203SOL    HW215243   1.390   4.612   6.475  0.6447 -1.0747  1.2728
 1204SOL     OW15244   0.740   0.084   4.217 -0.7924 -0.6002 -0.6469
 1204SOL    HW115245   0.784   0.021   4.161 -2.4544 -0.1682 -2.4377
 1204SOL    HW215246   0.713   0.025   4.287  1.3045 -2.0399 -1.0715
 1205SOL     OW15247   3.860   3.915   3.724 -0.1537 -0.0934  0.5997
 1205SOL    HW115248   3.785   3.904   3.783 -0.2047 -0.7305  0.4241
 1205SOL    HW215249   3.862   4.010   3.714 -0.3740 -0.3010 -1.4591
 1206SOL     OW15250   2.177   4.555   4.879  0.0569 -0.4676 -0.0534
 1206SOL    HW115251   2.218   4.473   4.907  0.1879 -0.5515 -0.4877
 1206SOL    HW215252   2.226   4.580   4.800 -0.3206 -1.6285 -0.6428
 1207SOL     OW15253   2.583   0.412   5.297  0.3282 -0.0893 -0.3449
 1207SOL    HW115254   2.673   0.379   5.291  0.5934  1.0535 -2.9243
 1207SOL    HW215255   2.562   0.363   5.376  0.1787 -0.0226 -0.3432
 1208SOL     OW15256   2.531   2.999   2.799  0.3500 -0.1219  0.1764
 1208SOL    HW115257   2.597   3.066   2.784  1.5400 -1.8832 -2.4469
 1208SOL    HW215258   2.570   2.922   2.757  0.0863  0.7163 -1.6014
 1209SOL     OW15259   1.634   3.961   0.823  0.3140 -0.4497  0.6891
 1209SOL    HW115260   1.564   3.896   0.814 -1.6946  2.2473 -3.0727
 1209SOL    HW215261   1.697   3.912   0.770  1.1595  0.7042  0.6449
 1210SOL     OW15262   3.954   2.462   6.577  0.2024  0.2069  0.6956
 1210SOL    HW115263   3.859   2.464   6.576  0.2004  0.2793  1.5368
 1210SOL    HW215264   3.977   2.549   6.545 -0.4473  0.3822  0.7128
 1211SOL     OW15265   1.268   2.626   2.874 -0.6350 -0.2227  0.1278
 1211SOL    HW115266   1.304   2.708   2.907 -0.9671  0.0365 -0.1564
 1211SOL    HW215267   1.319   2.569   2.932 -0.2165  0.7744  0.7410
 1212SOL     OW15268   4.675   2.244  17.164  0.1780 -0.3268 -0.2493
 1212SOL    HW115269   4.721   2.242  17.248  0.9087 -1.3182 -0.6799
 1212SOL    HW215270   0.002   2.231  17.094  0.8616  1.0237  0.1117
 1213SOL     OW15271   4.538   4.082   5.014 -0.4690 -0.1758  0.2295
 1213SOL    HW115272   4.550   4.177   5.020 -2.1313 -0.0043  0.9344
 1213SOL    HW215273   4.624   4.056   4.982 -2.2658 -2.2335 -2.8597
 1214SOL     OW15274   0.603   2.584   1.186 -0.4373  0.2241  0.1910
 1214SOL    HW115275   0.696   2.601   1.173 -0.6095  0.9829 -0.1036
 1214SOL    HW215276   0.592   2.644   1.260 -0.4866  1.7555 -1.0429
 1215SOL     OW15277   1.235   3.152   8.917 -0.0844  0.1050 -0.2640
 1215SOL    HW115278   1.186   3.073   8.937 -2.3451  1.5307 -0.2308
 1215SOL    HW215279   1.326   3.126   8.904  0.3530  0.1322  2.7073
 1216SOL     OW15280   0.864   0.968   6.838  0.0844  0.1401 -0.2491
 1216SOL    HW115281   0.828   1.024   6.907 -0.2487 -2.6227  1.8113
 1216SOL    HW215282   0.935   1.023   6.805  1.6538 -2.3102 -0.8523
 1217SOL     OW15283   1.324   4.676   7.854 -0.7049 -0.1612  0.2485
 1217SOL    HW115284   1.352   4.602   7.909  0.1006 -0.2602 -0.3016
 1217SOL    HW215285   1.384   0.002   7.892  1.6010 -1.2589 -1.5584
 1218SOL     OW15286   0.185   2.010   8.170 -0.1885  0.4692  0.6831
 1218SOL    HW115287   0.218   1.950   8.236 -0.8677  0.6877  1.2193
 1218SOL    HW215288   0.249   2.080   8.163 -0.5035  0.5599 -1.3892
 1219SOL     OW15289   1.733   4.515   7.835  0.1607 -0.1298 -0.0921
 1219SOL    HW115290   1.809   4.529   7.891  0.4102 -4.1604  0.5867
 1219SOL    HW215291   1.674   4.492   7.906  0.8891 -0.6695  0.3326
 1220SOL     OW15292   0.337   0.372   9.005  0.5667  0.1313  0.5635
 1220SOL    HW115293   0.380   0.394   8.922 -0.9169 -0.7242 -0.4456
 1220SOL    HW215294   0.316   0.279   8.992  0.1502  0.4988 -1.4821
 1221SOL     OW15295   0.019   3.131   7.435  0.3586 -0.2432  0.0847
 1221SOL    HW115296   0.029   3.192   7.362  1.2624  2.5334  2.4831
 1221SOL    HW215297   0.076   3.059   7.408 -0.8073 -0.5883 -1.4368
 1222SOL     OW15298   4.438   3.185   6.899  0.1012 -0.2234 -0.8253
 1222SOL    HW115299   4.503   3.254   6.913 -1.1868  1.1402 -1.4528
 1222SOL    HW215300   4.463   3.117   6.961  2.4003  1.6031  0.2338
 1223SOL     OW15301   3.062   0.179   9.396 -0.4322 -0.1658  0.3551
 1223SOL    HW115302   2.970   0.164   9.376 -0.2907 -1.0692  0.3961
 1223SOL    HW215303   3.060   0.238   9.471  2.6825  0.4503 -0.0280
 1224SOL     OW15304   2.330   3.603   6.460 -0.5623  0.4194 -0.0608
 1224SOL    HW115305   2.297   3.614   6.370 -1.2918 -0.5614  0.0933
 1224SOL    HW215306   2.384   3.525   6.451 -1.5494 -0.4002  1.2145
 1225SOL     OW15307   2.050   1.210   5.646  0.1548 -0.1934  0.4597
 1225SOL    HW115308   2.065   1.241   5.735  2.1467  0.6482 -0.1725
 1225SOL    HW215309   1.981   1.271   5.619 -0.1824 -0.7982 -0.0801
 1226SOL     OW15310   2.949   0.143   8.880 -0.5490 -0.5858 -0.1737
 1226SOL    HW115311   2.947   0.188   8.965  0.7657 -0.6153 -0.1135
 1226SOL    HW215312   2.905   0.208   8.826 -2.5228 -0.8825  1.0799
 1227SOL     OW15313   0.683   1.490   8.384 -0.0840 -0.0194  0.5036
 1227SOL    HW115314   0.659   1.414   8.331 -0.9004 -0.6081  1.7371
 1227SOL    HW215315   0.607   1.492   8.443 -0.7421 -1.1285 -0.3154
 1228SOL     OW15316   2.060   0.353   7.158  0.2913  0.5474 -0.0893
 1228SOL    HW115317   2.060   0.271   7.110 -0.4304 -0.0726  0.9556
 1228SOL    HW215318   2.073   0.308   7.242  1.3973  1.1277  0.0580
 1229SOL     OW15319   4.570   3.794   9.532  0.7817  0.7886  0.3648
 1229SOL    HW115320   4.583   3.888   9.538 -1.2360  1.0906  0.1366
 1229SOL    HW215321   4.496   3.785   9.593 -1.0948  0.0326 -2.0356
 1230SOL     OW15322   3.646   0.991   7.663 -0.0675 -0.2878 -0.9898
 1230SOL    HW115323   3.706   0.942   7.607 -1.1028 -2.2128 -0.4228
 1230SOL    HW215324   3.699   1.069   7.676 -2.6083  1.2905 -0.1571
 1231SOL     OW15325   2.923   2.751   9.596  0.1171 -0.3639  0.2079
 1231SOL    HW115326   2.861   2.684   9.622 -0.6005  0.0659 -0.4188
 1231SOL    HW215327   2.936   2.799   9.678 -0.6618 -1.7369  1.1159
 1232SOL     OW15328   2.995   2.139   4.158  0.1286  0.4059 -0.3848
 1232SOL    HW115329   2.903   2.146   4.182  0.6701 -1.6082  2.2964
 1232SOL    HW215330   3.037   2.217   4.193 -3.0765  1.1502  1.7689
 1233SOL     OW15331   1.820   2.982   9.003 -0.8203  0.1032 -0.5403
 1233SOL    HW115332   1.739   3.010   8.960 -1.1003  0.7120  0.3860
 1233SOL    HW215333   1.856   3.068   9.026 -2.6872  1.4001 -2.5274
 1234SOL     OW15334   1.720   1.930  14.795 -0.1853  0.6970 -0.0301
 1234SOL    HW115335   1.704   1.855  14.738 -0.4293  1.8946 -1.5493
 1234SOL    HW215336   1.743   1.883  14.875 -0.7223  3.0633  1.5197
 1235SOL     OW15337   0.122   3.539   3.413  0.4415  0.2206  0.1513
 1235SOL    HW115338   0.159   3.461   3.452 -1.2929 -1.4699 -1.5805
 1235SOL    HW215339   0.185   3.554   3.343  2.4676 -1.6515  1.5856
 1236SOL     OW15340   3.510   2.311  12.671  0.2569 -0.1388  0.7215
 1236SOL    HW115341   3.469   2.357  12.745  3.5156  1.8224  1.2880
 1236SOL    HW215342   3.451   2.236  12.666 -0.1683  0.1570  1.2573
 1237SOL     OW15343   1.493   4.590   0.857  0.6733  0.0667  0.0356
 1237SOL    HW115344   1.427   4.532   0.818  0.3071  0.0375  0.7008
 1237SOL    HW215345   1.484   4.567   0.949  0.6886 -0.0208  0.0155
 1238SOL     OW15346   3.601   3.472   2.284  0.0323  0.4255  0.3009
 1238SOL    HW115347   3.558   3.503   2.364 -1.1329  1.6128 -0.7667
 1238SOL    HW215348   3.528   3.431   2.236  0.6243 -0.3760  0.0912
 1239SOL     OW15349   3.855   1.161   3.649 -0.4942 -0.0050 -0.1746
 1239SOL    HW115350   3.897   1.075   3.656 -0.8581 -0.0159  1.8393
 1239SOL    HW215351   3.930   1.214   3.674 -2.8740  2.3797  1.8742
 1240SOL     OW15352   4.410   2.960   2.865 -0.1983  0.5975  0.2438
 1240SOL    HW115353   4.338   2.962   2.803  0.1795  0.9128 -0.1803
 1240SOL    HW215354   4.486   2.999   2.821 -0.4768  0.7259 -0.1140
 1241SOL     OW15355   2.618   1.013   4.948 -0.5422 -0.3012 -0.0551
 1241SOL    HW115356   2.559   1.087   4.961 -0.6370 -0.1955 -1.1301
 1241SOL    HW215357   2.597   0.972   5.032 -0.3847  3.9928  2.0514
 1242SOL     OW15358   2.698   1.544  12.401 -0.3082 -0.0569 -0.0831
 1242SOL    HW115359   2.665   1.499  12.479  0.5057 -1.4073 -0.5071
 1242SOL    HW215360   2.629   1.610  12.401 -0.2412  0.0182  0.6033
 1243SOL     OW15361   2.462   3.014   8.243  0.8532  0.0305 -0.1365
 1243SOL    HW115362   2.378   2.968   8.242 -0.3037  2.1156  0.3912
 1243SOL    HW215363   2.484   3.004   8.150 -0.1497 -1.5492 -0.1968
 1244SOL     OW15364   4.083   0.410   8.542 -0.6269 -0.2412  0.0428
 1244SOL    HW115365   3.994   0.411   8.577 -0.4677  0.0976  0.4371
 1244SOL    HW215366   4.116   0.499   8.558  1.0524 -0.6191 -1.3103
 1245SOL     OW15367   4.119   1.199   4.855  0.1656  0.0611  0.5633
 1245SOL    HW115368   4.135   1.293   4.863 -0.0935  0.1758 -0.2661
 1245SOL    HW215369   4.038   1.212   4.806  1.4216  1.4241 -1.1760
 1246SOL     OW15370   2.067   2.089   2.583  0.1899  0.0065 -0.2794
 1246SOL    HW115371   2.060   2.051   2.671  1.1860  0.3535 -0.0564
 1246SOL    HW215372   2.124   2.028   2.537  1.7476  3.4195 -2.8796
 1247SOL     OW15373   2.648   3.667   6.236  0.1103  0.8000  0.8244
 1247SOL    HW115374   2.652   3.627   6.323 -3.3279 -0.8930  0.2274
 1247SOL    HW215375   2.738   3.699   6.234  0.8783 -1.3815 -0.1547
 1248SOL     OW15376   4.061   3.371  12.844 -0.0554  0.2674 -0.2995
 1248SOL    HW115377   4.037   3.421  12.766  3.8654  0.6492 -1.2651
 1248SOL    HW215378   4.038   3.286  12.806 -0.7340  0.0379  0.6281
 1249SOL     OW15379   1.112   3.254  13.874 -0.4032 -0.3954 -0.2194
 1249SOL    HW115380   1.033   3.201  13.887  0.5569 -0.9074  3.3700
 1249SOL    HW215381   1.112   3.252  13.778 -1.8400 -0.3929 -0.2160
 1250SOL     OW15382   2.475   4.267   8.639  0.0746  0.1296  0.0667
 1250SOL    HW115383   2.563   4.260   8.675  0.1937  1.7826  0.0872
 1250SOL    HW215384   2.458   4.355   8.671 -0.3669  0.8205 -2.0672
 1251SOL     OW15385   0.214   3.263   5.264 -0.1283 -0.7296 -0.1988
 1251SOL    HW115386   0.201   3.295   5.353  1.6910 -3.3280  0.9976
 1251SOL    HW215387   0.158   3.320   5.211  0.5767 -0.6053 -0.8155
 1252SOL     OW15388   4.564   2.410  14.402 -0.0629 -0.4295  0.0711
 1252SOL    HW115389   4.532   2.323  14.382 -0.4902 -0.6428  1.6859
 1252SOL    HW215390   4.639   2.406  14.462  0.1600 -1.7243 -0.3065
 1253SOL     OW15391   1.716   2.422   8.681 -0.2971  0.0701  0.5327
 1253SOL    HW115392   1.804   2.460   8.674 -0.2250 -0.0714  0.6786
 1253SOL    HW215393   1.741   2.332   8.703 -0.1893 -0.3393 -1.2313
 1254SOL     OW15394   3.348   0.057  15.556  0.3738 -0.3338 -0.1440
 1254SOL    HW115395   3.276   0.121  15.560 -2.0684 -3.2412  2.3315
 1254SOL    HW215396   3.388   0.069  15.470 -0.2850 -1.8833 -0.6656
 1255SOL     OW15397   3.141   4.657   9.230 -0.2873 -0.7222 -0.3138
 1255SOL    HW115398   3.082   4.714   9.180 -0.1425 -1.0997 -0.9202
 1255SOL    HW215399   3.188   4.716   9.290 -0.1625 -0.9939 -0.1467
 1256SOL     OW15400   2.085   0.750  10.537 -0.7670  0.3872 -0.0019
 1256SOL    HW115401   2.098   0.844  10.526 -1.0755  0.9027  4.2757
 1256SOL    HW215402   1.992   0.732  10.548 -0.6577  0.5394  1.1155
 1257SOL     OW15403   3.554   1.365   7.134  0.9887 -0.0552 -0.0623
 1257SOL    HW115404   3.558   1.292   7.072  0.2269  0.5618 -0.8326
 1257SOL    HW215405   3.614   1.331   7.201  0.2292 -0.6853  0.2902
 1258SOL     OW15406   2.938   2.124  16.760 -0.0957  0.5538 -0.3405
 1258SOL    HW115407   2.892   2.058  16.708 -0.8403  1.2194 -0.5249
 1258SOL    HW215408   3.031   2.102  16.751  0.0688  1.2758 -0.4269
 1259SOL     OW15409   3.135   0.598  13.492 -0.2483 -0.6803 -0.0214
 1259SOL    HW115410   3.065   0.604  13.557  1.0652 -0.8890  1.4216
 1259SOL    HW215411   3.095   0.565  13.412  0.1544 -1.9504  0.2985
 1260SOL     OW15412   3.430   2.674   2.241  0.5687 -0.1190  0.5318
 1260SOL    HW115413   3.482   2.697   2.164 -0.3366  0.2136  0.0207
 1260SOL    HW215414   3.357   2.735   2.234  0.7785 -0.1650 -2.1383
 1261SOL     OW15415   3.476   4.531  13.729 -0.4627  0.2343 -0.0438
 1261SOL    HW115416   3.408   4.577  13.679  1.0030  2.2992 -0.1455
 1261SOL    HW215417   3.456   4.557  13.819 -2.4090  1.8058 -0.9178
 1262SOL     OW15418   1.939   3.472  13.851 -0.6646  0.2141  0.3357
 1262SOL    HW115419   1.889   3.460  13.770  0.1640  0.9572 -0.2919
 1262SOL    HW215420   1.878   3.468  13.925  0.2373  0.0226  1.0759
 1263SOL     OW15421   4.525   3.130   9.307 -0.0615 -0.4481 -0.3347
 1263SOL    HW115422   4.448   3.186   9.307  0.2579 -0.0151  1.4909
 1263SOL    HW215423   4.556   3.132   9.217 -1.2818 -0.5461 -0.7526
 1264SOL     OW15424   3.978   0.568  15.697 -0.0529 -0.3958  0.0910
 1264SOL    HW115425   3.914   0.502  15.725  2.3327 -3.1228 -0.8834
 1264SOL    HW215426   4.018   0.521  15.624  1.4723  1.9250 -0.5686
 1265SOL     OW15427   2.667   3.458   3.414  0.0481  0.3731 -0.1155
 1265SOL    HW115428   2.674   3.443   3.320 -1.3312  0.7890 -0.2793
 1265SOL    HW215429   2.642   3.371   3.445 -0.8212 -0.1194 -2.2103
 1266SOL     OW15430   4.724   2.296   0.191  0.2749 -0.5913 -0.1527
 1266SOL    HW115431   4.629   2.288   0.200  0.3347 -0.4417  0.5813
 1266SOL    HW215432   4.730   2.295   0.095  1.5939 -0.9695 -0.0642
 1267SOL     OW15433   3.017   1.268  16.184  0.0540 -0.1308  0.1860
 1267SOL    HW115434   2.944   1.206  16.182  1.5123 -1.8084 -1.5230
 1267SOL    HW215435   3.010   1.296  16.275 -0.5639 -0.6243  0.2903
 1268SOL     OW15436   3.134   3.005   4.886  0.5327 -0.0593 -0.2763
 1268SOL    HW115437   3.104   2.978   4.799  0.3178 -0.6358 -0.0225
 1268SOL    HW215438   3.147   2.914   4.912  1.1905  0.3462  0.8351
 1269SOL     OW15439   0.680   0.207  16.756 -0.4577 -0.5958  0.1286
 1269SOL    HW115440   0.610   0.216  16.820 -1.3775 -1.7119 -0.7083
 1269SOL    HW215441   0.742   0.261  16.805 -0.7806 -0.3559  0.2732
 1270SOL     OW15442   2.639   3.894   6.463 -0.1656  0.3213  0.3453
 1270SOL    HW115443   2.694   3.933   6.530  0.4442  0.2071 -0.0833
 1270SOL    HW215444   2.665   3.802   6.466  2.2667  1.0877  2.6683
 1271SOL     OW15445   4.380   1.059   0.222 -0.0306  0.3637  0.4848
 1271SOL    HW115446   4.317   1.104   0.166 -2.0125 -1.1561  1.4840
 1271SOL    HW215447   4.332   1.045   0.304 -1.2402 -2.6973 -0.7380
 1272SOL     OW15448   3.020   1.302   6.050 -0.1648 -0.4313  0.4401
 1272SOL    HW115449   3.074   1.228   6.075 -0.6290 -1.2425 -0.9422
 1272SOL    HW215450   3.043   1.300   5.957  0.6066 -0.1526  0.6251
 1273SOL     OW15451   2.818   1.169   7.126  0.6395  0.7794 -0.0526
 1273SOL    HW115452   2.774   1.144   7.207 -3.9942  1.9261 -2.1901
 1273SOL    HW215453   2.837   1.262   7.136  2.0214  0.2009  2.4898
 1274SOL     OW15454   2.992   1.532   8.053 -0.2976  0.3555 -0.4248
 1274SOL    HW115455   2.909   1.532   8.005 -0.1656 -1.5542 -0.6193
 1274SOL    HW215456   2.980   1.469   8.124  2.5129  1.6872  1.2247
 1275SOL     OW15457   1.255   0.137   2.522 -0.1244  0.4196  0.4225
 1275SOL    HW115458   1.286   0.135   2.431 -2.1423 -2.9326 -0.1521
 1275SOL    HW215459   1.324   0.185   2.568  1.5427  0.6911 -2.3699
 1276SOL     OW15460   2.861   1.949  10.221  0.1039  0.2846  0.1255
 1276SOL    HW115461   2.781   1.920  10.177  2.1123 -1.7861 -2.1441
 1276SOL    HW215462   2.917   1.926  10.147 -0.1299  2.8496 -0.8584
 1277SOL     OW15463   2.416   1.489   8.743 -0.1327  0.8150 -0.2490
 1277SOL    HW115464   2.472   1.488   8.665 -0.2811  1.6792 -0.3637
 1277SOL    HW215465   2.413   1.582   8.765 -1.7268  0.9291 -0.9866
 1278SOL     OW15466   0.712   1.854  13.506 -0.2315 -0.2379  0.3299
 1278SOL    HW115467   0.651   1.885  13.573 -0.7979 -0.0849 -0.2572
 1278SOL    HW215468   0.719   1.934  13.455  0.7384 -1.3281 -1.2774
 1279SOL     OW15469   2.921   1.786   4.971  0.0014  0.4056 -0.0254
 1279SOL    HW115470   2.828   1.804   4.987 -0.6896 -2.7185 -0.5752
 1279SOL    HW215471   2.936   1.844   4.896 -1.1386  0.1233 -0.4788
 1280SOL     OW15472   2.131   0.034   3.386 -0.1845 -0.0612 -0.1214
 1280SOL    HW115473   2.079   0.059   3.462 -0.1465 -1.8543  0.4962
 1280SOL    HW215474   2.136   4.677   3.402 -3.6655 -0.0262  1.0807
 1281SOL     OW15475   1.790   0.991   7.802 -0.6287  0.0247 -0.2359
 1281SOL    HW115476   1.767   0.946   7.884  0.7869  1.5118  0.9907
 1281SOL    HW215477   1.803   1.082   7.828 -0.2056  0.4689 -2.0230
 1282SOL     OW15478   2.893   0.131   4.824  0.1653 -0.0785  0.0902
 1282SOL    HW115479   2.983   0.132   4.792  0.4963 -0.6380  1.0069
 1282SOL    HW215480   2.858   0.180   4.750  0.0097 -1.8751 -1.0164
 1283SOL     OW15481   1.563   1.036  17.503 -0.5926 -0.1650 -0.0344
 1283SOL    HW115482   1.524   1.020  17.417  0.3546 -0.2265 -0.4543
 1283SOL    HW215483   1.492   1.038  17.567 -1.9588 -1.3374 -1.5104
 1284SOL     OW15484   1.055   2.649   3.209  0.6142  0.9445 -0.2727
 1284SOL    HW115485   1.137   2.630   3.254 -0.6849  2.6263  2.7967
 1284SOL    HW215486   1.043   2.565   3.164 -1.6768  1.5664 -0.8607
 1285SOL     OW15487   4.692   1.847   2.200 -0.1130 -0.4692 -0.1837
 1285SOL    HW115488   4.730   1.837   2.287  0.9985 -0.7527 -0.7035
 1285SOL    HW215489   0.021   1.901   2.158 -0.7026  0.5875  0.2457
 1286SOL     OW15490   1.503   3.425   5.554  0.4783  0.4329 -0.4428
 1286SOL    HW115491   1.432   3.387   5.502  1.4239 -1.1532 -0.5585
 1286SOL    HW215492   1.467   3.509   5.584  2.6310  0.9806  0.5877
 1287SOL     OW15493   3.561   1.591  13.290 -0.2121 -0.1704 -0.3949
 1287SOL    HW115494   3.585   1.684  13.288 -1.6192  0.2049  0.2233
 1287SOL    HW215495   3.501   1.584  13.215  2.0340  0.3836 -2.2539
 1288SOL     OW15496   3.862   2.312   3.400 -0.1751 -0.0692  0.4429
 1288SOL    HW115497   3.936   2.329   3.342 -2.4179 -0.4835 -2.5796
 1288SOL    HW215498   3.838   2.401   3.424  2.0891  0.8892 -0.8518
 1289SOL     OW15499   1.595   1.588  17.526 -0.1408 -0.1345  0.4003
 1289SOL    HW115500   1.573   1.615  17.437  2.9158  1.9033  0.2575
 1289SOL    HW215501   1.514   1.555  17.565 -0.4752  0.7791  0.4773
 1290SOL     OW15502   2.316   1.502   5.674 -0.4650  0.0261 -0.0865
 1290SOL    HW115503   2.354   1.588   5.656  1.8943 -1.5014 -2.3277
 1290SOL    HW215504   2.397   1.474   5.716 -0.9135 -1.1504 -0.0091
 1291SOL     OW15505   3.984   0.743   5.698  0.8810  0.4096  0.0342
 1291SOL    HW115506   4.003   0.784   5.614 -1.1258  1.1673 -0.0570
 1291SOL    HW215507   4.068   0.741   5.745  1.0473  0.8684 -0.2358
 1292SOL     OW15508   0.103   2.289   4.287  0.0408 -0.3888 -0.0497
 1292SOL    HW115509   0.185   2.335   4.304 -0.7118  0.5471  1.0211
 1292SOL    HW215510   0.063   2.286   4.374  1.0590 -2.1420  0.3622
 1293SOL     OW15511   2.425   3.544  12.211  0.0716  0.9159 -0.1973
 1293SOL    HW115512   2.450   3.564  12.121  1.2176 -3.3182 -0.8077
 1293SOL    HW215513   2.498   3.487  12.234 -1.3061 -1.4615 -1.6937
 1294SOL     OW15514   1.359   3.128   5.308 -0.3873  0.0493  0.1559
 1294SOL    HW115515   1.327   3.180   5.381  1.0233 -0.9429  1.4811
 1294SOL    HW215516   1.365   3.196   5.240 -0.0683 -0.0571  0.0792
 1295SOL     OW15517   1.372   1.813   2.359  0.1906 -0.1477 -0.6145
 1295SOL    HW115518   1.391   1.828   2.452  0.7660 -0.1176 -0.7378
 1295SOL    HW215519   1.347   1.900   2.327  0.6832 -0.3042 -1.4071
 1296SOL     OW15520   2.563   1.735   8.157 -0.4649  0.3983 -0.2402
 1296SOL    HW115521   2.535   1.816   8.113 -0.2825  0.7284  0.2606
 1296SOL    HW215522   2.518   1.730   8.241  0.0045 -2.2640 -0.1544
 1297SOL     OW15523   0.824   0.955   9.419 -0.4567 -0.4973  0.1859
 1297SOL    HW115524   0.829   0.880   9.478 -1.6539 -1.2435 -0.6635
 1297SOL    HW215525   0.754   1.001   9.466 -0.9463 -2.6393  1.5753
 1298SOL     OW15526   4.316   1.074  13.196  0.1630  0.9243  0.1891
 1298SOL    HW115527   4.387   1.110  13.143  0.2609 -0.0239 -0.3302
 1298SOL    HW215528   4.365   1.058  13.277 -0.8076 -2.1372  0.1671
 1299SOL     OW15529   2.784   3.933   3.841  0.0884  0.1899 -0.7169
 1299SOL    HW115530   2.872   3.938   3.803  0.3309 -1.4058 -0.3470
 1299SOL    HW215531   2.755   4.023   3.859  1.4423  0.3540  0.6701
 1300SOL     OW15532   4.710   4.235   2.316 -0.5449 -0.0167 -0.5545
 1300SOL    HW115533   4.671   4.148   2.307 -0.2538 -0.1355 -0.6502
 1300SOL    HW215534   4.708   4.265   2.225  0.6156 -2.0068 -1.2257
 1301SOL     OW15535   0.491   2.444  13.149  0.0177  0.6731 -0.7115
 1301SOL    HW115536   0.480   2.538  13.131 -1.3930  0.5338 -0.5646
 1301SOL    HW215537   0.404   2.415  13.122  0.6596 -0.7786 -1.2146
 1302SOL     OW15538   4.142   0.404  14.277 -0.6003 -0.2015  0.6003
 1302SOL    HW115539   4.127   0.486  14.229 -3.3365 -0.3200  1.2642
 1302SOL    HW215540   4.092   0.339  14.228  1.9033 -0.5437 -1.5170
 1303SOL     OW15541   3.910   3.133   4.216 -0.2142 -0.1857 -0.2675
 1303SOL    HW115542   3.859   3.157   4.293 -0.6357 -1.0890 -0.2586
 1303SOL    HW215543   3.988   3.086   4.245 -0.2103 -0.0693 -0.0929
 1304SOL     OW15544   1.717   1.596   2.951  0.1314 -0.7399  0.0461
 1304SOL    HW115545   1.637   1.578   2.902 -0.5704 -0.0805  0.9628
 1304SOL    HW215546   1.731   1.521   3.009  0.4453 -0.7826 -0.0828
 1305SOL     OW15547   2.696   2.369   7.328  0.2247  0.4637  0.7429
 1305SOL    HW115548   2.700   2.337   7.418 -1.6097  0.6527  0.8888
 1305SOL    HW215549   2.783   2.343   7.296 -0.3402 -0.5573  0.0088
 1306SOL     OW15550   1.168   2.282  14.673  0.7068 -0.1414 -0.1311
 1306SOL    HW115551   1.145   2.303  14.764 -0.0012  0.7353 -0.5102
 1306SOL    HW215552   1.263   2.275  14.673  0.6952 -0.2860 -0.2703
 1307SOL     OW15553   0.063   2.959   5.886  0.2531 -0.3732  0.0483
 1307SOL    HW115554   0.116   2.894   5.933  1.4859  0.6552  0.1009
 1307SOL    HW215555   0.062   3.026   5.954 -1.4031 -0.3750  0.0257
 1308SOL     OW15556   4.106   4.269   3.303  0.4641 -0.4297  0.0905
 1308SOL    HW115557   4.168   4.199   3.323 -0.0462 -0.1940  2.5355
 1308SOL    HW215558   4.163   4.342   3.278  0.4465 -1.2576 -2.3492
 1309SOL     OW15559   1.110   2.385  14.420 -0.0845  0.3285 -0.0745
 1309SOL    HW115560   1.126   2.347  14.506 -1.3218  1.8483  0.8276
 1309SOL    HW215561   1.171   2.459  14.419  0.6688 -0.3320 -2.0252
 1310SOL     OW15562   2.057   4.141   8.896 -0.1760  0.0981  0.3230
 1310SOL    HW115563   2.130   4.155   8.956 -1.5988 -1.6448  2.5211
 1310SOL    HW215564   2.016   4.075   8.952 -0.1403  0.6662  1.0236
 1311SOL     OW15565   2.210   2.582   0.626 -0.9799  0.1840 -0.1552
 1311SOL    HW115566   2.134   2.554   0.677 -1.5377 -0.3815 -1.2997
 1311SOL    HW215567   2.234   2.653   0.685 -0.7977 -0.6924  0.8427
 1312SOL     OW15568   4.684   0.669  16.092  0.3881  0.1386  0.0968
 1312SOL    HW115569   4.729   0.709  16.018  0.0688  2.3868  1.1083
 1312SOL    HW215570   4.695   0.746  16.147  1.9661  0.3329 -0.5053
 1313SOL     OW15571   3.754   3.933   4.182  0.3440 -0.6210 -1.0155
 1313SOL    HW115572   3.728   4.008   4.235 -0.0130 -1.8430  0.5445
 1313SOL    HW215573   3.723   3.862   4.238 -2.0761  0.9542 -0.4208
 1314SOL     OW15574   0.269   1.867   8.386  0.4056  0.3984 -0.0857
 1314SOL    HW115575   0.351   1.857   8.337 -0.8675  0.8951 -2.3112
 1314SOL    HW215576   0.296   1.841   8.474  0.5778  0.3165 -0.1608
 1315SOL     OW15577   0.809   4.692  16.554  0.0288 -0.3033  0.2078
 1315SOL    HW115578   0.788   4.660  16.642  1.3649 -0.5460  0.4430
 1315SOL    HW215579   0.736   4.644  16.514  0.7112 -0.4338 -0.8825
 1316SOL     OW15580   0.931   0.447   6.094 -0.0205  0.0646 -0.6364
 1316SOL    HW115581   0.904   0.394   6.169 -2.7718 -1.2563 -2.5771
 1316SOL    HW215582   1.001   0.399   6.050 -1.0687 -1.6513 -0.4241
 1317SOL     OW15583   2.844   2.416   2.725  0.0401 -0.4745  0.4070
 1317SOL    HW115584   2.848   2.507   2.754 -1.3698  0.2574 -1.6819
 1317SOL    HW215585   2.770   2.387   2.778 -0.3395  0.8943  0.6193
 1318SOL     OW15586   0.210   1.985   5.533  0.2666  0.0789 -0.4641
 1318SOL    HW115587   0.240   2.060   5.481 -1.1086  1.0804  0.1700
 1318SOL    HW215588   0.135   2.024   5.578  0.3900 -0.6574  0.3752
 1319SOL     OW15589   4.557   4.287   9.387  0.8993 -0.1182  0.3367
 1319SOL    HW115590   4.603   4.319   9.465 -0.7140  1.4660  0.6260
 1319SOL    HW215591   4.622   4.306   9.319  2.2657  1.2354  2.0296
 1320SOL     OW15592   1.234   4.031   8.617 -0.1792 -0.7277 -0.1374
 1320SOL    HW115593   1.248   3.951   8.667 -3.7193 -0.8017  0.7576
 1320SOL    HW215594   1.158   4.064   8.666 -0.8590  3.2960 -3.8643
 1321SOL     OW15595   0.255   4.157  11.497  0.0671  0.0220  0.0334
 1321SOL    HW115596   0.346   4.152  11.466  0.4751  1.4030  1.0287
 1321SOL    HW215597   0.220   4.166  11.408  1.1864 -2.3522 -0.6465
 1322SOL     OW15598   4.724   4.381  17.392  0.1510 -0.5870  0.2335
 1322SOL    HW115599   4.712   4.324  17.317  2.3976 -0.8667  0.0642
 1322SOL    HW215600   0.070   4.423  17.368 -0.1438 -0.3462 -0.3775
 1323SOL     OW15601   2.847   1.992   7.092  0.0936 -0.4097 -0.1658
 1323SOL    HW115602   2.881   1.983   7.003  2.0401  0.5299  0.4793
 1323SOL    HW215603   2.757   1.965   7.076  1.1659 -2.5082 -2.6548
 1324SOL     OW15604   1.015   3.964   5.576  0.3075  0.5328 -0.4131
 1324SOL    HW115605   0.961   3.961   5.496  2.5127 -2.4562 -1.7851
 1324SOL    HW215606   0.952   3.979   5.647  1.6864 -1.6371  1.2520
 1325SOL     OW15607   4.477   1.347  15.075  0.2581 -0.3074  0.1205
 1325SOL    HW115608   4.550   1.407  15.092 -1.6076  1.2561  2.6387
 1325SOL    HW215609   4.428   1.359  15.156  3.1853  1.0646  1.6771
 1326SOL     OW15610   4.042   0.605   5.070 -0.0683 -0.3717 -0.1056
 1326SOL    HW115611   3.961   0.569   5.106  0.6592 -0.6480  1.2768
 1326SOL    HW215612   4.085   0.586   5.154 -0.8053 -0.8328  0.1671
 1327SOL     OW15613   3.808   0.497  11.545 -0.4647  0.5872  0.5200
 1327SOL    HW115614   3.869   0.511  11.472 -0.0685 -0.0433  0.7258
 1327SOL    HW215615   3.840   0.563  11.606  0.9407  1.7735 -1.5151
 1328SOL     OW15616   1.257   0.116   4.297 -0.1425 -0.2874  0.4897
 1328SOL    HW115617   1.209   0.134   4.216 -2.7364 -1.4973  1.7602
 1328SOL    HW215618   1.189   0.116   4.364  0.6516  1.5844  1.2861
 1329SOL     OW15619   2.922   2.972   5.973 -0.1924 -0.5349 -0.2032
 1329SOL    HW115620   2.871   2.906   5.926  1.7125 -0.7878 -1.9067
 1329SOL    HW215621   3.008   2.930   5.980 -0.1178 -0.3639 -0.0771
 1330SOL     OW15622   3.189   2.125   5.412  0.0645  0.1120 -0.4814
 1330SOL    HW115623   3.271   2.123   5.363 -0.2735  0.2670 -1.0542
 1330SOL    HW215624   3.123   2.143   5.345 -0.2240  1.0968  0.0671
 1331SOL     OW15625   0.054   4.333   3.083  0.2214  0.1796 -0.0943
 1331SOL    HW115626   0.147   4.349   3.096  0.2330  0.7730 -0.9115
 1331SOL    HW215627   0.039   4.381   3.002 -0.4905  0.3814  0.1537
 1332SOL     OW15628   3.380   1.466   6.440  0.0951  0.4006 -0.2347
 1332SOL    HW115629   3.445   1.397   6.455 -0.3724 -0.1385 -0.6864
 1332SOL    HW215630   3.364   1.466   6.346 -0.6988  2.6685 -0.0858
 1333SOL     OW15631   0.723   4.133  16.759  0.7865 -0.1336  0.0034
 1333SOL    HW115632   0.722   4.158  16.666  0.3246 -1.7723 -0.4380
 1333SOL    HW215633   0.783   4.058  16.766  1.9459  0.8319  0.3272
 1334SOL     OW15634   2.900   3.061   7.746  0.1147 -0.1391  0.1789
 1334SOL    HW115635   2.833   3.129   7.748 -1.0809 -1.3799  1.8657
 1334SOL    HW215636   2.947   3.086   7.825 -0.7459 -0.8404  0.9064
 1335SOL     OW15637   1.691   0.394  10.402 -0.5448 -0.3379 -0.1093
 1335SOL    HW115638   1.737   0.316  10.434  0.1233 -0.0359 -0.3311
 1335SOL    HW215639   1.714   0.455  10.473  1.0376 -2.2262  1.0117
 1336SOL     OW15640   4.248   0.274   4.319 -0.4628  0.2935 -0.3971
 1336SOL    HW115641   4.252   0.306   4.229 -0.3941 -0.1045 -0.5314
 1336SOL    HW215642   4.188   0.340   4.355 -0.7650  0.2024 -0.7418
 1337SOL     OW15643   3.788   2.216   1.049  0.2619  0.1607 -0.4092
 1337SOL    HW115644   3.861   2.163   1.016  1.2873  0.5276  1.2749
 1337SOL    HW215645   3.811   2.288   0.990  0.5740 -0.1976 -0.7275
 1338SOL     OW15646   2.514   2.478   7.174 -0.0969  0.3159  0.6029
 1338SOL    HW115647   2.457   2.539   7.221  0.5703  0.5890  1.0561
 1338SOL    HW215648   2.566   2.436   7.242 -0.9878 -1.2496  0.3079
 1339SOL     OW15649   2.877   4.246   5.115 -0.1532  0.3887  0.2853
 1339SOL    HW115650   2.861   4.326   5.166  0.8779  1.7108 -1.4653
 1339SOL    HW215651   2.841   4.178   5.172 -0.5414  0.3636  0.0059
 1340SOL     OW15652   1.671   2.019   8.859 -0.3842 -0.0766  0.2074
 1340SOL    HW115653   1.701   1.983   8.942 -2.7983 -0.8556  0.7228
 1340SOL    HW215654   1.579   2.035   8.878 -1.1363 -1.8981 -1.9027
 1341SOL     OW15655   2.172   3.369  11.052 -0.0272  0.7226 -0.2434
 1341SOL    HW115656   2.159   3.301  11.118 -0.8442  2.4978  1.4470
 1341SOL    HW215657   2.209   3.334  10.972  0.4275  0.8548 -0.0892
 1342SOL     OW15658   0.230   3.931   3.436  0.3848 -0.5765 -0.0640
 1342SOL    HW115659   0.277   3.920   3.519 -1.6486 -1.4398  0.9792
 1342SOL    HW215660   0.194   4.020   3.446 -0.1129 -0.7183 -0.6296
 1343SOL     OW15661   4.481   2.599   3.235 -0.3605 -0.5946 -0.1444
 1343SOL    HW115662   4.557   2.587   3.179  1.2906 -0.5569  2.1080
 1343SOL    HW215663   4.523   2.657   3.298 -0.2134 -1.1734  0.2873
 1344SOL     OW15664   3.473   0.638   3.940 -0.3033 -0.2295  0.6193
 1344SOL    HW115665   3.467   0.626   3.845 -1.1172 -1.2841  0.8072
 1344SOL    HW215666   3.438   0.727   3.945  1.4019  0.4051  1.2449
 1345SOL     OW15667   0.802   3.340   9.153  0.8948  0.2600 -0.0396
 1345SOL    HW115668   0.780   3.288   9.075 -0.2798 -0.1504  0.5596
 1345SOL    HW215669   0.775   3.428   9.126  1.8120  0.5473 -0.0355
 1346SOL     OW15670   0.357   1.289   2.302 -0.0032  0.0130  0.1271
 1346SOL    HW115671   0.268   1.293   2.267  0.2241  0.5415 -0.3953
 1346SOL    HW215672   0.344   1.238   2.382 -0.9452  0.1561  0.0692
 1347SOL     OW15673   0.784   4.401   6.776  0.8551 -0.2837 -0.3053
 1347SOL    HW115674   0.838   4.446   6.840 -0.5406 -1.2177  1.5341
 1347SOL    HW215675   0.842   4.374   6.705  2.7892  2.5336  0.2379
 1348SOL     OW15676   4.030   2.883  12.445 -0.2740 -0.0200 -0.0187
 1348SOL    HW115677   4.004   2.829  12.520  1.3630  0.2951  0.7551
 1348SOL    HW215678   4.124   2.871  12.436 -0.4473  0.4349 -2.5201
 1349SOL     OW15679   0.485   2.406   0.221  0.0955 -0.2311 -0.2538
 1349SOL    HW115680   0.431   2.472   0.265  2.1074  2.0296 -1.1225
 1349SOL    HW215681   0.498   2.332   0.280  1.8622  0.2056 -0.0806
 1350SOL     OW15682   4.139   0.726  13.367  0.3054 -0.4760 -0.3041
 1350SOL    HW115683   4.228   0.701  13.392  0.3683 -0.5105 -0.5621
 1350SOL    HW215684   4.125   0.657  13.302 -0.4015 -0.8775  0.2821
 1351SOL     OW15685   2.943   1.967  17.263  0.2354  0.7605 -0.2375
 1351SOL    HW115686   2.900   2.045  17.229 -1.2293 -0.3936 -1.0170
 1351SOL    HW215687   3.005   1.944  17.194 -0.3314  1.3919 -0.9570
 1352SOL     OW15688   2.887   2.075   7.954  0.9857 -0.0389  0.0131
 1352SOL    HW115689   2.943   2.148   7.928  1.2918  0.4617  2.0727
 1352SOL    HW215690   2.948   2.024   8.006 -0.2976 -2.5655 -0.9639
 1353SOL     OW15691   1.600   3.869   3.014  0.0145 -0.3305 -0.7632
 1353SOL    HW115692   1.662   3.915   3.071  0.8416 -0.0833 -1.8561
 1353SOL    HW215693   1.661   3.861   2.940  0.6498  3.6419 -0.6765
 1354SOL     OW15694   2.072   2.730  17.617 -0.2323  0.2648 -0.0165
 1354SOL    HW115695   1.986   2.731  17.574 -0.3315 -1.2492  0.1406
 1354SOL    HW215696   2.044   2.687  17.698 -0.8656 -0.5682 -0.6774
 1355SOL     OW15697   4.015   4.711  12.311 -0.0736 -0.2148 -0.9087
 1355SOL    HW115698   4.016   0.041  12.380  1.9844 -1.1292 -0.0564
 1355SOL    HW215699   4.050   0.017  12.234  1.2391 -0.1773 -0.2910
 1356SOL     OW15700   3.741   3.981   2.935  0.1347 -0.3680 -0.0247
 1356SOL    HW115701   3.734   4.071   2.966 -0.4115  0.1827 -1.7654
 1356SOL    HW215702   3.824   3.970   2.889 -0.5189 -0.7153 -1.1230
 1357SOL     OW15703   2.769   0.012   2.252 -0.1130 -0.1049  0.7553
 1357SOL    HW115704   2.742   4.658   2.249 -2.1675  0.5976 -1.8048
 1357SOL    HW215705   2.748   0.037   2.343  0.2818  1.8328  0.3220
 1358SOL     OW15706   2.250   1.382   7.627 -0.1045  0.5835  0.0217
 1358SOL    HW115707   2.294   1.299   7.612 -0.9475  0.0537  0.4921
 1358SOL    HW215708   2.314   1.440   7.585  1.9813 -2.3461 -0.8021
 1359SOL     OW15709   4.675   0.360   6.192  0.4491  0.4034  0.6386
 1359SOL    HW115710   4.654   0.363   6.285 -1.8194  2.9158  0.0392
 1359SOL    HW215711   0.033   0.373   6.193  0.5674 -0.1139 -1.8302
 1360SOL     OW15712   3.136   3.301  13.319 -0.0924  0.2306  0.5006
 1360SOL    HW115713   3.165   3.310  13.410 -0.0606  1.2021  0.3973
 1360SOL    HW215714   3.212   3.343  13.279 -0.5703  0.1975 -0.4613
 1361SOL     OW15715   1.369   3.612   2.630  0.4765  0.1104  0.9329
 1361SOL    HW115716   1.458   3.639   2.653  0.8340  1.1628 -1.6551
 1361SOL    HW215717   1.359   3.520   2.655  2.2592 -0.2945  0.0843
 1362SOL     OW15718   3.689   3.922   3.924 -0.3163 -0.2241 -0.0375
 1362SOL    HW115719   3.637   4.002   3.933 -1.9024 -1.1023 -1.3253
 1362SOL    HW215720   3.722   3.911   4.013 -2.6841  1.2178  1.0409
 1363SOL     OW15721   1.950   0.939   8.960  0.2767 -0.2595 -0.2214
 1363SOL    HW115722   1.878   0.877   8.946 -2.1196  2.1659  1.4359
 1363SOL    HW215723   1.898   1.019   8.962  2.8455  1.4342 -1.3285
 1364SOL     OW15724   3.283   3.115  17.438  0.7626 -0.2018  0.2450
 1364SOL    HW115725   3.240   3.169  17.371  1.6221  1.0110  0.6706
 1364SOL    HW215726   3.305   3.042  17.381 -1.4771  1.5173 -2.8108
 1365SOL     OW15727   3.435   1.954  17.066  1.1120 -0.7729 -0.1860
 1365SOL    HW115728   3.416   2.019  16.998  1.3729  1.2836  1.7445
 1365SOL    HW215729   3.427   2.013  17.140  2.1949  1.1684 -1.6277
 1366SOL     OW15730   0.787   3.622  17.380 -0.2419  0.5314  0.5361
 1366SOL    HW115731   0.838   3.615  17.460 -0.6784 -1.7462  0.6222
 1366SOL    HW215732   0.700   3.653  17.405 -0.2520  1.8282 -1.0986
 1367SOL     OW15733   3.027   1.896   5.747 -0.3739 -0.0976 -0.0102
 1367SOL    HW115734   3.061   1.831   5.808 -0.7643  1.0753  1.4954
 1367SOL    HW215735   3.102   1.943   5.712  0.2837 -0.5345  0.8082
 1368SOL     OW15736   4.096   4.126  13.650  0.1958 -0.6054  0.5130
 1368SOL    HW115737   4.110   4.199  13.711 -0.4602 -1.8316  2.1582
 1368SOL    HW215738   4.008   4.096  13.675  0.1473  0.1782  1.2856
 1369SOL     OW15739   4.224   1.241   0.116  0.3981  0.1535  0.2693
 1369SOL    HW115740   4.133   1.260   0.141 -0.1942 -0.3773 -1.5376
 1369SOL    HW215741   4.251   1.323   0.075  0.4969 -0.6340 -1.2269
 1370SOL     OW15742   2.225   3.875   4.742 -0.2669 -0.2234  0.5467
 1370SOL    HW115743   2.239   3.909   4.654  0.6081  0.6538  1.0221
 1370SOL    HW215744   2.206   3.957   4.788  2.3185  0.9396 -0.4875
 1371SOL     OW15745   1.509   0.180   5.200 -0.0094  0.1112  0.6658
 1371SOL    HW115746   1.591   0.215   5.236 -2.1575  2.5057  3.2526
 1371SOL    HW215747   1.556   0.128   5.135  0.4293  2.1909 -0.7085
 1372SOL     OW15748   1.570   3.953   0.440 -0.2563  0.0393  0.5424
 1372SOL    HW115749   1.589   3.895   0.367 -0.5340  0.6419 -0.0064
 1372SOL    HW215750   1.646   3.924   0.491 -1.9475 -3.2042  1.2360
 1373SOL     OW15751   0.901   2.244  17.391  0.2027  0.4274  0.2048
 1373SOL    HW115752   0.944   2.160  17.375 -1.2113 -0.2909  0.1747
 1373SOL    HW215753   0.890   2.253  17.486 -0.3742 -2.0117  0.3687
 1374SOL     OW15754   2.486   3.784   5.266  0.0112 -0.3177  0.0033
 1374SOL    HW115755   2.448   3.867   5.238  2.9285  1.5968  1.7268
 1374SOL    HW215756   2.436   3.768   5.345 -1.9279 -2.3359 -1.6340
 1375SOL     OW15757   4.402   1.942  16.494 -0.1251 -0.5222  0.3960
 1375SOL    HW115758   4.458   1.952  16.417  0.8117  0.0239  1.1423
 1375SOL    HW215759   4.313   1.956  16.461 -0.1820 -1.4277  0.1891
 1376SOL     OW15760   2.569   1.992  15.353  0.7301  0.3000 -1.0858
 1376SOL    HW115761   2.560   1.955  15.265  0.6642 -3.7053  0.6488
 1376SOL    HW215762   2.662   1.996  15.377  0.7054 -2.4364 -0.6167
 1377SOL     OW15763   1.259   0.066  10.042  0.0604  0.0234 -0.0410
 1377SOL    HW115764   1.304   4.721  10.022 -1.5241 -0.4493 -1.6007
 1377SOL    HW215765   1.318   0.102  10.108 -0.4959 -1.7314  1.4240
 1378SOL     OW15766   0.496   0.897   2.954 -0.4808  0.2644 -0.0206
 1378SOL    HW115767   0.407   0.867   2.935 -0.4925 -0.2378  0.8563
 1378SOL    HW215768   0.542   0.847   2.886  0.9659 -0.8837  1.8086
 1379SOL     OW15769   1.934   2.398   4.945  0.0490  0.2043 -0.7451
 1379SOL    HW115770   1.907   2.460   5.013  1.2892  2.5293 -2.3504
 1379SOL    HW215771   1.863   2.335   4.938  0.3754 -0.2747  0.2026
 1380SOL     OW15772   4.210   0.754   5.834  0.3771 -0.0848  0.2598
 1380SOL    HW115773   4.292   0.722   5.872 -1.1133 -1.5132  2.3212
 1380SOL    HW215774   4.160   0.749   5.916  0.7124  1.2320  0.5386
 1381SOL     OW15775   0.636   4.240   6.130  0.0465 -0.3968 -0.1749
 1381SOL    HW115776   0.562   4.185   6.154  0.3452 -1.8802 -2.6993
 1381SOL    HW215777   0.628   4.251   6.035 -2.6060 -0.1990  0.0753
 1382SOL     OW15778   3.010   3.368   8.417 -0.0322 -0.2080  0.0954
 1382SOL    HW115779   3.077   3.417   8.369 -1.0380  3.3097  2.2658
 1382SOL    HW215780   2.961   3.436   8.463  2.7340  1.5213  0.5153
 1383SOL     OW15781   1.018   1.939   0.806  0.1595 -0.1749  0.2858
 1383SOL    HW115782   1.106   1.920   0.840 -0.5486 -0.3277  2.0225
 1383SOL    HW215783   0.969   1.956   0.887  0.9536 -2.2839  1.2258
 1384SOL     OW15784   1.045   4.387   2.390  0.2208  0.4090  0.0565
 1384SOL    HW115785   1.081   4.366   2.304  2.2397 -1.3485  1.3503
 1384SOL    HW215786   1.123   4.432   2.422 -0.8048  0.9683  1.8297
 1385SOL     OW15787   1.795   3.573   1.997  0.0261 -0.0812 -0.1284
 1385SOL    HW115788   1.709   3.533   2.007 -1.4693  3.2171  0.3216
 1385SOL    HW215789   1.848   3.510   1.949  1.4888  0.3661  0.9257
 1386SOL     OW15790   1.393   1.234   2.030 -0.1846  0.4256  0.0845
 1386SOL    HW115791   1.365   1.326   2.021  1.2354  0.5893 -2.6878
 1386SOL    HW215792   1.318   1.193   1.987  1.7303 -2.7598 -0.2106
 1387SOL     OW15793   4.427   0.939   8.011 -0.6937  0.5588  0.2103
 1387SOL    HW115794   4.474   0.911   7.932 -0.1941 -0.6042  0.9179
 1387SOL    HW215795   4.422   1.032   7.990 -0.2350  1.0085  2.0882
 1388SOL     OW15796   0.661   0.996   8.017 -0.3765  0.3377  0.2095
 1388SOL    HW115797   0.715   1.004   8.095  0.0579  2.1563 -0.2662
 1388SOL    HW215798   0.699   1.071   7.971  1.2003 -1.1410 -0.8892
 1389SOL     OW15799   0.407   2.452  12.225 -0.4767  0.0478 -0.0491
 1389SOL    HW115800   0.344   2.424  12.292 -1.1114 -0.9651 -1.0549
 1389SOL    HW215801   0.488   2.464  12.275 -0.9209  1.6688  0.2955
 1390SOL     OW15802   2.745   2.725   4.045  0.2714 -0.0904 -0.5702
 1390SOL    HW115803   2.783   2.813   4.049  1.2926 -0.6185  1.1987
 1390SOL    HW215804   2.652   2.738   4.026 -0.0163 -0.3774  0.6318
 1391SOL     OW15805   1.690   3.136   1.823  0.3074  0.0673  0.0459
 1391SOL    HW115806   1.775   3.181   1.817 -0.3968  1.4097  0.2093
 1391SOL    HW215807   1.697   3.107   1.914 -1.4438 -0.8059 -0.1010
 1392SOL     OW15808   3.868   2.749   4.165  0.1915  0.7485  0.5621
 1392SOL    HW115809   3.895   2.761   4.256 -1.9569  0.5759  1.2101
 1392SOL    HW215810   3.888   2.830   4.119  0.9101  0.1704 -0.1465
 1393SOL     OW15811   4.075   3.750   6.325  0.3091 -0.0737  0.0111
 1393SOL    HW115812   4.130   3.691   6.272  0.8408  3.6791 -3.5904
 1393SOL    HW215813   4.050   3.690   6.396 -0.8997  0.6667  0.2023
 1394SOL     OW15814   4.287   0.345   8.137 -0.7309 -0.0753  0.3102
 1394SOL    HW115815   4.247   0.422   8.178  0.2372  0.4690  0.2233
 1394SOL    HW215816   4.259   0.358   8.046 -0.2736 -0.7381  0.0725
 1395SOL     OW15817   4.639   1.568  11.509 -0.0777 -0.2037 -0.1937
 1395SOL    HW115818   4.607   1.644  11.557 -0.4903 -1.3616  1.3552
 1395SOL    HW215819   4.561   1.518  11.487 -0.3112  0.4701 -0.8900
 1396SOL     OW15820   2.936   2.341   4.434 -0.2551  0.0037  0.6326
 1396SOL    HW115821   2.920   2.421   4.384 -0.6594 -0.2810  0.3152
 1396SOL    HW215822   2.859   2.286   4.439  0.2334 -0.9563 -2.1482
 1397SOL     OW15823   4.343   2.778   3.775 -0.3708 -0.1470  0.6785
 1397SOL    HW115824   4.368   2.720   3.847 -1.4797 -0.7359  0.5839
 1397SOL    HW215825   4.398   2.854   3.796 -0.6736  0.3900 -0.4515
 1398SOL     OW15826   1.389   2.106  12.479 -0.2784  0.3798 -0.4494
 1398SOL    HW115827   1.422   2.188  12.441  0.3733 -0.2144 -1.1793
 1398SOL    HW215828   1.363   2.128  12.568 -1.7007  1.1266 -1.0509
 1399SOL     OW15829   2.723   1.632   8.944  0.6798 -0.1158 -0.0540
 1399SOL    HW115830   2.645   1.686   8.955  1.2439  0.6049  0.3421
 1399SOL    HW215831   2.740   1.609   9.035  0.7068 -1.3993 -0.3720
 1400SOL     OW15832   1.395   2.271   7.852 -0.3930  0.2886  0.7510
 1400SOL    HW115833   1.405   2.255   7.946  3.6204 -0.5166  0.1769
 1400SOL    HW215834   1.470   2.225   7.815  0.7183  0.0380  3.3076
 1401SOL     OW15835   4.736   3.806  13.621 -0.2947  0.2654  0.6304
 1401SOL    HW115836   0.001   3.820  13.526 -0.3126  0.2510  0.6277
 1401SOL    HW215837   4.702   3.878  13.673  0.6487 -0.8014  2.7029
 1402SOL     OW15838   4.682   2.646   3.058 -0.2397 -0.1511  0.8372
 1402SOL    HW115839   4.643   2.666   2.973  2.0986 -0.0444 -0.2060
 1402SOL    HW215840   0.027   2.607   3.030 -0.2896 -0.4122  1.0435
 1403SOL     OW15841   2.570   0.620   1.512  0.0835  0.9153  0.5331
 1403SOL    HW115842   2.532   0.699   1.473 -0.7986  0.1670 -0.1502
 1403SOL    HW215843   2.595   0.658   1.595  1.3591  1.3284 -0.0464
 1404SOL     OW15844   0.082   2.926   6.803  0.1164 -0.0541 -0.4005
 1404SOL    HW115845   0.161   2.976   6.781  1.0245 -0.1414  2.5542
 1404SOL    HW215846   0.027   2.930   6.725 -0.8344 -1.4204  0.1972
 1405SOL     OW15847   0.666   1.174   0.750  0.0640  0.2325 -0.1103
 1405SOL    HW115848   0.626   1.245   0.801 -2.4067 -2.1400  1.2611
 1405SOL    HW215849   0.586   1.122   0.742  0.4017 -0.0381 -1.7221
 1406SOL     OW15850   1.009   1.669   5.997  0.0406  0.1367 -0.4178
 1406SOL    HW115851   0.921   1.634   5.982 -0.2648  1.5095 -1.8048
 1406SOL    HW215852   0.994   1.758   5.966  0.5155  0.4283  0.1879
 1407SOL     OW15853   4.688   0.989   4.213  0.1630  0.1997  0.1894
 1407SOL    HW115854   0.001   0.959   4.289 -0.2614  0.3204  0.5203
 1407SOL    HW215855   4.621   1.048   4.247 -0.0118  0.3476 -0.4134
 1408SOL     OW15856   0.296   3.705   3.225 -0.0201  0.5396 -0.0755
 1408SOL    HW115857   0.212   3.707   3.177  0.9113  0.5520 -1.7100
 1408SOL    HW215858   0.299   3.795   3.257  1.8697  0.4719 -0.0791
 1409SOL     OW15859   4.542   3.395   2.505  0.2804  0.9017  0.0718
 1409SOL    HW115860   4.611   3.381   2.570 -0.8442  0.6732  1.2145
 1409SOL    HW215861   4.562   3.485   2.477 -2.8820  1.6027  0.0173
 1410SOL     OW15862   3.661   1.200   6.124  0.3124 -0.0634  0.3517
 1410SOL    HW115863   3.713   1.240   6.054 -0.6605 -1.6969 -1.3361
 1410SOL    HW215864   3.624   1.285   6.149  1.2792  0.8818 -1.3844
 1411SOL     OW15865   3.420   3.049   3.719 -0.1245  0.1196 -0.0235
 1411SOL    HW115866   3.494   3.109   3.717  0.1014 -0.1467  0.3131
 1411SOL    HW215867   3.345   3.100   3.750 -0.5131 -0.3243 -0.2368
 1412SOL     OW15868   3.421   2.958  12.691 -0.3890  0.0033  0.1192
 1412SOL    HW115869   3.385   2.874  12.720 -0.5213  0.1868  0.4864
 1412SOL    HW215870   3.460   2.927  12.609 -1.6246  0.2910 -0.5641
 1413SOL     OW15871   4.507   0.022   6.651 -0.3414 -0.3461 -0.3832
 1413SOL    HW115872   4.421   4.721   6.662 -2.0835  3.5609 -0.3116
 1413SOL    HW215873   4.492   0.089   6.717  1.0132  0.6256 -1.0494
 1414SOL     OW15874   2.476   0.945  14.835  0.1652  0.2163 -0.1665
 1414SOL    HW115875   2.484   1.002  14.759  0.8011  1.1898  0.6475
 1414SOL    HW215876   2.537   0.985  14.897 -0.6000 -0.0720  0.7742
 1415SOL     OW15877   3.163   2.769  11.990  0.3094  0.3706 -0.0750
 1415SOL    HW115878   3.200   2.800  12.073  1.3289 -2.1362  0.3927
 1415SOL    HW215879   3.170   2.845  11.932 -0.7653  0.5559  0.0305
 1416SOL     OW15880   3.765   1.378  17.484 -0.6210 -0.3151  0.0528
 1416SOL    HW115881   3.813   1.438  17.427  0.3271  0.8511  2.0545
 1416SOL    HW215882   3.736   1.311  17.423  1.5702  0.4078 -1.7748
 1417SOL     OW15883   2.310   0.441   1.577 -0.8689  0.1946 -0.3178
 1417SOL    HW115884   2.300   0.491   1.496  2.0514  0.8644 -0.2846
 1417SOL    HW215885   2.244   0.374   1.566 -0.3961 -0.3789  0.2947
 1418SOL     OW15886   0.251   3.012  13.921 -0.3025  0.6360 -0.0649
 1418SOL    HW115887   0.265   2.994  14.014  0.1933  1.0811 -0.0525
 1418SOL    HW215888   0.164   2.975  13.908 -0.6471  1.6599 -0.6972
 1419SOL     OW15889   4.197   2.136   3.133 -0.1386 -0.2248 -0.1878
 1419SOL    HW115890   4.182   2.159   3.225  0.5186 -2.0686  0.3938
 1419SOL    HW215891   4.258   2.064   3.150  0.4780 -0.3018 -2.8603
 1420SOL     OW15892   4.072   0.241   2.751  0.6674  0.2200 -0.0893
 1420SOL    HW115893   4.166   0.224   2.738  0.9538 -0.1960  2.5575
 1420SOL    HW215894   4.080   0.246   2.846 -2.0425  1.4340  0.0758
 1421SOL     OW15895   1.774   3.801   1.064 -0.5840 -0.2956  0.2979
 1421SOL    HW115896   1.784   3.786   0.970  0.5193 -1.4521  0.5993
 1421SOL    HW215897   1.738   3.890   1.062  2.0604  0.7821  1.1319
 1422SOL     OW15898   0.494   1.538   6.622 -0.0952  0.0902 -0.0069
 1422SOL    HW115899   0.580   1.496   6.613 -0.2244 -0.5358  1.7901
 1422SOL    HW215900   0.443   1.459   6.640 -1.9236  1.2240 -0.2688
 1423SOL     OW15901   0.522   3.614  10.020 -0.7349  0.0442  0.1478
 1423SOL    HW115902   0.472   3.599  10.100  1.0444  1.4584  1.5436
 1423SOL    HW215903   0.531   3.710  10.020 -0.9343  0.0635  0.6721
 1424SOL     OW15904   0.259   4.359   8.520 -0.0822 -0.4722 -0.3818
 1424SOL    HW115905   0.234   4.439   8.473  3.1675 -0.1266 -1.5240
 1424SOL    HW215906   0.303   4.397   8.596 -0.7512  0.5185 -0.4923
 1425SOL     OW15907   3.075   1.164   5.131 -0.2199 -0.0200 -0.0779
 1425SOL    HW115908   3.144   1.215   5.089  0.1254 -0.9155 -0.5863
 1425SOL    HW215909   3.009   1.156   5.063  1.0397  2.8001 -1.6427
 1426SOL     OW15910   2.204   0.365   7.800  0.1003  0.2596 -0.0464
 1426SOL    HW115911   2.278   0.423   7.817  1.0521 -0.8275 -0.4981
 1426SOL    HW215912   2.149   0.425   7.749  0.3274 -0.6855 -1.3972
 1427SOL     OW15913   0.770   1.498   6.234  0.3372  0.0810 -0.7524
 1427SOL    HW115914   0.860   1.471   6.251 -0.4921  0.4627  4.4207
 1427SOL    HW215915   0.768   1.580   6.282  2.3612  0.8038 -1.9367
 1428SOL     OW15916   0.574   2.180   7.353  0.1470 -0.4642 -0.3362
 1428SOL    HW115917   0.574   2.088   7.381  0.2910 -0.6743 -1.0179
 1428SOL    HW215918   0.558   2.157   7.261  0.6327  0.3869 -0.6322
 1429SOL     OW15919   4.442   2.545  14.185 -0.6233  0.4463  0.0807
 1429SOL    HW115920   4.452   2.629  14.230 -1.6989  0.9592 -0.6555
 1429SOL    HW215921   4.475   2.482  14.250  0.5119  0.6242 -0.3152
 1430SOL     OW15922   0.335   3.361  14.188 -0.6474  0.2273  0.6852
 1430SOL    HW115923   0.281   3.332  14.115 -0.7279 -2.1148  1.6752
 1430SOL    HW215924   0.285   3.337  14.266 -1.5160  1.2853  0.4390
 1431SOL     OW15925   2.193   0.932   3.646  0.1530  0.3400  0.3036
 1431SOL    HW115926   2.120   0.985   3.616 -1.2673 -0.3939  2.5212
 1431SOL    HW215927   2.162   0.842   3.652 -2.4073  1.1286 -1.3698
 1432SOL     OW15928   2.774   4.549   0.466  0.4051 -0.2949  0.6617
 1432SOL    HW115929   2.679   4.540   0.476  0.3319  1.4238  1.6007
 1432SOL    HW215930   2.779   4.638   0.501  2.6522 -0.2602  0.2473
 1433SOL     OW15931   0.511   4.292   4.618  0.1049  0.2490  0.2722
 1433SOL    HW115932   0.521   4.214   4.673 -2.3014  0.5071  1.0810
 1433SOL    HW215933   0.427   4.273   4.576  0.3638 -1.1843  0.3882
 1434SOL     OW15934   4.674   0.185  13.084 -0.6284  0.0739  0.0834
 1434SOL    HW115935   0.008   0.228  13.039 -1.5897  0.0977 -1.4192
 1434SOL    HW215936   4.617   0.157  13.012 -0.9940 -1.1699  0.8547
 1435SOL     OW15937   1.910   2.061  17.526 -0.0686 -0.3106 -0.2188
 1435SOL    HW115938   2.005   2.056  17.540 -0.0591 -0.4201 -0.3309
 1435SOL    HW215939   1.887   1.968  17.531  0.2124 -0.4854 -2.2304
 1436SOL     OW15940   1.027   2.344  16.480  0.3114  0.5932  0.2545
 1436SOL    HW115941   1.026   2.427  16.431  1.0719  1.6538  2.0452
 1436SOL    HW215942   0.933   2.324  16.477  0.3072  0.9362 -1.8380
 1437SOL     OW15943   4.385   3.125   3.553  0.1702  0.1850  0.1706
 1437SOL    HW115944   4.405   3.216   3.575  0.8141  0.2246 -0.5622
 1437SOL    HW215945   4.431   3.125   3.469  0.5322  1.4681  0.3704
 1438SOL     OW15946   0.551   0.712   1.846 -0.0111  0.3075 -0.1494
 1438SOL    HW115947   0.580   0.676   1.762  0.8461  0.3483  0.1292
 1438SOL    HW215948   0.466   0.745   1.817 -0.8569 -0.9942  0.8546
 1439SOL     OW15949   0.587   4.450   8.360 -0.3540 -0.4601 -0.0110
 1439SOL    HW115950   0.540   4.370   8.379  0.2289 -0.2794  2.1711
 1439SOL    HW215951   0.642   4.423   8.286 -0.5494  0.9366 -0.6746
 1440SOL     OW15952   1.329   3.124   6.473 -0.7764 -0.2436  0.3567
 1440SOL    HW115953   1.355   3.149   6.384  1.0329  1.3622  1.3340
 1440SOL    HW215954   1.345   3.030   6.461  1.8265  0.0732  1.4368
 1441SOL     OW15955   0.937   4.288  12.009 -0.2410  0.1758  0.1252
 1441SOL    HW115956   0.878   4.225  12.052 -2.0097  1.4042 -0.5203
 1441SOL    HW215957   0.998   4.223  11.973  0.5467  0.8584  0.2478
 1442SOL     OW15958   0.309   3.984  17.084 -0.3488  0.6297  0.0585
 1442SOL    HW115959   0.378   3.921  17.063  0.4703  1.5711 -0.0538
 1442SOL    HW215960   0.331   4.061  17.033  2.5112  0.9553  1.7489
 1443SOL     OW15961   3.180   1.573   2.729  0.2282 -0.8865  0.1781
 1443SOL    HW115962   3.156   1.556   2.638  3.9024 -0.8236 -0.7727
 1443SOL    HW215963   3.250   1.508   2.729 -0.0284 -1.1627  0.3226
 1444SOL     OW15964   3.744   2.509  11.801 -0.4918 -0.1509 -0.1684
 1444SOL    HW115965   3.652   2.490  11.819 -1.0835  2.8515 -0.0955
 1444SOL    HW215966   3.767   2.504  11.894  3.0209 -0.2939 -1.0463
 1445SOL     OW15967   0.432   2.326   4.770  0.6294  0.5826  0.2518
 1445SOL    HW115968   0.421   2.287   4.684 -0.4412 -0.8817  1.0370
 1445SOL    HW215969   0.417   2.252   4.828 -1.7188  0.2508 -0.7913
 1446SOL     OW15970   4.062   3.974   9.129 -0.5126 -0.6678 -0.2583
 1446SOL    HW115971   4.024   3.945   9.046  0.3937 -3.4491  0.3034
 1446SOL    HW215972   4.002   4.033   9.175  2.6957  2.3379  0.0820
 1447SOL     OW15973   0.465   1.541   6.094 -0.1350 -0.1305  0.2520
 1447SOL    HW115974   0.417   1.479   6.040  1.0596 -0.3208 -0.6099
 1447SOL    HW215975   0.525   1.479   6.137 -2.6585 -2.6873  0.0576
 1448SOL     OW15976   1.527   1.976   7.985  0.3440  0.1007  0.2795
 1448SOL    HW115977   1.467   1.906   8.011  1.2127 -0.4287  0.8417
 1448SOL    HW215978   1.520   1.960   7.891 -0.5479  0.3344  0.3091
 1449SOL     OW15979   0.655   4.396  12.054  0.2516 -0.5013  0.1420
 1449SOL    HW115980   0.595   4.460  12.017  0.9237 -0.3311 -0.6683
 1449SOL    HW215981   0.740   4.408  12.011 -0.3694 -0.8711 -1.1788
 1450SOL     OW15982   1.716   3.883   2.096 -0.0678 -0.1478  0.3568
 1450SOL    HW115983   1.640   3.829   2.119 -1.5395  1.6694 -0.2263
 1450SOL    HW215984   1.700   3.882   2.002 -1.5334 -0.0461  0.5996
 1451SOL     OW15985   2.419   2.207   3.074 -0.4126  0.2637  0.5581
 1451SOL    HW115986   2.444   2.228   3.164  0.9802  4.3222 -0.8134
 1451SOL    HW215987   2.501   2.229   3.030 -0.4130 -1.4171 -0.2981
 1452SOL     OW15988   4.033   1.963   8.143  0.5295 -0.3113  0.0333
 1452SOL    HW115989   4.126   1.984   8.133  0.1755  0.2953 -2.0645
 1452SOL    HW215990   4.033   1.869   8.125 -1.2384 -0.6447  1.6804
 1453SOL     OW15991   0.463   0.287   0.934  0.9997  0.5516  0.4500
 1453SOL    HW115992   0.381   0.263   0.977  1.8487 -1.1864  1.1165
 1453SOL    HW215993   0.528   0.228   0.972  1.3450  1.0596  0.6457
 1454SOL     OW15994   1.431   4.406  10.602 -0.0054  0.3626 -0.1244
 1454SOL    HW115995   1.436   4.310  10.607 -0.4001  0.4545  1.8655
 1454SOL    HW215996   1.496   4.437  10.665 -1.6926  1.0002  1.2934
 1455SOL     OW15997   3.743   3.005   5.927 -0.6017  0.1436 -0.2859
 1455SOL    HW115998   3.742   3.039   6.017 -0.1188  0.5984 -0.4533
 1455SOL    HW215999   3.699   3.071   5.875 -2.3694 -1.3071 -0.6203
 1456SOL     OW16000   3.013   4.415   4.444 -0.2405 -0.2815 -0.6071
 1456SOL    HW116001   3.043   4.432   4.355  0.2357 -0.2244 -0.4384
 1456SOL    HW216002   3.045   4.327   4.463 -0.1777 -0.6802 -2.5889
 1457SOL     OW16003   2.334   3.599   1.600 -0.4518  0.3848  0.4302
 1457SOL    HW116004   2.423   3.571   1.579  0.0093  0.3587  2.3862
 1457SOL    HW216005   2.284   3.525   1.567  0.2807 -0.3687  1.0249
 1458SOL     OW16006   0.549   2.567   9.300  0.3658  0.3176  0.3536
 1458SOL    HW116007   0.539   2.653   9.260 -0.4895  1.0441  2.1454
 1458SOL    HW216008   0.458   2.558   9.331  0.1327  1.8616  0.1260
 1459SOL     OW16009   0.008   2.117   5.711 -0.2054  0.1955  0.4135
 1459SOL    HW116010   4.689   2.041   5.704  0.1462 -0.1717  1.6463
 1459SOL    HW216011   4.684   2.183   5.744 -1.7870 -0.6648 -0.8272
 1460SOL     OW16012   1.364   2.820   9.266  0.5226 -0.0651 -0.0334
 1460SOL    HW116013   1.399   2.756   9.205  0.7244 -0.8784  0.9437
 1460SOL    HW216014   1.269   2.808   9.260  0.4649  1.3226 -2.0279
 1461SOL     OW16015   4.616   0.343   2.731  0.3145  0.2093  0.1994
 1461SOL    HW116016   4.546   0.314   2.672  1.4028 -0.1482 -0.9282
 1461SOL    HW216017   4.643   0.260   2.770 -0.2160 -0.5626 -1.0617
 1462SOL     OW16018   3.008   1.051   9.743 -0.1232  0.4729 -0.0975
 1462SOL    HW116019   2.948   1.091   9.680  3.0650  1.2184 -2.7279
 1462SOL    HW216020   3.020   1.119   9.810  1.2802  0.8515 -0.7130
 1463SOL     OW16021   2.216   2.564  12.947  0.4736 -0.1965  0.0245
 1463SOL    HW116022   2.252   2.478  12.970  1.2870 -0.1010 -0.8975
 1463SOL    HW216023   2.264   2.625  13.003  1.0352  0.0069 -0.6789
 1464SOL     OW16024   2.243   2.599   7.019 -0.0212 -0.2684  0.2328
 1464SOL    HW116025   2.327   2.645   7.007  0.4612 -1.1401  0.2751
 1464SOL    HW216026   2.257   2.512   6.983 -1.3459 -0.0829 -0.7153
 1465SOL     OW16027   3.789   0.764   9.481 -0.8247  0.0045 -0.0520
 1465SOL    HW116028   3.712   0.708   9.488  0.0279 -1.0538  0.8241
 1465SOL    HW216029   3.853   0.715   9.429 -0.3656 -1.4765  1.9135
 1466SOL     OW16030   1.680   4.425   5.262  0.0923  0.6463  0.3804
 1466SOL    HW116031   1.600   4.443   5.212 -0.3190  1.6896  1.4238
 1466SOL    HW216032   1.663   4.473   5.343 -4.0240 -1.1476  0.6107
 1467SOL     OW16033   2.675   4.197  12.389 -0.1959 -0.0336  0.1487
 1467SOL    HW116034   2.752   4.147  12.359 -0.2962  0.9592 -1.7853
 1467SOL    HW216035   2.712   4.238  12.467 -2.0925  0.2713  0.8707
 1468SOL     OW16036   1.810   1.141   1.618  0.0116  0.4679  0.2215
 1468SOL    HW116037   1.824   1.066   1.560 -1.7727 -0.2580  0.7166
 1468SOL    HW216038   1.851   1.097   1.693 -0.5130 -0.4673 -0.0420
 1469SOL     OW16039   0.416   1.522   2.171 -0.1807  0.1675  0.0518
 1469SOL    HW116040   0.324   1.549   2.168 -0.9260 -2.3220  0.9206
 1469SOL    HW216041   0.424   1.482   2.257 -1.1310  0.5377  0.3179
 1470SOL     OW16042   1.824   2.030   6.173  0.1020 -0.0203  0.0275
 1470SOL    HW116043   1.889   1.974   6.215 -0.3442 -1.2988 -0.9524
 1470SOL    HW216044   1.828   2.102   6.235  2.4281  1.0457 -1.3819
 1471SOL     OW16045   1.843   0.670   7.250  0.5583 -0.7912 -0.0322
 1471SOL    HW116046   1.932   0.679   7.284  0.1738  0.2297  0.6965
 1471SOL    HW216047   1.801   0.716   7.322  0.5209 -3.1235  1.4562
 1472SOL     OW16048   2.871   0.570   6.381  0.5978 -0.2541 -0.4419
 1472SOL    HW116049   2.930   0.632   6.338 -1.2034 -0.0530 -2.5694
 1472SOL    HW216050   2.826   0.624   6.446  0.7732  0.8210 -1.2101
 1473SOL     OW16051   0.623   2.021  11.237 -0.2874  0.1895 -0.0013
 1473SOL    HW116052   0.659   2.079  11.171  1.9646  1.4877  2.3934
 1473SOL    HW216053   0.583   1.958  11.176 -2.5849  1.6639  0.0002
 1474SOL     OW16054   1.779   0.962   6.121 -0.4143  0.0662 -0.4799
 1474SOL    HW116055   1.739   0.884   6.159  0.7142  0.5712  1.7462
 1474SOL    HW216056   1.856   0.967   6.177 -0.5822  0.5573 -0.2891
 1475SOL     OW16057   0.179   3.451   3.741  0.2245 -0.0753 -0.0541
 1475SOL    HW116058   0.184   3.357   3.761 -1.5335 -0.2209 -0.2576
 1475SOL    HW216059   0.098   3.449   3.690 -0.3848 -0.8361  0.9564
 1476SOL     OW16060   3.054   4.571  17.151  0.1523  0.2526 -0.0487
 1476SOL    HW116061   3.074   4.481  17.127 -1.6960  0.1515 -1.2024
 1476SOL    HW216062   2.984   4.592  17.089  0.6298 -0.2905 -0.7743
 1477SOL     OW16063   1.159   0.378   4.732  0.0754  0.0090  0.5043
 1477SOL    HW116064   1.218   0.370   4.807  0.7607  1.2902  0.0874
 1477SOL    HW216065   1.077   0.337   4.759  0.7666 -0.2224  2.2161
 1478SOL     OW16066   2.137   1.007   6.721  0.5007  0.1059 -0.0962
 1478SOL    HW116067   2.153   0.915   6.742 -1.9670 -0.9250 -2.7379
 1478SOL    HW216068   2.214   1.026   6.667  0.9660 -0.8806  0.2247
 1479SOL     OW16069   0.984   0.962   2.526 -0.0294  0.1304  0.2789
 1479SOL    HW116070   1.071   0.931   2.501  0.2789  0.3616  1.0836
 1479SOL    HW216071   0.996   1.056   2.523 -1.5376  0.2666 -2.0878
 1480SOL     OW16072   3.167   1.941   5.016 -0.2430 -0.5106 -0.3891
 1480SOL    HW116073   3.100   1.995   5.059 -0.1952 -0.7324 -0.0311
 1480SOL    HW216074   3.135   1.855   5.042 -0.6676 -0.3408 -0.3406
 1481SOL     OW16075   3.525   2.357   7.739 -0.6078 -0.0225  0.1154
 1481SOL    HW116076   3.614   2.327   7.722  0.0819  2.0993 -0.0195
 1481SOL    HW216077   3.540   2.423   7.807 -1.6664  1.3202 -0.9644
 1482SOL     OW16078   3.611   3.715   4.327 -0.1456  0.1550  0.0562
 1482SOL    HW116079   3.565   3.633   4.307 -0.2571 -0.5957  3.3742
 1482SOL    HW216080   3.600   3.724   4.421 -0.3582 -2.0172  0.2383
 1483SOL     OW16081   2.961   0.879   7.044 -0.3263  0.3961 -0.0582
 1483SOL    HW116082   2.926   0.806   7.095  0.9373 -0.8370 -0.9492
 1483SOL    HW216083   2.876   0.914   7.017 -0.7791 -0.3357  0.4467
 1484SOL     OW16084   4.296   2.181   7.035 -0.1314 -0.3828  0.0172
 1484SOL    HW116085   4.203   2.186   7.058 -0.8221 -1.8520 -2.4825
 1484SOL    HW216086   4.314   2.257   7.091  0.4672 -1.3265  1.1008
 1485SOL     OW16087   0.457   2.270   8.467  0.1328  0.0279  0.2048
 1485SOL    HW116088   0.448   2.175   8.473  0.9265 -0.0247  0.5507
 1485SOL    HW216089   0.370   2.302   8.492 -0.0985 -1.9984  2.0112
 1486SOL     OW16090   4.374   0.699   3.244 -0.3597  0.2507 -1.0715
 1486SOL    HW116091   4.383   0.794   3.233  0.2388  0.2429 -0.7023
 1486SOL    HW216092   4.351   0.667   3.157 -1.1292 -1.7916 -0.1262
 1487SOL     OW16093   0.863   4.275   9.999  0.4043 -0.4833  0.1327
 1487SOL    HW116094   0.790   4.329   9.970  1.3703  0.6806 -0.1170
 1487SOL    HW216095   0.938   4.315   9.956 -1.0184  0.7690 -1.1851
 1488SOL     OW16096   0.817   2.462   8.775 -0.3626  0.7633  0.1469
 1488SOL    HW116097   0.755   2.394   8.749  0.3973 -0.3059  1.1680
 1488SOL    HW216098   0.768   2.485   8.854  0.0588 -0.1220  0.6620
 1489SOL     OW16099   0.940   1.134   2.986 -0.2322 -0.1124  0.0025
 1489SOL    HW116100   0.903   1.058   2.942  1.1888 -0.1523 -1.1064
 1489SOL    HW216101   0.968   1.183   2.909 -1.1207  2.4894  1.3255
 1490SOL     OW16102   1.920   0.551   8.248  0.3087  0.1090  0.3692
 1490SOL    HW116103   1.848   0.615   8.257 -0.6350 -1.1130  1.5452
 1490SOL    HW216104   1.996   0.608   8.237 -0.3229  1.2027  1.5566
 1491SOL     OW16105   2.784   2.149   1.275  0.0036 -0.0308  0.1618
 1491SOL    HW116106   2.843   2.139   1.200  2.3646 -0.8303  2.1067
 1491SOL    HW216107   2.807   2.070   1.324  2.4686  1.5195  1.5152
 1492SOL     OW16108   3.259   1.855   8.700  0.4192 -0.6076 -0.3698
 1492SOL    HW116109   3.266   1.949   8.717 -0.2209 -0.6792  0.2988
 1492SOL    HW216110   3.197   1.827   8.768  0.7457  1.1105  0.6312
 1493SOL     OW16111   0.300   1.486   3.846 -1.0231 -0.6088 -0.2304
 1493SOL    HW116112   0.343   1.478   3.931 -1.2534  1.5302  0.0961
 1493SOL    HW216113   0.293   1.392   3.830  0.4277 -0.7270 -0.1269
 1494SOL     OW16114   1.975   2.875   8.130 -0.0501  0.4513  0.0146
 1494SOL    HW116115   1.972   2.969   8.150  3.6861  0.2879  1.2734
 1494SOL    HW216116   1.910   2.845   8.194  0.0978 -2.5204 -1.2371
 1495SOL     OW16117   0.110   3.527   5.226  0.1661  0.1996  0.1860
 1495SOL    HW116118   0.070   3.564   5.147 -1.3694 -0.1399  0.8063
 1495SOL    HW216119   0.060   3.561   5.300 -1.7035 -0.3520 -0.8313
 1496SOL     OW16120   1.461   0.702   6.652  0.0674  0.5014 -0.6198
 1496SOL    HW116121   1.479   0.681   6.744 -1.1978 -0.2797 -0.5473
 1496SOL    HW216122   1.385   0.759   6.665 -0.0680 -0.0757  1.1280
 1497SOL     OW16123   2.028   0.501   3.137  0.6878  0.1792  0.1265
 1497SOL    HW116124   1.944   0.528   3.101  0.2114 -1.0804  0.3198
 1497SOL    HW216125   2.016   0.509   3.232 -2.4330 -2.8098 -0.0352
 1498SOL     OW16126   4.648   0.461   9.409 -0.6551 -1.1734 -0.0249
 1498SOL    HW116127   4.726   0.517   9.409 -0.1226 -1.8778 -3.1358
 1498SOL    HW216128   4.589   0.502   9.346  0.3290 -3.2888 -2.3235
 1499SOL     OW16129   0.926   1.860  14.060 -0.7877 -0.3324 -0.0822
 1499SOL    HW116130   0.850   1.818  14.101 -0.2345  1.3389  2.6105
 1499SOL    HW216131   0.936   1.819  13.974 -0.8327  0.1176 -0.3025
 1500SOL     OW16132   2.753   3.020   2.194  0.3419  0.0741  0.2003
 1500SOL    HW116133   2.836   3.059   2.221 -0.5649  0.2604  2.6667
 1500SOL    HW216134   2.762   2.998   2.101  1.7798 -1.5000  0.7150
 1501SOL     OW16135   1.338   2.310  10.490 -0.1946 -0.3078  0.2766
 1501SOL    HW116136   1.260   2.297  10.436  0.5621  1.9927 -1.3462
 1501SOL    HW216137   1.346   2.405  10.503  1.2229 -0.3539 -0.2892
 1502SOL     OW16138   2.773   2.570   7.754 -0.2483  0.0445 -0.2287
 1502SOL    HW116139   2.815   2.655   7.762  0.5243 -0.3576  0.0111
 1502SOL    HW216140   2.823   2.515   7.815  2.2532  2.9055  0.2789
 1503SOL     OW16141   0.662   3.322   5.217 -0.0819 -0.1985 -0.0252
 1503SOL    HW116142   0.741   3.270   5.232  1.7978  2.4400 -0.7775
 1503SOL    HW216143   0.612   3.287   5.291 -0.0821  1.6873  0.8810
 1504SOL     OW16144   0.841   0.905  16.558  0.6291  0.2763  0.1541
 1504SOL    HW116145   0.789   0.852  16.498  3.0881  1.1045 -2.7117
 1504SOL    HW216146   0.836   0.996  16.528 -0.0188  0.0601 -0.4058
 1505SOL     OW16147   3.354   3.711   7.749 -0.0390  0.5041 -0.0797
 1505SOL    HW116148   3.434   3.756   7.724  0.2147 -1.1753 -2.3202
 1505SOL    HW216149   3.376   3.619   7.735  0.8723  1.0325 -2.0438
 1506SOL     OW16150   3.470   1.769   9.128 -0.2976  0.0295 -1.1285
 1506SOL    HW116151   3.435   1.723   9.205  0.6094 -0.9432 -1.2865
 1506SOL    HW216152   3.469   1.861   9.154  0.4764 -0.5176  0.8479
 1507SOL     OW16153   0.145   2.909   6.212 -0.2207  0.2278  0.4730
 1507SOL    HW116154   0.064   2.860   6.224  1.2864 -2.1643  0.8332
 1507SOL    HW216155   0.166   2.919   6.305  1.6795 -0.2034  0.1013
 1508SOL     OW16156   0.591   1.166   5.770 -0.0231 -0.0374 -0.4817
 1508SOL    HW116157   0.637   1.087   5.742  1.5810  0.0328  1.9138
 1508SOL    HW216158   0.652   1.210   5.829  1.8811 -2.1531 -0.8790
 1509SOL     OW16159   1.908   1.227   7.896 -0.1444  0.5372  0.2599
 1509SOL    HW116160   1.923   1.202   7.987  0.1534 -0.2567 -0.0127
 1509SOL    HW216161   1.984   1.284   7.882  0.1947 -0.8393 -3.4997
 1510SOL     OW16162   4.159   2.992   3.486  0.1696  0.9736 -0.2412
 1510SOL    HW116163   4.197   3.055   3.548 -1.5138  0.7039  1.0581
 1510SOL    HW216164   4.232   2.936   3.458 -1.4686 -2.3037  2.0622
 1511SOL     OW16165   2.834   0.139   7.002  0.5792  0.2459  0.4882
 1511SOL    HW116166   2.865   0.220   6.962  0.1815  0.3189  0.3327
 1511SOL    HW216167   2.760   0.117   6.946  0.1673  0.7126  0.8481
 1512SOL     OW16168   4.082   3.496  12.607 -0.1715  0.1720 -0.3657
 1512SOL    HW116169   4.116   3.585  12.607  1.9191 -0.6183  0.4111
 1512SOL    HW216170   4.067   3.477  12.514  2.2186 -0.1884 -0.6871
 1513SOL     OW16171   0.931   2.073   5.560  0.1622  0.0337 -0.3759
 1513SOL    HW116172   0.849   2.122   5.551  0.1324  0.1461  0.4940
 1513SOL    HW216173   0.977   2.134   5.618  2.6773 -0.2967 -2.0161
 1514SOL     OW16174   2.470   3.624  11.935 -0.0312  0.1958  0.1252
 1514SOL    HW116175   2.565   3.641  11.932 -0.1956  1.5176  2.4341
 1514SOL    HW216176   2.439   3.714  11.922 -2.3522 -1.0221 -2.7094
 1515SOL     OW16177   3.983   1.656   1.919  0.2049  0.2393  0.1204
 1515SOL    HW116178   4.052   1.690   1.862 -0.4028 -0.0984 -0.7942
 1515SOL    HW216179   3.985   1.563   1.898  3.7015 -0.0100  1.3796
 1516SOL     OW16180   0.152   2.652   1.938  0.2311  0.5735  0.1359
 1516SOL    HW116181   0.119   2.605   1.862 -0.7881 -1.2947  1.7269
 1516SOL    HW216182   0.121   2.602   2.014 -0.3862  0.5662 -0.1249
 1517SOL     OW16183   0.194   1.110   6.887 -0.0677 -0.1491 -0.6221
 1517SOL    HW116184   0.221   1.151   6.970 -2.5766 -3.1255  1.6545
 1517SOL    HW216185   0.211   1.020   6.913 -0.5624  0.2250  1.0026
 1518SOL     OW16186   3.153   2.451   2.065  0.6132  0.5380 -0.3152
 1518SOL    HW116187   3.183   2.360   2.061 -0.4077  0.1620  0.4923
 1518SOL    HW216188   3.173   2.467   2.157 -0.2576 -1.2962  0.1927
 1519SOL     OW16189   3.236   0.919   9.165  0.2081  0.2612  0.1749
 1519SOL    HW116190   3.174   0.861   9.210  0.2012  1.8434  2.2170
 1519SOL    HW216191   3.292   0.946   9.237 -0.5003 -0.9683  1.1837
 1520SOL     OW16192   1.270   4.721   8.877  0.3238  0.7219  0.0373
 1520SOL    HW116193   1.273   0.054   8.943 -0.3985  2.0098 -1.3175
 1520SOL    HW216194   1.337   0.019   8.819 -1.2606  0.7515 -1.7690
 1521SOL     OW16195   0.968   3.507   6.995 -0.4198 -0.0475 -0.3474
 1521SOL    HW116196   1.016   3.581   7.031  0.6056 -1.7983  1.8516
 1521SOL    HW216197   0.898   3.548   6.943 -0.1064  1.3802  0.3610
 1522SOL     OW16198   3.721   4.300  10.766  0.0696  0.4443 -0.1528
 1522SOL    HW116199   3.815   4.310  10.776  0.3221 -2.6414  0.5901
 1522SOL    HW216200   3.720   4.224  10.708  0.2220  1.0632 -0.9676
 1523SOL     OW16201   3.562   0.141   9.518 -0.3646  0.2410  0.3093
 1523SOL    HW116202   3.645   0.098   9.538  0.4642  1.2659 -0.9103
 1523SOL    HW216203   3.561   0.216   9.577  2.0864 -0.6321  1.4664
 1524SOL     OW16204   3.182   1.707   5.870  0.5749  0.4220 -0.5769
 1524SOL    HW116205   3.189   1.613   5.855  1.1400  0.4807 -0.7081
 1524SOL    HW216206   3.239   1.720   5.946 -0.5044 -0.0171  0.2950
 1525SOL     OW16207   0.649   1.457   2.022  0.2050 -0.2476 -0.2763
 1525SOL    HW116208   0.573   1.511   2.041 -1.4966 -2.2345 -1.4456
 1525SOL    HW216209   0.629   1.377   2.070  1.5348 -0.3704  0.0645
 1526SOL     OW16210   1.931   3.006   0.549  0.6720 -0.3522 -0.4252
 1526SOL    HW116211   1.874   2.976   0.479  0.7755 -3.6619  0.9034
 1526SOL    HW216212   2.016   3.016   0.507  1.8692  0.1975  2.0930
 1527SOL     OW16213   0.725   1.288   2.492 -0.7386  1.2578 -0.5874
 1527SOL    HW116214   0.753   1.320   2.406 -4.2109 -0.4256 -2.3215
 1527SOL    HW216215   0.811   1.272   2.531 -0.7936  0.0398 -0.9658
 1528SOL     OW16216   0.749   1.351   4.637 -0.2696  0.5149  0.0532
 1528SOL    HW116217   0.793   1.387   4.714 -2.6200  0.9324  1.1877
 1528SOL    HW216218   0.834   1.327   4.601 -0.2689  2.2098 -1.1149
 1529SOL     OW16219   1.978   1.394   6.626  0.7726  0.5191  0.7424
 1529SOL    HW116220   1.950   1.321   6.680 -1.0536 -0.0700 -1.0096
 1529SOL    HW216221   2.054   1.353   6.584  1.3392  0.2101  2.0631
 1530SOL     OW16222   0.870   0.498  15.037  0.1716 -0.3651  0.2913
 1530SOL    HW116223   0.955   0.468  15.004  1.3690  1.9565  1.3105
 1530SOL    HW216224   0.822   0.515  14.956 -0.7667 -1.0918  0.7088
 1531SOL     OW16225   3.169   3.072   3.856  0.6890  0.2094  0.3293
 1531SOL    HW116226   3.213   3.157   3.858  0.4150  0.4219 -2.6008
 1531SOL    HW216227   3.106   3.073   3.928 -0.6332 -1.6424 -0.7975
 1532SOL     OW16228   2.910   4.516   8.013  0.2390 -0.6031  0.5901
 1532SOL    HW116229   2.837   4.572   8.038  0.4965  0.9946 -2.2419
 1532SOL    HW216230   2.902   4.465   8.093 -1.6112 -0.6798  0.3571
 1533SOL     OW16231   3.019   1.846   7.432 -0.3796  0.4391 -0.3808
 1533SOL    HW116232   3.099   1.808   7.396  1.6954  2.4801  2.0740
 1533SOL    HW216233   3.003   1.905   7.358  0.9662 -0.3719 -1.3145
 1534SOL     OW16234   0.226   0.708   2.383 -0.2637 -0.3743  0.7515
 1534SOL    HW116235   0.284   0.715   2.460  0.4153 -0.2418  0.2280
 1534SOL    HW216236   0.222   0.612   2.383  1.0309 -0.4192 -1.4082
 1535SOL     OW16237   1.262   4.706  15.213 -0.0500 -0.4630 -0.3899
 1535SOL    HW116238   1.199   4.733  15.147 -0.4691 -1.1221 -0.2623
 1535SOL    HW216239   1.235   0.012  15.294 -0.4316  1.3673 -1.5180
 1536SOL     OW16240   3.598   2.124   4.228  0.3114 -0.5688  0.0329
 1536SOL    HW116241   3.649   2.168   4.296 -2.4177  0.7960  1.1835
 1536SOL    HW216242   3.513   2.117   4.270  0.9295 -0.3369  1.3254
 1537SOL     OW16243   2.931   3.231   6.598 -0.0944  0.1862 -0.2166
 1537SOL    HW116244   2.938   3.326   6.612  3.0492 -0.1911  0.8693
 1537SOL    HW216245   2.971   3.200   6.680  0.3969 -3.0236 -1.6703
 1538SOL     OW16246   3.925   4.638   4.124 -0.1212 -0.1423 -0.2028
 1538SOL    HW116247   3.832   4.628   4.106 -0.0054  0.3705 -1.1175
 1538SOL    HW216248   3.939   4.686   4.042  2.0284 -0.1732  0.1510
 1539SOL     OW16249   0.649   1.719   3.900  0.2259 -0.0937 -0.2222
 1539SOL    HW116250   0.611   1.660   3.964  0.0206  1.2371  0.8863
 1539SOL    HW216251   0.593   1.796   3.910 -0.6052 -0.7215 -0.0923
 1540SOL     OW16252   2.883   2.306   4.987  0.1654 -0.3728 -0.1412
 1540SOL    HW116253   2.788   2.313   4.978  0.3232  0.0133 -1.4407
 1540SOL    HW216254   2.899   2.219   4.949 -1.2873 -1.5681  2.0268
 1541SOL     OW16255   0.564   1.771   9.456 -0.3069 -0.1539 -0.0916
 1541SOL    HW116256   0.622   1.842   9.482  1.0127 -1.5237  0.6819
 1541SOL    HW216257   0.605   1.744   9.374  0.9289  1.4056  0.0179
 1542SOL     OW16258   4.489   2.072   2.444 -0.0196  0.5369 -0.6369
 1542SOL    HW116259   4.489   2.018   2.524 -1.6599 -0.8177 -1.5469
 1542SOL    HW216260   4.465   2.014   2.371 -1.9357  0.9224 -0.3074
 1543SOL     OW16261   2.866   4.717  10.660 -0.6496 -0.8566  0.3385
 1543SOL    HW116262   2.822   0.006  10.579 -1.0857  1.0296  1.2001
 1543SOL    HW216263   2.874   4.623  10.645  0.6725 -0.8289  0.8311
 1544SOL     OW16264   3.749   4.627   7.018 -0.3869 -0.5753  0.7854
 1544SOL    HW116265   3.673   4.611   7.073 -1.9598 -0.0390 -1.2109
 1544SOL    HW216266   3.779   4.537   7.008  0.3471 -0.0456 -1.8121
 1545SOL     OW16267   0.728   2.151   8.328  0.4690 -0.1931  0.0559
 1545SOL    HW116268   0.648   2.182   8.286  1.7053  1.2360 -1.2537
 1545SOL    HW216269   0.684   2.127   8.409 -1.5932 -1.7584 -1.5135
 1546SOL     OW16270   1.265   3.182   3.080  0.1724  0.4940  0.3434
 1546SOL    HW116271   1.266   3.098   3.126 -1.3979  0.3349  0.1214
 1546SOL    HW216272   1.350   3.192   3.037 -0.3660 -0.7794 -1.0344
 1547SOL     OW16273   1.420   2.135   8.799  0.6555  0.5719 -0.2111
 1547SOL    HW116274   1.426   2.153   8.705  1.6583 -0.1751 -0.2856
 1547SOL    HW216275   1.344   2.077   8.791  1.2703 -0.2430 -0.1934
 1548SOL     OW16276   4.294   4.263  13.262 -0.0712 -0.3169  0.2361
 1548SOL    HW116277   4.352   4.261  13.186 -0.4220 -1.1934 -0.0056
 1548SOL    HW216278   4.333   4.204  13.327 -0.8302 -0.2859  0.7184
 1549SOL     OW16279   4.696   1.851   6.399 -0.5579  1.1011  0.2291
 1549SOL    HW116280   0.010   1.893   6.330  0.1577 -0.7663 -0.3575
 1549SOL    HW216281   4.607   1.873   6.370 -0.4993 -0.3748 -1.0953
 1550SOL     OW16282   2.152   3.742  13.845 -0.2812 -0.4599  0.1268
 1550SOL    HW116283   2.100   3.715  13.921 -0.1392 -1.2751 -0.0581
 1550SOL    HW216284   2.198   3.805  13.899  0.0359 -2.9503  2.7879
 1551SOL     OW16285   2.628   0.882   4.232  0.6938  0.1717 -0.3476
 1551SOL    HW116286   2.675   0.932   4.298  0.6612 -0.7044  0.3462
 1551SOL    HW216287   2.550   0.859   4.283  0.6428  1.5066  0.1727
 1552SOL     OW16288   2.378   2.749   5.274 -0.0347 -0.3032  0.0410
 1552SOL    HW116289   2.468   2.783   5.271 -0.4112  0.8366  2.4446
 1552SOL    HW216290   2.368   2.717   5.363  1.1852 -1.2317 -0.1532
 1553SOL     OW16291   2.327   1.686  15.362  0.3346 -0.6547 -0.9152
 1553SOL    HW116292   2.299   1.596  15.378  1.3177 -0.3927  2.1537
 1553SOL    HW216293   2.412   1.669  15.322  1.1668  0.5642  0.3469
 1554SOL     OW16294   0.440   4.507  11.958 -0.0656 -0.1379 -0.2218
 1554SOL    HW116295   0.364   4.451  11.941  1.4894 -2.5734  0.8745
 1554SOL    HW216296   0.410   4.565  12.028 -4.3912 -1.5609 -0.8879
 1555SOL     OW16297   0.046   1.158   9.291 -0.6630 -0.5483 -0.1889
 1555SOL    HW116298   0.031   1.251   9.273 -0.9339 -0.6073 -0.2675
 1555SOL    HW216299   0.074   1.165   9.382 -3.3011  2.8009  0.3579
 1556SOL     OW16300   3.978   2.607   7.933  1.1527  0.0333 -0.0816
 1556SOL    HW116301   3.942   2.673   7.874  2.1521  2.2004  1.7692
 1556SOL    HW216302   3.910   2.540   7.922  1.4919 -0.5315  1.2810
 1557SOL     OW16303   3.808   4.508   2.472 -0.0302 -0.4055  0.0689
 1557SOL    HW116304   3.797   4.540   2.562 -0.0386  1.8250 -0.7396
 1557SOL    HW216305   3.896   4.541   2.452 -0.5481  2.6841  2.9046
 1558SOL     OW16306   0.573   0.963   8.326  0.0460  0.1388 -0.4373
 1558SOL    HW116307   0.659   0.999   8.304  0.3865 -0.9667 -0.8912
 1558SOL    HW216308   0.533   1.033   8.377  0.9286  1.6032 -1.7534
 1559SOL     OW16309   1.087   3.213   7.706 -0.3222  0.1197 -0.0742
 1559SOL    HW116310   1.114   3.141   7.648 -1.4927  0.0870 -0.5825
 1559SOL    HW216311   1.009   3.173   7.744  0.3810  0.9849  2.2725
 1560SOL     OW16312   0.638   2.397   2.916  0.2417  0.5392 -1.1522
 1560SOL    HW116313   0.732   2.415   2.916  0.6136 -1.3792 -2.8919
 1560SOL    HW216314   0.599   2.465   2.971 -0.2753 -0.4773 -0.2511
 1561SOL     OW16315   0.946   0.524   9.895 -0.6670 -0.6728 -0.6844
 1561SOL    HW116316   0.972   0.456   9.957 -0.3612 -1.1733 -1.3579
 1561SOL    HW216317   0.942   0.612   9.933 -1.8108 -0.9074 -0.2794
 1562SOL     OW16318   2.197   0.303   5.033 -0.6260 -0.1281 -0.7294
 1562SOL    HW116319   2.138   0.260   5.095  0.2574 -0.8739 -0.4254
 1562SOL    HW216320   2.187   0.249   4.955  0.1969 -0.0808 -0.8586
 1563SOL     OW16321   4.089   2.868   8.405  0.2252 -0.4809 -0.9245
 1563SOL    HW116322   4.137   2.819   8.338  1.5959  0.5445 -0.6953
 1563SOL    HW216323   4.110   2.961   8.394 -0.4284 -0.1720  0.4000
 1564SOL     OW16324   1.955   3.454   8.349  0.1501 -0.3549 -0.3216
 1564SOL    HW116325   2.041   3.420   8.321  0.3505 -0.2562  0.1682
 1564SOL    HW216326   1.967   3.545   8.376  0.8590 -1.5340  3.4348
 1565SOL     OW16327   1.756   3.780   2.795  0.2076 -0.0441  0.1273
 1565SOL    HW116328   1.693   3.752   2.728  0.1241  0.6278 -0.0767
 1565SOL    HW216329   1.792   3.856   2.748 -1.0038  0.3018 -0.2646
 1566SOL     OW16330   0.615   4.646   7.508 -0.7100 -0.6110  0.3059
 1566SOL    HW116331   0.657   4.690   7.581 -1.3967 -0.3052  0.5167
 1566SOL    HW216332   0.664   4.683   7.435 -1.2805  0.1154  0.2858
 1567SOL     OW16333   2.775   4.689  14.593 -0.7450 -0.8044 -0.4551
 1567SOL    HW116334   2.688   4.676  14.556 -1.8908  1.3467  1.4478
 1567SOL    HW216335   2.820   4.707  14.511 -0.6465 -2.2510 -0.7083
 1568SOL     OW16336   0.878   3.531  10.885  0.3485 -0.4046 -0.3285
 1568SOL    HW116337   0.824   3.459  10.917  1.5767  0.4629  3.7343
 1568SOL    HW216338   0.964   3.489  10.885 -0.3142 -1.7559 -0.4419
 1569SOL     OW16339   3.310   3.231  13.513 -0.3352  0.3223 -0.4385
 1569SOL    HW116340   3.355   3.211  13.596 -0.2812 -0.5720 -0.6849
 1569SOL    HW216341   3.335   3.153  13.465 -0.6210 -0.2180  0.2761
 1570SOL     OW16342   4.656   0.285   3.168 -0.2136  0.2248 -0.0098
 1570SOL    HW116343   4.667   0.377   3.193  0.6314  0.1190  0.0159
 1570SOL    HW216344   4.588   0.253   3.227 -0.0549  0.8340  0.4985
 1571SOL     OW16345   0.481   0.467   8.774  0.0275 -0.1979 -0.3657
 1571SOL    HW116346   0.534   0.547   8.774  2.4610 -1.8233 -0.5654
 1571SOL    HW216347   0.398   0.507   8.746  0.3332  1.3446  0.8690
 1572SOL     OW16348   1.897   4.444   8.868  0.0691 -0.4730  0.5951
 1572SOL    HW116349   1.806   4.469   8.848 -0.6408 -0.6895  3.4507
 1572SOL    HW216350   1.888   4.406   8.956  0.9635 -1.8472  0.0806
 1573SOL     OW16351   4.363   2.596   9.268 -0.0691 -0.7227  0.1690
 1573SOL    HW116352   4.402   2.582   9.182 -1.5669 -2.7679 -0.1779
 1573SOL    HW216353   4.410   2.677   9.290 -3.2131  1.0466  0.2835
 1574SOL     OW16354   3.211   3.960   4.639 -0.3310  0.0988  0.2787
 1574SOL    HW116355   3.120   3.933   4.627  0.5700 -2.9763  0.4791
 1574SOL    HW216356   3.218   3.948   4.733  1.9304  0.6212  0.1766
 1575SOL     OW16357   2.543   4.656   5.495 -0.1519  0.3481 -0.3512
 1575SOL    HW116358   2.611   4.712   5.532 -0.5892 -0.7272  2.0379
 1575SOL    HW216359   2.557   4.579   5.549  3.0996  1.1598 -0.0629
 1576SOL     OW16360   4.305   1.456   7.797 -0.5210 -0.0954  0.6942
 1576SOL    HW116361   4.344   1.466   7.710  1.5576  0.7012  1.7094
 1576SOL    HW216362   4.330   1.538   7.840  0.9631 -1.1694  1.9158
 1577SOL     OW16363   1.969   1.002   6.355 -0.4993  0.0506  0.1616
 1577SOL    HW116364   1.902   1.052   6.402  0.0318  0.9087  0.0094
 1577SOL    HW216365   1.981   0.926   6.412  0.8336  0.1900  0.0675
 1578SOL     OW16366   1.357   1.495  16.154 -0.8579  0.6052  0.5138
 1578SOL    HW116367   1.301   1.572  16.167 -0.9054  0.6455  0.0629
 1578SOL    HW216368   1.441   1.528  16.122 -1.3555 -1.6865 -3.1182
 1579SOL     OW16369   0.755   2.681  13.722  0.1628  0.4452  0.7484
 1579SOL    HW116370   0.813   2.613  13.690 -1.7654  0.1278 -2.1013
 1579SOL    HW216371   0.827   2.742  13.737 -0.9403  2.2078 -1.1075
 1580SOL     OW16372   3.534   0.262   8.872 -0.0992 -0.5799  0.2903
 1580SOL    HW116373   3.502   0.229   8.956 -1.0001  1.1748  0.6455
 1580SOL    HW216374   3.614   0.306   8.898 -0.4509 -0.5166  1.2652
 1581SOL     OW16375   2.459   1.387   1.980  0.0383  0.6845  0.0702
 1581SOL    HW116376   2.477   1.480   1.971 -0.6366  0.6117 -2.1109
 1581SOL    HW216377   2.370   1.389   2.016  0.3228  2.8733  0.6216
 1582SOL     OW16378   3.925   3.776   2.332 -0.0233 -0.0448  0.2966
 1582SOL    HW116379   4.002   3.729   2.365  0.4433  2.2355  2.4421
 1582SOL    HW216380   3.952   3.867   2.341  0.5663  0.0711 -2.4899
 1583SOL     OW16381   0.573   3.332   8.485  0.1376  0.1210  0.6876
 1583SOL    HW116382   0.610   3.405   8.436 -0.8398 -0.5643 -1.0421
 1583SOL    HW216383   0.482   3.334   8.457  0.2626  2.1050  0.4376
 1584SOL     OW16384   2.596   3.495   5.442  0.3395  0.2040 -0.0244
 1584SOL    HW116385   2.637   3.580   5.427 -0.7229  0.5644 -0.8395
 1584SOL    HW216386   2.648   3.446   5.507  0.7455  0.8617  0.1518
 1585SOL     OW16387   2.912   2.537   1.906 -0.0498  0.2412  0.2299
 1585SOL    HW116388   2.901   2.628   1.933 -0.2197  0.3767 -0.2989
 1585SOL    HW216389   3.003   2.519   1.930  0.6969 -0.0025 -2.8466
 1586SOL     OW16390   1.347   2.064   6.002 -0.6938  0.4614  0.1837
 1586SOL    HW116391   1.410   2.044   6.071 -1.7100  0.8396  1.2258
 1586SOL    HW216392   1.276   2.109   6.047 -1.3294 -1.0528  0.6831
 1587SOL     OW16393   3.114   0.784   9.515  0.6103  0.4979 -0.7478
 1587SOL    HW116394   3.109   0.765   9.609 -0.6184  1.8922 -0.5399
 1587SOL    HW216395   3.045   0.846   9.494  1.4734  1.4544 -0.7614
 1588SOL     OW16396   3.782   3.395   3.606  0.5553  0.1099  0.6860
 1588SOL    HW116397   3.832   3.469   3.571  1.9259 -0.3861  1.6143
 1588SOL    HW216398   3.845   3.370   3.673  0.1541 -1.6993  0.3771
 1589SOL     OW16399   0.945   2.795   2.648 -0.1927 -0.2086  0.2488
 1589SOL    HW116400   1.039   2.781   2.634  0.0520  0.3116  1.4214
 1589SOL    HW216401   0.944   2.856   2.722  2.8502 -0.5117  0.5753
 1590SOL     OW16402   1.562   2.704   4.322  0.1751 -0.2498  0.2618
 1590SOL    HW116403   1.570   2.767   4.394 -0.6626 -1.6947  1.6381
 1590SOL    HW216404   1.601   2.626   4.361 -1.2423 -0.4350  1.3284
 1591SOL     OW16405   2.274   2.912  16.211 -0.1830  0.4012  0.5584
 1591SOL    HW116406   2.191   2.915  16.164 -0.2090  2.5559  0.7621
 1591SOL    HW216407   2.310   2.997  16.185  1.7259 -0.6699 -0.2803
 1592SOL     OW16408   4.324   4.295   1.536  0.3138 -0.1047  0.3941
 1592SOL    HW116409   4.232   4.322   1.539 -0.3523 -2.1474 -0.9926
 1592SOL    HW216410   4.316   4.218   1.479 -1.5353 -0.5274  1.2016
 1593SOL     OW16411   1.429   4.479   5.123 -0.3984  0.6693 -0.2827
 1593SOL    HW116412   1.418   4.492   5.029 -2.6513  1.5636  0.0904
 1593SOL    HW216413   1.400   4.388   5.133  0.9457  0.1856 -0.8870
 1594SOL     OW16414   4.544   2.759   1.867 -0.1375  0.4077 -0.0916
 1594SOL    HW116415   4.620   2.760   1.810  0.0410 -0.0636  0.1419
 1594SOL    HW216416   4.482   2.695   1.831 -0.4502  0.4739  0.3229
 1595SOL     OW16417   2.663   3.190   2.490 -0.6351  0.2185 -0.0288
 1595SOL    HW116418   2.747   3.156   2.459 -0.4228  0.6067  0.1215
 1595SOL    HW216419   2.633   3.238   2.413 -0.9285  0.0110 -0.0446
 1596SOL     OW16420   0.135   3.872   7.226  0.6029  0.0347 -0.4288
 1596SOL    HW116421   0.071   3.939   7.203 -0.4182 -1.0331 -0.6910
 1596SOL    HW216422   0.208   3.923   7.261 -0.1730  0.3898  0.6482
 1597SOL     OW16423   3.883   0.807   4.548 -0.3635 -0.3933  0.2076
 1597SOL    HW116424   3.866   0.747   4.620 -1.7788 -0.8854 -0.5190
 1597SOL    HW216425   3.978   0.812   4.548 -0.4142  0.7254  0.2366
 1598SOL     OW16426   3.841   0.376   8.155 -0.2713 -0.0884 -0.7901
 1598SOL    HW116427   3.778   0.371   8.083  1.4270 -3.3329 -2.0376
 1598SOL    HW216428   3.910   0.319   8.121 -1.2369 -0.4153 -2.2254
 1599SOL     OW16429   0.347   3.902   0.011  0.0207 -0.7958 -0.0359
 1599SOL    HW116430   0.380   3.939   0.093  0.0488 -0.3131 -0.2633
 1599SOL    HW216431   0.393   3.965  17.704  2.1510  0.7699  3.4792
 1600SOL     OW16432   2.170   2.548   5.628 -0.1168 -0.3857 -0.1358
 1600SOL    HW116433   2.125   2.518   5.549  0.1380 -0.1162 -0.3841
 1600SOL    HW216434   2.095   2.560   5.686  0.2955  0.8910  0.1419
 1601SOL     OW16435   0.929   3.935  17.599 -0.1122 -0.0570  0.2223
 1601SOL    HW116436   0.957   3.998  17.666  2.6121  0.4787 -1.3913
 1601SOL    HW216437   0.849   3.904  17.641 -0.0732 -0.2688  0.1397
 1602SOL     OW16438   2.893   1.226   2.360  0.0899  0.6858  0.0416
 1602SOL    HW116439   2.957   1.233   2.430  0.0393 -3.6271  0.4824
 1602SOL    HW216440   2.879   1.320   2.343 -0.7717  1.0003  2.6248
 1603SOL     OW16441   2.392   4.481   5.736 -0.1541  0.2513  0.0847
 1603SOL    HW116442   2.301   4.498   5.763  0.2740  0.8845  1.1259
 1603SOL    HW216443   2.446   4.515   5.807  1.4726 -0.4187 -0.8509
 1604SOL     OW16444   0.674   2.446  14.694  0.2509  0.7307 -0.4411
 1604SOL    HW116445   0.736   2.492  14.751  0.0085  1.4756 -0.7826
 1604SOL    HW216446   0.728   2.443  14.614 -0.7392  2.9055 -1.1765
 1605SOL     OW16447   1.233   4.489   0.821 -0.7152 -0.3914 -0.5616
 1605SOL    HW116448   1.204   4.537   0.898 -1.7972  1.5802 -2.2113
 1605SOL    HW216449   1.232   4.395   0.842 -0.2660 -0.2365  0.1422
 1606SOL     OW16450   1.346   3.479   4.533  0.0578 -0.2197  0.8858
 1606SOL    HW116451   1.415   3.441   4.479 -0.0581 -1.8816  1.9268
 1606SOL    HW216452   1.380   3.480   4.622  0.8071  0.5655  0.5920
 1607SOL     OW16453   2.341   4.352   7.567  0.9488 -0.1060 -0.8096
 1607SOL    HW116454   2.405   4.301   7.616 -1.8704 -1.4947  1.4212
 1607SOL    HW216455   2.358   4.331   7.476  0.9972 -0.7823 -0.6403
 1608SOL     OW16456   4.720   3.091   2.239 -0.0202 -0.1759  0.3327
 1608SOL    HW116457   4.698   3.011   2.192  1.3948 -0.9219  0.9354
 1608SOL    HW216458   4.638   3.140   2.232  0.4038  0.2215 -1.9107
 1609SOL     OW16459   2.304   1.796   1.266  0.5910 -0.2903 -0.0160
 1609SOL    HW116460   2.208   1.800   1.265  0.6282  1.4774  2.5808
 1609SOL    HW216461   2.325   1.744   1.189 -1.4464  1.6078 -1.8300
 1610SOL     OW16462   0.285   3.628  12.918 -0.7839 -0.0521 -0.2638
 1610SOL    HW116463   0.347   3.697  12.942 -0.3123 -1.2255  1.8578
 1610SOL    HW216464   0.204   3.652  12.962 -0.9930 -0.3398 -0.4987
 1611SOL     OW16465   0.637   2.485   7.665  0.2770  0.2166  0.1054
 1611SOL    HW116466   0.553   2.469   7.622 -0.5777  2.0740  1.0600
 1611SOL    HW216467   0.685   2.406   7.642  0.5044  0.5511 -0.5587
 1612SOL     OW16468   0.838   3.222   8.843  0.4381  0.3898  0.0929
 1612SOL    HW116469   0.767   3.205   8.780 -0.4199 -0.3848  1.2818
 1612SOL    HW216470   0.846   3.133   8.878 -0.6616  0.4153  0.4168
 1613SOL     OW16471   1.530   1.249   3.929 -0.1707  0.0991 -0.3170
 1613SOL    HW116472   1.620   1.266   3.899 -1.0955  0.4680 -2.8940
 1613SOL    HW216473   1.515   1.177   3.868 -1.5796  0.1049  0.0184
 1614SOL     OW16474   1.209   0.313   3.082 -0.3106  0.0069  0.4360
 1614SOL    HW116475   1.162   0.388   3.046 -0.4975 -0.4286 -0.2293
 1614SOL    HW216476   1.188   0.328   3.174  1.2467  1.9017  0.4627
 1615SOL     OW16477   1.438   2.927   4.572 -0.1791 -0.2955 -0.2334
 1615SOL    HW116478   1.463   2.868   4.643  0.2272 -0.3495 -0.4195
 1615SOL    HW216479   1.523   2.958   4.541 -0.1936 -0.2475 -0.2247
 1616SOL     OW16480   4.647   0.931  12.216 -0.0571 -0.4252  0.4304
 1616SOL    HW116481   4.621   0.848  12.257 -1.9039  1.0083  2.1375
 1616SOL    HW216482   4.734   0.934  12.257 -0.3598  2.0631  0.8941
 1617SOL     OW16483   1.386   3.449   5.013 -0.2402 -0.1832  0.0924
 1617SOL    HW116484   1.366   3.356   5.004  1.5925 -0.7233  1.7795
 1617SOL    HW216485   1.459   3.436   5.073  2.1644  2.6894 -2.2446
 1618SOL     OW16486   1.039   3.172   3.472  0.1861 -0.0569  0.0723
 1618SOL    HW116487   1.085   3.168   3.555 -0.3720  0.1412  0.3907
 1618SOL    HW216488   1.116   3.189   3.418 -0.3546  1.7940 -0.1165
 1619SOL     OW16489   0.651   4.221   7.034 -0.2194 -0.2179  0.0603
 1619SOL    HW116490   0.699   4.188   7.110  1.7602  3.5624  0.4210
 1619SOL    HW216491   0.563   4.190   7.056 -1.7544  1.4983 -3.7991
 1620SOL     OW16492   3.485   3.617   4.942 -0.1332  0.0229 -0.6290
 1620SOL    HW116493   3.460   3.703   4.908 -1.6771  1.0925  3.2231
 1620SOL    HW216494   3.580   3.621   4.951 -0.3758  1.9794  1.2277
 1621SOL     OW16495   1.350   0.530  10.887 -0.2176 -0.1173 -0.1009
 1621SOL    HW116496   1.399   0.607  10.915  0.5357  0.6534 -3.5146
 1621SOL    HW216497   1.262   0.550  10.918 -0.1685 -0.9679  0.5923
 1622SOL     OW16498   4.577   3.583  11.336  0.1049 -0.1843  0.2649
 1622SOL    HW116499   4.579   3.522  11.263 -0.1380  0.2743 -0.1283
 1622SOL    HW216500   4.663   3.571  11.377  0.8511  0.4111 -1.1244
 1623SOL     OW16501   4.499   3.929   6.119  0.0756 -0.6120 -0.3121
 1623SOL    HW116502   4.542   3.909   6.036  1.4174 -2.5796  0.8353
 1623SOL    HW216503   4.507   3.845   6.165 -0.4403 -0.3864  0.1987
 1624SOL     OW16504   4.061   3.377   6.422 -0.7022 -0.4639 -0.4277
 1624SOL    HW116505   4.010   3.433   6.481  1.1925  1.1458 -0.3001
 1624SOL    HW216506   3.993   3.312   6.405 -1.3888 -0.1408  1.0388
 1625SOL     OW16507   3.016   4.004   3.736  0.2927  0.0235 -0.4809
 1625SOL    HW116508   3.028   3.981   3.644  1.1617 -0.2983 -0.2830
 1625SOL    HW216509   3.058   3.930   3.781 -1.0186  0.9285  2.2322
 1626SOL     OW16510   2.073   3.150  14.031  0.0217 -0.9023 -0.3421
 1626SOL    HW116511   2.067   3.194  14.116  3.7664  0.2302 -0.6384
 1626SOL    HW216512   2.123   3.207  13.973  2.4592 -1.6525  0.9743
 1627SOL     OW16513   1.313   2.058  10.202  0.0530  0.6208  0.5982
 1627SOL    HW116514   1.262   2.013  10.269 -4.0500  1.1205 -2.1654
 1627SOL    HW216515   1.246   2.113  10.162  1.0859  0.4039 -1.4390
 1628SOL     OW16516   1.466   1.846  10.047  1.2205 -0.3623  0.0557
 1628SOL    HW116517   1.407   1.915  10.079  2.6526  1.0749 -0.3901
 1628SOL    HW216518   1.543   1.870  10.099  1.1735  0.8189 -0.4209
 1629SOL     OW16519   0.944   1.031  12.291  0.3252 -0.2530 -0.0155
 1629SOL    HW116520   0.945   1.059  12.200  0.0264 -0.0035  0.0614
 1629SOL    HW216521   1.038   1.040  12.307  0.6679 -1.5116 -1.2485
 1630SOL     OW16522   3.416   1.488   4.280 -0.3288 -0.1019  0.0257
 1630SOL    HW116523   3.458   1.548   4.219  0.4644 -0.7011 -0.0211
 1630SOL    HW216524   3.353   1.450   4.219 -1.0458  2.7185 -0.9920
 1631SOL     OW16525   3.928   1.732  17.570  0.0933 -0.0561 -0.1117
 1631SOL    HW116526   3.899   1.680  17.495  2.0773 -2.1080  0.5470
 1631SOL    HW216527   3.891   1.816  17.544 -2.3896 -1.7750 -2.1201
 1632SOL     OW16528   2.802   2.383  14.950 -0.1101  1.0176 -0.0722
 1632SOL    HW116529   2.888   2.376  14.992 -0.0339 -1.7017 -0.7076
 1632SOL    HW216530   2.735   2.335  14.998 -2.6754  2.0671 -2.5491
 1633SOL     OW16531   2.370   2.900   3.722  0.3408  0.2716 -0.5346
 1633SOL    HW116532   2.396   2.890   3.630  1.7769 -2.5498  0.1850
 1633SOL    HW216533   2.279   2.870   3.731 -0.7251  3.8576  0.7861
 1634SOL     OW16534   4.653   2.251  11.089 -0.2122 -0.0761 -0.1077
 1634SOL    HW116535   4.557   2.250  11.087 -0.1724 -1.2516 -2.4135
 1634SOL    HW216536   4.672   2.200  11.168  0.5078  0.0462 -0.2020
 1635SOL     OW16537   0.772   3.182   1.856  0.2751 -0.2632 -0.5380
 1635SOL    HW116538   0.803   3.200   1.944 -2.5680  3.9307 -0.3985
 1635SOL    HW216539   0.798   3.263   1.812 -0.7459  0.5027  0.2791
 1636SOL     OW16540   4.028   2.341   9.002 -0.7562 -0.0676 -0.6051
 1636SOL    HW116541   3.961   2.403   9.030 -0.1657  1.2688 -2.1642
 1636SOL    HW216542   3.994   2.312   8.918  3.1049 -2.3892 -1.3868
 1637SOL     OW16543   2.222   1.034   7.896 -0.2586 -0.6298 -0.2438
 1637SOL    HW116544   2.222   1.071   7.985 -2.3369 -3.0613  0.7494
 1637SOL    HW216545   2.277   1.096   7.846 -1.6602 -0.0328 -1.0413
 1638SOL     OW16546   0.212   4.630   8.458 -0.6208  0.4333  0.3062
 1638SOL    HW116547   0.182   4.721   8.456 -0.2589  0.5059 -1.3675
 1638SOL    HW216548   0.305   4.651   8.462 -0.6461  0.9620 -2.1945
 1639SOL     OW16549   0.360   1.554   4.612  0.7278 -0.1904  0.6265
 1639SOL    HW116550   0.412   1.634   4.600 -1.5790  1.0569 -1.0422
 1639SOL    HW216551   0.348   1.558   4.707 -2.4219  0.2016  0.2050
 1640SOL     OW16552   4.484   0.485  15.424 -0.3324  0.2237  0.0891
 1640SOL    HW116553   4.481   0.516  15.514  0.2735  0.0951  0.1557
 1640SOL    HW216554   4.508   0.392  15.434  2.4525  0.9746  0.4795
 1641SOL     OW16555   2.438   2.259   3.363  0.5236  0.4246  0.4732
 1641SOL    HW116556   2.389   2.292   3.438  2.7760 -1.1035  2.6558
 1641SOL    HW216557   2.402   2.170   3.366  0.5429  0.3532 -1.1811
 1642SOL     OW16558   0.355   1.357  12.812  0.4789 -0.4204 -0.1304
 1642SOL    HW116559   0.305   1.372  12.732  0.3056  1.8319  0.4117
 1642SOL    HW216560   0.444   1.352  12.778  0.7908  4.1271  0.0320
 1643SOL     OW16561   0.088   3.199  16.450  0.2491 -0.5537 -0.0987
 1643SOL    HW116562   0.041   3.223  16.371 -2.8504  1.4543  2.3539
 1643SOL    HW216563   0.133   3.128  16.404 -1.3613 -0.0399 -2.4578
 1644SOL     OW16564   4.363   1.563   4.373  0.2232 -0.0388 -0.3223
 1644SOL    HW116565   4.397   1.553   4.284  2.2478  2.0261  0.2325
 1644SOL    HW216566   4.451   1.566   4.410 -0.0097 -0.6025  0.2671
 1645SOL     OW16567   3.816   3.347  11.095  0.3471 -0.1535  0.3852
 1645SOL    HW116568   3.877   3.330  11.167  1.4498 -2.1720 -1.0379
 1645SOL    HW216569   3.799   3.259  11.059  0.7626 -0.0063 -0.1663
 1646SOL     OW16570   2.135   3.253   2.860  0.5397 -0.4597  0.7008
 1646SOL    HW116571   2.174   3.179   2.907 -0.0464 -0.9120  0.4706
 1646SOL    HW216572   2.115   3.314   2.931  0.5146  2.8725 -2.1800
 1647SOL     OW16573   4.344   2.044   5.712 -0.4053  0.0916 -0.0687
 1647SOL    HW116574   4.276   2.044   5.779  1.2461  1.7660  1.6038
 1647SOL    HW216575   4.397   2.118   5.743 -1.4223  0.6624  0.3154
 1648SOL     OW16576   0.142   3.157   3.781  0.2395  0.7057  0.4859
 1648SOL    HW116577   0.204   3.092   3.749  2.4886  4.5819 -3.1644
 1648SOL    HW216578   0.089   3.093   3.828 -0.4665 -0.6381 -2.1155
 1649SOL     OW16579   4.569   4.706   0.885  0.2350 -0.4837  0.5850
 1649SOL    HW116580   4.564   4.622   0.931  1.2876 -0.4839  0.6977
 1649SOL    HW216581   4.483   0.006   0.903  0.4979  0.7173 -0.6878
 1650SOL     OW16582   2.506   3.907   7.505  0.0002  0.0945 -0.2810
 1650SOL    HW116583   2.591   3.869   7.481 -1.2547 -2.6937 -0.2282
 1650SOL    HW216584   2.505   3.882   7.597  0.5679  0.0488 -0.2872
 1651SOL     OW16585   4.598   2.093   4.048  0.5025  0.4918  0.2155
 1651SOL    HW116586   4.680   2.095   4.098  0.0097 -1.0966  1.0854
 1651SOL    HW216587   4.579   1.999   4.045 -0.7979  0.7378  1.0683
 1652SOL     OW16588   1.145   3.564   4.997 -0.2617 -0.1929 -0.4533
 1652SOL    HW116589   1.076   3.501   5.021 -1.9698  1.0887 -2.0091
 1652SOL    HW216590   1.226   3.513   5.001 -1.0484 -1.3428  0.8720
 1653SOL     OW16591   2.592   3.906   4.878 -0.1190 -0.1515  0.0627
 1653SOL    HW116592   2.560   3.816   4.869 -3.2315  0.7305  1.9533
 1653SOL    HW216593   2.506   3.948   4.883 -0.0881  0.0520 -1.3113
 1654SOL     OW16594   3.760   0.785  16.436  0.4311 -0.3286  0.3151
 1654SOL    HW116595   3.796   0.814  16.352 -0.7209  0.7259  0.1920
 1654SOL    HW216596   3.737   0.694  16.414  1.9303 -0.5675 -0.3036
 1655SOL     OW16597   2.652   3.254   8.677 -0.0162 -0.1698  0.1920
 1655SOL    HW116598   2.646   3.283   8.768 -1.8052  1.5923 -0.5015
 1655SOL    HW216599   2.564   3.263   8.641  0.5803 -0.0448 -1.2218
 1656SOL     OW16600   2.328   2.718  15.464 -0.0352 -0.2162  0.4767
 1656SOL    HW116601   2.392   2.689  15.399  0.6334  0.5827  0.7805
 1656SOL    HW216602   2.339   2.655  15.534 -0.8523 -0.5609  0.2919
 1657SOL     OW16603   2.210   0.535  16.171  0.5268  0.6923 -0.2041
 1657SOL    HW116604   2.200   0.523  16.076 -0.4048 -1.9855  0.2100
 1657SOL    HW216605   2.296   0.576  16.174  1.3443 -1.0339  0.0423
 1658SOL     OW16606   4.661   1.861   1.839 -0.6049 -0.3069 -0.1368
 1658SOL    HW116607   4.636   1.785   1.891 -0.0434 -0.3598  0.0605
 1658SOL    HW216608   4.696   1.818   1.761  0.8774  0.0764  0.3205
 1659SOL     OW16609   1.256   1.029   3.664 -0.6299  0.1811 -0.8599
 1659SOL    HW116610   1.216   1.094   3.607  0.6637  2.2927  0.6430
 1659SOL    HW216611   1.182   1.000   3.717 -1.1415  0.4955 -1.3914
 1660SOL     OW16612   1.478   4.501   1.132  0.0755  0.1970 -0.4464
 1660SOL    HW116613   1.419   4.433   1.165  0.9180 -0.1596  0.3289
 1660SOL    HW216614   1.562   4.484   1.175 -0.5135  0.2035  0.6999
 1661SOL     OW16615   2.441   2.359   4.286  0.0518 -0.2626  0.3115
 1661SOL    HW116616   2.451   2.449   4.257  2.6924 -1.6491 -3.0389
 1661SOL    HW216617   2.447   2.309   4.204  0.6730  1.6851 -0.8105
 1662SOL     OW16618   3.704   4.658   0.401  0.2228 -0.4869 -0.3777
 1662SOL    HW116619   3.773   4.632   0.340  0.7309 -0.1605  0.0656
 1662SOL    HW216620   3.641   4.591   0.373  0.3303 -0.6573 -0.2153
 1663SOL     OW16621   3.771   2.093  10.395 -0.3961  0.3207  0.0974
 1663SOL    HW116622   3.839   2.161  10.396  0.4780 -0.5839  2.5114
 1663SOL    HW216623   3.702   2.126  10.337 -0.6023  0.7658  0.5865
 1664SOL     OW16624   3.205   4.283   6.580 -0.0699  0.2527 -0.0703
 1664SOL    HW116625   3.124   4.261   6.534  0.5864  0.6445 -1.4254
 1664SOL    HW216626   3.203   4.196   6.619 -0.0484  0.1959 -0.1960
 1665SOL     OW16627   0.410   0.272   2.494  0.2482 -0.4437  0.7426
 1665SOL    HW116628   0.387   0.354   2.538  1.3066  0.2415  0.0314
 1665SOL    HW216629   0.500   0.261   2.522  0.8522  2.4413 -0.0432
 1666SOL     OW16630   3.370   2.101  16.798  0.5093  0.3561 -0.1359
 1666SOL    HW116631   3.448   2.050  16.778  0.2634  0.0388 -0.3033
 1666SOL    HW216632   3.297   2.045  16.770  1.2970 -1.5309  1.5594
 1667SOL     OW16633   2.748   0.801   8.018  0.1630 -0.1848 -0.6265
 1667SOL    HW116634   2.827   0.788   8.070  0.2621  0.5042 -0.6035
 1667SOL    HW216635   2.739   0.892   8.044 -2.4879 -0.7969  0.6496
 1668SOL     OW16636   3.521   2.120   7.848  0.1086 -0.1643 -0.6072
 1668SOL    HW116637   3.438   2.099   7.891  0.7758 -2.1392 -0.2966
 1668SOL    HW216638   3.488   2.176   7.779 -1.0931 -1.1713 -0.8446
 1669SOL     OW16639   1.166   0.658   4.718 -0.1669 -0.0151  0.1767
 1669SOL    HW116640   1.187   0.566   4.700  0.5116  0.5655 -2.0303
 1669SOL    HW216641   1.247   0.704   4.697 -1.1754  1.8344  0.3802
 1670SOL     OW16642   2.500   3.808   5.579  0.0141  0.9922 -0.8025
 1670SOL    HW116643   2.452   3.726   5.577  0.4363  0.7578 -1.4379
 1670SOL    HW216644   2.569   3.781   5.639  0.4690 -0.7601 -2.0956
 1671SOL     OW16645   3.058   4.548  12.875 -0.1443  0.3833 -0.2312
 1671SOL    HW116646   3.000   4.618  12.904 -2.7359 -1.8932  0.0518
 1671SOL    HW216647   3.101   4.585  12.797  1.3890 -0.1145  0.3828
 1672SOL     OW16648   4.103   3.808   3.677  0.6609 -0.0356 -0.1826
 1672SOL    HW116649   4.019   3.846   3.705  0.9382  0.5065 -0.0830
 1672SOL    HW216650   4.167   3.841   3.740  2.8527 -0.2738 -2.2891
 1673SOL     OW16651   1.133   2.958   8.332 -0.6425 -0.5149  0.1843
 1673SOL    HW116652   1.145   2.870   8.367 -0.0212 -0.3996  0.2572
 1673SOL    HW216653   1.217   2.969   8.287 -0.4090 -0.8894  0.5275
 1674SOL     OW16654   3.965   1.560   5.724 -0.1497 -0.1086  0.0743
 1674SOL    HW116655   4.048   1.548   5.678 -0.5228 -0.4558 -0.5196
 1674SOL    HW216656   3.973   1.655   5.734 -0.6370  0.1340 -1.8475
 1675SOL     OW16657   2.086   1.388   4.003 -0.5641 -0.3685  0.8659
 1675SOL    HW116658   2.083   1.307   3.951 -3.0492 -0.2347  0.8198
 1675SOL    HW216659   2.077   1.456   3.936 -0.6372  0.7365  1.9916
 1676SOL     OW16660   3.777   1.616   9.842 -0.6847 -0.5502  0.3454
 1676SOL    HW116661   3.760   1.524   9.821  0.2870 -0.7911  0.6126
 1676SOL    HW216662   3.688   1.652   9.844 -0.6667 -0.4999  0.2547
 1677SOL     OW16663   3.094   2.432   4.679  0.2737  0.2764 -0.0657
 1677SOL    HW116664   3.030   2.473   4.737 -0.2158  0.0984 -0.4814
 1677SOL    HW216665   3.041   2.385   4.615 -1.1468  0.9324  0.6448
 1678SOL     OW16666   0.723   4.733   9.539  0.7512 -0.4458 -0.3629
 1678SOL    HW116667   0.712   4.638   9.534  2.6422 -0.7440  1.1839
 1678SOL    HW216668   0.723   0.011   9.633  1.3521 -0.8330 -0.2981
 1679SOL     OW16669   3.901   2.999   3.986 -0.2848 -0.3463 -0.5265
 1679SOL    HW116670   3.988   3.029   3.958  1.0408 -2.6005  1.1671
 1679SOL    HW216671   3.891   3.053   4.065 -0.3737 -2.8078  1.1456
 1680SOL     OW16672   1.507   2.633   7.132 -0.3801  0.0314  0.2348
 1680SOL    HW116673   1.515   2.633   7.227 -3.1416 -1.1885  0.4432
 1680SOL    HW216674   1.468   2.718   7.110 -0.5253 -0.4286 -1.3182
 1681SOL     OW16675   0.366   0.612  13.271 -0.0969 -1.2320  0.3076
 1681SOL    HW116676   0.375   0.520  13.249 -1.5609 -0.9191 -1.6301
 1681SOL    HW216677   0.425   0.606  13.346 -1.5116 -0.0925  1.5179
 1682SOL     OW16678   3.563   3.100  10.527  0.4822 -0.2067  0.6217
 1682SOL    HW116679   3.643   3.052  10.549 -0.0110 -2.1591 -1.8592
 1682SOL    HW216680   3.562   3.168  10.594  1.5438  1.0604 -0.6357
 1683SOL     OW16681   1.250   0.559   5.455 -0.7105 -0.4323 -0.6150
 1683SOL    HW116682   1.292   0.482   5.417 -1.5813 -1.0109 -0.4013
 1683SOL    HW216683   1.286   0.623   5.394 -0.4177  1.0610  1.1218
 1684SOL     OW16684   1.448   0.434  12.020 -0.5481  0.6336 -0.3344
 1684SOL    HW116685   1.399   0.451  11.940 -1.5578  0.5658  0.2676
 1684SOL    HW216686   1.480   0.345  12.009 -2.2743 -0.1801  1.1981
 1685SOL     OW16687   0.729   3.465  15.353  0.2529  0.2101 -0.3267
 1685SOL    HW116688   0.744   3.403  15.425  0.9031  0.2371 -0.4433
 1685SOL    HW216689   0.653   3.506  15.394  1.6262 -0.3251  2.8127
 1686SOL     OW16690   3.700   3.074   9.203 -1.0495  0.0327  0.4119
 1686SOL    HW116691   3.707   3.029   9.287  0.8338 -0.3230  0.0695
 1686SOL    HW216692   3.708   3.001   9.143 -1.4323  2.1426 -2.2265
 1687SOL     OW16693   2.189   1.666  15.668  0.0470 -0.2073  0.3660
 1687SOL    HW116694   2.179   1.598  15.601  0.3118  0.0836  0.0336
 1687SOL    HW216695   2.170   1.610  15.744  0.1257 -1.1024 -0.2681
 1688SOL     OW16696   2.200   3.375  17.178 -0.0709 -0.0663  0.0478
 1688SOL    HW116697   2.197   3.341  17.267  1.6348  0.4498  0.3085
 1688SOL    HW216698   2.256   3.449  17.202  0.9918 -0.5058 -1.0771
 1689SOL     OW16699   4.099   2.992   5.868  0.5120 -0.0355  0.0975
 1689SOL    HW116700   4.151   3.069   5.846  0.0238 -0.5196 -2.7380
 1689SOL    HW216701   4.120   2.960   5.956  0.1289 -1.5299 -0.3613
 1690SOL     OW16702   2.788   3.601  10.565  0.0810 -1.0949  0.0317
 1690SOL    HW116703   2.870   3.643  10.590 -0.4316 -1.7977  2.9168
 1690SOL    HW216704   2.787   3.520  10.616  2.3553  0.2879  2.3070
 1691SOL     OW16705   3.669   2.904   7.991 -0.0824  0.0944 -0.6579
 1691SOL    HW116706   3.724   2.846   8.044 -2.8757 -0.5251  1.5624
 1691SOL    HW216707   3.656   2.981   8.045  0.2652  0.1460 -0.6512
 1692SOL     OW16708   1.588   0.094   6.001 -0.2260  0.2312  0.0298
 1692SOL    HW116709   1.509   0.084   6.054  0.5540  0.6176  1.2680
 1692SOL    HW216710   1.633   0.165   6.047 -1.0860 -0.2022  1.5633
 1693SOL     OW16711   3.561   3.627   3.941 -0.0669  0.1646  0.4393
 1693SOL    HW116712   3.545   3.714   3.905 -1.5497  0.0903  0.9276
 1693SOL    HW216713   3.657   3.625   3.937 -0.2315 -2.6813 -2.3865
 1694SOL     OW16714   1.484   1.065   0.615  0.2478  0.8920 -0.2281
 1694SOL    HW116715   1.463   1.145   0.662 -1.0952  1.3230 -1.5413
 1694SOL    HW216716   1.479   1.003   0.688 -0.1259  1.4647  0.2346
 1695SOL     OW16717   0.097   0.850   9.444 -0.5612  0.2605  0.4472
 1695SOL    HW116718   0.095   0.805   9.529 -0.2394 -2.4120 -0.9512
 1695SOL    HW216719   0.030   0.917   9.457 -1.3965 -0.5099  0.0721
 1696SOL     OW16720   1.442   4.269   8.311  0.5834  0.0434  0.2936
 1696SOL    HW116721   1.373   4.208   8.337  0.1775  1.0299  1.5241
 1696SOL    HW216722   1.488   4.266   8.395  0.5816 -0.4823  0.2701
 1697SOL     OW16723   0.531   0.539   3.909  0.5266 -0.1759 -0.0450
 1697SOL    HW116724   0.615   0.509   3.942  0.7604 -0.8219 -1.2621
 1697SOL    HW216725   0.478   0.530   3.989  0.9171 -2.7054 -0.0819
 1698SOL     OW16726   4.085   1.390   2.130 -0.7494  0.0799  0.1698
 1698SOL    HW116727   4.157   1.450   2.149  0.6459 -1.1753 -1.2145
 1698SOL    HW216728   4.099   1.316   2.189  6.4516  0.3440 -1.2116
 1699SOL     OW16729   2.784   0.189   9.362  0.2101 -0.0074 -0.4125
 1699SOL    HW116730   2.706   0.204   9.416  1.4757  1.6265  0.9392
 1699SOL    HW216731   2.745   0.144   9.287 -2.8718 -0.6440  1.5757
 1700SOL     OW16732   1.530   0.053   8.026  0.1771 -0.0723 -0.0210
 1700SOL    HW116733   1.537   0.064   8.121 -1.7203  1.1445 -0.0232
 1700SOL    HW216734   1.620   0.062   7.996  0.1364 -1.3815 -0.5172
 1701SOL     OW16735   0.110   4.577   1.089 -0.5518  0.1883 -0.3431
 1701SOL    HW116736   0.157   4.496   1.111 -0.0708  0.7468  0.6891
 1701SOL    HW216737   0.164   4.639   1.138 -2.0504  0.5545  0.8289
 1702SOL     OW16738   4.608   1.687  15.224 -0.3143  0.1105 -0.2520
 1702SOL    HW116739   4.637   1.739  15.149 -2.4755  0.3215 -0.9417
 1702SOL    HW216740   4.646   1.603  15.199  2.5288  1.2700  0.0738
 1703SOL     OW16741   2.645   1.865   5.175 -0.3261 -0.0696  0.2101
 1703SOL    HW116742   2.609   1.776   5.172  1.8525 -0.9511  0.1711
 1703SOL    HW216743   2.586   1.913   5.117  0.5343  1.0406  0.2447
 1704SOL     OW16744   2.793   1.772  17.677 -0.3363  0.0284  0.1251
 1704SOL    HW116745   2.879   1.731  17.671 -0.1084  0.6019 -0.4932
 1704SOL    HW216746   2.803   1.852  17.626  1.6204  0.7775  1.6335
 1705SOL     OW16747   1.490   0.733   5.823  0.5123 -0.0721  0.5745
 1705SOL    HW116748   1.397   0.754   5.816  0.2510 -1.6424 -0.5649
 1705SOL    HW216749   1.512   0.708   5.734 -0.5886 -0.0101  0.2846
 1706SOL     OW16750   0.670   4.466   1.952 -0.2422  0.0514  0.2755
 1706SOL    HW116751   0.593   4.520   1.971 -0.5311 -0.2325 -0.0824
 1706SOL    HW216752   0.637   4.385   1.912  0.1065  0.4150 -0.7381
 1707SOL     OW16753   2.655   2.532   2.484  0.2611  0.4227 -0.1528
 1707SOL    HW116754   2.566   2.500   2.468  0.1579 -0.7388  2.6095
 1707SOL    HW216755   2.691   2.457   2.532 -0.4643 -1.3547 -2.3682
 1708SOL     OW16756   4.609   2.338   1.067 -0.2759  0.4535  0.0416
 1708SOL    HW116757   4.529   2.285   1.075  0.6476 -0.4693  3.4519
 1708SOL    HW216758   4.661   2.262   1.042  2.1001  1.5438  1.6281
 1709SOL     OW16759   2.336   4.477   4.193  0.4218  0.2088  0.6643
 1709SOL    HW116760   2.315   4.469   4.100 -0.6793  0.7546  0.8583
 1709SOL    HW216761   2.430   4.469   4.212  0.5623  1.2766  0.4166
 1710SOL     OW16762   3.565   3.164   7.024  0.1064  0.4405  0.1653
 1710SOL    HW116763   3.600   3.233   7.081  0.6842 -1.1046  1.6814
 1710SOL    HW216764   3.488   3.202   6.981 -0.2201  0.8006  1.0548
 1711SOL     OW16765   3.666   3.394  13.262  0.4887 -0.4805 -0.2834
 1711SOL    HW116766   3.638   3.479  13.297  0.1586 -2.2168  3.6840
 1711SOL    HW216767   3.718   3.356  13.333  0.3011  0.8393  0.5631
 1712SOL     OW16768   0.712   4.144   6.798  0.8099 -0.0011 -0.1661
 1712SOL    HW116769   0.728   4.231   6.762 -0.6713 -0.2497 -1.4574
 1712SOL    HW216770   0.708   4.155   6.893  0.5964 -1.1326 -0.0470
 1713SOL     OW16771   3.451   1.275   7.676 -0.2573 -0.0468  0.2803
 1713SOL    HW116772   3.457   1.303   7.767  1.8594  0.8458 -0.1355
 1713SOL    HW216773   3.530   1.222   7.670  0.3230  0.9609 -0.9600
 1714SOL     OW16774   3.065   2.658  15.863 -0.0719  0.3157  0.2781
 1714SOL    HW116775   3.038   2.705  15.943  1.6187 -0.0176  1.0451
 1714SOL    HW216776   3.010   2.580  15.872  0.8533 -0.6723 -2.9055
 1715SOL     OW16777   0.770   3.130   3.072 -0.3010  0.0825  0.5871
 1715SOL    HW116778   0.694   3.187   3.074 -0.9131 -0.6721 -1.4750
 1715SOL    HW216779   0.762   3.077   3.151  1.6464  0.7899  1.2718
 1716SOL     OW16780   1.240   1.182  14.891  0.8096  0.7623 -0.3214
 1716SOL    HW116781   1.164   1.240  14.892  1.3079  1.4185 -0.5996
 1716SOL    HW216782   1.241   1.167  14.986 -0.8268 -1.5356 -0.6470
 1717SOL     OW16783   1.205   2.121   7.434 -0.2288  0.0126 -0.1278
 1717SOL    HW116784   1.253   2.049   7.476  0.8233 -0.0035 -1.3612
 1717SOL    HW216785   1.222   2.198   7.490 -2.5015 -0.0978  0.6926
 1718SOL     OW16786   0.967   2.315   8.950  0.5082  0.2823  0.3567
 1718SOL    HW116787   0.961   2.350   8.861 -2.3470  1.1335  0.8764
 1718SOL    HW216788   1.049   2.266   8.948  2.2345  3.2398 -0.6340
 1719SOL     OW16789   3.290   2.099  12.844  0.2185  0.0395 -0.6318
 1719SOL    HW116790   3.231   2.172  12.862  0.3692 -0.3445  1.4507
 1719SOL    HW216791   3.309   2.077  12.935 -1.3675 -0.7678 -0.4980
 1720SOL     OW16792   4.322   0.485   1.267 -0.6071  0.2231  0.3527
 1720SOL    HW116793   4.307   0.408   1.211 -0.9012 -0.2008  1.0176
 1720SOL    HW216794   4.328   0.434   1.347 -1.4724 -0.7567 -0.1996
 1721SOL     OW16795   1.976   4.228   9.875  0.1237  0.0787 -0.3317
 1721SOL    HW116796   2.004   4.170   9.804 -0.0666  0.0206 -0.3585
 1721SOL    HW216797   2.010   4.179   9.950 -2.9979 -2.9374 -0.8825
 1722SOL     OW16798   3.916   4.376   5.602 -1.0665 -0.3226 -0.0515
 1722SOL    HW116799   3.961   4.339   5.678  0.8392 -0.6575 -1.3384
 1722SOL    HW216800   3.988   4.424   5.560 -0.1016 -0.9651  0.8527
 1723SOL     OW16801   2.376   4.018   2.000  0.2894  0.8947 -0.1226
 1723SOL    HW116802   2.364   4.021   2.095 -0.0620 -0.8317 -0.1125
 1723SOL    HW216803   2.337   4.102   1.975 -3.5706 -0.9372 -0.2320
 1724SOL     OW16804   2.691   3.503   4.700 -0.0547  0.0096 -0.5943
 1724SOL    HW116805   2.655   3.430   4.750  0.7060  1.1721  1.6488
 1724SOL    HW216806   2.607   3.540   4.673  0.6266  2.8438  1.1486
 1725SOL     OW16807   2.691   1.323  17.541 -0.0837 -0.0743  0.0919
 1725SOL    HW116808   2.661   1.232  17.543  1.4312 -0.6006 -0.8003
 1725SOL    HW216809   2.667   1.347  17.451 -0.7166 -0.5953  0.1258
 1726SOL     OW16810   2.794   1.303  14.359  0.2158  0.3977 -0.8522
 1726SOL    HW116811   2.706   1.318  14.393  0.0964 -0.7612 -0.6625
 1726SOL    HW216812   2.790   1.341  14.272 -2.7715 -0.9801 -1.3071
 1727SOL     OW16813   0.159   3.834  10.870 -0.0696 -0.5225 -0.2521
 1727SOL    HW116814   0.253   3.818  10.870  0.1532  0.9607  2.6261
 1727SOL    HW216815   0.149   3.916  10.821 -0.1172  2.5222  4.9138
 1728SOL     OW16816   1.407   3.479   4.052  0.0576  0.3350  0.2542
 1728SOL    HW116817   1.406   3.388   4.022  0.2034  1.1386 -2.1855
 1728SOL    HW216818   1.474   3.480   4.120 -0.9800 -0.1809  1.3005
 1729SOL     OW16819   0.164   4.231   1.821  0.1830 -0.0638  0.8029
 1729SOL    HW116820   0.090   4.173   1.834  1.5562 -2.1456 -0.7248
 1729SOL    HW216821   0.213   4.228   1.903  2.3701 -1.9854 -0.5859
 1730SOL     OW16822   1.544   2.651   9.137 -0.1240  0.0765  0.0158
 1730SOL    HW116823   1.600   2.669   9.213 -1.2134  2.3445  0.2848
 1730SOL    HW216824   1.611   2.658   9.070  1.4409 -0.4069  1.5288
 1731SOL     OW16825   1.562   2.372  14.343  0.2587 -0.7092 -0.4787
 1731SOL    HW116826   1.637   2.407  14.390 -0.4055 -0.7507  0.5997
 1731SOL    HW216827   1.573   2.278  14.356 -0.5911 -1.0273 -2.0566
 1732SOL     OW16828   1.323   0.451  14.277 -0.4189  0.3867  0.4786
 1732SOL    HW116829   1.260   0.414  14.216 -1.7003  1.1857  1.3131
 1732SOL    HW216830   1.289   0.413  14.358 -0.9058 -3.4406 -1.5523
 1733SOL     OW16831   4.425   1.688   5.005  0.3936 -0.1052  0.0758
 1733SOL    HW116832   4.435   1.783   5.017  1.1496 -0.1050 -0.5237
 1733SOL    HW216833   4.464   1.637   5.075 -1.7161 -0.1107  1.2389
 1734SOL     OW16834   0.302   2.429   6.274  0.0426  0.2515  0.8077
 1734SOL    HW116835   0.242   2.463   6.340  0.1904  0.6308  0.7516
 1734SOL    HW216836   0.248   2.439   6.196  1.1874 -2.3177 -0.3286
 1735SOL     OW16837   2.808   0.320   5.866  0.1199  0.3264  0.2695
 1735SOL    HW116838   2.777   0.398   5.912 -1.9662  0.2898 -1.1077
 1735SOL    HW216839   2.885   0.296   5.918  0.8950  1.0613 -0.5253
 1736SOL     OW16840   0.306   3.730   8.168  0.0814  0.1124 -0.9268
 1736SOL    HW116841   0.326   3.770   8.084  0.8665 -0.1518 -0.8665
 1736SOL    HW216842   0.392   3.745   8.209 -0.7971  0.5166  0.7966
 1737SOL     OW16843   0.211   0.228   3.383 -0.2509 -0.1154 -0.4468
 1737SOL    HW116844   0.271   0.287   3.337  0.9193  0.3783  1.6979
 1737SOL    HW216845   0.176   0.295   3.442  0.8270 -0.2152  0.3123
 1738SOL     OW16846   0.429   1.674   6.898 -0.2849 -0.1484  0.2663
 1738SOL    HW116847   0.508   1.728   6.893  0.4523 -0.9196  3.3921
 1738SOL    HW216848   0.445   1.611   6.828 -3.7582  0.0514 -0.7192
 1739SOL     OW16849   0.022   3.747  16.596 -0.2949  0.1322  0.0710
 1739SOL    HW116850   0.026   3.692  16.517  0.9395  1.4447 -0.7875
 1739SOL    HW216851   4.682   3.705  16.631 -1.6123  1.5714 -1.1179
 1740SOL     OW16852   1.080   2.212   2.174  0.0786 -0.4293  0.4137
 1740SOL    HW116853   0.988   2.236   2.183 -0.4552 -2.5054  0.3642
 1740SOL    HW216854   1.069   2.148   2.104 -0.6481  0.2388 -0.0799
 1741SOL     OW16855   1.148   2.152  14.254  0.7109 -0.0934  0.4413
 1741SOL    HW116856   1.132   2.225  14.313  0.5960 -0.0184  0.3169
 1741SOL    HW216857   1.170   2.095  14.327 -0.1696  1.3929  1.8691
 1742SOL     OW16858   3.432   0.759   4.257 -0.0190 -0.0579 -0.1766
 1742SOL    HW116859   3.453   0.667   4.267 -0.7872  0.0358  2.3614
 1742SOL    HW216860   3.341   0.754   4.226 -0.0327  2.1783 -0.5257
 1743SOL     OW16861   1.513   1.086  13.576  0.1129 -0.0717  0.0403
 1743SOL    HW116862   1.552   1.074  13.490 -0.2694 -0.7268 -0.0446
 1743SOL    HW216863   1.592   1.098  13.628 -1.2882 -0.2951  2.2346
 1744SOL     OW16864   1.811   1.665   1.424  0.0352  0.1777  0.4621
 1744SOL    HW116865   1.832   1.628   1.339  3.4536  1.3813  0.7870
 1744SOL    HW216866   1.838   1.592   1.479 -1.5120 -1.0667 -0.4218
 1745SOL     OW16867   4.132   1.486   4.875 -0.6012 -0.1547 -0.0554
 1745SOL    HW116868   4.127   1.534   4.958  1.1552 -0.9861  0.5379
 1745SOL    HW216869   4.192   1.545   4.829  0.7379  0.3444  2.2894
 1746SOL     OW16870   1.931   0.911   1.559 -0.6291 -0.6893  0.1602
 1746SOL    HW116871   1.924   0.818   1.540  0.6958 -1.0024  1.1946
 1746SOL    HW216872   1.995   0.904   1.629 -1.3110  1.0670  0.9740
 1747SOL     OW16873   3.957   4.731   9.149 -0.8853 -0.6996 -0.1219
 1747SOL    HW116874   4.009   0.073   9.140 -0.8904 -1.0192 -2.9370
 1747SOL    HW216875   4.013   4.674   9.201  0.4364  0.8524  0.1592
 1748SOL     OW16876   3.909   3.212   5.320 -0.5758 -0.5819 -0.1522
 1748SOL    HW116877   3.914   3.171   5.234 -1.5572  1.0641 -0.9822
 1748SOL    HW216878   3.838   3.276   5.313 -0.7848 -0.6228  1.4336
 1749SOL     OW16879   3.618   2.851   4.729  0.2824 -0.3065  0.5650
 1749SOL    HW116880   3.596   2.759   4.745 -1.4778  0.0148  0.0529
 1749SOL    HW216881   3.533   2.886   4.758  0.2133  0.4018 -0.5000
 1750SOL     OW16882   1.029   4.060   6.355 -0.3555  0.2889  0.2559
 1750SOL    HW116883   1.035   4.136   6.296  0.0568  0.4511  0.5033
 1750SOL    HW216884   0.987   4.001   6.293 -0.2957  0.6666 -0.1483
 1751SOL     OW16885   3.185   1.608  10.476  0.0485 -0.1837  0.4173
 1751SOL    HW116886   3.111   1.664  10.449  2.9614  1.9882 -3.0741
 1751SOL    HW216887   3.190   1.550  10.400  0.5601 -0.0357  0.3371
 1752SOL     OW16888   1.995   2.338   2.600 -0.1299 -0.1268  0.3904
 1752SOL    HW116889   2.004   2.244   2.583 -1.9559 -0.3234  0.4560
 1752SOL    HW216890   1.932   2.352   2.529 -1.8890 -0.6828  1.8359
 1753SOL     OW16891   1.242   3.881   3.740 -0.2029  0.0722  0.0429
 1753SOL    HW116892   1.220   3.858   3.830  0.6803 -2.2803 -0.3379
 1753SOL    HW216893   1.153   3.897   3.708  0.7718  3.1276 -1.1930
 1754SOL     OW16894   2.075   4.074   7.502 -0.4659  0.1822  0.1389
 1754SOL    HW116895   1.987   4.044   7.526  0.1529 -1.0894  0.8667
 1754SOL    HW216896   2.083   4.125   7.583  0.1672  1.1504 -0.5402
 1755SOL     OW16897   2.316   3.372   7.128 -0.3895  0.3646  0.5955
 1755SOL    HW116898   2.345   3.329   7.208 -0.6319 -2.8824 -1.0490
 1755SOL    HW216899   2.255   3.305   7.097 -0.5509  0.5662  0.4748
 1756SOL     OW16900   2.928   1.201   9.522  0.0300 -0.3446 -0.0268
 1756SOL    HW116901   2.962   1.127   9.472  1.8053 -0.8770  2.0252
 1756SOL    HW216902   2.843   1.202   9.478  0.3220  0.7927 -0.5706
 1757SOL     OW16903   1.835   2.542   3.652 -0.4240 -0.3479  0.1120
 1757SOL    HW116904   1.756   2.514   3.607 -0.6099  0.4629 -0.0711
 1757SOL    HW216905   1.821   2.637   3.649  1.1361 -0.1391 -0.5772
 1758SOL     OW16906   2.980   1.522   5.028 -0.4658  0.2802  0.0232
 1758SOL    HW116907   3.068   1.543   4.998 -0.0643  0.2812  1.1908
 1758SOL    HW216908   2.936   1.607   5.033  0.6381  0.9693 -1.7693
 1759SOL     OW16909   3.185   4.412   2.926 -0.6013 -0.5751 -0.1609
 1759SOL    HW116910   3.128   4.486   2.945 -1.2079 -1.0093 -0.2719
 1759SOL    HW216911   3.120   4.360   2.878 -0.7026  0.2629 -0.9307
 1760SOL     OW16912   2.948   4.557   3.023  0.0194  0.0368  0.1992
 1760SOL    HW116913   2.905   4.489   3.076 -1.0203 -0.5561 -1.4073
 1760SOL    HW216914   2.872   4.595   2.978 -0.9619 -0.9464  1.0219
 1761SOL     OW16915   4.188   4.008   9.739 -0.4771  0.3381 -0.8730
 1761SOL    HW116916   4.198   4.096   9.701  1.6167  1.3625  2.0895
 1761SOL    HW216917   4.098   4.018   9.768 -0.2459  0.4025 -0.1805
 1762SOL     OW16918   2.433   1.520   4.333 -0.1186 -0.2595 -0.3186
 1762SOL    HW116919   2.432   1.575   4.412  1.1231 -0.0688 -0.4451
 1762SOL    HW216920   2.384   1.440   4.352 -1.3274  0.3542 -0.8282
 1763SOL     OW16921   3.508   0.960   3.900  0.4546 -0.1538  0.1801
 1763SOL    HW116922   3.425   0.918   3.924 -0.2361  1.6888  1.0338
 1763SOL    HW216923   3.482   1.016   3.826  0.2779 -0.0281  0.3368
 1764SOL     OW16924   3.460   4.695   3.518  0.1200  0.0739 -0.1054
 1764SOL    HW116925   3.382   0.007   3.544  1.2103  1.1299  1.1636
 1764SOL    HW216926   3.464   4.726   3.427 -3.2043  1.5794  0.2622
 1765SOL     OW16927   0.901   2.050  11.669  0.1173 -0.0153  0.6037
 1765SOL    HW116928   0.888   2.115  11.738 -0.3313  1.0240 -0.4625
 1765SOL    HW216929   0.833   2.075  11.606 -1.6720 -3.1750  1.3157
 1766SOL     OW16930   3.290   2.384  15.905 -0.3029  0.2986 -0.3579
 1766SOL    HW116931   3.281   2.401  15.999 -1.0162  1.7491 -0.6817
 1766SOL    HW216932   3.286   2.289  15.919  0.7084  0.3456  0.2446
 1767SOL     OW16933   4.375   3.517   4.175 -0.2816 -0.4265 -0.4168
 1767SOL    HW116934   4.375   3.610   4.195  0.3880 -0.3037 -0.9690
 1767SOL    HW216935   4.394   3.514   4.081  1.1952 -0.6673 -0.1145
 1768SOL     OW16936   1.181   3.525   8.831  0.3801  0.5227  0.2005
 1768SOL    HW116937   1.228   3.550   8.751  0.0255  0.8088  0.0841
 1768SOL    HW216938   1.152   3.438   8.803  0.1253  0.1363  1.6486
 1769SOL     OW16939   3.346   0.867  11.213 -0.4442  0.5404  0.4429
 1769SOL    HW116940   3.335   0.949  11.165 -2.5819  1.2955  2.1657
 1769SOL    HW216941   3.397   0.896  11.288  1.4405  1.9066 -1.3672
 1770SOL     OW16942   1.350   3.885   2.505  0.1914 -0.0762 -0.1944
 1770SOL    HW116943   1.382   3.796   2.487 -0.6455 -0.2153 -1.0368
 1770SOL    HW216944   1.342   3.888   2.600  1.3279 -1.2439 -0.0695
 1771SOL     OW16945   4.732   4.616   6.647  0.0394 -0.6628  0.1958
 1771SOL    HW116946   4.657   4.667   6.677 -0.5125 -0.5014 -1.4143
 1771SOL    HW216947   0.037   4.683   6.594 -1.9144  0.1875 -0.2967
 1772SOL     OW16948   2.088   1.456  17.704  0.0666  0.2214  0.0658
 1772SOL    HW116949   1.997   1.445  17.676  0.0570  0.2769  0.0745
 1772SOL    HW216950   2.077   1.544  17.742 -1.7804 -0.2083  0.5168
 1773SOL     OW16951   0.966   2.649  17.403 -0.7696  0.1943 -0.5167
 1773SOL    HW116952   0.891   2.622  17.455 -1.7131 -0.1168 -2.0477
 1773SOL    HW216953   1.019   2.687  17.473 -0.1598  0.4657 -1.1172
 1774SOL     OW16954   2.018   1.788   6.702  0.0652 -0.1055 -0.6463
 1774SOL    HW116955   1.930   1.768   6.733 -0.3156 -0.5010 -1.9626
 1774SOL    HW216956   2.075   1.756   6.772  0.3559  1.8733  0.0001
 1775SOL     OW16957   4.009   2.902  11.282  0.3712 -0.3716  0.2742
 1775SOL    HW116958   4.035   2.849  11.207  0.9035  2.1935 -1.3658
 1775SOL    HW216959   4.090   2.901  11.334 -0.0112  3.0444  0.9492
 1776SOL     OW16960   2.483   3.140   5.283 -0.7109  0.2188 -0.0646
 1776SOL    HW116961   2.554   3.130   5.221 -0.7447  1.3610 -0.2820
 1776SOL    HW216962   2.466   3.233   5.270  1.1837  0.2314 -2.4360
 1777SOL     OW16963   1.123   1.484   3.275 -0.5891 -0.3144  0.7084
 1777SOL    HW116964   1.034   1.491   3.309 -1.1881 -1.2678 -0.6291
 1777SOL    HW216965   1.106   1.502   3.182 -2.3012  0.7459  1.2279
 1778SOL     OW16966   0.300   3.404  12.764  0.2638  0.6530  0.3480
 1778SOL    HW116967   0.297   3.483  12.818  0.8429 -0.1684  1.5646
 1778SOL    HW216968   0.212   3.367  12.764  1.8808 -3.1198  2.0382
 1779SOL     OW16969   4.319   0.116   2.834  0.5547 -0.3241  0.3411
 1779SOL    HW116970   4.392   0.171   2.861  1.7484 -1.0606 -1.3939
 1779SOL    HW216971   4.271   0.096   2.915  0.8402 -0.0195  0.5847
 1780SOL     OW16972   1.802   2.115   1.328  0.7374 -0.1208 -0.5439
 1780SOL    HW116973   1.792   2.144   1.419  0.1686  0.9855 -0.9641
 1780SOL    HW216974   1.862   2.177   1.285 -0.0088 -0.4352 -2.0352
 1781SOL     OW16975   0.327   1.803   9.597  0.6173 -0.6046  0.1438
 1781SOL    HW116976   0.391   1.767   9.536 -0.5664  0.3308 -1.6541
 1781SOL    HW216977   0.340   1.893   9.567  1.1441 -0.3697  1.0771
 1782SOL     OW16978   2.076   0.046   1.421  0.8984 -0.1957  0.1985
 1782SOL    HW116979   2.084   0.011   1.509 -0.4269  1.7204  1.0730
 1782SOL    HW216980   2.060   0.139   1.438  1.5903 -0.5538  2.7731
 1783SOL     OW16981   4.177   1.643  13.819  0.0352  0.2700 -0.0327
 1783SOL    HW116982   4.184   1.736  13.841 -1.3159  0.6142 -1.0636
 1783SOL    HW216983   4.265   1.617  13.793 -1.1257 -2.6314 -1.1002
 1784SOL     OW16984   1.420   0.795  11.699  0.1825  0.4525  0.3762
 1784SOL    HW116985   1.421   0.702  11.677 -1.3774  0.6495 -0.4716
 1784SOL    HW216986   1.515   0.801  11.711  0.3493 -0.2354 -0.5212
 1785SOL     OW16987   2.322   2.579  17.330 -0.2157 -0.6619 -0.7502
 1785SOL    HW116988   2.381   2.504  17.324  1.5778  0.7016 -0.4837
 1785SOL    HW216989   2.352   2.619  17.412  0.0962 -1.0751 -0.6625
 1786SOL     OW16990   4.411   0.563   8.494  0.0649  0.2067 -0.5942
 1786SOL    HW116991   4.465   0.578   8.572  0.8161  1.1987 -1.3080
 1786SOL    HW216992   4.332   0.611   8.518 -0.3275 -0.3124 -0.8468
 1787SOL     OW16993   3.008   4.713   7.745  0.0662 -0.9191  0.2271
 1787SOL    HW116994   2.985   4.664   7.823  1.5939  1.1986  1.9932
 1787SOL    HW216995   2.974   4.648   7.683  0.1115 -0.2530 -0.4948
 1788SOL     OW16996   4.410   2.867   4.737 -0.0234  0.3251 -0.0754
 1788SOL    HW116997   4.378   2.954   4.711 -1.3537 -0.8017 -2.2888
 1788SOL    HW216998   4.454   2.891   4.818 -2.4067  0.9397  1.0406
 1789SOL     OW16999   1.682   3.868   9.111 -0.0047 -0.2532 -0.1314
 1789SOL    HW117000   1.688   3.920   9.191 -4.1755  1.7872 -1.1546
 1789SOL    HW217001   1.688   3.779   9.147 -1.8701  0.2300  1.3984
 1790SOL     OW17002   3.554   4.642   6.303 -0.1088  0.2463  0.1313
 1790SOL    HW117003   3.499   4.567   6.279 -2.9813  2.6863 -0.9392
 1790SOL    HW217004   3.483   4.689   6.346 -0.0986 -0.0742  0.4987
 1791SOL     OW17005   3.789   3.670  13.462  1.2166  0.1838 -0.7743
 1791SOL    HW117006   3.718   3.608  13.448  0.6715  0.6568 -0.0542
 1791SOL    HW217007   3.782   3.718  13.379  0.6658  2.1067  0.3919
 1792SOL     OW17008   0.091   0.785   7.946  0.8008 -0.1936  0.1504
 1792SOL    HW117009   0.044   0.748   7.871  2.4653 -2.2746  0.1060
 1792SOL    HW217010   0.138   0.853   7.898 -0.4057 -0.1036 -0.8768
 1793SOL     OW17011   0.837   2.199   6.320 -0.2000  0.0483  0.0716
 1793SOL    HW117012   0.853   2.141   6.394  0.8812 -0.0543 -0.2394
 1793SOL    HW217013   0.747   2.226   6.337 -0.0795 -0.4684  1.5560
 1794SOL     OW17014   4.218   2.459   7.917 -0.0646 -0.2226 -0.2444
 1794SOL    HW117015   4.143   2.516   7.934  0.2943  0.7633 -1.8973
 1794SOL    HW217016   4.228   2.472   7.822 -0.9191 -1.4379 -0.5022
 1795SOL     OW17017   1.647   0.461   7.715 -0.1105 -0.2476  0.1455
 1795SOL    HW117018   1.561   0.430   7.687  0.2570 -1.4473  0.3530
 1795SOL    HW217019   1.635   0.553   7.691  3.2424 -0.6879 -3.2342
 1796SOL     OW17020   1.833   3.648  13.566 -0.6335 -0.1914  0.6330
 1796SOL    HW117021   1.766   3.672  13.629 -1.0232  0.1743  0.0867
 1796SOL    HW217022   1.901   3.713  13.585 -0.7783  0.3567 -0.7090
 1797SOL     OW17023   3.366   0.692   3.399  0.5666  0.1075  0.2112
 1797SOL    HW117024   3.384   0.748   3.324  0.3411  2.1280  1.6737
 1797SOL    HW217025   3.424   0.620   3.373 -0.8771 -1.2362  0.7321
 1798SOL     OW17026   1.985   2.121   3.994 -0.0170 -0.4007  0.0669
 1798SOL    HW117027   2.017   2.141   3.906  0.6870 -2.1884 -0.0643
 1798SOL    HW217028   2.027   2.036   4.006 -1.3906 -0.8397  1.7916
 1799SOL     OW17029   0.767   2.847  17.465 -0.0293  0.2488 -0.1720
 1799SOL    HW117030   0.843   2.899  17.441 -0.0216  0.3274  0.0239
 1799SOL    HW217031   0.704   2.916  17.486 -0.8656 -1.0188  1.4596
 1800SOL     OW17032   0.713   2.528   8.092  0.3373 -0.1566  0.1312
 1800SOL    HW117033   0.649   2.521   8.163 -1.7886  0.1578 -1.7438
 1800SOL    HW217034   0.796   2.560   8.127 -0.0618 -0.0683  1.0009
 1801SOL     OW17035   3.916   2.904   7.036  0.0725  0.3804 -0.1644
 1801SOL    HW117036   3.905   2.985   6.986  0.3691 -0.0973 -0.9933
 1801SOL    HW217037   3.823   2.882   7.044 -0.2770  1.4228 -1.4760
 1802SOL     OW17038   0.447   2.013   2.897  0.4774  0.1351  0.2114
 1802SOL    HW117039   0.527   2.046   2.939  0.2620 -1.3439  1.7757
 1802SOL    HW217040   0.473   2.011   2.805  0.5346  1.6842  0.1818
 1803SOL     OW17041   3.842   3.978  13.340  0.2243  0.3446  0.0978
 1803SOL    HW117042   3.780   4.012  13.404 -1.0193 -1.0207 -0.3880
 1803SOL    HW217043   3.784   3.938  13.276  2.6488 -0.7939 -1.4123
 1804SOL     OW17044   3.755   4.612  12.300  0.5680  0.1248  0.0075
 1804SOL    HW117045   3.822   4.675  12.273  1.3754 -1.2082 -1.0987
 1804SOL    HW217046   3.668   4.651  12.290  0.0267 -1.5262 -1.6885
 1805SOL     OW17047   2.578   4.579   5.944 -0.8246 -0.5477 -0.5547
 1805SOL    HW117048   2.535   4.664   5.937  1.0994  0.3191 -1.8405
 1805SOL    HW217049   2.620   4.577   6.030 -0.2170 -0.0479 -0.8392
 1806SOL     OW17050   0.237   3.733   2.881 -1.0189  0.1240  0.0677
 1806SOL    HW117051   0.181   3.721   2.805 -0.3848  2.5702 -0.8025
 1806SOL    HW217052   0.175   3.715   2.952 -1.9274  0.9870 -0.5077
 1807SOL     OW17053   0.046   3.572  16.200  0.5615 -0.0329  0.0325
 1807SOL    HW117054   0.059   3.664  16.176  0.2961 -0.3929 -1.4662
 1807SOL    HW217055   0.008   3.576  16.287 -1.6899 -1.8377 -0.8942
 1808SOL     OW17056   3.619   1.588   7.716  0.4117 -0.4926 -0.5420
 1808SOL    HW117057   3.658   1.531   7.783 -1.2483 -1.4126 -0.3524
 1808SOL    HW217058   3.676   1.664   7.724 -0.0062 -0.2998  0.6850
 1809SOL     OW17059   0.379   1.434   1.199 -0.4164  0.0613  0.0241
 1809SOL    HW117060   0.388   1.348   1.240  1.6594  0.1316 -0.2844
 1809SOL    HW217061   0.304   1.412   1.144  1.9142 -1.7140 -2.4199
 1810SOL     OW17062   3.612   2.313  15.802  0.3995 -0.2670  0.1693
 1810SOL    HW117063   3.555   2.386  15.825  1.7091  1.1175 -1.0436
 1810SOL    HW217064   3.634   2.336  15.712  0.1116  2.4564  0.7879
 1811SOL     OW17065   0.700   4.157   7.760 -1.0575 -0.6553  0.0471
 1811SOL    HW117066   0.672   4.209   7.685  0.4408  1.6618  1.0947
 1811SOL    HW217067   0.794   4.174   7.766 -0.6232 -2.8180 -0.7321
 1812SOL     OW17068   1.075   2.471  11.231 -0.1392  0.7483 -0.0949
 1812SOL    HW117069   1.003   2.516  11.187 -0.6608  0.9780  0.9780
 1812SOL    HW217070   1.129   2.545  11.260  1.5552 -0.4202 -0.2895
 1813SOL     OW17071   0.521   2.415   0.961 -0.4348  0.2548 -0.1617
 1813SOL    HW117072   0.528   2.508   0.940 -0.7006 -0.0747 -1.7466
 1813SOL    HW217073   0.501   2.431   1.053  1.2762  1.3035  0.0266
 1814SOL     OW17074   0.346   2.969   4.147  0.1106  0.0672 -0.0570
 1814SOL    HW117075   0.362   2.955   4.241 -0.2978  2.8515  0.4399
 1814SOL    HW217076   0.314   2.883   4.122  1.9352 -1.0104  1.4015
 1815SOL     OW17077   3.358   2.776   8.546  0.6946 -0.8781  0.0641
 1815SOL    HW117078   3.430   2.812   8.599  0.7151 -0.7429 -0.0566
 1815SOL    HW217079   3.394   2.793   8.459  0.1347 -3.8458 -0.7422
 1816SOL     OW17080   1.025   2.340   4.669 -0.6400  0.4626  0.3895
 1816SOL    HW117081   1.108   2.384   4.688  0.6719 -2.7368  1.9877
 1816SOL    HW217082   0.996   2.382   4.588 -0.7227  0.6064  0.4932
 1817SOL     OW17083   0.600   1.550   2.926  0.3054 -0.1142  0.4739
 1817SOL    HW117084   0.634   1.465   2.898  1.0873  0.3022  0.1936
 1817SOL    HW217085   0.630   1.599   2.850  0.2733 -1.3302 -0.3249
 1818SOL     OW17086   0.707   4.589  12.265  0.2090 -0.7010 -0.3649
 1818SOL    HW117087   0.697   4.576  12.171  1.7400 -0.2006 -0.5851
 1818SOL    HW217088   0.678   4.677  12.288 -0.3108 -1.0204  0.2145
 1819SOL     OW17089   2.672   2.638  12.107 -0.0721 -0.2394  0.5439
 1819SOL    HW117090   2.639   2.712  12.055  3.8782  1.0173 -0.1928
 1819SOL    HW217091   2.766   2.648  12.096 -0.3008 -0.0683 -1.3617
 1820SOL     OW17092   3.445   0.648   3.093  0.0960 -0.1466  0.2673
 1820SOL    HW117093   3.532   0.611   3.077  1.6014  2.6238  2.0894
 1820SOL    HW217094   3.458   0.739   3.067 -1.5436 -0.3578 -1.2847
 1821SOL     OW17095   3.773   4.461   8.750  0.1543  0.1237  0.0262
 1821SOL    HW117096   3.796   4.527   8.815  1.2438  0.8595 -1.1362
 1821SOL    HW217097   3.713   4.402   8.797 -1.0610 -0.0810 -1.7625
 1822SOL     OW17098   0.209   4.220   4.113  0.2660 -0.1938  0.2656
 1822SOL    HW117099   0.127   4.171   4.117  0.6199 -0.6954  1.2599
 1822SOL    HW217100   0.179   4.305   4.082 -2.0765 -0.5657  1.5118
 1823SOL     OW17101   1.925   2.514   3.914 -0.2849  0.8938  0.2629
 1823SOL    HW117102   1.860   2.524   3.984 -0.3670  0.1153  0.2982
 1823SOL    HW217103   1.872   2.510   3.834 -0.0439  1.2854  0.0846
 1824SOL     OW17104   3.827   4.658   5.839  0.5258  0.0293 -0.5472
 1824SOL    HW117105   3.834   4.702   5.924  0.4491  0.2314 -0.6431
 1824SOL    HW217106   3.801   4.727   5.777  3.1754  0.4778 -1.1472
 1825SOL     OW17107   0.308   4.373   3.123 -0.3715 -0.0321 -0.4193
 1825SOL    HW117108   0.394   4.391   3.085 -0.6494 -0.0777 -1.0686
 1825SOL    HW217109   0.323   4.287   3.163 -2.2891 -0.4920 -0.7277
 1826SOL     OW17110   1.240   3.604   6.773 -0.4578  0.1316  0.1820
 1826SOL    HW117111   1.281   3.580   6.856 -0.2730 -1.1871 -0.3047
 1826SOL    HW217112   1.299   3.565   6.709  0.6120 -0.9782  1.8410
 1827SOL     OW17113   3.526   1.526   6.737 -0.4384 -0.3536  0.4447
 1827SOL    HW117114   3.515   1.443   6.691  0.9860 -0.9521  1.2185
 1827SOL    HW217115   3.443   1.546   6.782  0.3799 -1.0067  2.2245
 1828SOL     OW17116   0.617   1.633   2.609  0.3841  0.2249  0.2402
 1828SOL    HW117117   0.704   1.604   2.582  0.6638  2.0926 -0.8403
 1828SOL    HW217118   0.597   1.686   2.532 -0.8720 -1.3437 -0.5169
 1829SOL     OW17119   2.925   1.517   3.788 -0.1113  0.0014  0.0738
 1829SOL    HW117120   3.013   1.554   3.789  0.5439 -1.4887 -1.8719
 1829SOL    HW217121   2.894   1.564   3.865 -0.5352  1.6413 -1.0965
 1830SOL     OW17122   1.405   3.087   4.312 -0.3420  0.1485 -0.1570
 1830SOL    HW117123   1.321   3.096   4.358 -0.2426  1.4234 -0.2220
 1830SOL    HW217124   1.452   3.028   4.371  2.8562  3.2039  0.3595
 1831SOL     OW17125   0.814   2.301  15.966 -0.0566 -0.3418  0.4390
 1831SOL    HW117126   0.864   2.240  16.020  0.2874  0.4289  0.9884
 1831SOL    HW217127   0.734   2.306  16.017 -1.3400  0.8253 -1.6626
 1832SOL     OW17128   0.919   1.809  16.807 -0.5962  0.9529  0.6123
 1832SOL    HW117129   0.837   1.760  16.804  0.0872 -0.1254 -0.3854
 1832SOL    HW217130   0.952   1.797  16.719  0.8307 -0.7164  1.3842
 1833SOL     OW17131   0.703   4.688   5.451 -0.2387  0.3280 -0.0542
 1833SOL    HW117132   0.709   4.722   5.540 -0.2897  1.3031 -0.4266
 1833SOL    HW217133   0.752   0.021   5.409  1.9208 -0.5414  1.0165
 1834SOL     OW17134   4.686   4.254   0.676  0.2343 -0.8312  0.6711
 1834SOL    HW117135   4.596   4.233   0.700 -0.3111  0.1896 -0.4751
 1834SOL    HW217136   4.698   4.322   0.743  0.0827  0.2437 -0.3998
 1835SOL     OW17137   0.275   0.774   1.777  0.3173 -0.0144 -0.0597
 1835SOL    HW117138   0.247   0.842   1.716  0.6425 -0.3545 -0.5879
 1835SOL    HW217139   0.213   0.775   1.850  0.9558  0.2934  0.4833
 1836SOL     OW17140   0.834   3.012  12.370  0.6771 -0.4046 -0.2990
 1836SOL    HW117141   0.895   3.006  12.297 -0.6091 -1.3398 -1.2750
 1836SOL    HW217142   0.802   3.102  12.364 -1.2386 -1.1125 -0.6481
 1837SOL     OW17143   3.410   1.095   0.228 -0.3162 -0.2793 -0.6097
 1837SOL    HW117144   3.423   1.118   0.136 -2.9614 -2.1820 -1.4501
 1837SOL    HW217145   3.321   1.128   0.234  0.0639  0.2811  1.8978
 1838SOL     OW17146   2.451   2.502   4.025 -1.2526 -0.0842 -0.2454
 1838SOL    HW117147   2.375   2.496   3.968 -2.4685  0.7847  1.2676
 1838SOL    HW217148   2.520   2.530   3.965 -2.3682 -1.2124 -2.0466
 1839SOL     OW17149   1.172   0.994   7.461 -0.1235  0.6033 -0.1001
 1839SOL    HW117150   1.127   0.916   7.429  1.6917 -0.0429 -1.0357
 1839SOL    HW217151   1.228   0.967   7.534 -0.2811 -0.9602 -0.5652
 1840SOL     OW17152   3.142   2.232   1.826  0.1200 -0.4071  0.0803
 1840SOL    HW117153   3.182   2.188   1.901  0.0852  0.7454  0.7642
 1840SOL    HW217154   3.055   2.192   1.836 -1.4367  2.4891 -1.8459
 1841SOL     OW17155   1.362   0.203  12.873  0.5694  0.5385 -0.1881
 1841SOL    HW117156   1.412   0.283  12.887 -0.2425  0.6186  2.3268
 1841SOL    HW217157   1.327   0.200  12.962 -0.8511 -1.7517 -0.8075
 1842SOL     OW17158   0.192   0.419  11.946  0.4812 -0.4309 -0.7277
 1842SOL    HW117159   0.184   0.453  11.857 -1.4748 -0.7887 -0.6846
 1842SOL    HW217160   0.267   0.472  11.972 -0.1965 -0.9064  2.1607
 1843SOL     OW17161   2.466   3.078   3.906  0.3465  0.4064  0.0636
 1843SOL    HW117162   2.434   3.016   3.840 -0.1081 -1.3384  1.9109
 1843SOL    HW217163   2.384   3.108   3.945 -0.0343  1.8244 -1.8777
 1844SOL     OW17164   3.759   4.648   8.961 -0.3226  0.8523  0.0156
 1844SOL    HW117165   3.694   4.619   9.025 -0.8985 -0.9279 -1.3782
 1844SOL    HW217166   3.825   4.675   9.025 -0.3521  0.9004  0.0254
 1845SOL     OW17167   1.158   0.583   2.960  0.0333 -0.0056  0.2823
 1845SOL    HW117168   1.154   0.639   2.882  0.2691 -0.4470 -0.0453
 1845SOL    HW217169   1.219   0.635   3.014  0.6788 -0.4412 -0.0224
 1846SOL     OW17170   0.867   1.459   4.849  0.0413 -0.3476  0.5840
 1846SOL    HW117171   0.838   1.528   4.909 -0.8586  0.5599 -0.8878
 1846SOL    HW217172   0.951   1.501   4.832 -0.8770  0.4581 -1.8960
 1847SOL     OW17173   4.417   1.159  16.216  0.2445  0.2968 -0.6556
 1847SOL    HW117174   4.385   1.076  16.252  2.5239 -0.1992  0.2081
 1847SOL    HW217175   4.433   1.132  16.126 -0.9563 -0.5016 -0.6314
 1848SOL     OW17176   2.316   0.047   0.975 -0.4227  0.0919 -0.1140
 1848SOL    HW117177   2.408   0.032   1.000 -1.1237 -0.8642  1.8668
 1848SOL    HW217178   2.294   0.109   1.044 -0.0324 -0.1585  0.2409
 1849SOL     OW17179   1.042   4.214   7.412 -0.4650 -0.3448 -0.4908
 1849SOL    HW117180   1.109   4.228   7.345  0.0759 -0.3997  0.0432
 1849SOL    HW217181   1.094   4.233   7.490  1.6631  0.9438 -2.2209
 1850SOL     OW17182   3.596   1.981   0.405  0.4018 -0.3923  0.4437
 1850SOL    HW117183   3.542   2.043   0.357  1.9679  0.7626  0.1919
 1850SOL    HW217184   3.574   1.987   0.498  2.1473  3.1034  0.6422
 1851SOL     OW17185   2.344   3.966   5.999 -1.0304  0.2384  0.0216
 1851SOL    HW117186   2.405   4.039   5.988  0.4729 -0.9586  0.4757
 1851SOL    HW217187   2.398   3.889   6.015 -0.5087  0.6588  0.2826
 1852SOL     OW17188   4.518   3.882   8.584  0.7427 -0.1859 -0.3311
 1852SOL    HW117189   4.471   3.803   8.559  0.2718  0.8801 -2.8003
 1852SOL    HW217190   4.494   3.949   8.521 -0.7682  0.8602  1.3376
 1853SOL     OW17191   0.567   2.336   8.721  0.4156  0.2708  0.1184
 1853SOL    HW117192   0.476   2.364   8.734  0.1297 -0.7427  0.3369
 1853SOL    HW217193   0.561   2.284   8.641 -3.3294  2.4575 -1.0163
 1854SOL     OW17194   4.509   2.059   8.985  0.3310 -0.0259 -0.0089
 1854SOL    HW117195   4.480   1.968   8.978  0.9788 -0.1039 -1.5321
 1854SOL    HW217196   4.458   2.094   9.059 -1.2450  0.2944 -1.2468
 1855SOL     OW17197   1.173   2.677   8.318 -0.0257 -0.0231  0.4327
 1855SOL    HW117198   1.198   2.666   8.410  0.5832  0.8830  0.3758
 1855SOL    HW217199   1.177   2.585   8.290  0.1773  0.4107 -0.9537
 1856SOL     OW17200   4.142   3.568   2.287  0.3168  0.3069 -0.5328
 1856SOL    HW117201   4.190   3.486   2.295 -2.7080 -1.3827  0.1319
 1856SOL    HW217202   4.072   3.554   2.222  0.8413  0.0219 -1.0385
 1857SOL     OW17203   1.193   1.187   9.792  0.3420  0.3572  0.0550
 1857SOL    HW117204   1.164   1.215   9.705  2.1616  0.4399 -0.5313
 1857SOL    HW217205   1.193   1.092   9.784 -1.7169  0.5490 -2.4245
 1858SOL     OW17206   1.446   0.358  16.959  0.1483 -0.5772  0.2006
 1858SOL    HW117207   1.387   0.422  16.919  0.2031 -0.6456  0.0103
 1858SOL    HW217208   1.414   0.375  17.048  1.2502 -0.3522  0.5549
 1859SOL     OW17209   3.756   3.438   6.882 -0.0447 -0.1735  0.0784
 1859SOL    HW117210   3.674   3.442   6.931 -0.3261  0.5298 -0.4403
 1859SOL    HW217211   3.807   3.400   6.954  0.0955 -3.2786 -1.6440
 1860SOL     OW17212   0.100   3.142   8.940 -0.5538  0.2320 -0.2807
 1860SOL    HW117213   0.012   3.159   8.974 -0.4458  0.5894 -0.1692
 1860SOL    HW217214   0.144   3.207   8.995  0.9306  0.9387 -2.3085
 1861SOL     OW17215   2.065   0.409   5.945 -0.0507 -0.1315  0.2223
 1861SOL    HW117216   2.078   0.362   5.862 -0.0862  1.5777 -0.7658
 1861SOL    HW217217   2.102   0.496   5.928  0.9720 -0.7055 -0.5144
 1862SOL     OW17218   3.310   1.308   5.085  0.2376 -0.0830 -0.1569
 1862SOL    HW117219   3.379   1.369   5.057  0.3459 -0.6528 -1.1554
 1862SOL    HW217220   3.278   1.359   5.159  0.7970 -0.1771  0.1512
 1863SOL     OW17221   1.431   0.748   1.190 -0.6385 -0.1416  0.0676
 1863SOL    HW117222   1.498   0.734   1.122 -1.3311 -1.2213 -0.3916
 1863SOL    HW217223   1.353   0.723   1.140 -1.1604  1.1098  0.2398
 1864SOL     OW17224   0.586   4.368  11.756 -0.3423  0.7650 -0.4801
 1864SOL    HW117225   0.563   4.429  11.686  1.0955 -0.7862 -2.2669
 1864SOL    HW217226   0.551   4.414  11.832  1.5729  1.2283  0.1050
 1865SOL     OW17227   0.015   2.409   2.551 -0.2204  0.3158  0.0203
 1865SOL    HW117228   4.715   2.442   2.470  0.4855  1.8607  0.3232
 1865SOL    HW217229   4.702   2.463   2.611  0.1486  2.3355 -1.4948
 1866SOL     OW17230   3.877   2.180   0.072  0.2914 -0.0869 -0.3089
 1866SOL    HW117231   3.898   2.113   0.137 -1.3482 -1.7336 -1.4780
 1866SOL    HW217232   3.954   2.236   0.078 -0.5730  1.3239 -2.5268
 1867SOL     OW17233   1.103   4.098   6.870  0.1685 -0.2106 -0.0997
 1867SOL    HW117234   1.196   4.107   6.848 -0.7272  0.5895 -3.6680
 1867SOL    HW217235   1.071   4.056   6.790 -1.8722 -0.2569  0.7565
 1868SOL     OW17236   3.332   2.872  16.517  0.4336  0.1177  0.2854
 1868SOL    HW117237   3.321   2.953  16.567  1.2983  1.5914 -1.9038
 1868SOL    HW217238   3.421   2.849  16.545  0.0604 -0.8991  0.6411
 1869SOL     OW17239   3.864   3.689   8.365 -0.4021 -0.3114  0.0339
 1869SOL    HW117240   3.893   3.775   8.334 -0.6456 -0.0687  0.4770
 1869SOL    HW217241   3.882   3.632   8.290 -0.2096 -0.9537  0.5771
 1870SOL     OW17242   3.021   1.845   1.672  0.4780 -0.0837  0.3395
 1870SOL    HW117243   3.057   1.859   1.759  0.4311 -3.1702  0.8340
 1870SOL    HW217244   2.987   1.756   1.682  1.6071 -0.6152 -0.5125
 1871SOL     OW17245   1.159   2.475   2.129 -0.1112  0.4286  0.0929
 1871SOL    HW117246   1.116   2.481   2.043  0.4347  0.1584 -0.1982
 1871SOL    HW217247   1.149   2.382   2.150  2.2526  0.0056 -0.7186
 1872SOL     OW17248   1.657   3.963  12.305 -0.1941  0.3898 -0.8578
 1872SOL    HW117249   1.691   3.983  12.217  1.1163 -0.8681 -0.6394
 1872SOL    HW217250   1.740   3.943  12.349 -1.7484 -0.2065  1.7681
 1873SOL     OW17251   1.210   3.922   4.295  0.0646  0.1759 -0.8739
 1873SOL    HW117252   1.123   3.891   4.320  0.8579 -0.7926  0.7120
 1873SOL    HW217253   1.216   4.013   4.323  1.1448  0.3641 -1.7267
 1874SOL     OW17254   2.025   0.003  11.180  0.0153  0.6978  0.0997
 1874SOL    HW117255   2.025   4.705  11.091 -0.3560  2.0800 -0.4515
 1874SOL    HW217256   1.961   4.683  11.222 -0.5327  1.8515  0.8283
 1875SOL     OW17257   1.899   2.890   6.488 -0.3252 -0.2284  0.2226
 1875SOL    HW117258   1.902   2.796   6.470  1.3363 -0.3800  1.2876
 1875SOL    HW217259   1.848   2.921   6.413 -1.2840 -0.6689  0.7053
 1876SOL     OW17260   1.925   2.527   7.354 -0.6497  0.2862  0.4069
 1876SOL    HW117261   1.879   2.444   7.342 -1.2500  0.8457 -1.1398
 1876SOL    HW217262   2.007   2.496   7.315 -0.5742  1.5446 -0.4209
 1877SOL     OW17263   0.007   0.707   7.701  0.1405 -0.1819  0.1885
 1877SOL    HW117264   4.683   0.634   7.699  0.4753 -0.4172 -1.9119
 1877SOL    HW217265   0.044   0.707   7.612 -1.8775  0.7303 -0.6352
 1878SOL     OW17266   0.523   0.857   3.249  0.0046 -0.2602 -0.0021
 1878SOL    HW117267   0.609   0.816   3.244  1.9038  3.5000  1.5727
 1878SOL    HW217268   0.508   0.844   3.155 -1.6673  0.9811  0.1027
 1879SOL     OW17269   4.600   3.299  16.747 -0.6159 -0.6214 -0.1592
 1879SOL    HW117270   4.568   3.264  16.664 -1.3031 -0.3882  0.0063
 1879SOL    HW217271   4.575   3.238  16.817  2.6732  0.9029  2.3073
 1880SOL     OW17272   4.047   0.210  16.554  0.1637 -0.4641  0.2886
 1880SOL    HW117273   4.068   0.300  16.579 -0.7030  0.2000 -1.3789
 1880SOL    HW217274   4.132   0.169  16.535  0.5582  1.3979 -1.9998
 1881SOL     OW17275   0.256   4.207   5.022 -0.8246 -0.1278 -0.5162
 1881SOL    HW117276   0.201   4.174   5.093 -0.7022  1.2348  0.1932
 1881SOL    HW217277   0.276   4.131   4.967  0.1675 -0.4481  0.2928
 1882SOL     OW17278   4.321   3.927  12.327  0.4161 -0.2128 -0.3377
 1882SOL    HW117279   4.235   3.933  12.284  0.4105 -0.2426 -0.3311
 1882SOL    HW217280   4.356   3.851  12.280 -0.8702 -2.7780  2.8663
 1883SOL     OW17281   4.242   3.886  11.263 -0.0806 -0.0959 -0.7067
 1883SOL    HW117282   4.335   3.895  11.243  0.0136 -0.0174 -0.2367
 1883SOL    HW217283   4.210   3.867  11.175  0.4567  0.5441 -1.0439
 1884SOL     OW17284   2.369   0.554   8.270 -0.0983  0.0942 -0.2380
 1884SOL    HW117285   2.455   0.570   8.232 -0.2736 -0.6086 -0.9383
 1884SOL    HW217286   2.370   0.459   8.273 -2.5301  0.0920  1.0760
 1885SOL     OW17287   1.453   1.166  12.146  0.1019  0.2457 -0.2285
 1885SOL    HW117288   1.476   1.075  12.131 -1.8197 -0.5137  1.4022
 1885SOL    HW217289   1.531   1.185  12.199  0.2832 -0.1944 -0.3386
 1886SOL     OW17290   2.618   1.456   3.104  0.0103  0.5551 -0.5510
 1886SOL    HW117291   2.566   1.537   3.105 -0.2484  0.3889 -0.7243
 1886SOL    HW217292   2.710   1.485   3.103  0.5199 -0.9690  2.4225
 1887SOL     OW17293   0.128   0.527   5.570  0.0023 -0.0301 -0.4732
 1887SOL    HW117294   0.181   0.545   5.492  0.1263 -1.5419 -0.7470
 1887SOL    HW217295   0.041   0.550   5.536 -0.4409 -1.6892 -0.4889
 1888SOL     OW17296   0.072   2.447  12.124  0.0322 -0.3731 -0.0915
 1888SOL    HW117297   0.041   2.391  12.053 -0.3128  1.9213 -1.7616
 1888SOL    HW217298   0.097   2.380  12.188 -1.9786 -1.6229 -0.6514
 1889SOL     OW17299   1.876   2.986   2.846 -0.0637  0.7005  0.0565
 1889SOL    HW117300   1.839   2.991   2.934  0.0562  1.6502  0.0584
 1889SOL    HW217301   1.853   2.897   2.821  2.0562  0.1138  0.1569
 1890SOL     OW17302   2.613   0.621   3.885 -0.2383  0.2761 -0.1006
 1890SOL    HW117303   2.648   0.638   3.797 -1.2729 -0.7404 -0.7017
 1890SOL    HW217304   2.558   0.698   3.900 -0.6779 -0.0837  0.1126
 1891SOL     OW17305   2.171   3.311   8.211  0.0182 -0.5270 -0.7302
 1891SOL    HW117306   2.222   3.367   8.269 -1.2671  0.9817 -1.0899
 1891SOL    HW217307   2.226   3.301   8.133  0.0101 -0.5498 -0.7332
 1892SOL     OW17308   0.825   4.043   4.730 -0.3068 -0.0063  0.4430
 1892SOL    HW117309   0.741   4.081   4.754 -0.5772 -1.1963  1.3501
 1892SOL    HW217310   0.853   4.027   4.820 -0.6877  0.8673  0.7219
 1893SOL     OW17311   2.147   1.392   7.904 -0.1713 -0.1527 -0.2705
 1893SOL    HW117312   2.216   1.450   7.938  1.1580 -1.8697 -0.0112
 1893SOL    HW217313   2.197   1.341   7.840  1.0860 -1.9074  2.0947
 1894SOL     OW17314   0.094   0.230   6.466 -0.2321 -0.9803 -0.4221
 1894SOL    HW117315   0.019   0.191   6.421  0.3385  0.4522 -2.5848
 1894SOL    HW217316   0.057   0.283   6.537  1.7714 -2.0660  1.4145
 1895SOL     OW17317   3.283   1.400   9.361  0.3299  0.4978 -0.0135
 1895SOL    HW117318   3.351   1.464   9.383  0.1399 -0.4059  3.1082
 1895SOL    HW217319   3.220   1.462   9.323 -0.0655  0.0082 -0.1623
 1896SOL     OW17320   0.326   0.788  16.072  0.6379  0.0476 -0.0122
 1896SOL    HW117321   0.302   0.706  16.116  0.5368  1.6677  2.9606
 1896SOL    HW217322   0.237   0.815  16.050  0.6297  0.0533  0.0279
 1897SOL     OW17323   2.019   3.024   5.861  0.1524  0.0187  0.7112
 1897SOL    HW117324   1.962   2.952   5.888  1.3821 -0.5700  1.7643
 1897SOL    HW217325   2.072   3.031   5.941  1.7237  0.3412 -0.3570
 1898SOL     OW17326   3.535   3.811   2.850 -0.5028  0.6792  0.4623
 1898SOL    HW117327   3.564   3.897   2.881 -0.3228  1.2182 -1.2503
 1898SOL    HW217328   3.617   3.773   2.820 -0.8913 -0.4067  0.7730
 1899SOL     OW17329   4.196   4.724   9.516  0.5791 -0.9400  0.0552
 1899SOL    HW117330   4.196   4.671   9.436 -2.1395  0.1857 -0.6998
 1899SOL    HW217331   4.167   0.071   9.483  0.0024 -0.4274  1.8852
 1900SOL     OW17332   3.786   3.464   9.719 -0.0937 -0.1752 -0.2118
 1900SOL    HW117333   3.781   3.451   9.625  0.1566 -0.5084 -0.1803
 1900SOL    HW217334   3.796   3.375   9.753 -0.8164 -0.5678 -1.0476
 1901SOL     OW17335   0.070   4.474   2.365  0.3495  0.8590  0.0658
 1901SOL    HW117336   0.045   4.503   2.277 -0.6254 -0.2196 -0.0110
 1901SOL    HW217337   0.052   4.380   2.372  1.9100  0.6619  1.5781
 1902SOL     OW17338   2.717   4.411   2.518 -0.3363 -0.3688  0.2342
 1902SOL    HW117339   2.638   4.432   2.567  0.1513 -0.7930  1.2087
 1902SOL    HW217340   2.714   4.316   2.527 -0.6052 -0.2758  1.1220
 1903SOL     OW17341   4.058   2.080   1.983  0.2602  0.0487  0.1606
 1903SOL    HW117342   4.073   2.175   1.980 -2.6929  0.4531 -2.3066
 1903SOL    HW217343   3.970   2.070   1.947  1.2603  0.2860 -2.3537
 1904SOL     OW17344   3.276   3.412   3.773 -0.2475  0.1058  0.3869
 1904SOL    HW117345   3.301   3.391   3.683 -0.0166  0.0652  0.4597
 1904SOL    HW217346   3.183   3.434   3.771 -0.2097  0.1988 -0.2422
 1905SOL     OW17347   0.320   4.462  10.266  0.0789  0.0364  0.2303
 1905SOL    HW117348   0.235   4.469  10.223  0.7209  3.5197 -0.4535
 1905SOL    HW217349   0.319   4.553  10.297 -1.4668  0.5530 -1.3176
 1906SOL     OW17350   1.042   1.484  10.448 -0.0352  0.4905 -0.3996
 1906SOL    HW117351   0.992   1.504  10.369  0.1126  0.2593 -0.5510
 1906SOL    HW217352   0.981   1.443  10.509 -1.0725  0.2725 -1.5776
 1907SOL     OW17353   3.549   4.057   9.755 -0.3314  0.1749  0.1700
 1907SOL    HW117354   3.612   3.992   9.725  0.4738  1.6771 -1.3907
 1907SOL    HW217355   3.594   4.134   9.721  1.5808 -0.5818  0.9540
 1908SOL     OW17356   1.155   2.643  14.041 -0.2703  0.4093 -0.2415
 1908SOL    HW117357   1.228   2.686  13.996  0.2471  2.9534  3.0760
 1908SOL    HW217358   1.161   2.669  14.132 -0.0520 -1.1101  0.1877
 1909SOL     OW17359   2.064   0.308   8.842 -0.5657  0.2029  0.3693
 1909SOL    HW117360   2.148   0.261   8.838 -0.5371  0.3831 -1.0811
 1909SOL    HW217361   2.095   0.398   8.838  0.8399 -0.1062  3.3821
 1910SOL     OW17362   1.426   4.578   2.934 -0.0009  0.3887  0.1738
 1910SOL    HW117363   1.433   4.655   2.878  1.5002  0.2010  0.1042
 1910SOL    HW217364   1.410   4.503   2.877 -1.5483  0.4807  0.4976
 1911SOL     OW17365   1.807   3.586   3.434 -0.0210  0.5604  0.2286
 1911SOL    HW117366   1.805   3.659   3.372  1.6511  0.3790 -0.0489
 1911SOL    HW217367   1.784   3.632   3.514 -1.0736 -1.5647  1.1620
 1912SOL     OW17368   3.261   4.520  15.548 -0.1470  0.1015  0.8366
 1912SOL    HW117369   3.299   4.607  15.541  0.5784 -0.3679 -1.0589
 1912SOL    HW217370   3.242   4.495  15.458 -0.6001 -0.7650  1.1686
 1913SOL     OW17371   1.688   2.579   5.861 -0.1775 -0.5896  0.3978
 1913SOL    HW117372   1.593   2.570   5.857 -0.0145 -1.1395 -2.9695
 1913SOL    HW217373   1.709   2.487   5.880 -1.6916 -1.0759 -0.2961
 1914SOL     OW17374   2.032   3.703   4.642  0.2230  0.2546 -0.2079
 1914SOL    HW117375   2.086   3.743   4.709 -2.1895  2.9859  0.1115
 1914SOL    HW217376   2.039   3.764   4.569 -0.6714  0.7098  0.0773
 1915SOL     OW17377   3.376   0.919   7.442 -0.6558 -0.1222 -0.1456
 1915SOL    HW117378   3.331   0.886   7.365 -2.1369 -0.2128  0.7518
 1915SOL    HW217379   3.313   0.984   7.474 -1.3397 -1.1210  0.5398
 1916SOL     OW17380   1.548   0.674  10.480  0.4224  0.1033  0.0361
 1916SOL    HW117381   1.573   0.656  10.389 -2.2475 -0.6849 -0.5392
 1916SOL    HW217382   1.561   0.768  10.490  0.6291  0.1554 -0.7205
 1917SOL     OW17383   3.632   1.758  17.062  0.3425 -0.5836  0.4861
 1917SOL    HW117384   3.549   1.799  17.036  0.6888  1.9134  3.3150
 1917SOL    HW217385   3.654   1.811  17.138 -0.9216 -0.8349  1.0251
 1918SOL     OW17386   2.308   3.691   4.188 -0.2022 -0.6406 -0.1324
 1918SOL    HW117387   2.244   3.632   4.228  0.1234  0.1339  1.5435
 1918SOL    HW217388   2.354   3.620   4.144  0.0980 -0.4566 -0.1197
 1919SOL     OW17389   1.027   2.747   5.887  0.1240 -0.0434  0.5392
 1919SOL    HW117390   0.946   2.758   5.937  0.5757  2.0603  0.7987
 1919SOL    HW217391   0.995   2.685   5.821 -0.0502  0.0716  0.5159
 1920SOL     OW17392   2.822   1.720   4.012  0.7704 -0.0433 -0.1908
 1920SOL    HW117393   2.884   1.791   4.031  1.3535 -0.2629 -1.2615
 1920SOL    HW217394   2.767   1.708   4.089 -2.0475  1.8140 -1.9370
 1921SOL     OW17395   1.818   1.438  16.274 -0.4303 -0.2568  0.2125
 1921SOL    HW117396   1.741   1.488  16.301 -0.1027  0.6202 -0.4832
 1921SOL    HW217397   1.787   1.347  16.267 -1.4368  0.1974 -1.1730
 1922SOL     OW17398   1.274   1.239   5.232 -0.5247  0.1564 -0.2333
 1922SOL    HW117399   1.211   1.170   5.210  0.2594  0.0379 -2.0946
 1922SOL    HW217400   1.311   1.263   5.147 -4.2569  1.9150 -1.3788
 1923SOL     OW17401   3.824   1.603   8.202 -0.4555 -0.2086 -0.1627
 1923SOL    HW117402   3.826   1.650   8.118 -0.7208  0.5558  0.2625
 1923SOL    HW217403   3.747   1.547   8.195 -1.3530  1.0626 -0.5025
 1924SOL     OW17404   2.949   0.213   2.222  0.7842  0.1910  0.5381
 1924SOL    HW117405   2.897   0.133   2.216  1.8885 -0.4327 -0.6094
 1924SOL    HW217406   2.880   0.270   2.255  1.1434  1.3795 -0.7375
 1925SOL     OW17407   4.342   3.391   2.313  0.0946  0.6003  0.2014
 1925SOL    HW117408   4.366   3.302   2.288  0.0519  0.7843 -0.5081
 1925SOL    HW217409   4.403   3.393   2.387 -2.4685 -0.1748  2.3046
 1926SOL     OW17410   2.437   2.005  13.446  0.4080 -0.1779  0.0236
 1926SOL    HW117411   2.499   2.071  13.477 -1.0317  0.4782  1.5065
 1926SOL    HW217412   2.463   1.935  13.505  1.4837  1.5257  1.5459
 1927SOL     OW17413   3.910   0.255   8.757  0.1383  0.4090 -0.1331
 1927SOL    HW117414   3.848   0.208   8.702 -1.1909 -0.4171  2.0527
 1927SOL    HW217415   3.989   0.200   8.758 -0.3027 -0.1862  2.3658
 1928SOL     OW17416   1.067   2.097   3.791  0.3321 -0.0426  0.7792
 1928SOL    HW117417   1.091   2.165   3.853  1.2125  2.0687 -1.8525
 1928SOL    HW217418   0.974   2.077   3.800  0.1288 -0.7077 -2.5307
 1929SOL     OW17419   3.541   1.312  15.491 -0.3996  0.1568  0.5327
 1929SOL    HW117420   3.474   1.305  15.559 -0.2974  1.9032  0.8024
 1929SOL    HW217421   3.501   1.269  15.415 -1.7442 -0.9966  1.8851
 1930SOL     OW17422   0.980   2.321   7.632  0.1692  0.1009 -0.2994
 1930SOL    HW117423   0.958   2.306   7.540  2.0481 -2.2699 -0.3516
 1930SOL    HW217424   1.075   2.320   7.639  0.0374 -0.8704  1.3020
 1931SOL     OW17425   4.564   0.012   2.539 -0.3684 -0.1168  0.0844
 1931SOL    HW117426   4.532   4.705   2.461 -2.1184  0.4751  0.4704
 1931SOL    HW217427   4.651   4.711   2.547 -0.6120 -0.7889 -0.5565
 1932SOL     OW17428   4.028   4.240   6.199 -0.4017 -0.0107 -0.9311
 1932SOL    HW117429   4.112   4.210   6.233  0.1989  1.1536 -1.3974
 1932SOL    HW217430   4.026   4.334   6.216 -1.5353 -0.0040 -1.0820
 1933SOL     OW17431   1.687   2.416   6.782 -0.3395 -0.6619  0.1987
 1933SOL    HW117432   1.721   2.354   6.717 -0.8181 -0.6572 -0.0590
 1933SOL    HW217433   1.597   2.418   6.750  0.0977 -0.1929 -1.0006
 1934SOL     OW17434   2.849   0.089   6.504 -0.1089  0.1708  0.0059
 1934SOL    HW117435   2.793   0.078   6.427 -0.2559  0.7362  0.0300
 1934SOL    HW217436   2.935   0.092   6.462 -1.0629  1.3452 -1.8591
 1935SOL     OW17437   0.677   1.020   2.315  0.3112  0.3603  0.2247
 1935SOL    HW117438   0.643   1.103   2.283 -0.4357 -0.0059  0.0766
 1935SOL    HW217439   0.736   0.997   2.243 -1.2684 -0.6580 -0.7563
 1936SOL     OW17440   1.686   3.391   7.520 -0.2044  0.5567 -0.5081
 1936SOL    HW117441   1.621   3.344   7.571 -0.5232  0.2972 -1.1608
 1936SOL    HW217442   1.659   3.483   7.521  1.4709  1.0378  0.3670
 1937SOL     OW17443   3.020   0.987  13.885  0.1359  0.4020  0.0123
 1937SOL    HW117444   3.099   0.935  13.901  1.6195  2.2823 -1.0389
 1937SOL    HW217445   2.948   0.936  13.920  0.6086 -0.1713  0.1519
 1938SOL     OW17446   3.256   0.083   4.711 -0.2417  0.0889  0.4827
 1938SOL    HW117447   3.349   0.107   4.710 -0.4169  0.7539 -0.3191
 1938SOL    HW217448   3.235   0.136   4.634 -1.4376 -0.5448  0.3715
 1939SOL     OW17449   0.788   0.015   9.259  0.4872  0.4253 -0.2585
 1939SOL    HW117450   0.764   0.001   9.351 -0.4954  3.0973 -0.1158
 1939SOL    HW217451   0.706   0.020   9.210  0.5642  0.9282 -0.3354
 1940SOL     OW17452   1.449   1.829   7.419  0.0115 -0.2108 -0.1040
 1940SOL    HW117453   1.410   1.742   7.409 -0.9921  0.0846  1.3048
 1940SOL    HW217454   1.393   1.855   7.492  0.2051  0.2225 -0.1124
 1941SOL     OW17455   2.965   3.951  17.137  0.4204 -0.6586 -0.1260
 1941SOL    HW117456   2.976   3.878  17.198  0.6521  0.5218  1.2219
 1941SOL    HW217457   2.942   4.025  17.193  0.0090  0.6827 -2.0510
 1942SOL     OW17458   2.365   1.768   3.564  0.2676 -0.5325 -0.3164
 1942SOL    HW117459   2.354   1.721   3.646  0.8509  1.5690  0.9671
 1942SOL    HW217460   2.360   1.690   3.510  1.7023 -0.5768 -0.3870
 1943SOL     OW17461   2.572   2.970   7.998 -0.8636  0.2325 -0.2511
 1943SOL    HW117462   2.590   2.955   7.906 -1.1143 -0.0652 -0.2503
 1943SOL    HW217463   2.637   3.036   8.023 -1.2155  1.7945 -3.5717
 1944SOL     OW17464   3.219   2.995   1.874 -0.6303  0.1349 -0.3210
 1944SOL    HW117465   3.229   3.003   1.779  0.2473  2.0056 -0.0731
 1944SOL    HW217466   3.256   2.909   1.892 -0.3037  0.3959  0.2348
 1945SOL     OW17467   0.545   0.693   7.413  0.0385  0.4495  0.5860
 1945SOL    HW117468   0.504   0.735   7.489 -0.1971 -1.8390  1.7252
 1945SOL    HW217469   0.620   0.749   7.392 -0.3830  1.1952  1.0688
 1946SOL     OW17470   4.418   1.324   1.335  0.1946  0.2599 -0.2491
 1946SOL    HW117471   4.390   1.305   1.424 -1.3989 -2.7910 -1.3874
 1946SOL    HW217472   4.334   1.333   1.291 -0.7359  0.0111  1.4767
 1947SOL     OW17473   0.506   1.256  15.110 -0.7972  0.2309  0.3777
 1947SOL    HW117474   0.546   1.332  15.067 -1.7010  0.3794 -0.2077
 1947SOL    HW217475   0.579   1.227  15.165 -0.9892  1.0064  1.0365
 1948SOL     OW17476   0.703   0.377   1.188  0.4712  0.0811  0.0244
 1948SOL    HW117477   0.645   0.314   1.231 -0.9444  0.2127 -1.7029
 1948SOL    HW217478   0.646   0.453   1.197 -0.3215 -0.7102  1.6570
 1949SOL     OW17479   0.365   1.160   1.815 -0.2211  0.6095  0.0714
 1949SOL    HW117480   0.342   1.249   1.841 -2.8097 -0.7945  2.6238
 1949SOL    HW217481   0.379   1.109   1.895  2.9446  0.8626 -0.3098
 1950SOL     OW17482   1.370   1.627   0.489 -0.1680  0.6023 -0.4130
 1950SOL    HW117483   1.423   1.597   0.563  0.0906  0.4970 -0.6365
 1950SOL    HW217484   1.325   1.704   0.524 -1.8852 -0.7893  0.3881
 1951SOL     OW17485   1.355   3.842   6.704  0.1066 -0.2348  0.3506
 1951SOL    HW117486   1.277   3.818   6.754 -0.0202  0.5423  0.5319
 1951SOL    HW217487   1.335   3.809   6.616  1.6726 -1.5389  0.4963
 1952SOL     OW17488   0.272   2.395  17.646  0.5050 -0.0109  0.0823
 1952SOL    HW117489   0.206   2.448  17.692  0.9807  2.0920 -1.6930
 1952SOL    HW217490   0.355   2.434  17.674  0.4181 -0.5926  1.1409
 1953SOL     OW17491   4.189   4.325   9.450  0.2126  0.4507  0.4387
 1953SOL    HW117492   4.134   4.267   9.399 -0.8814 -0.5096  2.6947
 1953SOL    HW217493   4.273   4.286   9.428 -1.6967 -2.8380 -0.9598
 1954SOL     OW17494   3.667   1.175   8.888  0.2778 -0.5948  0.9731
 1954SOL    HW117495   3.622   1.228   8.823  1.5263 -0.3920  0.2728
 1954SOL    HW217496   3.600   1.161   8.956 -1.0861 -0.6416 -0.3780
 1955SOL     OW17497   1.521   2.289  12.304  0.3515  0.0757  0.1086
 1955SOL    HW117498   1.599   2.245  12.268 -0.4063 -2.2487  1.3486
 1955SOL    HW217499   1.494   2.330  12.221 -3.2160  1.5695  2.0426
 1956SOL     OW17500   4.054   3.774   7.549  0.0087  0.7935 -0.1989
 1956SOL    HW117501   4.019   3.760   7.638  0.5807  1.2821  0.0986
 1956SOL    HW217502   4.101   3.855   7.566  0.5125  0.3303  0.6394
 1957SOL     OW17503   3.338   0.249  12.142 -0.4417 -0.5432 -0.3380
 1957SOL    HW117504   3.273   0.273  12.076  1.6121 -0.3260 -2.2561
 1957SOL    HW217505   3.406   0.210  12.088  0.7012 -0.5244  1.0622
 1958SOL     OW17506   1.107   1.989   5.344 -0.2011 -0.0503 -0.0869
 1958SOL    HW117507   1.033   1.983   5.283 -0.4690  0.0462  0.2240
 1958SOL    HW217508   1.062   2.042   5.410 -1.6846  0.7411 -1.7360
 1959SOL     OW17509   3.837   2.136   8.230 -0.5904  0.0333  0.6278
 1959SOL    HW117510   3.850   2.092   8.314 -0.1818 -2.4299 -0.7117
 1959SOL    HW217511   3.908   2.112   8.170 -0.3019 -1.3571  1.5173
 1960SOL     OW17512   4.287   2.566   3.032 -0.4225  0.0441  0.1827
 1960SOL    HW117513   4.207   2.595   3.076 -1.4285  1.8471 -2.8406
 1960SOL    HW217514   4.345   2.592   3.103 -1.1057 -1.6473  1.3613
 1961SOL     OW17515   3.064   0.587   7.903 -0.1514  0.8534  0.2915
 1961SOL    HW117516   3.044   0.604   7.995 -1.4177  1.2068 -0.0563
 1961SOL    HW217517   3.106   0.503   7.922  1.1054  1.5575  0.6040
 1962SOL     OW17518   3.695   3.119   6.164  0.3839  0.1002 -0.2844
 1962SOL    HW117519   3.685   3.197   6.110  1.4340  0.8779  0.6370
 1962SOL    HW217520   3.625   3.137   6.226 -0.8318 -0.1980 -1.5791
 1963SOL     OW17521   4.565   0.065   8.818 -0.2171  0.0083 -0.2746
 1963SOL    HW117522   4.655   0.098   8.830  0.1116 -0.6299 -1.0091
 1963SOL    HW217523   4.549   0.090   8.727  0.3196 -1.9154 -0.8930
 1964SOL     OW17524   2.268   1.994  12.186 -0.3759 -0.4208 -0.0887
 1964SOL    HW117525   2.321   1.984  12.106 -0.7626 -0.4625 -0.3389
 1964SOL    HW217526   2.344   1.984  12.244  0.5086 -0.6418 -1.2753
 1965SOL     OW17527   3.026   2.152   7.577  0.6951  0.0471  0.1701
 1965SOL    HW117528   3.101   2.197   7.617  0.7124  0.4665 -0.3453
 1965SOL    HW217529   3.076   2.098   7.516 -2.2117 -2.9272  0.4374
 1966SOL     OW17530   2.286   3.928  16.130 -0.3365  0.5574  0.6613
 1966SOL    HW117531   2.246   3.879  16.202 -0.1383  2.2265  1.9069
 1966SOL    HW217532   2.347   3.981  16.182  1.9805 -1.4904  0.0127
 1967SOL     OW17533   0.634   0.338  15.614  0.2242 -0.1223  0.0046
 1967SOL    HW117534   0.726   0.323  15.594 -0.0087 -1.1624 -0.3083
 1967SOL    HW217535   0.594   0.300  15.535 -0.5964  2.1876 -0.6815
 1968SOL     OW17536   2.780   2.270  11.283 -0.3730 -0.3659 -0.2320
 1968SOL    HW117537   2.724   2.249  11.358  0.0029 -1.8970 -0.3710
 1968SOL    HW217538   2.724   2.235  11.214 -0.5735 -0.2332 -0.1346
 1969SOL     OW17539   0.072   2.829   0.541  0.5090  0.3615 -0.2202
 1969SOL    HW117540   0.109   2.758   0.594 -2.1360 -0.3963  0.6646
 1969SOL    HW217541   0.017   2.774   0.484  1.2265  1.3354 -1.8454
 1970SOL     OW17542   0.177   2.782   4.972 -0.8671 -0.2263  0.2695
 1970SOL    HW117543   0.168   2.705   4.916  0.0052  0.5456 -0.9243
 1970SOL    HW217544   0.177   2.744   5.060 -1.4820 -0.4306  0.1809
 1971SOL     OW17545   0.895   0.842  15.684 -0.2688 -0.3857  0.1771
 1971SOL    HW117546   0.933   0.760  15.652  0.3598 -0.0465  0.0591
 1971SOL    HW217547   0.839   0.870  15.612 -0.0608  1.1759  0.6298
 1972SOL     OW17548   4.677   3.934   2.513 -0.8971 -0.1342 -0.0968
 1972SOL    HW117549   4.646   3.953   2.425  1.7908 -1.3255 -1.2934
 1972SOL    HW217550   4.614   3.988   2.561 -0.5983  0.9697 -0.9456
 1973SOL     OW17551   3.301   3.067   2.551  0.6369  0.2724 -0.0543
 1973SOL    HW117552   3.302   3.162   2.561 -0.6395  0.1133  1.7168
 1973SOL    HW217553   3.356   3.041   2.626  0.6845 -0.0369 -0.1979
 1974SOL     OW17554   3.853   1.851   0.439  0.5586  0.1078 -0.1640
 1974SOL    HW117555   3.760   1.869   0.452  0.1193 -1.5422 -1.0218
 1974SOL    HW217556   3.850   1.765   0.398 -1.2199 -0.3689  0.9450
 1975SOL     OW17557   0.408   1.321   7.482  0.1766 -0.0096  0.4283
 1975SOL    HW117558   0.443   1.349   7.398 -0.4256  1.2007  0.5811
 1975SOL    HW217559   0.488   1.302   7.530  0.8991 -0.9478 -1.1467
 1976SOL     OW17560   1.863   3.734   4.338 -0.4568  0.1549 -0.1798
 1976SOL    HW117561   1.897   3.673   4.273 -1.1659  0.1359 -0.5270
 1976SOL    HW217562   1.828   3.803   4.282 -1.9518 -0.5580 -0.1240
 1977SOL     OW17563   4.002   0.487   5.620 -0.0288 -0.7329  0.4169
 1977SOL    HW117564   3.923   0.432   5.627  0.5479 -1.3119  2.3317
 1977SOL    HW217565   3.973   0.565   5.668 -1.5732 -0.2970 -1.2046
 1978SOL     OW17566   2.537   3.167  12.481  0.4082 -0.1276 -0.6003
 1978SOL    HW117567   2.474   3.095  12.477  0.3853 -0.1600  0.3898
 1978SOL    HW217568   2.544   3.180  12.575 -2.5535 -0.3627 -0.3590
 1979SOL     OW17569   4.291   2.009   8.087 -0.4996  0.0364 -0.3457
 1979SOL    HW117570   4.248   2.094   8.074 -3.5787 -1.5548 -0.7231
 1979SOL    HW217571   4.364   2.011   8.026  0.1191  0.8554  0.4419
 1980SOL     OW17572   1.213   2.124  13.276  0.6126 -0.1797 -0.0485
 1980SOL    HW117573   1.223   2.113  13.371  0.2590  0.8096  0.1045
 1980SOL    HW217574   1.120   2.104  13.260  1.1371 -1.0391 -2.0263
 1981SOL     OW17575   1.694   3.048   4.039 -0.5084  0.4894 -0.3155
 1981SOL    HW117576   1.663   3.025   3.951  0.6577 -1.8264 -0.1407
 1981SOL    HW217577   1.620   3.035   4.098 -0.9989  4.3177 -0.1076
 1982SOL     OW17578   3.252   4.029   6.780 -0.7352  0.1445 -0.4932
 1982SOL    HW117579   3.294   4.090   6.841  0.2747  2.3816 -3.4528
 1982SOL    HW217580   3.316   3.976   6.732 -1.3546 -0.6081 -0.4760
 1983SOL     OW17581   0.134   3.647   7.091  0.5904  0.2489  0.2161
 1983SOL    HW117582   0.227   3.640   7.070  0.0096 -0.6446 -2.0912
 1983SOL    HW217583   0.126   3.733   7.134  1.6326 -0.5903  2.0668
 1984SOL     OW17584   3.136   0.279   8.417 -0.1328 -0.0627 -1.0270
 1984SOL    HW117585   3.198   0.351   8.405 -2.5606  1.9841 -1.4362
 1984SOL    HW217586   3.063   0.308   8.362 -2.5875  0.5478  2.5764
 1985SOL     OW17587   4.159   1.897  13.933  0.5582 -0.5162 -0.1268
 1985SOL    HW117588   4.149   1.948  13.853 -0.4445  0.4835  0.6211
 1985SOL    HW217589   4.081   1.929  13.979  0.3646 -1.2711  0.0743
 1986SOL     OW17590   2.713   3.443   2.606  0.7149 -0.2320 -0.0078
 1986SOL    HW117591   2.800   3.433   2.569  1.4540  2.5099  1.0485
 1986SOL    HW217592   2.672   3.367   2.564 -1.1019  0.6598  0.1329
 1987SOL     OW17593   1.851   2.750  10.414  0.0227  0.5912 -0.2943
 1987SOL    HW117594   1.931   2.713  10.451  0.1460 -0.2411 -1.3932
 1987SOL    HW217595   1.824   2.805  10.487 -1.6234 -2.5618  1.4847
 1988SOL     OW17596   0.666   3.213   4.703 -0.5107 -0.0439 -0.0584
 1988SOL    HW117597   0.629   3.225   4.790 -2.8824  0.5064 -1.1573
 1988SOL    HW217598   0.618   3.274   4.646 -1.5074  0.6390  1.5303
 1989SOL     OW17599   3.721   2.973   9.455  0.0796 -0.4577  0.5006
 1989SOL    HW117600   3.755   3.020   9.531 -3.8415  1.2551  1.2152
 1989SOL    HW217601   3.755   2.885   9.468  0.1259 -0.1871  2.2375
 1990SOL     OW17602   4.282   4.407  14.699  0.1164 -0.3314  0.1128
 1990SOL    HW117603   4.216   4.351  14.659 -1.4628  1.2537  0.4942
 1990SOL    HW217604   4.341   4.434  14.629 -0.8853  0.1991 -0.5235
 1991SOL     OW17605   4.401   0.609   5.684  0.1420  0.4790  0.9840
 1991SOL    HW117606   4.317   0.625   5.727 -0.5767 -0.3995 -0.0945
 1991SOL    HW217607   4.390   0.514   5.691 -0.0744  0.4790  0.6320
 1992SOL     OW17608   2.117   2.202   4.496  0.1352 -0.4050 -0.1178
 1992SOL    HW117609   2.026   2.217   4.471 -0.0371  2.3587  2.2133
 1992SOL    HW217610   2.118   2.118   4.450 -0.0981 -0.3668 -0.1963
 1993SOL     OW17611   1.685   0.400  11.434  0.1379 -0.8360  0.3609
 1993SOL    HW117612   1.726   0.483  11.411  1.8675 -1.9324 -0.4527
 1993SOL    HW217613   1.749   0.364  11.495  0.4277  1.0467  1.1834
 1994SOL     OW17614   4.340   1.100  12.901  0.1144  0.2979 -0.2482
 1994SOL    HW117615   4.329   1.160  12.975  0.6647 -0.0746  0.1363
 1994SOL    HW217616   4.360   1.163  12.832 -0.4783  0.1677 -0.5317
 1995SOL     OW17617   1.391   0.162   2.262  0.0759  0.3535  0.4039
 1995SOL    HW117618   1.478   0.200   2.255  0.3968  0.2191  3.8767
 1995SOL    HW217619   1.349   0.247   2.248  0.4923  0.5446  0.3300
 1996SOL     OW17620   0.964   3.706   8.838 -0.0062  0.1379  0.0379
 1996SOL    HW117621   0.901   3.655   8.787 -0.2290 -1.4023  1.8518
 1996SOL    HW217622   1.044   3.654   8.830  0.3614  0.9884 -1.8291
 1997SOL     OW17623   3.364   4.444   7.506 -0.0397  0.4228  0.2283
 1997SOL    HW117624   3.412   4.420   7.427  0.3041  0.5121  0.4152
 1997SOL    HW217625   3.304   4.369   7.515  1.2768 -0.7948 -1.1460
 1998SOL     OW17626   3.166   4.500   9.990 -0.0414 -0.3414  0.0632
 1998SOL    HW117627   3.192   4.447   9.915  0.5109 -1.2395  0.8957
 1998SOL    HW217628   3.115   4.562   9.937  0.3843  1.7964  2.1597
 1999SOL     OW17629   0.107   4.522   2.894  0.4456 -0.6601  0.6186
 1999SOL    HW117630   0.202   4.523   2.894  0.4132  2.1608  1.4187
 1999SOL    HW217631   0.096   4.588   2.963  0.9722  0.1048 -0.0310
 2000SOL     OW17632   2.300   2.776   2.136  0.4208  0.1448 -0.3054
 2000SOL    HW117633   2.290   2.817   2.221  1.6130 -0.6195  0.2199
 2000SOL    HW217634   2.392   2.803   2.126  0.3207  0.1840 -1.1672
 2001SOL     OW17635   3.326   4.140   0.223 -0.8040  0.1068 -0.0079
 2001SOL    HW117636   3.357   4.059   0.263 -2.3145 -0.6611 -0.3934
 2001SOL    HW217637   3.233   4.137   0.246 -1.0478  2.2428 -0.7044
 2002SOL     OW17638   0.845   3.050  11.586  0.0758  0.0504 -0.3769
 2002SOL    HW117639   0.885   3.006  11.510  1.4544  1.0701 -0.2321
 2002SOL    HW217640   0.773   2.992  11.611 -0.8387  0.2848 -2.4151
 2003SOL     OW17641   0.423   2.978   0.024 -0.1389 -0.0995  0.1170
 2003SOL    HW117642   0.498   2.964  17.715 -0.4721  0.3031 -0.4062
 2003SOL    HW217643   0.471   3.000   0.105 -0.4175 -0.9465  0.5169
 2004SOL     OW17644   2.506   1.056  10.647 -0.3767  0.7071 -0.3811
 2004SOL    HW117645   2.455   1.137  10.650 -1.3927  0.1131 -1.8030
 2004SOL    HW217646   2.491   1.030  10.556  0.9120 -0.2841 -0.2996
 2005SOL     OW17647   2.362   3.476   2.457 -0.1427 -0.1292 -0.1057
 2005SOL    HW117648   2.299   3.442   2.520 -0.0517 -2.4840 -1.2857
 2005SOL    HW217649   2.414   3.400   2.430 -0.8201 -0.7219  0.2872
 2006SOL     OW17650   0.767   0.981   9.105  0.0034  0.0092  0.6745
 2006SOL    HW117651   0.819   0.995   9.184  1.2193  0.8584 -0.2805
 2006SOL    HW217652   0.681   0.967   9.144 -0.9506 -0.9244 -1.7958
 2007SOL     OW17653   2.145   2.391  12.285 -0.3185  0.4141  0.4930
 2007SOL    HW117654   2.144   2.476  12.242  0.2432  0.3727  0.3916
 2007SOL    HW217655   2.234   2.360  12.264 -0.0305  0.4577  1.6590
 2008SOL     OW17656   3.667   1.752   3.849 -0.6167  0.3577 -0.0736
 2008SOL    HW117657   3.710   1.799   3.921  0.8135  1.6054 -1.7370
 2008SOL    HW217658   3.597   1.706   3.895  1.5115 -0.3157  2.4897
 2009SOL     OW17659   2.012   0.097   6.272  0.5361 -0.6717 -0.1300
 2009SOL    HW117660   1.970   0.093   6.186 -0.4729  0.2954  0.3226
 2009SOL    HW217661   2.044   0.010   6.297  0.3333 -0.0962  2.1567
 2010SOL     OW17662   0.067   4.542   9.830 -0.0581  0.6791  0.5027
 2010SOL    HW117663   0.122   4.485   9.776 -1.4028  0.7257 -0.9069
 2010SOL    HW217664   4.722   4.518   9.790  0.8836 -0.2913 -0.8705
 2011SOL     OW17665   3.785   2.947  10.603  0.1800 -0.4194 -0.5323
 2011SOL    HW117666   3.804   2.908  10.688 -0.1205 -0.1791 -0.3577
 2011SOL    HW217667   3.777   2.864  10.555  0.6529  0.4814 -2.1879
 2012SOL     OW17668   0.552   2.083   9.268 -0.3382 -1.1271 -0.4464
 2012SOL    HW117669   0.641   2.091   9.234 -0.0940 -0.4363  0.3740
 2012SOL    HW217670   0.580   2.054   9.355  1.0860 -2.9440 -1.5171
 2013SOL     OW17671   2.686   0.033   6.790  0.0701 -0.3194 -0.3363
 2013SOL    HW117672   2.736   4.690   6.778  0.2769 -0.0253 -1.4098
 2013SOL    HW217673   2.611   0.014   6.734 -1.3933  2.4230  0.6897
 2014SOL     OW17674   0.271   0.187   3.075  0.0997 -0.0419 -0.0152
 2014SOL    HW117675   0.313   0.267   3.108 -0.6358  0.5394 -0.4707
 2014SOL    HW217676   0.278   0.203   2.981 -0.7796 -0.8100 -0.2116
 2015SOL     OW17677   3.726   4.185   4.311 -0.8312 -0.2490  0.0691
 2015SOL    HW117678   3.660   4.208   4.376 -1.8124 -1.9321 -0.3366
 2015SOL    HW217679   3.792   4.250   4.334  1.4231 -1.8873 -1.6963
 2016SOL     OW17680   0.993   2.366   7.161 -0.3425 -0.7379  0.1183
 2016SOL    HW117681   1.045   2.375   7.242  1.2374 -3.8566 -0.5454
 2016SOL    HW217682   0.964   2.457   7.152 -0.5752 -0.9407 -1.2212
 2017SOL     OW17683   1.537   0.366   8.208  0.1738  0.3304  0.2616
 2017SOL    HW117684   1.620   0.377   8.253  0.5073 -0.0817 -0.2556
 2017SOL    HW217685   1.531   0.270   8.198 -0.8726  0.5592 -1.4401
 2018SOL     OW17686   1.390   3.016   8.209  0.6176  0.6308  0.1436
 2018SOL    HW117687   1.394   2.930   8.168  1.0804  0.3245  0.8367
 2018SOL    HW217688   1.406   3.070   8.132 -0.7642 -0.6848 -1.0556
 2019SOL     OW17689   1.780   0.288   3.197 -0.3127 -0.1253  0.3802
 2019SOL    HW117690   1.853   0.271   3.138  1.3346  1.0199  2.0552
 2019SOL    HW217691   1.706   0.285   3.138  1.4877 -0.0414 -1.8809
 2020SOL     OW17692   3.686   0.176  12.833 -0.3590 -0.5426  0.4863
 2020SOL    HW117693   3.776   0.169  12.802 -0.2414  0.5747  0.5850
 2020SOL    HW217694   3.701   0.179  12.928  0.6158  1.7014  0.2669
 2021SOL     OW17695   1.377   4.332  10.094  0.1012  0.1197 -0.2658
 2021SOL    HW117696   1.326   4.254  10.118  0.4837 -0.5459 -1.5639
 2021SOL    HW217697   1.463   4.295  10.116 -0.0986  0.8295  1.6924
 2022SOL     OW17698   3.759   1.409   7.886 -0.1520 -0.1022  0.1563
 2022SOL    HW117699   3.841   1.433   7.843 -0.6453 -1.0180 -1.3072
 2022SOL    HW217700   3.785   1.330   7.935 -1.6472 -0.3178  0.5863
 2023SOL     OW17701   2.255   3.523   3.844  0.3611  0.6814  0.1968
 2023SOL    HW117702   2.289   3.612   3.835  1.4133  0.2561 -0.0311
 2023SOL    HW217703   2.164   3.533   3.815  0.3175  0.4342  0.2516
 2024SOL     OW17704   2.388   2.971   4.249 -0.0441  0.0455 -0.1045
 2024SOL    HW117705   2.404   2.878   4.268 -1.1765 -0.4058 -1.3349
 2024SOL    HW217706   2.293   2.976   4.235  0.1559  0.1331 -1.4080
 2025SOL     OW17707   0.940   0.938   9.687 -0.9315  0.2318 -0.0182
 2025SOL    HW117708   1.031   0.956   9.711 -0.2697 -0.2942 -2.1070
 2025SOL    HW217709   0.911   0.904   9.771 -1.7774 -0.9458 -0.7848
 2026SOL     OW17710   2.814   2.777   5.260 -0.7124 -0.3908 -0.2023
 2026SOL    HW117711   2.732   2.811   5.295 -0.0260  0.8655  0.2011
 2026SOL    HW217712   2.814   2.684   5.236  0.6791 -0.6477  0.7542
 2027SOL     OW17713   0.420   0.927   1.519 -0.0806  0.0534 -0.2131
 2027SOL    HW117714   0.335   0.954   1.555  1.0994  3.4217  0.1193
 2027SOL    HW217715   0.415   0.832   1.527 -0.2685  0.3762  3.7972
 2028SOL     OW17716   0.271   1.916   3.225 -0.4140 -0.3343  0.1385
 2028SOL    HW117717   0.185   1.912   3.266 -0.2907 -2.2787  0.1987
 2028SOL    HW217718   0.280   2.006   3.194  2.4127 -0.3746  0.7837
 2029SOL     OW17719   2.634   2.437   5.037 -0.1723 -0.4465 -0.2486
 2029SOL    HW117720   2.614   2.502   4.970  0.4238 -0.0905 -0.0778
 2029SOL    HW217721   2.553   2.387   5.030 -1.0209  0.8645  0.2069
 2030SOL     OW17722   2.120   0.119   7.850 -0.1613 -0.2726 -0.0733
 2030SOL    HW117723   2.151   0.123   7.940  0.8947  0.2458 -0.4594
 2030SOL    HW217724   2.137   0.212   7.834  0.4944 -0.6961 -1.8544
 2031SOL     OW17725   0.007   2.361  11.508  0.0170 -0.0159 -0.1810
 2031SOL    HW117726   0.072   2.419  11.547 -0.2196  1.2472 -1.6768
 2031SOL    HW217727   4.706   2.408  11.434  2.7690  0.4484 -1.3290
 2032SOL     OW17728   2.196   2.644   3.412 -0.4433 -0.2196  0.3100
 2032SOL    HW117729   2.260   2.596   3.463 -3.4289 -1.8721  2.5077
 2032SOL    HW217730   2.123   2.582   3.417  0.8003 -1.4502  2.9721
 2033SOL     OW17731   4.220   0.866   7.177 -0.0960 -0.5779  0.6838
 2033SOL    HW117732   4.213   0.919   7.098  4.3409 -2.1098 -0.7356
 2033SOL    HW217733   4.301   0.818   7.160  0.8182  0.6202  1.6849
 2034SOL     OW17734   3.101   4.223   5.976 -0.0540  0.2503  0.0293
 2034SOL    HW117735   3.056   4.307   5.971  1.3657  0.9969 -0.3687
 2034SOL    HW217736   3.036   4.165   6.016  0.6673 -1.1666 -0.8483
 2035SOL     OW17737   1.769   1.412   6.347  0.1523  0.1832  0.3763
 2035SOL    HW117738   1.856   1.447   6.364  0.2659  0.1657 -0.1605
 2035SOL    HW217739   1.779   1.364   6.265  0.1729 -0.9651  1.0590
 2036SOL     OW17740   3.851   4.635   8.134  0.0986 -0.0229 -0.0746
 2036SOL    HW117741   3.773   4.679   8.168 -0.5885  0.1663 -1.8871
 2036SOL    HW217742   3.815   4.612   8.049  0.7498 -1.2122 -0.0242
 2037SOL     OW17743   1.262   3.859   8.849  0.0276 -0.6071 -0.0004
 2037SOL    HW117744   1.184   3.872   8.904  0.8056  1.1425  0.6728
 2037SOL    HW217745   1.322   3.920   8.890 -1.3710  1.4736 -1.0715
 2038SOL     OW17746   3.302   3.311  15.122  0.4901 -0.3064 -0.2979
 2038SOL    HW117747   3.207   3.301  15.122  0.5307 -0.6972 -1.4431
 2038SOL    HW217748   3.314   3.365  15.043 -1.6016  0.1677 -0.2719
 2039SOL     OW17749   1.343   4.734   2.006 -0.5064 -0.3818  0.6151
 2039SOL    HW117750   1.412   0.038   2.058 -0.8575  0.5216  0.3562
 2039SOL    HW217751   1.318   4.657   2.058 -0.0041 -1.0169 -0.0798
 2040SOL     OW17752   4.677   3.069   2.719 -0.2659  0.3085 -0.2712
 2040SOL    HW117753   4.722   3.150   2.697 -1.0544  0.7868 -0.1299
 2040SOL    HW217754   4.715   3.049   2.804  0.3285  0.4807 -0.4966
 2041SOL     OW17755   4.702   0.536   3.256  0.2991  0.4080 -0.4191
 2041SOL    HW117756   0.027   0.525   3.328 -0.9169  0.8053  0.7022
 2041SOL    HW217757   4.735   0.623   3.232  2.3046  0.0647  1.0426
 2042SOL     OW17758   1.412   1.427   7.184 -0.5797 -0.3873  0.1355
 2042SOL    HW117759   1.456   1.352   7.144 -0.3937 -1.0023  1.4802
 2042SOL    HW217760   1.407   1.490   7.112 -0.6118 -0.0276  0.4511
 2043SOL     OW17761   2.447   2.436   6.699 -0.2647  0.2470 -0.1694
 2043SOL    HW117762   2.540   2.413   6.692  0.6021  2.9602  2.6110
 2043SOL    HW217763   2.448   2.523   6.659 -0.6013 -0.6606 -2.1724
 2044SOL     OW17764   3.813   1.814   1.743  0.0860  0.1482  0.0281
 2044SOL    HW117765   3.836   1.780   1.830 -1.3130 -0.9862 -0.0513
 2044SOL    HW217766   3.857   1.758   1.679  1.3753 -1.4688  2.3280
 2045SOL     OW17767   4.110   3.803   4.915  0.0899  0.1853  0.1502
 2045SOL    HW117768   4.194   3.848   4.914  0.8416 -1.2281 -0.5313
 2045SOL    HW217769   4.059   3.879   4.944 -0.7275 -0.1708 -0.3532
 2046SOL     OW17770   1.157   1.247   3.561  0.2888 -0.3744  0.0968
 2046SOL    HW117771   1.065   1.263   3.538 -0.0116 -0.9424  0.8998
 2046SOL    HW217772   1.187   1.336   3.580  1.7140 -0.9837  0.7311
 2047SOL     OW17773   0.421   4.730   3.226 -0.4391 -0.0997  0.0834
 2047SOL    HW117774   0.366   0.040   3.163  1.4413  1.4578 -0.3741
 2047SOL    HW217775   0.504   0.008   3.181  1.1947 -1.6475  2.6382
 2048SOL     OW17776   0.853   1.146  13.499  0.3337  0.2520 -0.1366
 2048SOL    HW117777   0.939   1.123  13.534  0.4331  2.1059  0.8438
 2048SOL    HW217778   0.866   1.109  13.412 -0.9589  0.0073 -0.2333
 2049SOL     OW17779   1.747   4.383   9.929 -0.6033  0.3495  0.0539
 2049SOL    HW117780   1.824   4.345   9.887 -0.8027  0.5558 -0.4983
 2049SOL    HW217781   1.699   4.418   9.854  1.4388  0.6547 -1.1142
 2050SOL     OW17782   3.341   2.378   8.586 -0.2179 -0.1266 -0.1993
 2050SOL    HW117783   3.356   2.305   8.526 -3.4707 -1.6933  0.8964
 2050SOL    HW217784   3.266   2.426   8.552 -1.2273 -0.2288  1.8900
 2051SOL     OW17785   4.094   0.322  12.973 -0.7726  0.2243  0.4992
 2051SOL    HW117786   4.148   0.401  12.976 -0.8660  0.4161 -2.8821
 2051SOL    HW217787   4.051   0.326  13.059  0.6942 -2.0461  1.3431
 2052SOL     OW17788   1.558   2.009   6.210 -0.1995  0.7901  0.3245
 2052SOL    HW117789   1.560   1.954   6.288  3.8933  0.6181  0.0758
 2052SOL    HW217790   1.651   2.023   6.196 -0.0910  1.1394  1.3952
 2053SOL     OW17791   4.179   4.525  11.232 -0.2210  0.8673 -0.5823
 2053SOL    HW117792   4.093   4.482  11.234  1.4452 -2.5364 -3.0934
 2053SOL    HW217793   4.172   4.593  11.299 -0.1990  1.1125 -0.8306
 2054SOL     OW17794   2.584   1.698   1.672  0.1094  0.4390 -0.4305
 2054SOL    HW117795   2.495   1.671   1.693  0.7630 -0.7329  0.8367
 2054SOL    HW217796   2.570   1.749   1.592 -0.1740  1.2486  0.1443
 2055SOL     OW17797   4.221   4.323  16.424  0.2963  0.0582  0.1352
 2055SOL    HW117798   4.179   4.295  16.506  0.7416 -2.1581 -0.3846
 2055SOL    HW217799   4.275   4.248  16.399  2.1375  1.2659  0.5281
 2056SOL     OW17800   0.290   2.105  11.362 -0.1261 -0.4119  0.2433
 2056SOL    HW117801   0.340   2.156  11.426 -1.8360  1.4278  0.1129
 2056SOL    HW217802   0.363   2.051  11.332  0.4510 -0.6054  1.9456
 2057SOL     OW17803   0.336   1.234   7.107 -0.0026  0.4381  0.1639
 2057SOL    HW117804   0.404   1.176   7.074 -1.7415 -1.8796  0.5868
 2057SOL    HW217805   0.368   1.246   7.196 -4.7955 -0.2816  2.0134
 2058SOL     OW17806   3.910   4.072   7.287  0.4649  0.6727  0.0553
 2058SOL    HW117807   3.905   4.166   7.270  0.8765  0.4439 -1.3146
 2058SOL    HW217808   3.960   4.037   7.213  0.7121  1.2936 -0.0780
 2059SOL     OW17809   4.436   1.670   8.651 -0.1160  0.8082  0.9010
 2059SOL    HW117810   4.364   1.716   8.696 -1.8118  0.2155 -1.2104
 2059SOL    HW217811   4.390   1.663   8.568  3.1708  0.9151 -0.9262
 2060SOL     OW17812   1.171   0.816  10.058  0.2780  0.4114  0.4669
 2060SOL    HW117813   1.217   0.891  10.095  1.4417  1.6333 -3.4490
 2060SOL    HW217814   1.231   0.745  10.080 -1.7681 -1.6636 -0.6582
 2061SOL     OW17815   4.588   0.178  12.043  0.0544 -0.1779 -0.2355
 2061SOL    HW117816   4.644   0.105  12.068  2.0583  1.9245  1.4588
 2061SOL    HW217817   4.553   0.218  12.124 -0.5425 -0.1825 -0.4889
 2062SOL     OW17818   4.613   4.326  13.643  0.1675  0.1651 -0.5681
 2062SOL    HW117819   4.611   4.349  13.736  0.7647  1.3325 -0.8462
 2062SOL    HW217820   4.706   4.330  13.621  0.2970 -1.5401 -0.3814
 2063SOL     OW17821   4.624   2.125  10.300  0.5820 -0.0591 -0.0090
 2063SOL    HW117822   4.694   2.065  10.324 -1.1366 -1.7472  0.8206
 2063SOL    HW217823   4.657   2.211  10.326 -2.4345  1.4885 -1.2094
 2064SOL     OW17824   2.318   2.157   6.672  0.0810 -0.4321  0.8862
 2064SOL    HW117825   2.353   2.230   6.620 -0.9647 -1.1499 -0.8113
 2064SOL    HW217826   2.344   2.083   6.618  1.2376  0.8581 -0.3236
 2065SOL     OW17827   2.018   0.771   3.011  0.0838 -0.2630 -0.3521
 2065SOL    HW117828   2.084   0.702   3.022  0.3765 -0.3205 -2.6402
 2065SOL    HW217829   2.060   0.816   2.937 -1.4381 -0.7451 -1.4901
 2066SOL     OW17830   1.765   2.904  15.032  0.3824 -0.7948  0.8126
 2066SOL    HW117831   1.795   2.813  15.036  2.5416 -0.0917  0.5496
 2066SOL    HW217832   1.840   2.954  15.064  0.7873 -1.6440  1.1890
 2067SOL     OW17833   1.906   1.849   1.904  0.0317 -0.1880 -0.0194
 2067SOL    HW117834   1.971   1.807   1.847  1.2035  1.5279  0.0455
 2067SOL    HW217835   1.893   1.934   1.863  1.3186  1.9061  3.8980
 2068SOL     OW17836   1.246   3.364   7.177 -0.5945  0.4997  0.5380
 2068SOL    HW117837   1.221   3.456   7.186  0.5988  1.0957 -2.0242
 2068SOL    HW217838   1.286   3.339   7.260 -3.3079 -1.3092  1.2816
 2069SOL     OW17839   4.276   4.659  15.175 -0.2192  0.0188 -0.3085
 2069SOL    HW117840   4.252   4.593  15.110  1.5323  1.2994 -2.2510
 2069SOL    HW217841   4.322   4.727  15.126  0.6265 -0.0431  0.3959
 2070SOL     OW17842   2.169   2.617   1.140 -0.2563  0.3743 -0.4603
 2070SOL    HW117843   2.244   2.570   1.177 -0.5551 -1.2521 -1.9649
 2070SOL    HW217844   2.099   2.556   1.163  1.9962 -1.8923  0.3430
 2071SOL     OW17845   4.652   1.520   8.527 -0.2862  0.1938 -0.1463
 2071SOL    HW117846   4.588   1.572   8.574 -0.3932  0.0936 -0.1818
 2071SOL    HW217847   4.708   1.481   8.594 -0.0217  3.6083  1.6137
 2072SOL     OW17848   1.016   3.517   0.879  0.8888  0.2511  0.7230
 2072SOL    HW117849   0.971   3.518   0.963 -1.5771 -1.4604 -0.5750
 2072SOL    HW217850   1.007   3.608   0.848  0.0835  0.1485  0.6574
 2073SOL     OW17851   3.317   3.434   4.840  0.0214 -0.5682 -0.1857
 2073SOL    HW117852   3.277   3.488   4.772  0.8206  0.9896  0.5918
 2073SOL    HW217853   3.391   3.488   4.870  0.4071 -1.6321  0.7927
 2074SOL     OW17854   0.601   4.536   7.877  0.3164 -0.3695  0.1539
 2074SOL    HW117855   0.634   4.624   7.865 -0.5004 -0.0478  0.2483
 2074SOL    HW217856   0.547   4.517   7.801  0.2186 -2.2536  0.6914
 2075SOL     OW17857   4.370   4.429   3.224  0.0222 -0.5744  0.9133
 2075SOL    HW117858   4.426   4.468   3.158 -0.3685 -0.0998  0.8665
 2075SOL    HW217859   4.420   4.350   3.247  3.0952  0.2937 -2.8656
 2076SOL     OW17860   3.748   2.924  16.972 -0.0996  0.0960 -0.1210
 2076SOL    HW117861   3.824   2.938  17.028 -0.3164 -1.5774  0.6013
 2076SOL    HW217862   3.765   2.983  16.899  1.4565  1.6100  1.4798
 2077SOL     OW17863   0.108   1.379   5.014  0.2785  0.3044  0.1148
 2077SOL    HW117864   0.081   1.297   4.972  0.9947  0.2529 -0.2558
 2077SOL    HW217865   0.200   1.385   4.988 -0.1966  1.5474 -1.3111
 2078SOL     OW17866   0.275   3.539  13.511  0.1352 -0.3726  0.7125
 2078SOL    HW117867   0.287   3.601  13.583  1.7766  0.9694 -0.7359
 2078SOL    HW217868   0.260   3.594  13.434  0.9476  0.3971  1.1100
 2079SOL     OW17869   0.241   2.524  16.422  0.4063 -0.3471 -0.4159
 2079SOL    HW117870   0.319   2.475  16.447  0.2655  0.7868  2.2269
 2079SOL    HW217871   0.183   2.448  16.413  0.8843 -0.6900 -0.5490
 2080SOL     OW17872   2.704   4.148   8.725  0.1997  0.0605  0.1890
 2080SOL    HW117873   2.656   4.185   8.800  0.3197  0.9948 -0.1945
 2080SOL    HW217874   2.792   4.176   8.748  0.1088  1.7568 -1.5731
 2081SOL     OW17875   0.194   1.604   4.130  0.2174  0.0742 -0.1224
 2081SOL    HW117876   0.220   1.515   4.153  0.0280  0.0040 -0.1788
 2081SOL    HW217877   0.123   1.607   4.195 -1.1298  0.6374 -1.6105
 2082SOL     OW17878   3.064   0.169  12.675 -0.4528 -0.5577  0.2933
 2082SOL    HW117879   3.084   0.164  12.768  1.0322 -0.2333 -0.0053
 2082SOL    HW217880   3.103   0.084  12.652  2.2933  1.1250 -1.2575
 2083SOL     OW17881   0.593   3.632   2.189 -0.0112  0.1368 -0.2446
 2083SOL    HW117882   0.685   3.656   2.187 -0.4717  1.6252 -4.4510
 2083SOL    HW217883   0.598   3.539   2.212  0.6172  0.0046 -0.9004
 2084SOL     OW17884   2.212   3.855   6.349  0.2654 -0.2022 -0.0633
 2084SOL    HW117885   2.278   3.810   6.295 -0.6793 -0.9872 -0.5528
 2084SOL    HW217886   2.268   3.898   6.414  0.5196 -1.3405  0.4731
 2085SOL     OW17887   0.490   1.902  10.579 -0.1038 -0.2413 -0.6608
 2085SOL    HW117888   0.457   1.816  10.601  0.4632 -0.2767  0.0647
 2085SOL    HW217889   0.408   1.950  10.572  0.2837  0.6640  0.7829
 2086SOL     OW17890   4.627   0.963   9.841  0.5832 -0.2417 -0.4227
 2086SOL    HW117891   4.580   1.003   9.768  0.3501 -0.1621 -0.2286
 2086SOL    HW217892   4.653   0.882   9.797  2.0205  0.5272 -0.9781
 2087SOL     OW17893   4.468   0.179  15.485  0.2021  0.8169 -0.5041
 2087SOL    HW117894   4.387   0.129  15.488 -0.1457  1.2631 -2.4329
 2087SOL    HW217895   4.531   0.107  15.487  0.1505  0.7689 -0.6106
 2088SOL     OW17896   2.095   2.195   8.850  0.2581  0.2530 -0.6301
 2088SOL    HW117897   2.156   2.254   8.806  0.4616 -0.6838 -1.5916
 2088SOL    HW217898   2.068   2.244   8.928  0.6260 -0.2929 -0.1563
 2089SOL     OW17899   0.199   1.603  14.406 -0.1526  0.1256  0.0522
 2089SOL    HW117900   0.230   1.583  14.318  0.7335  0.0739  0.3741
 2089SOL    HW217901   0.108   1.576  14.395 -0.4994  1.4693 -0.4531
 2090SOL     OW17902   1.618   1.311  14.300  0.3349  0.6832 -0.3886
 2090SOL    HW117903   1.655   1.384  14.251 -0.5065  0.0847 -1.9303
 2090SOL    HW217904   1.530   1.294  14.266  0.7426 -1.2684 -0.5032
 2091SOL     OW17905   1.993   4.565   6.556  0.5580 -0.3903 -0.5568
 2091SOL    HW117906   1.926   4.565   6.625 -0.1922 -1.3021 -1.2840
 2091SOL    HW217907   2.047   4.639   6.581  1.4245 -0.9228 -0.8613
 2092SOL     OW17908   2.487   0.706   6.869  0.0363  0.2840 -0.2778
 2092SOL    HW117909   2.540   0.652   6.811  0.6621  0.4725  0.1095
 2092SOL    HW217910   2.556   0.767   6.896 -1.0695  0.9525  1.0548
 2093SOL     OW17911   2.040   2.650   2.649  0.2316  0.1975 -0.3514
 2093SOL    HW117912   2.132   2.674   2.636  0.1795  0.8728  0.5338
 2093SOL    HW217913   2.023   2.614   2.562  0.7250 -0.8262 -0.0376
 2094SOL     OW17914   2.434   4.676   6.697  0.3163  0.0728 -0.0367
 2094SOL    HW117915   2.354   4.709   6.657 -0.4302 -0.8909  0.6798
 2094SOL    HW217916   2.411   4.589   6.729  2.1313 -0.3405  0.1510
 2095SOL     OW17917   0.812   3.518   8.688  0.2719 -0.4913 -0.0538
 2095SOL    HW117918   0.817   3.525   8.593 -1.6638 -0.1735 -0.1469
 2095SOL    HW217919   0.878   3.455   8.718  1.6225  1.5235  1.2062
 2096SOL     OW17920   1.910   2.459   8.983 -0.0858  0.5517 -0.0347
 2096SOL    HW117921   1.987   2.470   9.039 -1.0564  2.4903  0.8876
 2096SOL    HW217922   1.868   2.389   9.032  0.1945 -0.5158 -1.3165
 2097SOL     OW17923   2.854   3.223  17.667  0.0341 -0.3927 -0.3236
 2097SOL    HW117924   2.910   3.167  17.614 -1.3303 -2.2883  0.2442
 2097SOL    HW217925   2.778   3.167  17.681 -1.0990  0.9287 -1.0829
 2098SOL     OW17926   3.494   2.312   0.871  0.6991  0.6828  0.1988
 2098SOL    HW117927   3.496   2.234   0.927 -1.5278 -0.5923 -1.5320
 2098SOL    HW217928   3.509   2.373   0.944 -0.1715  2.7497 -1.3314
 2099SOL     OW17929   0.622   3.341   2.202  0.2199  0.1628 -0.1383
 2099SOL    HW117930   0.691   3.342   2.136 -0.3722  0.0208 -0.7636
 2099SOL    HW217931   0.552   3.290   2.161  0.3604 -0.5896  0.5711
 2100SOL     OW17932   2.147   4.054   3.166 -0.0388 -0.3695  0.4070
 2100SOL    HW117933   2.132   4.016   3.079  1.9946  2.4456 -1.1378
 2100SOL    HW217934   2.077   4.007   3.212 -0.2519  0.5828  1.0386
 2101SOL     OW17935   3.869   4.212   4.925 -0.4449  0.1174  0.4258
 2101SOL    HW117936   3.892   4.285   4.867 -1.0876 -1.6839 -2.0964
 2101SOL    HW217937   3.827   4.255   5.000 -2.4804  0.3824 -0.8414
 2102SOL     OW17938   2.942   2.035   1.893  0.0963  0.9910 -0.0169
 2102SOL    HW117939   2.989   1.962   1.932 -0.0540  0.7594 -0.2720
 2102SOL    HW217940   2.884   2.060   1.965  0.0650  0.2256  0.2231
 2103SOL     OW17941   3.741   1.826  10.350 -0.8181 -0.3846 -0.3178
 2103SOL    HW117942   3.756   1.921  10.350  1.1589 -0.6830  0.1088
 2103SOL    HW217943   3.647   1.812  10.360 -1.0198  2.3238  1.6999
 2104SOL     OW17944   2.770   0.131  15.108 -0.4830 -0.4409 -0.2633
 2104SOL    HW117945   2.702   0.073  15.143  0.5766 -1.3392  0.3109
 2104SOL    HW217946   2.792   0.079  15.031  0.4442 -0.7632  0.2301
 2105SOL     OW17947   4.091   2.077   7.247  0.2279 -0.1765  0.5353
 2105SOL    HW117948   4.044   2.122   7.177  0.1336 -0.6792  0.2728
 2105SOL    HW217949   4.116   2.003   7.192  1.0126  0.5153 -0.0381
 2106SOL     OW17950   4.452   1.766  16.710  0.4654  0.2119 -0.0999
 2106SOL    HW117951   4.546   1.748  16.708  0.1009 -1.5672 -1.1011
 2106SOL    HW217952   4.450   1.824  16.633  2.1585 -0.5391 -0.7164
 2107SOL     OW17953   3.772   0.631   3.400 -0.4402 -0.7943  0.2440
 2107SOL    HW117954   3.787   0.610   3.493 -2.7154 -2.9390  0.1413
 2107SOL    HW217955   3.692   0.579   3.396 -2.0293  1.5014  1.6563
 2108SOL     OW17956   3.625   2.614   8.993  0.0931 -0.3250 -0.0285
 2108SOL    HW117957   3.656   2.535   9.037  0.2259  1.5398  3.2043
 2108SOL    HW217958   3.565   2.576   8.929  0.3259  0.7363 -0.8836
 2109SOL     OW17959   0.701   1.506  11.971 -0.1741  0.7416  0.1384
 2109SOL    HW117960   0.787   1.497  12.011 -0.1423  1.6388  0.2706
 2109SOL    HW217961   0.664   1.563  12.038  2.0109  0.5163  1.5156
 2110SOL     OW17962   3.347   2.171   1.299  0.5000 -0.3585 -0.1255
 2110SOL    HW117963   3.394   2.215   1.369  0.6498  0.1244 -0.5270
 2110SOL    HW217964   3.259   2.183   1.335  1.0905  0.1831  1.1315
 2111SOL     OW17965   0.900   1.266   4.317 -0.1349  0.1760  0.2762
 2111SOL    HW117966   0.964   1.273   4.387  1.3250  0.8984 -1.1293
 2111SOL    HW217967   0.954   1.286   4.241  0.3748  2.4508  1.2395
 2112SOL     OW17968   2.635   4.049   3.538 -0.1999  0.4701 -0.3004
 2112SOL    HW117969   2.540   4.043   3.547 -0.0767 -1.0796 -0.0592
 2112SOL    HW217970   2.669   4.034   3.626 -0.0261 -0.8443 -0.5937
 2113SOL     OW17971   3.201   4.558   4.642 -0.7128 -0.3055 -0.2658
 2113SOL    HW117972   3.223   4.650   4.654 -0.0920 -0.4529 -0.2797
 2113SOL    HW217973   3.155   4.544   4.559  0.5080 -0.1033 -0.9727
 2114SOL     OW17974   2.019   4.069  16.027 -0.4570 -0.6171 -0.3608
 2114SOL    HW117975   2.100   4.019  16.036  0.2175  0.7167  0.9939
 2114SOL    HW217976   1.987   4.083  16.116  0.4907 -1.4721  0.1158
 2115SOL     OW17977   4.072   2.314   3.577  0.3615 -0.5788 -0.3062
 2115SOL    HW117978   4.045   2.279   3.662  1.6642 -0.4143  0.1836
 2115SOL    HW217979   4.120   2.390   3.609 -0.6495  0.4639 -1.2503
 2116SOL     OW17980   3.479   1.560   9.451 -0.1316  0.6138 -0.1864
 2116SOL    HW117981   3.421   1.613   9.506 -0.0001  0.4889  0.0732
 2116SOL    HW217982   3.561   1.568   9.499 -0.8402  1.2681  0.9195
 2117SOL     OW17983   4.549   4.174  11.119 -0.0328 -0.0964 -0.0189
 2117SOL    HW117984   4.519   4.221  11.196  0.0660  0.5303 -0.3608
 2117SOL    HW217985   4.516   4.085  11.135 -2.8319  0.6573 -1.5052
 2118SOL     OW17986   0.290   0.567   3.685 -0.2382  0.0292 -0.7247
 2118SOL    HW117987   0.352   0.636   3.662  1.0212  0.1286  2.9834
 2118SOL    HW217988   0.283   0.573   3.780  2.0023  2.4655 -0.6991
 2119SOL     OW17989   3.292   2.403   7.179  0.4488  0.1989 -0.1692
 2119SOL    HW117990   3.382   2.406   7.211  0.7956  0.6552 -1.2009
 2119SOL    HW217991   3.244   2.426   7.259 -1.7002 -0.9497 -1.1191
 2120SOL     OW17992   2.376   3.544   5.962 -0.7658  0.0793 -0.1377
 2120SOL    HW117993   2.358   3.516   5.873  1.5890  1.2768 -0.9684
 2120SOL    HW217994   2.394   3.459   6.003  0.9012  0.0291 -1.0194
 2121SOL     OW17995   0.558   0.510  16.218 -0.1751  0.2923  0.0406
 2121SOL    HW117996   0.589   0.596  16.248  1.4754 -1.0401  2.1583
 2121SOL    HW217997   0.588   0.453  16.289 -0.4590  0.7577  0.5335
 2122SOL     OW17998   2.316   2.546   6.053 -0.3332  0.6446  0.3387
 2122SOL    HW117999   2.273   2.600   5.987  0.0632  0.0833 -0.3704
 2122SOL    HW218000   2.356   2.487   5.989 -2.9540  0.6897 -1.3327
 2123SOL     OW18001   0.503   1.313   7.995 -0.7500 -0.0178 -0.2582
 2123SOL    HW118002   0.551   1.277   7.920 -2.2268 -0.6364 -0.9004
 2123SOL    HW218003   0.410   1.298   7.982 -1.2784  2.9656  0.2238
 2124SOL     OW18004   3.788   2.341   7.652  0.2781 -0.0298 -0.4048
 2124SOL    HW118005   3.843   2.399   7.599  0.1280 -0.5055 -1.0884
 2124SOL    HW218006   3.780   2.267   7.591  0.4361  0.5978 -1.1864
 2125SOL     OW18007   3.985   4.314   9.240  0.2388 -0.2435 -0.3105
 2125SOL    HW118008   3.907   4.287   9.191  0.5637 -2.1203  0.2099
 2125SOL    HW218009   4.054   4.298   9.175  0.1691 -2.5256  0.1693
 2126SOL     OW18010   3.563   0.379  11.538 -0.2886  0.5161  0.2818
 2126SOL    HW118011   3.535   0.389  11.447  1.2693 -0.0692 -0.2665
 2126SOL    HW218012   3.654   0.410  11.530 -0.3310  0.5329 -0.1709
 2127SOL     OW18013   3.225   2.537   9.953  0.1241  0.2389  0.4628
 2127SOL    HW118014   3.210   2.557  10.046 -0.7869 -3.2368  1.0660
 2127SOL    HW218015   3.203   2.621   9.913  0.3363 -0.7009 -1.5859
 2128SOL     OW18016   2.364   0.523   5.078  0.2923 -0.0157 -0.3416
 2128SOL    HW118017   2.435   0.502   5.139 -1.2941 -0.0560  1.4486
 2128SOL    HW218018   2.326   0.436   5.067 -0.0419  0.4087 -2.5888
 2129SOL     OW18019   0.437   0.222  10.948 -0.1319 -0.2601  0.2274
 2129SOL    HW118020   0.419   0.133  10.978  2.1980 -0.9369 -0.4205
 2129SOL    HW218021   0.403   0.215  10.859  0.9125  1.2394 -0.2745
 2130SOL     OW18022   2.923   2.413   0.957 -0.3150  0.2347  0.5289
 2130SOL    HW118023   2.981   2.442   1.027 -0.6224 -1.4242  1.4701
 2130SOL    HW218024   2.966   2.451   0.881 -1.1362  0.2791  0.0817
 2131SOL     OW18025   0.479   1.308  15.715  0.2441 -0.0974 -0.7790
 2131SOL    HW118026   0.395   1.291  15.672  0.5010 -0.4653 -1.1337
 2131SOL    HW218027   0.507   1.217  15.717 -0.2130 -0.2444 -1.0972
 2132SOL     OW18028   3.044   1.031   7.375 -0.4985  0.0540  0.0912
 2132SOL    HW118029   3.109   1.097   7.351  0.3255  0.2638  2.8498
 2132SOL    HW218030   3.019   1.071   7.458 -0.6882 -1.8540  0.9467
 2133SOL     OW18031   3.546   1.713   6.046  0.1103  0.4776 -0.3851
 2133SOL    HW118032   3.574   1.773   5.976  0.0633  0.1139 -0.7136
 2133SOL    HW218033   3.621   1.654   6.059  0.1950  0.7834  0.5497
 2134SOL     OW18034   0.738   2.023   2.466 -0.3981  0.1054  0.2304
 2134SOL    HW118035   0.734   2.103   2.415  0.7539 -1.6596 -2.5823
 2134SOL    HW218036   0.833   2.012   2.474 -0.3747  0.2302  0.1119
 2135SOL     OW18037   1.752   2.767   2.440  0.1460 -0.7501  0.7870
 2135SOL    HW118038   1.817   2.764   2.369  0.9786  3.2518  1.3760
 2135SOL    HW218039   1.723   2.858   2.437 -0.1950 -0.9200 -1.4092
 2136SOL     OW18040   1.279   3.681   6.159 -0.0015 -0.3020 -0.0797
 2136SOL    HW118041   1.374   3.670   6.158  0.1219  0.8819 -2.9552
 2136SOL    HW218042   1.274   3.776   6.161  0.5087 -0.2864  0.3694
 2137SOL     OW18043   0.168   3.697   7.596 -0.2113 -0.2731  0.1593
 2137SOL    HW118044   0.175   3.792   7.609 -0.8911 -0.2170  0.0892
 2137SOL    HW218045   0.246   3.685   7.541 -0.8456 -2.0526 -0.3573
 2138SOL     OW18046   2.590   2.642  14.814 -0.3810  0.4114  0.0955
 2138SOL    HW118047   2.568   2.717  14.870  0.8734  1.9386 -1.4524
 2138SOL    HW218048   2.507   2.603  14.786 -0.1665 -0.0736  0.1464
 2139SOL     OW18049   2.592   2.964  11.064 -0.4940  0.2059 -0.3126
 2139SOL    HW118050   2.562   2.950  11.154 -1.1020  2.0331 -0.2388
 2139SOL    HW218051   2.517   3.013  11.030  1.1585  3.2714  0.5232
 2140SOL     OW18052   0.723   1.632  15.999  0.0940 -0.4573  0.1282
 2140SOL    HW118053   0.642   1.580  15.992  0.0930 -0.1040 -2.8630
 2140SOL    HW218054   0.703   1.709  15.946 -2.3672 -1.7559 -0.8672
 2141SOL     OW18055   2.652   1.127   2.475 -0.2209 -0.5977  0.4074
 2141SOL    HW118056   2.666   1.192   2.544  2.3021  0.2506 -0.9063
 2141SOL    HW218057   2.727   1.151   2.422  0.9935  1.6631  3.1467
 2142SOL     OW18058   3.647   0.127   4.429  0.4354 -0.2797 -0.0925
 2142SOL    HW118059   3.552   0.123   4.422  0.7159 -0.3550 -3.5955
 2142SOL    HW218060   3.663   0.033   4.430 -0.1720 -0.3671  2.5840
 2143SOL     OW18061   2.118   1.450   8.788  0.1787  0.3904  0.0611
 2143SOL    HW118062   2.148   1.359   8.781  0.6023  0.4487  1.1504
 2143SOL    HW218063   2.147   1.486   8.704  2.2742 -1.6510 -0.0939
 2144SOL     OW18064   1.116   2.784   2.221 -0.3644  0.0986  0.0661
 2144SOL    HW118065   1.176   2.722   2.263 -2.7597 -1.6337  0.9101
 2144SOL    HW218066   1.034   2.776   2.269 -0.8580  0.6139 -0.6948
 2145SOL     OW18067   4.583   2.259   4.533  0.7400  0.2619 -0.1774
 2145SOL    HW118068   4.506   2.314   4.546  0.8103  0.3455 -0.1122
 2145SOL    HW218069   4.569   2.206   4.454 -0.7256  1.1401 -0.4995
 2146SOL     OW18070   2.813   4.427   8.504  0.6646 -0.1578 -0.2103
 2146SOL    HW118071   2.880   4.479   8.549 -0.1855  0.1183  0.7241
 2146SOL    HW218072   2.840   4.346   8.548 -1.0600 -0.5367  0.1420
 2147SOL     OW18073   0.513   3.429  16.608  0.1131 -0.4848 -0.2174
 2147SOL    HW118074   0.556   3.433  16.694 -0.1641  0.3854 -0.1148
 2147SOL    HW218075   0.450   3.500  16.618  0.2573 -0.5114  0.9428
 2148SOL     OW18076   3.958   0.196   8.354 -0.3701 -0.2515 -0.2152
 2148SOL    HW118077   3.966   0.282   8.314  0.0707 -0.6934 -1.0795
 2148SOL    HW218078   3.873   0.172   8.317 -0.9200 -1.2205  1.6568
 2149SOL     OW18079   3.606   1.745   5.049 -0.5286  0.7402 -0.4303
 2149SOL    HW118080   3.589   1.652   5.065  0.2150  1.4558  4.5726
 2149SOL    HW218081   3.544   1.759   4.978  0.3089 -0.3651 -1.3871
 2150SOL     OW18082   0.297   1.749   6.213 -0.1767 -0.1561  0.0866
 2150SOL    HW118083   0.355   1.682   6.176  1.0436  0.4995  0.8301
 2150SOL    HW218084   0.291   1.724   6.305 -0.6355 -0.4516 -0.0259
 2151SOL     OW18085   4.129   2.854   6.114 -0.0203 -0.2126  0.7708
 2151SOL    HW118086   4.202   2.802   6.147 -1.8392 -2.1374  1.7294
 2151SOL    HW218087   4.130   2.924   6.180  2.0801  1.0810 -0.6577
 2152SOL     OW18088   0.554   3.800   8.255 -0.5280  0.4596  0.1928
 2152SOL    HW118089   0.586   3.890   8.245 -1.1397  0.3466 -2.6979
 2152SOL    HW218090   0.606   3.760   8.185 -1.2728  0.4207 -0.3388
 2153SOL     OW18091   0.659   3.050   4.006  0.2070  0.5226 -0.9785
 2153SOL    HW118092   0.739   3.103   3.995 -0.4238  1.4701 -0.9553
 2153SOL    HW218093   0.670   3.031   4.099  0.5954  0.4405 -1.0378
 2154SOL     OW18094   4.491   3.732   3.027 -0.1234  0.2483  0.1826
 2154SOL    HW118095   4.469   3.701   2.939 -1.6665 -0.3857  0.7964
 2154SOL    HW218096   4.410   3.703   3.069 -0.7314  3.7648  1.4347
 2155SOL     OW18097   3.345   3.734   2.251  0.3627 -0.1626  0.7538
 2155SOL    HW118098   3.284   3.768   2.185  2.3078  1.6134 -0.1099
 2155SOL    HW218099   3.434   3.744   2.218 -0.1742 -1.5401 -1.1250
 2156SOL     OW18100   0.288   0.100   8.911 -0.8069 -0.0575 -0.0914
 2156SOL    HW118101   0.219   0.060   8.965  0.3145 -0.1321  1.2992
 2156SOL    HW218102   0.252   0.097   8.823 -0.7763 -0.8264 -0.0752
 2157SOL     OW18103   1.602   2.266   0.089 -0.5638  0.0308 -0.2618
 2157SOL    HW118104   1.630   2.334   0.150 -1.9907  1.2557 -0.9714
 2157SOL    HW218105   1.563   2.206   0.153  1.3372 -0.1402  0.7548
 2158SOL     OW18106   4.221   3.583   9.576 -0.4617  0.0163 -0.5535
 2158SOL    HW118107   4.293   3.528   9.543  1.1505  2.5820 -1.2743
 2158SOL    HW218108   4.268   3.656   9.617  0.4697  0.7699 -2.9512
 2159SOL     OW18109   2.844   0.160   7.633 -0.0127  0.1282 -0.0194
 2159SOL    HW118110   2.779   0.091   7.625  0.4606 -0.5031  1.7235
 2159SOL    HW218111   2.919   0.110   7.664  0.8803 -0.3481 -2.9066
 2160SOL     OW18112   1.665   0.677  15.821  0.1876  0.1821 -0.2920
 2160SOL    HW118113   1.603   0.741  15.785 -1.0119 -0.7755  0.0495
 2160SOL    HW218114   1.667   0.707  15.911  1.2855  0.6808 -0.4809
 2161SOL     OW18115   3.098   0.618   4.329  0.1717 -0.0436  0.1132
 2161SOL    HW118116   3.128   0.663   4.408  0.2659 -1.9307  1.1422
 2161SOL    HW218117   3.005   0.616   4.351 -0.2762 -0.1812 -1.7896
 2162SOL     OW18118   2.552   0.616   5.892 -0.1482  0.4389  0.0074
 2162SOL    HW118119   2.573   0.607   5.985 -0.4614  2.4131  0.2566
 2162SOL    HW218120   2.585   0.704   5.875  0.7463  0.0769 -0.1651
 2163SOL     OW18121   1.101   3.109   4.092  0.2338  0.2779 -0.1126
 2163SOL    HW118122   1.028   3.051   4.113 -0.4367  0.4855 -1.9128
 2163SOL    HW218123   1.056   3.193   4.082 -0.1119  0.2661  1.3378
 2164SOL     OW18124   4.273   4.547  10.978 -0.0045  0.3396  0.1022
 2164SOL    HW118125   4.306   4.458  10.960  1.2205  1.1033 -1.3859
 2164SOL    HW218126   4.244   4.529  11.067  2.5395 -0.7883  0.7168
 2165SOL     OW18127   4.133   1.592   7.061  0.1653 -0.3533  0.3587
 2165SOL    HW118128   4.068   1.524   7.044 -0.5907  0.6258 -0.6268
 2165SOL    HW218129   4.212   1.547   7.031  0.7760  0.3911  0.8378
 2166SOL     OW18130   1.707   0.617   2.680  0.5213  0.1709 -0.0565
 2166SOL    HW118131   1.706   0.694   2.737  1.7977 -0.2579  0.5393
 2166SOL    HW218132   1.641   0.565   2.726  0.5625  1.3422  1.3501
 2167SOL     OW18133   3.003   3.138   7.999 -0.1053  0.2966  0.2607
 2167SOL    HW118134   3.042   3.225   7.999  1.3057 -0.3434 -1.7266
 2167SOL    HW218135   2.912   3.149   8.024 -1.2401 -4.0007 -1.8826
 2168SOL     OW18136   3.838   2.544   2.262  0.2745 -0.2046  0.1146
 2168SOL    HW118137   3.762   2.537   2.319  0.2501 -1.8594 -0.1362
 2168SOL    HW218138   3.902   2.571   2.329 -0.0662 -1.1863  0.8205
 2169SOL     OW18139   1.119   2.195   6.986 -0.0857  0.1849  0.1693
 2169SOL    HW118140   1.166   2.142   7.051  1.7349  2.1942  0.4921
 2169SOL    HW218141   1.073   2.262   7.037 -0.8120 -1.8270  2.1643
 2170SOL     OW18142   4.703   3.314   3.978 -0.4205 -0.3091 -0.2938
 2170SOL    HW118143   0.028   3.351   4.040  0.8704 -1.2621 -1.0372
 2170SOL    HW218144   0.030   3.290   3.912  1.0510  1.9469  0.3162
 2171SOL     OW18145   3.746   2.421  10.455 -0.7377 -0.1289 -0.1250
 2171SOL    HW118146   3.686   2.404  10.527  0.0228 -1.5246  0.1718
 2171SOL    HW218147   3.824   2.374  10.484 -1.7333 -2.9653 -2.0168
 2172SOL     OW18148   2.169   1.705   7.218  0.3861  0.2141 -1.1138
 2172SOL    HW118149   2.133   1.631   7.170 -0.8435  0.8032 -1.0806
 2172SOL    HW218150   2.200   1.748   7.139 -2.1539  1.0849 -1.6307
 2173SOL     OW18151   1.622   2.042  10.173  0.4602 -0.2082  0.4554
 2173SOL    HW118152   1.541   2.070  10.216 -0.9011 -2.7120 -0.4939
 2173SOL    HW218153   1.691   2.073  10.232  2.1930 -1.7669 -0.7454
 2174SOL     OW18154   1.544   2.607  11.401  0.2372 -0.0211 -0.4618
 2174SOL    HW118155   1.563   2.519  11.369 -0.7724 -0.5459  0.3778
 2174SOL    HW218156   1.627   2.649  11.426 -0.6456  1.0790  0.6366
 2175SOL     OW18157   1.121   4.404   7.761  0.7238  0.0044  0.2344
 2175SOL    HW118158   1.183   4.360   7.703 -0.7483 -0.7113 -0.8035
 2175SOL    HW218159   1.166   4.482   7.793  1.3631  0.3562 -1.5273
 2176SOL     OW18160   2.685   4.008  17.182 -0.0975 -0.0752  0.1536
 2176SOL    HW118161   2.749   4.037  17.247 -1.3786 -1.5172  2.0763
 2176SOL    HW218162   2.743   3.996  17.107 -0.9379 -0.7987 -0.3860
 2177SOL     OW18163   0.132   4.724   9.624  0.4231 -0.0108 -0.1944
 2177SOL    HW118164   0.124   0.073   9.664  1.9273 -0.7216  1.5972
 2177SOL    HW218165   0.109   4.666   9.696 -0.9544 -0.3509 -0.8962
 2178SOL     OW18166   1.852   3.697   8.109  0.1167 -0.0359  0.5170
 2178SOL    HW118167   1.832   3.658   8.194  0.1851 -0.9827  0.1029
 2178SOL    HW218168   1.821   3.628   8.050 -2.0292  1.2265  0.1593
 2179SOL     OW18169   0.125   3.649   7.927  0.4843 -0.3102 -0.2225
 2179SOL    HW118170   0.170   3.648   8.012 -0.0769  0.6279  0.0736
 2179SOL    HW218171   0.091   3.738   7.919 -2.3724 -1.5907 -2.0247
 2180SOL     OW18172   2.363   1.101   7.658 -0.0061 -1.1997  0.6131
 2180SOL    HW118173   2.454   1.097   7.686  0.0836  1.8768  0.7272
 2180SOL    HW218174   2.356   1.048   7.579  1.6388  2.6224 -2.0630
 2181SOL     OW18175   3.246   3.750  17.076 -0.1323  0.3841  0.2080
 2181SOL    HW118176   3.177   3.746  17.011 -0.1896  2.3140  0.1514
 2181SOL    HW218177   3.198   3.727  17.156 -0.0996 -0.3107  0.0282
 2182SOL     OW18178   3.175   1.014   6.736 -0.7043 -0.1651  0.4143
 2182SOL    HW118179   3.170   1.106   6.759 -3.7001  0.0179 -1.0610
 2182SOL    HW218180   3.263   1.001   6.700 -0.6636 -2.0202  1.1772
 2183SOL     OW18181   2.252   0.975   3.339  0.9025  0.0216 -0.5740
 2183SOL    HW118182   2.246   1.038   3.266  0.1233 -0.6105 -1.0539
 2183SOL    HW218183   2.160   0.959   3.359  0.8251  0.0481 -0.9076
 2184SOL     OW18184   1.749   1.682  12.966 -0.2692 -0.3183  0.5391
 2184SOL    HW118185   1.669   1.694  13.017 -1.0405  5.2104 -1.9554
 2184SOL    HW218186   1.726   1.721  12.881  1.0654  3.3163  1.8492
 2185SOL     OW18187   3.721   0.599   4.057  0.1581 -0.3548 -0.2703
 2185SOL    HW118188   3.628   0.596   4.080  0.7464 -0.1550  2.1830
 2185SOL    HW218189   3.728   0.693   4.043 -0.7761 -0.3321 -0.5921
 2186SOL     OW18190   1.629   3.139   9.930 -0.1204 -0.8987  0.2090
 2186SOL    HW118191   1.585   3.116  10.012  0.6485 -0.5551  0.7181
 2186SOL    HW218192   1.573   3.102   9.862 -0.3928 -0.4794  0.2057
 2187SOL     OW18193   1.100   0.240   9.899  0.3645  0.1378  0.3371
 2187SOL    HW118194   1.160   0.177   9.939 -0.2512 -1.1553 -0.7666
 2187SOL    HW218195   1.055   0.280   9.974  0.1373  1.3777 -0.4517
 2188SOL     OW18196   0.024   2.962   3.910  0.1526  0.2626 -0.0295
 2188SOL    HW118197   0.014   2.913   3.992  0.8353  0.9762  0.4737
 2188SOL    HW218198   0.038   2.890   3.849  0.4435  0.8797 -0.6911
 2189SOL     OW18199   3.462   4.209   2.601 -0.2649  0.5100 -0.3848
 2189SOL    HW118200   3.384   4.165   2.633 -0.3690  1.4605  0.6680
 2189SOL    HW218201   3.475   4.170   2.515  0.6579  0.7935 -0.3773
 2190SOL     OW18202   0.505   0.993   2.017 -0.5851  0.0449  0.4157
 2190SOL    HW118203   0.558   0.932   1.966 -2.3839 -1.3241  0.1795
 2190SOL    HW218204   0.432   0.938   2.047 -0.8062  0.3996  0.5248
 2191SOL     OW18205   1.025   1.730  14.403  0.0828 -0.3210 -0.4144
 2191SOL    HW118206   1.002   1.661  14.342 -3.6454 -0.3132  1.0013
 2191SOL    HW218207   1.109   1.766  14.373  1.0521 -1.3127  1.0993
 2192SOL     OW18208   2.516   3.222  11.316  0.6671  0.1159  0.1153
 2192SOL    HW118209   2.492   3.193  11.228  2.6004  0.5725 -0.5569
 2192SOL    HW218210   2.464   3.168  11.375 -0.7578  0.0994 -1.1678
 2193SOL     OW18211   2.694   3.813   4.185  0.1289  0.1422 -0.3241
 2193SOL    HW118212   2.693   3.719   4.170  3.1294 -0.0370  0.5042
 2193SOL    HW218213   2.782   3.848   4.170  0.8637 -1.3686  0.4438
 2194SOL     OW18214   2.363   3.936   6.557 -0.0740  0.5903  0.2039
 2194SOL    HW118215   2.352   3.935   6.652  1.4057  0.2110  0.3797
 2194SOL    HW218216   2.459   3.932   6.551 -0.1426 -3.5385  1.8778
 2195SOL     OW18217   3.176   0.315   1.360  0.1675 -0.2486 -0.5463
 2195SOL    HW118218   3.152   0.348   1.447  1.2912 -0.5625 -0.1290
 2195SOL    HW218219   3.262   0.276   1.374  0.0583 -0.5559 -0.7359
 2196SOL     OW18220   3.782   3.121  10.986 -0.1284  0.2995 -0.0793
 2196SOL    HW118221   3.693   3.111  10.952  0.4429  0.8757 -1.7519
 2196SOL    HW218222   3.776   3.071  11.067 -0.3072  0.9043  0.2867
 2197SOL     OW18223   1.120   4.161  10.802  0.0184 -0.3347 -0.2860
 2197SOL    HW118224   1.200   4.136  10.755  0.9835  1.1634  0.5749
 2197SOL    HW218225   1.056   4.113  10.749  0.4615 -1.3195  0.0647
 2198SOL     OW18226   4.621   3.984   3.807  0.0691 -0.4674  0.3894
 2198SOL    HW118227   4.540   4.023   3.772  0.2793 -0.7298 -0.3962
 2198SOL    HW218228   4.588   3.912   3.861  1.0577 -0.3555  1.1422
 2199SOL     OW18229   2.341   3.851  11.852 -0.4610  0.0328  0.4824
 2199SOL    HW118230   2.251   3.884  11.847 -0.2946  0.5570  1.0365
 2199SOL    HW218231   2.384   3.861  11.767  1.7976  2.1016  1.8675
 2200SOL     OW18232   1.976   2.973   7.042 -0.5124  0.2364  0.7551
 2200SOL    HW118233   2.000   2.887   7.007 -2.1516 -0.0707  0.4016
 2200SOL    HW218234   2.024   3.031   6.983  0.1533 -0.7188  0.3566
 2201SOL     OW18235   3.361   1.113   9.970  0.0722  0.4897  0.1384
 2201SOL    HW118236   3.416   1.148   9.899 -0.1042  2.2850  0.8857
 2201SOL    HW218237   3.382   1.166  10.047  0.3735  1.8371 -0.8625
 2202SOL     OW18238   4.435   0.831   0.104 -0.4238  0.3870  0.3473
 2202SOL    HW118239   4.357   0.782   0.129 -1.1705  1.8826  0.9512
 2202SOL    HW218240   4.423   0.921   0.132 -1.0586  1.1115 -2.2427
 2203SOL     OW18241   2.096   1.834   3.740  0.5654 -0.3050  0.1859
 2203SOL    HW118242   2.069   1.803   3.653  1.3393  0.2897 -0.2677
 2203SOL    HW218243   2.136   1.919   3.722 -1.2443  0.8428  1.5779
 2204SOL     OW18244   2.481   3.551   5.073  0.0243  0.4647  0.1209
 2204SOL    HW118245   2.473   3.502   5.154 -0.0867 -0.6559 -0.5720
 2204SOL    HW218246   2.441   3.632   5.104  0.4890  0.2292  1.3542
 2205SOL     OW18247   2.123   2.528   2.913  0.9960 -0.3432 -0.2512
 2205SOL    HW118248   2.093   2.587   2.843  0.4735 -0.2347  0.0708
 2205SOL    HW218249   2.150   2.453   2.859 -0.3312 -1.4190  0.5766
 2206SOL     OW18250   0.939   0.415  11.159 -0.0893  0.4074 -0.1460
 2206SOL    HW118251   0.861   0.455  11.195  0.6141  0.1345  1.6783
 2206SOL    HW218252   0.977   0.378  11.239 -1.3624  0.5549  0.5277
 2207SOL     OW18253   3.304   2.493   6.199 -0.0973  0.9181 -0.3492
 2207SOL    HW118254   3.229   2.442   6.168  2.4813 -2.6565 -0.7234
 2207SOL    HW218255   3.316   2.442   6.279  0.0831  1.5964  0.0568
 2208SOL     OW18256   1.629   4.642   3.878  0.0375 -0.0511 -0.3829
 2208SOL    HW118257   1.669   4.704   3.939  0.0332 -0.2250 -0.2074
 2208SOL    HW218258   1.655   4.558   3.915 -0.6577 -0.5804 -1.0731
 2209SOL     OW18259   1.351   4.113  10.670 -0.2014 -0.0824 -0.0199
 2209SOL    HW118260   1.407   4.147  10.740  0.4026 -0.8009 -0.1569
 2209SOL    HW218261   1.416   4.075  10.610 -0.0762 -2.0348  1.3729
 2210SOL     OW18262   1.182   1.352   1.493 -0.2428  0.0546  0.0069
 2210SOL    HW118263   1.195   1.266   1.453  0.8544 -0.1296  0.7828
 2210SOL    HW218264   1.126   1.333   1.568 -0.9922 -0.0965 -0.5857
 2211SOL     OW18265   2.064   3.388   3.091 -0.4930 -0.2914 -0.5120
 2211SOL    HW118266   2.119   3.392   3.169 -1.5640 -1.1357  0.2926
 2211SOL    HW218267   2.051   3.293   3.093  1.2868 -0.5173 -0.3407
 2212SOL     OW18268   2.537   1.933  13.889 -0.0135  0.2554 -0.4129
 2212SOL    HW118269   2.476   1.890  13.830 -0.8503  0.0341  0.6079
 2212SOL    HW218270   2.572   1.855  13.932  1.1177  1.6597  1.2184
 2213SOL     OW18271   3.896   1.559   3.997  0.3991 -0.1570  0.7308
 2213SOL    HW118272   3.887   1.465   3.981  3.3110 -0.3178  0.0094
 2213SOL    HW218273   3.906   1.595   3.909 -1.4801 -0.4290  0.4127
 2214SOL     OW18274   2.499   4.331   3.449  0.3818  0.1032 -0.5667
 2214SOL    HW118275   2.490   4.387   3.373  0.2337  0.4692 -0.2760
 2214SOL    HW218276   2.451   4.253   3.421 -1.1753  1.2058 -0.9087
 2215SOL     OW18277   0.307   2.151   5.976  0.0322  0.0610  0.3511
 2215SOL    HW118278   0.285   2.159   5.883 -0.0796 -1.6493  0.2276
 2215SOL    HW218279   0.399   2.177   5.978  0.0229  0.2867 -1.7440
 2216SOL     OW18280   0.517   1.384   3.469  0.2426  0.3972 -0.3107
 2216SOL    HW118281   0.605   1.413   3.492 -0.1632  0.9690  0.4940
 2216SOL    HW218282   0.524   1.388   3.373  1.8549 -2.6891 -0.3367
 2217SOL     OW18283   3.648   2.042  16.499 -0.5932  0.0133 -0.4569
 2217SOL    HW118284   3.567   2.030  16.450 -0.8636 -2.0005  0.4851
 2217SOL    HW218285   3.627   2.018  16.590 -2.8469  0.1028 -0.9586
 2218SOL     OW18286   4.718   3.385   4.802  0.2216  0.7252  0.4343
 2218SOL    HW118287   4.695   3.357   4.890 -1.3520 -1.0016 -0.5339
 2218SOL    HW218288   4.735   3.305   4.752 -0.1656  1.7613 -1.3597
 2219SOL     OW18289   2.293   2.624   3.117 -0.2148 -0.0686 -0.1869
 2219SOL    HW118290   2.220   2.650   3.173 -0.6993 -0.0506 -0.8250
 2219SOL    HW218291   2.255   2.581   3.040  1.4234 -0.0434 -1.0207
 2220SOL     OW18292   2.495   3.643  15.848 -0.2340  0.0893 -0.3752
 2220SOL    HW118293   2.420   3.642  15.789 -1.2973 -0.3558  1.0037
 2220SOL    HW218294   2.549   3.571  15.815 -1.6701 -0.2183 -2.0565
 2221SOL     OW18295   0.995   0.046   1.228 -0.4383  0.1528  0.0592
 2221SOL    HW118296   1.009   0.119   1.288 -2.9221  0.1760  0.6036
 2221SOL    HW218297   0.912   0.014   1.262 -0.1491 -0.2220  0.4043
 2222SOL     OW18298   0.182   2.100   4.866  0.0674 -0.0036 -0.0306
 2222SOL    HW118299   0.099   2.114   4.912 -0.0907 -0.0696 -0.2885
 2222SOL    HW218300   0.155   2.101   4.774  1.3391  0.2977 -0.3937
 2223SOL     OW18301   4.449   1.954   7.244 -0.0029  0.2978 -0.2347
 2223SOL    HW118302   4.459   1.932   7.336  1.1012 -1.9846 -0.8900
 2223SOL    HW218303   4.396   1.879   7.217 -2.1963  1.8490 -0.2438
 2224SOL     OW18304   4.011   3.462   0.402  0.0784  0.0132 -0.3796
 2224SOL    HW118305   3.924   3.480   0.367 -0.1356  2.1726  1.3184
 2224SOL    HW218306   3.997   3.493   0.491 -0.1436 -2.1274  0.3411
 2225SOL     OW18307   3.862   2.803   7.802  0.1122 -0.3625  0.3428
 2225SOL    HW118308   3.801   2.852   7.857  1.5360 -0.1743  1.7399
 2225SOL    HW218309   3.858   2.844   7.716 -1.7036 -0.3060  0.4402
 2226SOL     OW18310   1.934   4.636   8.011  0.1622 -0.2125  0.1445
 2226SOL    HW118311   1.901   4.726   8.012  2.0327  0.4977 -1.0542
 2226SOL    HW218312   1.991   4.638   8.088 -1.8561 -0.6341  1.6449
 2227SOL     OW18313   1.717   3.831   8.770 -0.1148  0.1566 -0.1039
 2227SOL    HW118314   1.622   3.823   8.772 -0.0710 -0.2523  0.3824
 2227SOL    HW218315   1.729   3.904   8.708  0.8262  0.8814  0.9387
 2228SOL     OW18316   1.204   1.556   5.866  0.4857 -0.1242 -0.6539
 2228SOL    HW118317   1.127   1.588   5.913  0.4672 -2.3403  0.7959
 2228SOL    HW218318   1.273   1.620   5.883  1.4214 -1.4096  0.3561
 2229SOL     OW18319   2.316   3.989   5.215 -0.5023 -0.2676 -0.1912
 2229SOL    HW118320   2.328   4.057   5.282  0.5327 -1.6092  0.9921
 2229SOL    HW218321   2.264   3.929   5.269 -1.0128 -1.1819 -1.7096
 2230SOL     OW18322   1.905   2.606   8.407 -0.2459 -0.2438  0.1364
 2230SOL    HW118323   1.879   2.698   8.412 -0.5032 -0.2292 -1.5324
 2230SOL    HW218324   1.875   2.585   8.319 -3.7587 -0.1443  1.3186
 2231SOL     OW18325   1.513   0.128   4.341  0.9569  0.8231 -0.0084
 2231SOL    HW118326   1.526   0.223   4.352  0.6211  0.6926  1.5254
 2231SOL    HW218327   1.418   0.121   4.346  0.9692  0.3337 -0.5562
 2232SOL     OW18328   3.775   2.487   4.224 -0.7681  0.1163  0.0536
 2232SOL    HW118329   3.833   2.562   4.212 -1.2674  0.6123  0.7628
 2232SOL    HW218330   3.834   2.442   4.284  0.8032 -0.4281 -1.8767
 2233SOL     OW18331   1.902   4.079   7.879 -0.2175  0.5319 -0.0590
 2233SOL    HW118332   1.996   4.095   7.871 -0.1654  0.4661  0.4449
 2233SOL    HW218333   1.892   4.120   7.964 -1.6414  0.7469 -0.3223
 2234SOL     OW18334   0.865   0.159   5.338 -0.5339 -0.4861  0.2306
 2234SOL    HW118335   0.786   0.195   5.297  1.9788  0.8576 -3.4910
 2234SOL    HW218336   0.858   0.192   5.427  1.7353  0.2491  0.1488
 2235SOL     OW18337   3.539   1.339   1.609 -0.1391  0.5052  0.2093
 2235SOL    HW118338   3.596   1.274   1.567  0.5016  0.2113  1.4998
 2235SOL    HW218339   3.602   1.405   1.640 -0.2388  0.6886  0.0164
 2236SOL     OW18340   3.511   2.653   5.074 -0.0278  0.5988  0.0079
 2236SOL    HW118341   3.474   2.737   5.101  0.3422  0.6778  0.2618
 2236SOL    HW218342   3.479   2.587   5.137  1.5507 -0.9516 -0.8080
 2237SOL     OW18343   1.907   1.065  12.165  0.7660  0.8388  0.3225
 2237SOL    HW118344   1.863   1.018  12.094  1.9110  0.0193  0.1564
 2237SOL    HW218345   1.987   1.098  12.124  0.6856 -1.7351 -1.8753
 2238SOL     OW18346   3.044   2.311   9.875 -0.2014  0.2955 -0.3030
 2238SOL    HW118347   2.973   2.350   9.925 -0.6585  1.3486 -1.7588
 2238SOL    HW218348   3.111   2.309   9.943 -0.4673 -0.1895 -0.0603
 2239SOL     OW18349   0.068   0.571   8.139 -0.0968  0.4401 -0.0825
 2239SOL    HW118350   4.732   0.607   8.189 -1.1477 -1.9415  0.0816
 2239SOL    HW218351   0.064   0.645   8.078  1.5247  1.7165  1.4007
 2240SOL     OW18352   4.249   1.488   3.968 -0.0715 -0.2486 -0.6362
 2240SOL    HW118353   4.221   1.447   4.050  1.0462 -1.8486 -1.0574
 2240SOL    HW218354   4.316   1.424   3.943 -2.4649 -2.3020 -1.8152
 2241SOL     OW18355   1.836   1.115  16.264 -0.1598  0.0400 -0.1367
 2241SOL    HW118356   1.744   1.114  16.290  0.3018 -2.2969  1.4041
 2241SOL    HW218357   1.859   1.024  16.281 -1.0663 -0.2076 -0.2668
 2242SOL     OW18358   2.868   0.045   7.283  0.0329 -0.1684  0.3124
 2242SOL    HW118359   2.878   0.089   7.199 -0.4648 -0.6125  0.0229
 2242SOL    HW218360   2.774   0.026   7.285  0.2427 -1.1746  0.5762
 2243SOL     OW18361   4.013   4.300   1.553 -0.0446  0.6403  0.1012
 2243SOL    HW118362   3.996   4.206   1.544  1.0741  0.3654  0.7544
 2243SOL    HW218363   3.922   4.328   1.562 -0.1109  0.4047  0.1568
 2244SOL     OW18364   3.015   0.074   3.952  0.0275  0.0866 -0.2315
 2244SOL    HW118365   3.041   4.726   3.986 -2.4682 -0.0005  1.4475
 2244SOL    HW218366   3.101   0.116   3.943 -0.3249  0.6255 -1.1085
 2245SOL     OW18367   3.724   1.273   9.506 -0.0495  0.3800  0.4774
 2245SOL    HW118368   3.782   1.286   9.431  1.8163 -2.8670  1.3525
 2245SOL    HW218369   3.642   1.244   9.467  0.5968 -2.2456  1.0791
 2246SOL     OW18370   4.216   4.172   5.564  0.1695 -0.4231 -0.3194
 2246SOL    HW118371   4.295   4.227   5.571 -1.4006  1.9292 -1.1550
 2246SOL    HW218372   4.243   4.105   5.626  0.3110  0.0219  0.0990
 2247SOL     OW18373   4.654   3.549   0.401 -0.0534  0.1156  0.5522
 2247SOL    HW118374   4.721   3.611   0.371 -0.5002  0.0192 -0.6662
 2247SOL    HW218375   4.601   3.532   0.323 -1.8939  1.1029  1.5745
 2248SOL     OW18376   3.910   3.497   2.632  0.2870 -0.1341  0.3681
 2248SOL    HW118377   3.927   3.415   2.679 -1.9322 -0.4170  0.6537
 2248SOL    HW218378   3.897   3.461   2.544  0.5097  3.9257 -1.2934
 2249SOL     OW18379   1.706   3.622  15.876  0.1580  0.3355 -0.3223
 2249SOL    HW118380   1.773   3.681  15.912 -0.2301  1.2552 -1.1202
 2249SOL    HW218381   1.634   3.678  15.905 -0.6325 -1.4368  1.1241
 2250SOL     OW18382   0.742   0.170  10.033  0.3823  0.4596  0.3215
 2250SOL    HW118383   0.725   0.262  10.053 -0.7587  0.1810  0.6468
 2250SOL    HW218384   0.656   0.129  10.045  0.0803  0.6031 -1.3563
 2251SOL     OW18385   2.144   3.778   2.285 -0.6710 -0.0908 -0.1378
 2251SOL    HW118386   2.074   3.769   2.221  1.5978 -0.5009 -2.5600
 2251SOL    HW218387   2.097   3.830   2.349 -0.6226  1.1120 -1.0762
 2252SOL     OW18388   1.348   4.261   8.050 -0.2458  0.5982  0.4659
 2252SOL    HW118389   1.371   4.240   8.141 -0.8801  0.7748  0.6640
 2252SOL    HW218390   1.320   4.352   8.052 -0.0362  0.6999 -0.8897
 2253SOL     OW18391   1.492   0.097   8.287 -0.2038  0.0715  0.0559
 2253SOL    HW118392   1.413   0.134   8.327  0.0351  0.8177 -0.1568
 2253SOL    HW218393   1.516   0.047   8.364 -0.6554 -0.1445  0.0599
 2254SOL     OW18394   1.533   4.160  16.204 -0.0305 -0.3684  0.1071
 2254SOL    HW118395   1.452   4.183  16.160  0.7635  0.2245 -1.0283
 2254SOL    HW218396   1.514   4.175  16.297  0.6481  2.0441 -0.1618
 2255SOL     OW18397   4.222   0.055   3.111  0.0839 -0.0656  0.0874
 2255SOL    HW118398   4.313   0.064   3.138  0.0035 -0.5369  0.5094
 2255SOL    HW218399   4.191   4.707   3.141 -0.5199  0.0292 -0.2577
 2256SOL     OW18400   2.437   2.298  12.547  0.6442  0.4316  0.1596
 2256SOL    HW118401   2.499   2.347  12.494  2.1255 -0.7444  0.7764
 2256SOL    HW218402   2.429   2.359  12.620 -0.1976  2.2762 -1.4743
 2257SOL     OW18403   0.391   4.132   3.240  0.1473  0.2801  0.4494
 2257SOL    HW118404   0.484   4.109   3.245 -0.6606 -3.3199 -0.6857
 2257SOL    HW218405   0.365   4.103   3.327  0.5255 -1.1974  0.0758
 2258SOL     OW18406   2.091   1.358  10.140  0.2538  0.3138 -0.0170
 2258SOL    HW118407   2.013   1.318  10.180  0.8082  0.3329  1.0773
 2258SOL    HW218408   2.054   1.436  10.098 -0.5395  0.5065  1.0253
 2259SOL     OW18409   2.609   1.790   0.133  0.2118 -0.0859  0.3567
 2259SOL    HW118410   2.664   1.865   0.155  1.5390 -1.3036  1.2048
 2259SOL    HW218411   2.672   1.764   0.065  1.4983 -1.3530  2.0221
 2260SOL     OW18412   2.106   0.533   6.182 -0.2083 -0.0728  0.2508
 2260SOL    HW118413   2.079   0.482   6.106 -1.3497 -1.4471  1.5678
 2260SOL    HW218414   2.025   0.585   6.190 -1.1276 -1.8984  2.9107
 2261SOL     OW18415   1.589   4.129   3.925  0.0476  0.1661  0.5143
 2261SOL    HW118416   1.495   4.129   3.944 -0.2302  1.3621 -0.8744
 2261SOL    HW218417   1.610   4.220   3.943  1.4077  0.7031 -3.6852
 2262SOL     OW18418   0.136   1.891   4.309  0.0129  0.1634 -0.3339
 2262SOL    HW118419   0.085   1.811   4.296 -0.3044  0.3987 -0.5180
 2262SOL    HW218420   0.132   1.903   4.403 -0.0951  3.1576 -0.7418
 2263SOL     OW18421   0.672   1.855   7.028  0.0999 -0.3539 -0.3289
 2263SOL    HW118422   0.676   1.815   7.115 -1.3996  1.7758  0.7229
 2263SOL    HW218423   0.765   1.858   7.005  0.2387  0.3299  0.3240
 2264SOL     OW18424   0.855   2.731   8.448  0.3677  0.6645 -0.1931
 2264SOL    HW118425   0.928   2.686   8.492 -0.0578  1.1842  1.0302
 2264SOL    HW218426   0.784   2.714   8.509 -0.6367 -1.0852 -1.8330
 2265SOL     OW18427   4.093   3.440   9.356  0.0458 -0.0049 -0.4861
 2265SOL    HW118428   4.001   3.448   9.382  0.6398 -0.0718  1.6515
 2265SOL    HW218429   4.129   3.503   9.419 -1.1206 -0.1938  0.3806
 2266SOL     OW18430   4.088   1.867   3.110  0.2916  0.6281 -0.1465
 2266SOL    HW118431   4.102   1.778   3.142  1.4186  0.6106 -0.6943
 2266SOL    HW218432   4.163   1.882   3.052  0.1989 -2.3422 -1.0227
 2267SOL     OW18433   3.524   1.212   3.263 -0.4879 -0.2157  0.8491
 2267SOL    HW118434   3.516   1.294   3.213  3.9629  0.4562  1.2288
 2267SOL    HW218435   3.543   1.251   3.348 -2.4796 -0.1513  1.2736
 2268SOL     OW18436   0.925   4.566  10.479  0.2214  0.0075  0.8019
 2268SOL    HW118437   0.932   4.532  10.568  0.0692 -0.1972  0.7356
 2268SOL    HW218438   0.968   4.651  10.482 -2.6721  1.4556  1.4565
 2269SOL     OW18439   1.375   1.563   7.413  0.5226 -0.2852  0.2731
 2269SOL    HW118440   1.385   1.520   7.328 -1.0253 -0.1197  0.0001
 2269SOL    HW218441   1.363   1.477   7.454  0.9658 -0.1993  0.5805
 2270SOL     OW18442   1.367   2.136   1.762  0.1810  0.3590  0.6643
 2270SOL    HW118443   1.272   2.129   1.754  0.2553 -0.6150  0.6084
 2270SOL    HW218444   1.385   2.228   1.778  0.4346  0.8306 -2.2786
 2271SOL     OW18445   3.358   2.932  16.233  0.2917  0.0289  0.3916
 2271SOL    HW118446   3.389   2.913  16.322 -2.0948  2.3709  1.7199
 2271SOL    HW218447   3.339   2.841  16.209 -1.9001  0.1582  1.5585
 2272SOL     OW18448   4.517   0.347  14.600  0.2516 -0.0249  0.4692
 2272SOL    HW118449   4.577   0.415  14.629  2.2328 -2.2909  1.7044
 2272SOL    HW218450   4.472   0.380  14.522 -0.3220  0.9546  1.2206
 2273SOL     OW18451   4.636   3.476   6.087  0.3497  0.6491  0.5173
 2273SOL    HW118452   4.730   3.486   6.080  0.2558  1.0638 -0.1616
 2273SOL    HW218453   4.626   3.382   6.103  1.1130  0.8874  2.2899
 2274SOL     OW18454   1.957   0.721   0.270 -0.4405 -0.1684  0.1423
 2274SOL    HW118455   1.927   0.683   0.187 -1.2210 -0.8112  0.7189
 2274SOL    HW218456   1.923   0.810   0.266  0.0861 -0.0368 -1.6218
 2275SOL     OW18457   1.323   4.582   7.172  0.4369 -0.2634 -0.0425
 2275SOL    HW118458   1.338   4.645   7.243 -0.7550  1.9455 -1.7689
 2275SOL    HW218459   1.357   4.631   7.098 -0.0339 -0.1117 -0.1597
 2276SOL     OW18460   2.532   3.719   4.504 -0.1902  0.2041 -0.0636
 2276SOL    HW118461   2.510   3.645   4.447 -1.1920  0.0059  0.6004
 2276SOL    HW218462   2.486   3.705   4.586  0.7776  1.5196  0.7051
 2277SOL     OW18463   2.895   1.816   3.594  0.3775 -0.1428 -0.2811
 2277SOL    HW118464   2.874   1.892   3.648 -0.3055  0.4153 -1.3490
 2277SOL    HW218465   2.936   1.763   3.663  1.4882  1.0266 -0.0386
 2278SOL     OW18466   3.323   3.068   5.287 -0.6238 -0.1567  0.6138
 2278SOL    HW118467   3.363   3.061   5.374  1.4181  1.9822 -0.1373
 2278SOL    HW218468   3.308   2.983   5.247 -2.8504  0.1989  0.7355
 2279SOL     OW18469   3.633   3.047  15.242  0.1175  0.0882  0.1648
 2279SOL    HW118470   3.561   3.017  15.296 -2.3774  5.2128 -0.2540
 2279SOL    HW218471   3.708   3.060  15.301  0.1939  2.7854 -0.5272
 2280SOL     OW18472   3.263   3.096  11.468  0.3170 -0.3821  0.5248
 2280SOL    HW118473   3.213   3.167  11.507  2.7865  2.1794 -0.9860
 2280SOL    HW218474   3.203   3.069  11.398 -1.3039  0.5979  1.5440
 2281SOL     OW18475   2.315   4.138   3.387  0.0822 -0.7329  0.3806
 2281SOL    HW118476   2.332   4.062   3.443  2.1974 -0.2331  0.3800
 2281SOL    HW218477   2.250   4.107   3.324 -0.4057  1.0654 -0.0007
 2282SOL     OW18478   3.347   2.723   1.004 -0.2055  0.1131  0.2662
 2282SOL    HW118479   3.322   2.806   1.045  0.4367  0.0490  0.7871
 2282SOL    HW218480   3.339   2.672   1.085 -0.2310  0.6751  0.6176
 2283SOL     OW18481   4.626   4.483  12.584  0.1029 -0.3751  0.3856
 2283SOL    HW118482   4.552   4.530  12.545  0.5272  0.2135  0.3002
 2283SOL    HW218483   4.601   4.392  12.566  0.7435 -0.7724  1.5381
 2284SOL     OW18484   0.812   4.111   7.222 -0.2739  0.1854  0.5805
 2284SOL    HW118485   0.877   4.172   7.257 -0.2733  0.3911  0.2188
 2284SOL    HW218486   0.864   4.051   7.168 -0.0271  0.1323  0.8793
 2285SOL     OW18487   3.359   0.345   7.761  0.1830  0.2482 -0.2634
 2285SOL    HW118488   3.363   0.361   7.855  2.2233 -1.8772 -0.0084
 2285SOL    HW218489   3.321   0.258   7.771  0.4259  0.1042 -0.5831
 2286SOL     OW18490   4.721   1.498   0.205  0.4844  0.2975  0.2184
 2286SOL    HW118491   0.056   1.469   0.150  1.9660 -0.2421  2.4281
 2286SOL    HW218492   4.662   1.424   0.212  1.3324 -0.4406 -0.4233
 2287SOL     OW18493   2.963   3.812   4.588  0.3126 -0.3753 -0.3215
 2287SOL    HW118494   2.929   3.740   4.534 -0.6341 -0.3974  0.3136
 2287SOL    HW218495   2.880   3.850   4.615 -0.5349 -1.3899 -1.4693
 2288SOL     OW18496   2.060   1.184  15.466  0.2432  0.3799  0.8122
 2288SOL    HW118497   2.109   1.104  15.449  0.4912  0.6570  0.2255
 2288SOL    HW218498   2.047   1.216  15.377 -1.6019 -0.5855  0.7385
 2289SOL     OW18499   2.545   1.950   7.026 -0.2995  0.3085  0.3155
 2289SOL    HW118500   2.468   1.903   7.057 -0.3912 -1.6185 -2.8250
 2289SOL    HW218501   2.522   2.042   7.041  1.0323  0.4647  1.3562
 2290SOL     OW18502   0.452   1.374   2.655 -0.3706  0.1683  0.4332
 2290SOL    HW118503   0.497   1.335   2.580  0.8670 -3.9036  3.2247
 2290SOL    HW218504   0.501   1.456   2.668 -0.3360  0.5827 -2.3823
 2291SOL     OW18505   2.411   4.180   6.792  0.3626 -0.2848 -0.4213
 2291SOL    HW118506   2.504   4.167   6.811 -0.3908 -1.3527  2.4922
 2291SOL    HW218507   2.374   4.100   6.829 -0.9520  0.9783  0.9379
 2292SOL     OW18508   0.020   3.080  15.112  0.2096 -0.0219 -0.3526
 2292SOL    HW118509   4.681   3.137  15.102  0.3977  0.2497 -0.2513
 2292SOL    HW218510   4.736   3.000  15.159  0.1164 -0.6887 -1.5223
 2293SOL     OW18511   1.186   3.387  12.250 -0.1366 -0.2753 -0.1210
 2293SOL    HW118512   1.271   3.399  12.293 -0.9576  2.4892  0.7053
 2293SOL    HW218513   1.127   3.370  12.323  1.4042 -1.4565  0.8626
 2294SOL     OW18514   1.497   2.557   4.876  0.1015  0.2901  0.2026
 2294SOL    HW118515   1.443   2.540   4.954 -1.2906  0.2195 -0.7717
 2294SOL    HW218516   1.541   2.473   4.861 -0.9053 -0.0298 -0.9316
 2295SOL     OW18517   2.538   4.618  12.151  0.4038  0.3447  0.5857
 2295SOL    HW118518   2.514   4.625  12.243  1.9296  0.8680  0.9457
 2295SOL    HW218519   2.550   4.524  12.142  1.1324  0.3893  1.1163
 2296SOL     OW18520   4.483   2.427   5.411 -0.1133  0.0977 -0.3116
 2296SOL    HW118521   4.444   2.443   5.325  3.6731  2.0574 -1.6183
 2296SOL    HW218522   4.575   2.447   5.394  0.3806 -1.4477  0.5849
 2297SOL     OW18523   2.348   2.142   7.544  0.4383  0.1172  0.2421
 2297SOL    HW118524   2.290   2.132   7.468  0.4780  0.3984  0.1769
 2297SOL    HW218525   2.306   2.214   7.591  0.7180 -1.4386  2.8474
 2298SOL     OW18526   4.306   4.292   8.177  0.3978 -0.0007 -0.2844
 2298SOL    HW118527   4.300   4.318   8.269 -0.2672  0.2973 -0.4163
 2298SOL    HW218528   4.288   4.372   8.128 -1.9426  0.2021  0.9133
 2299SOL     OW18529   0.511   2.706  13.078  0.7008  0.1435 -0.2708
 2299SOL    HW118530   0.559   2.737  13.154 -0.0661  0.4483  0.0836
 2299SOL    HW218531   0.527   2.783  13.024 -1.0770  0.1157 -0.8347
 2300SOL     OW18532   3.804   4.644  13.613  0.7429  0.4770 -0.2032
 2300SOL    HW118533   3.835   4.554  13.618 -1.3966 -0.2670 -0.2705
 2300SOL    HW218534   3.825   4.674  13.701 -1.8381 -1.3975  1.0582
 2301SOL     OW18535   3.790   2.500  12.096 -0.4767  0.4107 -0.0112
 2301SOL    HW118536   3.826   2.420  12.134 -1.0368  0.5803  0.8649
 2301SOL    HW218537   3.830   2.567  12.151  3.2042 -0.5356 -1.5501
 2302SOL     OW18538   3.189   3.360   5.769  0.3252  0.4598  0.0998
 2302SOL    HW118539   3.230   3.446   5.780 -1.9883  1.5706  0.2149
 2302SOL    HW218540   3.191   3.320   5.855 -2.5929 -1.1150 -0.5413
 2303SOL     OW18541   1.969   3.779   2.079 -0.6096  0.5060  0.0783
 2303SOL    HW118542   1.896   3.840   2.091 -2.8673 -2.5734  2.1092
 2303SOL    HW218543   1.920   3.699   2.057 -2.3470  1.6879 -0.3471
 2304SOL     OW18544   4.107   3.892  13.393  0.4476  0.2453 -0.1432
 2304SOL    HW118545   4.017   3.923  13.391  0.8086  1.4912  3.3788
 2304SOL    HW218546   4.116   3.853  13.305 -0.2852 -0.2264 -0.0149
 2305SOL     OW18547   3.188   3.467   8.969  0.4067 -0.0304 -0.1479
 2305SOL    HW118548   3.168   3.521   9.046 -1.5444 -1.9166  0.6647
 2305SOL    HW218549   3.111   3.480   8.914 -0.0861  1.2719  0.8619
 2306SOL     OW18550   3.967   3.180   0.355 -0.0576  0.0737 -0.7633
 2306SOL    HW118551   4.053   3.137   0.362  0.1484  0.6236  0.0290
 2306SOL    HW218552   3.995   3.272   0.353 -0.6014  0.2339 -1.0567
 2307SOL     OW18553   1.261   1.675   8.507 -0.3896  0.9130  0.2222
 2307SOL    HW118554   1.281   1.661   8.599 -0.4459  0.1771  0.1218
 2307SOL    HW218555   1.291   1.589   8.476 -2.2025  0.1774  0.5376
 2308SOL     OW18556   4.241   4.025   9.381  0.2350 -0.2106 -0.6341
 2308SOL    HW118557   4.222   4.051   9.291  0.0857 -3.8305 -1.6735
 2308SOL    HW218558   4.182   3.950   9.392  1.0229 -0.9307 -1.2952
 2309SOL     OW18559   3.114   2.435  14.784  0.0232 -0.7338  0.5778
 2309SOL    HW118560   3.210   2.434  14.784  0.0296  0.4311  1.3380
 2309SOL    HW218561   3.085   2.411  14.872  3.4832 -2.3429  1.2632
 2310SOL     OW18562   3.384   0.515   0.698 -0.4126 -0.3156  0.1326
 2310SOL    HW118563   3.389   0.420   0.697  3.0798 -0.1461  0.3247
 2310SOL    HW218564   3.371   0.528   0.604 -1.6070  0.1173  0.3587
 2311SOL     OW18565   3.838   2.031  16.135  0.7218  0.0311  0.0667
 2311SOL    HW118566   3.913   2.006  16.081  0.2757 -0.0582 -0.5127
 2311SOL    HW218567   3.881   2.017  16.219 -0.0998  3.2194  0.9897
 2312SOL     OW18568   0.571   3.966   1.990 -0.1476 -0.5890  0.6213
 2312SOL    HW118569   0.514   3.996   2.061 -1.1432 -0.4146 -0.2510
 2312SOL    HW218570   0.646   3.944   2.045  0.0904 -1.2170  0.0447
 2313SOL     OW18571   2.940   3.668   8.597  0.3796  0.3956 -0.3004
 2313SOL    HW118572   2.860   3.720   8.602 -1.3316 -2.5070  2.4311
 2313SOL    HW218573   2.990   3.723   8.537 -0.4394 -1.1403 -2.3931
 2314SOL     OW18574   4.079   0.467   6.405 -0.3110  0.2227 -0.6079
 2314SOL    HW118575   4.016   0.539   6.415 -2.5222 -1.7543 -0.3801
 2314SOL    HW218576   4.036   0.385   6.431  0.1303  0.2882  0.3477
 2315SOL     OW18577   4.614   4.686   4.904 -0.5835  0.0774  0.2066
 2315SOL    HW118578   4.647   4.596   4.916 -0.0958  0.2066 -0.1547
 2315SOL    HW218579   4.523   4.667   4.884 -0.3988 -0.6881  0.0604
 2316SOL     OW18580   2.447   1.731   8.416 -0.2149 -0.0243  0.0246
 2316SOL    HW118581   2.457   1.812   8.465  1.0094 -1.4100  2.0598
 2316SOL    HW218582   2.507   1.681   8.471  2.5188  3.0557 -0.2023
 2317SOL     OW18583   0.523   2.383   1.425  0.5588 -0.1274  0.0905
 2317SOL    HW118584   0.538   2.296   1.388  2.5102  1.4665 -2.8473
 2317SOL    HW218585   0.524   2.438   1.347  0.7889 -0.6532 -0.2746
 2318SOL     OW18586   2.653   4.204   4.672  0.2144 -0.7678 -0.2166
 2318SOL    HW118587   2.713   4.270   4.637  0.3851 -0.5658  0.4690
 2318SOL    HW218588   2.625   4.257   4.747 -1.4288 -1.0393 -0.6273
 2319SOL     OW18589   4.094   0.284   3.018 -0.2520  0.7555  0.6129
 2319SOL    HW118590   4.133   0.206   3.057 -1.2545  0.4686  1.0428
 2319SOL    HW218591   4.104   0.342   3.094 -2.8915  2.4087 -0.2986
 2320SOL     OW18592   0.300   2.952  15.971 -0.5975 -0.1824 -0.0411
 2320SOL    HW118593   0.219   2.926  15.926  0.5284  0.1848 -2.2739
 2320SOL    HW218594   0.277   3.040  16.001  1.5632  0.2506  0.3172
 2321SOL     OW18595   1.719   4.500   4.238  0.5094  0.1067  0.2063
 2321SOL    HW118596   1.715   4.456   4.323  0.1698 -0.7332 -0.2498
 2321SOL    HW218597   1.628   4.530   4.236  1.0857  2.0407  2.7774
 2322SOL     OW18598   3.559   1.584  15.537 -0.2568  0.2355 -0.0359
 2322SOL    HW118599   3.601   1.603  15.621 -0.0879 -0.8613  0.1215
 2322SOL    HW218600   3.557   1.489  15.531  2.8246  0.2384 -1.2653
 2323SOL     OW18601   2.952   0.624   6.801 -0.6808 -0.2237 -0.0976
 2323SOL    HW118602   3.039   0.616   6.762 -0.5791  1.4135 -0.1995
 2323SOL    HW218603   2.949   0.543   6.853 -1.6947 -1.2386 -1.7369
 2324SOL     OW18604   3.574   0.877  16.055  0.2326  0.5605  0.8428
 2324SOL    HW118605   3.493   0.838  16.087 -0.1277 -0.7451 -1.6569
 2324SOL    HW218606   3.604   0.804  16.002 -1.7171 -0.4083  1.0868
 2325SOL     OW18607   0.378   2.598   2.198  0.2965  0.0618 -0.4476
 2325SOL    HW118608   0.341   2.680   2.165  1.9006  1.5443  1.4755
 2325SOL    HW218609   0.469   2.624   2.211  0.3922 -0.4066 -0.1921
 2326SOL     OW18610   0.498   3.415   3.899  0.1761 -1.0230  0.1477
 2326SOL    HW118611   0.445   3.346   3.940 -0.0015 -1.2197 -0.4134
 2326SOL    HW218612   0.555   3.438   3.973 -0.6268  0.4738  0.3039
 2327SOL     OW18613   1.175   0.453  16.113 -0.1095  0.0143 -1.1906
 2327SOL    HW118614   1.239   0.394  16.154 -0.6814 -0.6733 -1.2791
 2327SOL    HW218615   1.197   0.447  16.020  0.6916 -1.0478 -0.9279
 2328SOL     OW18616   1.981   1.737   2.604  0.0948 -0.3485  0.1604
 2328SOL    HW118617   1.897   1.733   2.558  0.0847 -0.5125  0.1921
 2328SOL    HW218618   1.984   1.663   2.665  1.3120 -0.1445  0.3511
 2329SOL     OW18619   0.864   0.889   2.077  0.3508  0.3447 -0.1428
 2329SOL    HW118620   0.821   0.806   2.094  1.5063 -0.7218 -2.3372
 2329SOL    HW218621   0.954   0.865   2.100 -0.2181 -1.5648  0.0304
 2330SOL     OW18622   0.048   1.444   8.750 -0.5183  0.2236  0.0871
 2330SOL    HW118623   0.020   1.471   8.838  0.1528 -5.0580  1.9546
 2330SOL    HW218624   0.137   1.414   8.767 -0.9868 -1.6797 -0.8645
 2331SOL     OW18625   0.614   1.200   1.212 -0.2194  0.2744  0.2648
 2331SOL    HW118626   0.640   1.234   1.126 -0.4380  0.3979  0.2467
 2331SOL    HW218627   0.631   1.274   1.270  3.8619 -1.4558  1.2686
 2332SOL     OW18628   2.870   2.486  16.088  0.1240 -0.1133  0.2712
 2332SOL    HW118629   2.864   2.412  16.148 -2.1452  0.1854  0.4236
 2332SOL    HW218630   2.841   2.557  16.146 -0.1470  0.0702 -0.0851
 2333SOL     OW18631   3.004   1.186  11.495  0.0510 -0.4236 -0.3146
 2333SOL    HW118632   3.093   1.150  11.497  0.3799  0.5744  2.4870
 2333SOL    HW218633   2.984   1.205  11.586  3.2300 -1.4008  0.6017
 2334SOL     OW18634   1.118   2.689   6.680  0.0524 -0.1626 -0.3119
 2334SOL    HW118635   1.028   2.719   6.695 -0.2983 -1.6266  0.4375
 2334SOL    HW218636   1.172   2.733   6.746  0.6682 -1.4283  0.0146
 2335SOL     OW18637   3.739   2.685  12.601 -0.4896 -0.2084  0.9306
 2335SOL    HW118638   3.826   2.685  12.641 -1.8546  0.3663  3.9581
 2335SOL    HW218639   3.693   2.740  12.665  1.2825 -0.1331  2.1371
 2336SOL     OW18640   0.457   0.572   3.388  0.1945 -0.4793  0.0924
 2336SOL    HW118641   0.471   0.664   3.410  0.8435 -0.4863 -0.2873
 2336SOL    HW218642   0.416   0.551   3.472  1.3461  0.5057  0.8835
 2337SOL     OW18643   3.668   0.527  14.823 -0.5934 -0.5656 -0.3485
 2337SOL    HW118644   3.651   0.459  14.889  2.1071 -1.2263 -0.3553
 2337SOL    HW218645   3.763   0.520  14.826 -0.5909 -0.2769  0.2150
 2338SOL     OW18646   3.477   2.638   6.633 -0.4308 -0.2214  0.2180
 2338SOL    HW118647   3.404   2.582   6.607 -0.1906  0.6418 -2.2990
 2338SOL    HW218648   3.482   2.648   6.728 -0.2327 -2.3374  0.4356
 2339SOL     OW18649   3.056   4.023   1.383  0.1322  0.0611 -0.7911
 2339SOL    HW118650   3.052   3.953   1.447  1.7290 -1.0964 -1.9650
 2339SOL    HW218651   2.968   4.060   1.394  0.3269  0.0040  0.8319
 2340SOL     OW18652   4.237   3.385   3.087 -0.2608 -0.3290 -0.2268
 2340SOL    HW118653   4.192   3.301   3.076  0.5311 -0.6603 -0.9031
 2340SOL    HW218654   4.175   3.448   3.051  2.3256  1.4469 -1.6061
 2341SOL     OW18655   4.622   2.287  17.682  0.0021  0.8337 -0.5716
 2341SOL    HW118656   4.535   2.328  17.688 -0.4667 -0.0738 -1.2197
 2341SOL    HW218657   4.595   2.196  17.664 -1.7046  0.8593  1.7519
 2342SOL     OW18658   0.418   0.237   7.412 -0.0796 -0.0199 -1.0126
 2342SOL    HW118659   0.399   0.209   7.501  0.6068 -0.3175 -0.9577
 2342SOL    HW218660   0.441   0.327   7.433 -0.1200 -0.5141  1.1804
 2343SOL     OW18661   1.680   0.687   6.056 -0.2887 -0.3991 -0.4142
 2343SOL    HW118662   1.586   0.697   6.040 -0.1867 -0.4604 -1.0575
 2343SOL    HW218663   1.706   0.727   5.973 -0.0105 -0.9748 -0.6048
 2344SOL     OW18664   3.811   4.024   7.531 -0.1036  0.0581 -0.2939
 2344SOL    HW118665   3.851   4.037   7.444  2.4367  1.9842  1.1575
 2344SOL    HW218666   3.784   3.932   7.523 -0.9991  0.0890  2.5029
 2345SOL     OW18667   0.025   2.425   7.177  0.0042 -0.3867  0.0282
 2345SOL    HW118668   0.002   2.353   7.236 -2.0816 -0.4975 -0.9252
 2345SOL    HW218669   4.724   2.399   7.093 -0.1046 -0.7587  0.1908
 2346SOL     OW18670   1.257   2.366   3.814 -0.7401  0.1531 -0.9409
 2346SOL    HW118671   1.310   2.387   3.737 -0.7867  0.4048 -0.9021
 2346SOL    HW218672   1.173   2.388   3.774 -2.1772 -1.4089  1.1866
 2347SOL     OW18673   4.260   4.456   4.948 -0.3722  0.3656  0.4832
 2347SOL    HW118674   4.244   4.430   4.858  1.4357 -1.8499  0.7859
 2347SOL    HW218675   4.213   4.539   4.957 -4.2246 -1.7684 -0.0838
 2348SOL     OW18676   0.107   1.383   7.091  0.2055 -0.2494 -0.5379
 2348SOL    HW118677   0.162   1.458   7.114 -0.4376 -0.1675  0.7165
 2348SOL    HW218678   0.170   1.311   7.087  1.0276  0.3842  1.1027
 2349SOL     OW18679   4.007   1.154   9.554 -0.0296  0.1104 -0.6379
 2349SOL    HW118680   4.069   1.095   9.596  0.6915  0.3123 -1.4145
 2349SOL    HW218681   3.923   1.128   9.591  0.3726  0.7586  0.7100
 2350SOL     OW18682   3.716   0.807  10.606 -0.3340  0.3758 -0.0453
 2350SOL    HW118683   3.676   0.751  10.673 -0.5891 -1.0485 -1.3763
 2350SOL    HW218684   3.781   0.746  10.569 -1.2743 -1.6122  1.5655
 2351SOL     OW18685   3.177   4.320   5.666 -0.0077 -0.0947  0.2789
 2351SOL    HW118686   3.264   4.350   5.693 -0.5176  1.8959 -0.2931
 2351SOL    HW218687   3.125   4.400   5.677 -0.0412  0.3723 -3.0832
 2352SOL     OW18688   2.203   1.983   8.157  0.0458  0.1911  0.1231
 2352SOL    HW118689   2.223   1.990   8.250  1.2366  0.0585 -0.1260
 2352SOL    HW218690   2.111   2.000   8.178 -0.7416 -1.6939 -1.8017
 2353SOL     OW18691   1.069   0.513  16.374 -0.0346 -0.1962  0.0517
 2353SOL    HW118692   1.091   0.506  16.281 -0.6728 -1.9558  0.0433
 2353SOL    HW218693   1.027   0.598  16.366 -1.1628 -0.8991 -1.4602
 2354SOL     OW18694   0.532   2.537   5.821 -0.0578 -0.1107 -0.1751
 2354SOL    HW118695   0.520   2.443   5.811 -1.3816  0.2857 -2.5285
 2354SOL    HW218696   0.611   2.532   5.873  0.4311 -0.2155 -0.9270
 2355SOL     OW18697   4.199   4.672   6.789  0.5481  0.1497 -0.4320
 2355SOL    HW118698   4.194   4.695   6.882 -0.0023 -0.2392 -0.3636
 2355SOL    HW218699   4.109   4.662   6.759  0.7770 -0.8336 -0.7728
 2356SOL     OW18700   2.217   3.319  16.909  0.2493 -0.9348 -0.1460
 2356SOL    HW118701   2.158   3.393  16.895  0.4120 -0.6054  0.9335
 2356SOL    HW218702   2.214   3.315  17.004 -0.2308  2.6400 -0.0007
 2357SOL     OW18703   0.505   2.179   8.175 -0.2969 -0.1687  0.7754
 2357SOL    HW118704   0.424   2.218   8.210  0.2649  2.5260 -0.9659
 2357SOL    HW218705   0.498   2.212   8.086  1.0744  2.2053  1.5452
 2358SOL     OW18706   1.212   3.189  16.065 -0.2176 -0.5863  0.2697
 2358SOL    HW118707   1.204   3.140  15.983  1.2335 -0.3213 -0.0141
 2358SOL    HW218708   1.305   3.189  16.088 -0.3770 -1.7021  0.9146
 2359SOL     OW18709   1.971   4.345   2.914  0.0810 -0.0551  0.2467
 2359SOL    HW118710   2.012   4.358   2.999  0.2287  1.3191 -0.0327
 2359SOL    HW218711   1.879   4.369   2.927  0.2265 -1.0290  3.1356
 2360SOL     OW18712   4.218   4.548   0.566  0.4680 -0.4568  0.5751
 2360SOL    HW118713   4.193   4.476   0.624  0.2463 -1.1715 -0.4187
 2360SOL    HW218714   4.314   4.551   0.559  0.4898 -1.0540  0.6315
 2361SOL     OW18715   3.908   4.070   4.690  0.0101  0.1747 -0.0468
 2361SOL    HW118716   4.001   4.067   4.669  0.2416  1.1395  0.8673
 2361SOL    HW218717   3.907   4.120   4.772  0.6033  1.0989 -0.6024
 2362SOL     OW18718   2.352   0.432  10.376  0.2796 -0.3255  0.2678
 2362SOL    HW118719   2.283   0.373  10.406 -1.1211  0.1583 -1.9989
 2362SOL    HW218720   2.336   0.500  10.441  0.8289 -0.3463  0.4264
 2363SOL     OW18721   4.533   3.343   7.162 -0.0061 -0.5323 -0.4553
 2363SOL    HW118722   4.479   3.264   7.172  1.2111 -1.4484 -1.1567
 2363SOL    HW218723   4.531   3.379   7.251  2.4161 -1.4246 -0.0360
 2364SOL     OW18724   3.617   3.524  14.465 -0.2163 -0.2042 -0.2444
 2364SOL    HW118725   3.559   3.548  14.537  2.5425  1.6508  1.3416
 2364SOL    HW218726   3.611   3.595  14.401 -3.0105 -0.6549 -0.4893
 2365SOL     OW18727   4.594   0.226   9.549 -0.0705 -0.5458 -0.0168
 2365SOL    HW118728   4.636   0.309   9.525 -0.6709 -0.4994 -0.8882
 2365SOL    HW218729   4.648   0.192   9.621  1.4984  1.5709 -0.1934
 2366SOL     OW18730   4.111   1.792   5.840 -0.0263 -0.5804 -0.4655
 2366SOL    HW118731   4.151   1.878   5.851 -1.3694 -0.1236  0.8453
 2366SOL    HW218732   4.155   1.737   5.906  1.9052  1.8187  0.2556
 2367SOL     OW18733   2.239   1.415   8.335  1.0189 -0.1774 -0.1238
 2367SOL    HW118734   2.332   1.410   8.315  1.1458 -0.4239  0.5363
 2367SOL    HW218735   2.216   1.488   8.277 -0.9688 -2.2872 -2.0014
 2368SOL     OW18736   2.980   1.682  14.283 -0.0944  0.7447  0.4090
 2368SOL    HW118737   2.991   1.609  14.344  0.0863 -0.4056 -1.0032
 2368SOL    HW218738   2.965   1.758  14.339  0.8025  2.0299 -1.0979
 2369SOL     OW18739   1.478   1.663   9.428 -0.1454 -0.0940 -0.0167
 2369SOL    HW118740   1.552   1.716   9.458 -0.5494 -0.1382  1.0462
 2369SOL    HW218741   1.489   1.589   9.488  1.5155  0.1678  0.0028
 2370SOL     OW18742   1.353   0.251   7.943  0.3179 -0.2310  0.2688
 2370SOL    HW118743   1.334   0.230   7.851  1.0480 -3.0694  0.7703
 2370SOL    HW218744   1.440   0.222   7.971  0.8008  1.6712  0.7309
 2371SOL     OW18745   1.812   2.733  17.518  0.3308  0.1583  1.3075
 2371SOL    HW118746   1.793   2.808  17.462  2.7996  1.6858  2.4954
 2371SOL    HW218747   1.739   2.679  17.489 -0.5626  1.1538  1.6843
 2372SOL     OW18748   0.469   0.572   6.577  0.1060 -0.2788  0.3092
 2372SOL    HW118749   0.435   0.495   6.530  0.5845  0.2778 -0.9470
 2372SOL    HW218750   0.560   0.568   6.549  0.1702  0.4812  0.4304
 2373SOL     OW18751   1.938   4.172   4.395  0.0973  0.2011 -0.1612
 2373SOL    HW118752   1.863   4.218   4.433 -0.3237  0.6749 -1.5720
 2373SOL    HW218753   1.997   4.246   4.411 -1.4591  1.8711 -2.2416
 2374SOL     OW18754   2.107   2.869   0.251 -1.0395 -0.3236  0.1669
 2374SOL    HW118755   2.188   2.850   0.204 -0.8854  0.6578  0.0383
 2374SOL    HW218756   2.147   2.888   0.336  1.0866 -2.6274 -0.3002
 2375SOL     OW18757   0.602   2.213   4.299 -0.1248  0.2492  0.4833
 2375SOL    HW118758   0.548   2.281   4.259  0.1168  0.0786 -0.1320
 2375SOL    HW218759   0.647   2.180   4.221 -0.5881 -0.9913  0.7432
 2376SOL     OW18760   1.355   1.832   4.014  0.0250  0.0985 -0.3520
 2376SOL    HW118761   1.398   1.861   3.934 -1.0476  1.3655 -0.4715
 2376SOL    HW218762   1.295   1.906   4.028  2.7942  2.4145 -0.7301
 2377SOL     OW18763   4.194   2.152  12.924  0.2053  0.4345 -0.7936
 2377SOL    HW118764   4.250   2.150  12.846  2.2259 -1.6498  0.6912
 2377SOL    HW218765   4.105   2.153  12.890  0.7700  0.4489 -2.2959
 2378SOL     OW18766   1.728   4.420   2.945 -0.4856 -0.4765  0.1875
 2378SOL    HW118767   1.670   4.470   3.003  0.4949  0.2595  0.5354
 2378SOL    HW218768   1.671   4.343   2.938  0.6208 -1.3013  0.2668
 2379SOL     OW18769   0.513   1.774   4.601  0.0765 -0.0100 -0.1709
 2379SOL    HW118770   0.529   1.843   4.536 -0.3640  1.1174  0.9115
 2379SOL    HW218771   0.600   1.747   4.629  0.1619  0.5932  0.1356
 2380SOL     OW18772   0.857   3.678   2.220 -0.3132 -0.1052 -0.3107
 2380SOL    HW118773   0.894   3.732   2.290 -1.6432  1.0804 -0.5163
 2380SOL    HW218774   0.869   3.591   2.258  4.1862 -0.1657 -1.8065
 2381SOL     OW18775   0.216   3.646   9.872 -0.0232  0.3710 -0.0062
 2381SOL    HW118776   0.288   3.705   9.849  0.3871 -0.9368 -2.1183
 2381SOL    HW218777   0.197   3.667   9.963 -1.4516 -1.1254  0.0225
 2382SOL     OW18778   3.338   3.379   7.737  0.1420  0.1036 -0.3559
 2382SOL    HW118779   3.359   3.354   7.827 -1.9654  0.7372  0.3152
 2382SOL    HW218780   3.294   3.298   7.712  0.9083 -0.3923 -0.1037
 2383SOL     OW18781   0.333   4.435   6.922  0.5068 -0.2275 -0.2522
 2383SOL    HW118782   0.366   4.421   6.834  1.1047 -1.6556  0.2115
 2383SOL    HW218783   0.330   4.531   6.928 -1.0766 -0.2748 -0.3185
 2384SOL     OW18784   4.717   4.083   4.058  0.0445  0.2566  0.4903
 2384SOL    HW118785   4.696   3.997   4.092 -0.5382 -0.2105 -1.0529
 2384SOL    HW218786   4.711   4.075   3.963  3.2421 -1.5038  0.4590
 2385SOL     OW18787   0.125   1.844   9.301 -0.2469  0.6666 -0.1549
 2385SOL    HW118788   0.106   1.933   9.331  0.2643  0.6327  0.2701
 2385SOL    HW218789   0.111   1.794   9.381 -0.0040  1.8176  0.5941
 2386SOL     OW18790   2.325   4.435   6.747 -0.0619 -0.3084  0.1364
 2386SOL    HW118791   2.233   4.415   6.764 -0.3482 -0.7284 -1.9326
 2386SOL    HW218792   2.368   4.358   6.783 -2.3084 -1.5779  0.0557
 2387SOL     OW18793   0.067   0.846   4.467 -0.0125  0.8653 -0.1416
 2387SOL    HW118794   0.018   0.861   4.548 -0.0681 -1.8342  0.3067
 2387SOL    HW218795   0.135   0.914   4.465 -2.1397  2.8756 -2.7910
 2388SOL     OW18796   2.791   2.710   7.102 -0.1694  0.3203  0.6357
 2388SOL    HW118797   2.736   2.672   7.034  1.6832  0.7735 -1.1152
 2388SOL    HW218798   2.863   2.647   7.102  1.1937  1.8893 -1.1560
 2389SOL     OW18799   1.349   1.402   4.088 -0.1927  0.3173  0.1184
 2389SOL    HW118800   1.407   1.352   4.031  0.0383  0.5344  0.1663
 2389SOL    HW218801   1.413   1.443   4.146  1.6901  0.4585 -2.0803
 2390SOL     OW18802   2.479   1.707  12.419  0.0808  0.6300 -0.2280
 2390SOL    HW118803   2.465   1.712  12.514  0.0194  1.0300 -0.2579
 2390SOL    HW218804   2.484   1.800  12.394  4.1341  0.7869  1.0316
 2391SOL     OW18805   2.913   3.847   7.494 -0.6259  0.3352 -0.1982
 2391SOL    HW118806   2.983   3.830   7.557 -1.1707  0.0444  0.3307
 2391SOL    HW218807   2.892   3.759   7.463 -2.2781  0.4688  0.5238
 2392SOL     OW18808   2.841   0.956   1.593 -0.6019 -0.2658 -0.0207
 2392SOL    HW118809   2.918   0.957   1.536 -1.3788  3.2193 -1.0342
 2392SOL    HW218810   2.769   0.923   1.539 -0.9240  1.1307 -0.4532
 2393SOL     OW18811   3.673   3.140   8.132 -0.2240 -0.5998  0.0270
 2393SOL    HW118812   3.754   3.170   8.090 -0.5963 -0.5836 -0.6772
 2393SOL    HW218813   3.688   3.168   8.223  0.5531  0.2712 -0.3593
 2394SOL     OW18814   0.412   3.379  11.092  0.0094  0.1277 -0.1007
 2394SOL    HW118815   0.337   3.420  11.137 -0.9428  1.2392 -2.7053
 2394SOL    HW218816   0.408   3.406  11.000 -1.6943  3.2965  0.8899
 2395SOL     OW18817   3.182   2.691  14.470 -0.0528  0.1227 -0.0131
 2395SOL    HW118818   3.137   2.652  14.395 -0.6417  0.8078 -0.0168
 2395SOL    HW218819   3.128   2.660  14.544  1.5372 -0.2537  0.9784
 2396SOL     OW18820   4.267   0.227   6.103  1.2727 -0.2238  0.3176
 2396SOL    HW118821   4.222   0.308   6.082  1.8614  0.4784  1.7716
 2396SOL    HW218822   4.205   0.169   6.058  1.5399  1.0599 -1.6936
 2397SOL     OW18823   1.595   2.345  11.334 -0.1677  0.7985  0.0974
 2397SOL    HW118824   1.580   2.255  11.362 -2.4589  1.4501  0.9682
 2397SOL    HW218825   1.683   2.335  11.369 -0.5055  2.1658  1.3614
 2398SOL     OW18826   4.683   1.583  12.571 -0.2479  0.2353 -0.0084
 2398SOL    HW118827   4.709   1.492  12.589 -1.6163 -0.8396 -3.4503
 2398SOL    HW218828   4.695   1.627  12.655  2.9434 -0.1583 -0.2506
 2399SOL     OW18829   3.644   1.941   1.577 -0.6104  0.0830 -0.3436
 2399SOL    HW118830   3.716   1.913   1.633  1.2923  0.6184 -2.5399
 2399SOL    HW218831   3.572   1.948   1.640 -0.2065 -1.0099  0.2387
 2400SOL     OW18832   3.052   1.630  10.083  0.3584  0.3905 -0.1978
 2400SOL    HW118833   2.966   1.621  10.124  0.0862 -0.5646 -0.9824
 2400SOL    HW218834   3.043   1.722  10.055  0.4708  0.2258 -0.7693
 2401SOL     OW18835   2.399   1.481   6.716 -0.9200  0.1776 -0.0641
 2401SOL    HW118836   2.463   1.446   6.778  0.0093  1.6635 -0.1923
 2401SOL    HW218837   2.446   1.549   6.669  1.6180 -1.0195  0.7065
 2402SOL     OW18838   1.799   3.822   3.287 -0.5732 -0.0683 -0.3655
 2402SOL    HW118839   1.807   3.804   3.194  1.1532 -1.6327  0.0868
 2402SOL    HW218840   1.754   3.906   3.286 -0.9316 -0.2185  2.0625
 2403SOL     OW18841   1.485   2.145   5.589  0.1501  0.4396 -0.2077
 2403SOL    HW118842   1.422   2.124   5.658  0.0728 -0.1655 -0.4634
 2403SOL    HW218843   1.444   2.095   5.519 -1.7680  2.5189 -0.5548
 2404SOL     OW18844   0.779   2.494  11.583 -0.2138 -0.1358 -0.2663
 2404SOL    HW118845   0.728   2.522  11.508 -1.6780 -2.7174 -0.1932
 2404SOL    HW218846   0.724   2.530  11.653 -0.5572 -0.7619 -0.2240
 2405SOL     OW18847   0.138   0.678   4.276 -0.2688  0.3274  0.1092
 2405SOL    HW118848   0.108   0.733   4.348 -0.2638  0.3385  0.1028
 2405SOL    HW218849   0.165   0.596   4.317 -0.6120  2.1013  3.8528
 2406SOL     OW18850   0.009   2.977   2.994 -0.1800  0.3895 -0.2698
 2406SOL    HW118851   0.100   2.964   3.022 -0.4878 -0.6149  0.2400
 2406SOL    HW218852   4.709   3.057   3.032  0.3525  0.0917  0.9102
 2407SOL     OW18853   4.238   3.358   6.025 -0.0407  0.0513  0.1658
 2407SOL    HW118854   4.267   3.282   5.975  0.3484 -1.1975  2.2702
 2407SOL    HW218855   4.160   3.377   5.973 -1.0376 -0.6898  1.3612
 2408SOL     OW18856   0.801   4.519   5.743 -0.6639  0.0959  0.1095
 2408SOL    HW118857   0.807   4.613   5.725  1.6220 -0.4255 -1.8318
 2408SOL    HW218858   0.863   4.481   5.682 -2.6099 -0.4200 -1.5526
 2409SOL     OW18859   1.408   3.196  10.340 -0.1567  0.3891 -0.8281
 2409SOL    HW118860   1.443   3.151  10.263 -1.3365 -1.0022 -0.5583
 2409SOL    HW218861   1.382   3.277  10.297  0.0168  0.4890 -0.7492
 2410SOL     OW18862   0.814   2.288   7.413  0.0638  0.1963  0.1434
 2410SOL    HW118863   0.812   2.373   7.370 -2.1516  0.1606  0.1821
 2410SOL    HW218864   0.726   2.263   7.385 -0.0615  1.4361 -0.5561
 2411SOL     OW18865   4.558   2.323  16.169 -0.5786 -0.1722 -0.0149
 2411SOL    HW118866   4.568   2.348  16.077  1.1833  0.0521  0.2377
 2411SOL    HW218867   4.645   2.351  16.199  0.1465 -0.7762 -1.5180
 2412SOL     OW18868   3.234   4.323   4.280 -0.7200 -0.1849 -0.2960
 2412SOL    HW118869   3.281   4.255   4.233 -0.6458 -0.4108  0.1064
 2412SOL    HW218870   3.195   4.266   4.346 -1.6165 -1.8014 -2.2412
 2413SOL     OW18871   1.509   1.689  13.106 -0.1220  0.0353  0.1890
 2413SOL    HW118872   1.530   1.765  13.161 -2.9467  2.1087 -1.5333
 2413SOL    HW218873   1.427   1.727  13.072  0.5515  0.3305 -1.0851
 2414SOL     OW18874   4.366   4.503   7.014  0.3747 -0.2891  0.6175
 2414SOL    HW118875   4.391   4.488   6.923  0.5336 -1.2411  0.8193
 2414SOL    HW218876   4.447   4.475   7.057  0.3960  0.0201  0.7783
 2415SOL     OW18877   4.606   0.957   4.628  0.1072 -0.4725 -0.1541
 2415SOL    HW118878   4.594   1.050   4.608 -0.3797  0.0751  2.6369
 2415SOL    HW218879   4.562   0.915   4.554 -0.8097 -1.1817  0.8023
 2416SOL     OW18880   2.785   4.220   3.799 -0.2246 -0.4063 -0.5411
 2416SOL    HW118881   2.814   4.248   3.713  0.6769  3.9609  1.1681
 2416SOL    HW218882   2.691   4.207   3.788 -0.1034 -0.6968 -1.2147
 2417SOL     OW18883   3.126   4.169   4.478 -0.6746 -0.2253  0.5009
 2417SOL    HW118884   3.057   4.114   4.441  0.6161 -1.1870 -0.4591
 2417SOL    HW218885   3.177   4.104   4.525  1.7698  0.7141 -0.8636
 2418SOL     OW18886   3.130   1.745   7.124  0.4828 -0.3233  0.0735
 2418SOL    HW118887   3.161   1.718   7.211  0.6204 -0.8658 -0.1469
 2418SOL    HW218888   3.143   1.840   7.127  0.1726 -0.3610  2.9712
 2419SOL     OW18889   3.938   3.785   1.929 -0.2263  0.5118  0.0637
 2419SOL    HW118890   3.986   3.831   1.998  1.8596  0.7574 -1.5506
 2419SOL    HW218891   3.984   3.701   1.934  1.2061  1.3680  1.4675
 2420SOL     OW18892   0.452   1.699  17.393 -0.3128 -0.3878 -0.1305
 2420SOL    HW118893   0.382   1.645  17.430  0.6718 -1.0346  0.8124
 2420SOL    HW218894   0.504   1.634  17.346 -1.4857 -1.5926  0.2627
 2421SOL     OW18895   2.572   3.566   3.694  0.0889 -0.0076  0.0061
 2421SOL    HW118896   2.623   3.543   3.616 -1.1235 -1.1727 -0.4461
 2421SOL    HW218897   2.551   3.478   3.726  1.5719  1.3824  4.7758
 2422SOL     OW18898   4.594   0.281   5.579  0.4407  0.2212 -0.1649
 2422SOL    HW118899   4.601   0.292   5.674  2.4972 -1.2167 -0.1415
 2422SOL    HW218900   4.685   0.265   5.554 -0.6116 -4.3491 -1.0497
 2423SOL     OW18901   0.500   0.133  17.018  0.0143  0.4290  0.6264
 2423SOL    HW118902   0.517   0.227  17.019  0.5592  0.3237  1.4784
 2423SOL    HW218903   0.423   0.133  16.962 -0.3196  1.8145  1.0785
 2424SOL     OW18904   4.500   3.355   3.156 -0.2281 -0.6197 -0.1783
 2424SOL    HW118905   4.410   3.379   3.134  0.1240 -0.7673 -1.7486
 2424SOL    HW218906   4.525   3.440   3.192  2.7472  0.4198 -4.6275
 2425SOL     OW18907   3.764   1.611   1.399 -0.3951  0.2136 -0.0463
 2425SOL    HW118908   3.733   1.546   1.337  1.4472 -0.8342  0.1242
 2425SOL    HW218909   3.678   1.639   1.429 -0.3650 -1.4816  1.6342
 2426SOL     OW18910   1.720   1.507   6.718  0.1574  0.3329  0.1374
 2426SOL    HW118911   1.812   1.486   6.700  0.1996 -1.2674  2.2193
 2426SOL    HW218912   1.726   1.559   6.799  1.6668 -0.7057  0.7056
 2427SOL     OW18913   0.568   4.339   1.647  0.3843 -0.1048 -0.3310
 2427SOL    HW118914   0.571   4.312   1.739 -0.7202  1.1104  0.0771
 2427SOL    HW218915   0.512   4.417   1.645  1.1740  0.4368 -1.2034
 2428SOL     OW18916   4.054   0.493   5.350  0.1284 -0.1854 -0.2322
 2428SOL    HW118917   4.070   0.402   5.373 -0.8564  0.3897  2.7969
 2428SOL    HW218918   4.024   0.517   5.438 -0.5117 -0.0257 -0.4891
 2429SOL     OW18919   1.456   3.734   8.274  0.5071  0.3665 -0.2763
 2429SOL    HW118920   1.514   3.661   8.295  0.8427  0.1418 -1.9851
 2429SOL    HW218921   1.509   3.805   8.310  1.6146  0.8660 -2.9147
 2430SOL     OW18922   1.295   3.030   0.141  0.6794  0.4589  0.4706
 2430SOL    HW118923   1.346   3.010   0.220 -0.9510 -0.9883  1.1452
 2430SOL    HW218924   1.306   3.125   0.143  2.2981  0.2582  1.5049
 2431SOL     OW18925   4.227   0.450   3.671  0.9580  0.1058  0.4185
 2431SOL    HW118926   4.135   0.423   3.672  0.7258  0.8542 -0.2912
 2431SOL    HW218927   4.271   0.371   3.642 -0.3188 -0.1614 -0.8243
 2432SOL     OW18928   0.845   3.966   3.879 -0.1350  0.0035  0.6165
 2432SOL    HW118929   0.927   3.956   3.831 -0.6092  0.3362 -0.2767
 2432SOL    HW218930   0.802   3.882   3.865  0.1204  0.3882 -2.4022
 2433SOL     OW18931   4.360   1.925   4.214 -0.5089 -0.1067  0.0814
 2433SOL    HW118932   4.343   1.853   4.154  1.6732  0.2036 -0.9086
 2433SOL    HW218933   4.331   2.000   4.162  1.1108  0.5571  0.1324
 2434SOL     OW18934   1.622   3.089   3.334 -0.6238 -0.1520 -0.1402
 2434SOL    HW118935   1.683   3.162   3.343 -1.5234  0.4846  0.8372
 2434SOL    HW218936   1.578   3.118   3.254 -1.7357  0.0067  0.5272
 2435SOL     OW18937   2.235   1.861   2.507 -0.1655 -0.2190 -0.6889
 2435SOL    HW118938   2.145   1.833   2.497 -0.1602  0.1782 -1.8184
 2435SOL    HW218939   2.277   1.776   2.516 -1.2043 -0.6889 -0.3640
 2436SOL     OW18940   2.776   3.324   2.039 -0.2617 -0.4389 -0.0642
 2436SOL    HW118941   2.785   3.398   1.980 -1.5427 -0.0337  0.2407
 2436SOL    HW218942   2.716   3.273   1.984 -1.4975  0.0837  0.7832
 2437SOL     OW18943   0.460   3.406   0.583 -0.1387 -0.3421 -0.0758
 2437SOL    HW118944   0.398   3.333   0.585  0.0873 -0.5236  0.3842
 2437SOL    HW218945   0.402   3.482   0.579 -0.7483 -0.8179 -0.2335
 2438SOL     OW18946   1.502   0.817   7.337  0.3983 -0.3946  0.3547
 2438SOL    HW118947   1.450   0.835   7.415  0.1066 -0.6522  0.2208
 2438SOL    HW218948   1.587   0.813   7.381  1.9072  1.7865 -2.3473
 2439SOL     OW18949   3.907   0.080   7.811  0.0925 -0.0343  0.8952
 2439SOL    HW118950   3.966   0.121   7.747 -0.5367  1.8841  1.5329
 2439SOL    HW218951   3.890   0.002   7.758  3.4673  0.7057 -1.3674
 2440SOL     OW18952   1.326   3.760  11.418  0.1704 -0.1214 -0.4800
 2440SOL    HW118953   1.290   3.711  11.492  2.7892 -2.3140 -0.6416
 2440SOL    HW218954   1.285   3.845  11.434  1.2519  0.5803 -1.3997
 2441SOL     OW18955   0.417   0.209   2.182  0.7177  0.0689 -0.7231
 2441SOL    HW118956   0.338   0.234   2.231  0.8699 -0.5988 -0.1264
 2441SOL    HW218957   0.485   0.247   2.238 -0.9692  0.4147  1.1175
 2442SOL     OW18958   0.061   3.340   2.126 -0.3400  0.2430  0.4122
 2442SOL    HW118959   0.064   3.255   2.169  0.1289 -1.7582 -3.6103
 2442SOL    HW218960   0.073   3.393   2.205 -2.6987 -1.9294  2.2166
 2443SOL     OW18961   1.154   0.653   5.085  0.3658 -0.6788  0.8990
 2443SOL    HW118962   1.231   0.660   5.029  0.1027 -0.5701  0.5520
 2443SOL    HW218963   1.094   0.710   5.037 -2.7255 -3.0606  1.8817
 2444SOL     OW18964   1.605   1.444   4.879  0.6682  0.1130 -0.1696
 2444SOL    HW118965   1.688   1.457   4.925 -0.0918  1.7801  0.7076
 2444SOL    HW218966   1.648   1.415   4.798 -0.1564 -0.1655 -0.4999
 2445SOL     OW18967   4.040   3.234   2.314  0.3840 -0.1837 -0.7236
 2445SOL    HW118968   4.104   3.239   2.244 -1.2702  0.0649 -2.2073
 2445SOL    HW218969   4.004   3.146   2.302 -0.0262 -0.2237  0.7856
 2446SOL     OW18970   3.166   1.159   9.345 -0.1279  0.1721  0.2086
 2446SOL    HW118971   3.210   1.107   9.412 -0.7654  0.5297  0.8911
 2446SOL    HW218972   3.197   1.247   9.367 -0.8849  0.2020  1.1177
 2447SOL     OW18973   1.897   3.506   6.613  0.0375  0.2200 -0.5587
 2447SOL    HW118974   1.893   3.584   6.668  0.1598  0.2888 -0.6482
 2447SOL    HW218975   1.858   3.445   6.676 -1.1627  0.4429 -1.0767
 2448SOL     OW18976   3.004   2.537  14.333 -0.0911  0.0836 -0.3411
 2448SOL    HW118977   2.980   2.459  14.283  1.9358 -2.0037  1.9276
 2448SOL    HW218978   2.956   2.608  14.290 -0.8444 -0.6293 -0.6940
 2449SOL     OW18979   2.473   2.478   0.371  0.2617  0.1198  0.2935
 2449SOL    HW118980   2.386   2.495   0.336  0.3072  0.0685  0.1555
 2449SOL    HW218981   2.510   2.442   0.290  0.2617 -0.9082  0.7516
 2450SOL     OW18982   1.816   1.311   4.197 -0.0726 -0.2214  0.2263
 2450SOL    HW118983   1.785   1.223   4.174  1.8665 -1.6585  3.1711
 2450SOL    HW218984   1.902   1.323   4.158  1.2286 -1.9708  2.5899
 2451SOL     OW18985   3.265   4.109   2.227 -0.0204  0.4308  0.0420
 2451SOL    HW118986   3.342   4.075   2.181  0.5568 -1.4534  2.3489
 2451SOL    HW218987   3.305   4.187   2.267 -0.3820  1.6056 -1.8925
 2452SOL     OW18988   4.640   2.272   8.190  0.0597 -0.7364  0.2893
 2452SOL    HW118989   4.644   2.345   8.130  1.8837 -1.4415 -0.4476
 2452SOL    HW218990   4.692   2.309   8.262  2.2465 -2.1105 -0.5725
 2453SOL     OW18991   4.210   0.049  15.403  0.7829  0.1737 -0.6237
 2453SOL    HW118992   4.116   0.038  15.390  0.6385  0.9084 -0.2028
 2453SOL    HW218993   4.231   4.723  15.335 -1.5432 -0.5103 -0.7018
 2454SOL     OW18994   3.544   2.590   4.801  0.4011  0.1526  0.2480
 2454SOL    HW118995   3.532   2.597   4.896 -0.2921 -0.8721  0.2372
 2454SOL    HW218996   3.471   2.531   4.782  1.8742 -2.4454  2.6141
 2455SOL     OW18997   4.141   2.678   7.359 -0.3128  0.1605 -0.0372
 2455SOL    HW118998   4.050   2.676   7.329 -0.4667  1.4432  0.3503
 2455SOL    HW218999   4.141   2.761   7.407  2.5996  0.6648 -0.9130
 2456SOL     OW19000   2.852   3.723  14.526 -0.5129 -0.0652  0.1431
 2456SOL    HW119001   2.806   3.639  14.523  1.6302 -1.1734 -1.7485
 2456SOL    HW219002   2.804   3.769  14.458 -1.3123 -1.4414 -0.2123
 2457SOL     OW19003   0.762   0.286   2.363  0.1301 -0.5706  0.4749
 2457SOL    HW119004   0.745   0.378   2.384 -1.7391 -0.8642  0.2577
 2457SOL    HW219005   0.762   0.285   2.267 -2.0813  0.5546  0.4478
 2458SOL     OW19006   2.687   2.192   0.406  0.2589  0.0671  0.1922
 2458SOL    HW119007   2.649   2.135   0.472  1.6422  0.5946  1.4449
 2458SOL    HW219008   2.759   2.232   0.455 -0.1441  0.1815  0.6867
 2459SOL     OW19009   0.260   2.532   2.995 -0.0553  0.2025 -0.3604
 2459SOL    HW119010   0.267   2.443   2.960 -0.0859  0.2079 -0.3795
 2459SOL    HW219011   0.246   2.582   2.915 -0.0841  1.0153  0.1496
 2460SOL     OW19012   2.480   1.767  10.556  0.3818  0.0192 -0.4497
 2460SOL    HW119013   2.444   1.722  10.634  0.0663 -1.0581 -1.2146
 2460SOL    HW219014   2.498   1.851  10.597  2.4541 -0.9076  0.5427
 2461SOL     OW19015   0.377   1.835  11.303  0.4884  0.2151 -0.0904
 2461SOL    HW119016   0.421   1.763  11.349  0.6625 -1.3439 -2.6607
 2461SOL    HW219017   0.286   1.843  11.332  0.9551  0.8645  1.1659
 2462SOL     OW19018   4.306   4.480  15.727 -0.5552  0.3990 -0.5693
 2462SOL    HW119019   4.374   4.418  15.701 -1.6442 -1.0112 -0.0720
 2462SOL    HW219020   4.302   4.456  15.819  0.8509  1.7785 -0.1390
 2463SOL     OW19021   3.561   4.201   6.115 -0.3248 -0.0334  0.3712
 2463SOL    HW119022   3.596   4.239   6.034 -1.8666 -0.6117 -0.5611
 2463SOL    HW219023   3.482   4.158   6.083  0.5351 -1.0525 -0.4116
 2464SOL     OW19024   1.440   1.336   8.039  0.0947 -0.6719  0.5329
 2464SOL    HW119025   1.481   1.417   8.007 -0.5348  0.1619  1.8130
 2464SOL    HW219026   1.518   1.287   8.067  0.5410  0.0201  0.5056
 2465SOL     OW19027   1.141   2.610   4.468 -0.0087 -0.6761  0.0603
 2465SOL    HW119028   1.136   2.645   4.557  0.2168  0.8448 -0.5187
 2465SOL    HW219029   1.158   2.696   4.428 -1.9426 -0.8267 -1.0418
 2466SOL     OW19030   3.832   4.655   8.558  0.1372 -0.3854 -0.3369
 2466SOL    HW119031   3.821   4.572   8.605 -0.1494  0.0051  0.2870
 2466SOL    HW219032   3.776   4.703   8.619  0.8046 -0.8138  0.6008
 2467SOL     OW19033   3.311   2.878   7.403 -0.6383 -1.0482 -0.3974
 2467SOL    HW119034   3.227   2.833   7.396 -1.7027  1.3228 -2.4926
 2467SOL    HW219035   3.266   2.950   7.445 -0.1689  0.2141 -2.0662
 2468SOL     OW19036   2.878   4.526   9.223 -0.1309  0.7491 -0.2767
 2468SOL    HW119037   2.971   4.538   9.205 -0.1995 -0.0461 -1.1717
 2468SOL    HW219038   2.868   4.577   9.304 -0.8161 -1.3669  0.9732
 2469SOL     OW19039   3.364   0.798   6.102 -0.7397  0.1076  0.1611
 2469SOL    HW119040   3.333   0.886   6.079  0.1866 -0.3011 -2.6474
 2469SOL    HW219041   3.414   0.771   6.026 -2.4017 -1.9253 -0.2191
 2470SOL     OW19042   4.353   0.927   2.703 -0.3041  0.2046  0.1221
 2470SOL    HW119043   4.287   0.963   2.762  0.7835 -1.4842  2.3512
 2470SOL    HW219044   4.432   0.934   2.757 -0.5488  1.5196  0.3048
 2471SOL     OW19045   4.508   2.916   5.420  0.2721 -0.0683 -0.4481
 2471SOL    HW119046   4.418   2.884   5.423  0.5992 -0.9405  0.0408
 2471SOL    HW219047   4.544   2.846   5.365  0.1136 -1.6062  1.3980
 2472SOL     OW19048   4.055   2.186  11.603  0.2579 -0.2112  0.3736
 2472SOL    HW119049   4.057   2.104  11.553 -1.5583 -0.5090  0.7787
 2472SOL    HW219050   4.143   2.200  11.638 -0.5186  0.2100  2.1854
 2473SOL     OW19051   4.286   4.034   3.352 -0.0750 -0.4587  0.0951
 2473SOL    HW119052   4.295   4.030   3.257 -1.0642  1.4325 -0.0771
 2473SOL    HW219053   4.253   3.948   3.379  0.3528 -0.2895  1.1735
 2474SOL     OW19054   0.167   1.843   7.318 -0.3246 -0.2962 -0.5796
 2474SOL    HW119055   0.194   1.923   7.273  0.0216 -1.3528 -2.2821
 2474SOL    HW219056   0.142   1.882   7.401  0.4713 -2.4502  0.6848
 2475SOL     OW19057   2.351   0.619   2.722 -0.6196 -0.0952 -0.4746
 2475SOL    HW119058   2.284   0.582   2.779  0.0529  0.8556  0.9288
 2475SOL    HW219059   2.329   0.712   2.719 -1.4177 -0.2454  0.9049
 2476SOL     OW19060   0.196   3.286  14.424 -0.1660 -0.0703  0.1271
 2476SOL    HW119061   0.130   3.222  14.400  1.4137 -1.0963 -1.4870
 2476SOL    HW219062   0.242   3.263  14.505 -0.3472 -1.9956 -0.3400
 2477SOL     OW19063   3.893   0.967   7.095 -1.0678 -0.3495 -0.0829
 2477SOL    HW119064   3.986   0.983   7.077 -0.9685 -0.7157  0.1146
 2477SOL    HW219065   3.883   1.003   7.183 -1.1909  0.7157 -0.5394
 2478SOL     OW19066   3.362   2.732   9.179 -0.6290 -0.6929 -0.5524
 2478SOL    HW119067   3.439   2.697   9.135  1.6558  1.3461  1.8217
 2478SOL    HW219068   3.399   2.778   9.255  0.3258 -0.0779 -1.3860
 2479SOL     OW19069   1.606   0.516   2.062 -0.0603  1.0473 -0.1586
 2479SOL    HW119070   1.519   0.523   2.022  0.5576  0.6677 -1.5952
 2479SOL    HW219071   1.655   0.480   1.988  2.2103  0.2197  1.7645
 2480SOL     OW19072   3.998   3.283   2.755  0.3525  0.7683  0.1050
 2480SOL    HW119073   4.047   3.225   2.813 -0.7787 -1.6408 -1.3621
 2480SOL    HW219074   4.041   3.254   2.675 -0.8750 -3.7789  1.1312
 2481SOL     OW19075   1.227   1.951   8.672 -0.2707  0.4691  0.0044
 2481SOL    HW119076   1.262   1.862   8.680  3.1532  1.8422  0.4218
 2481SOL    HW219077   1.144   1.938   8.627 -1.2294  0.6170  1.7005
 2482SOL     OW19078   0.889   2.139   7.802  0.1616  0.2678  0.3032
 2482SOL    HW119079   0.907   2.205   7.735  2.6582  0.9827  1.7064
 2482SOL    HW219080   0.840   2.188   7.868  0.5306  0.2148  0.6191
 2483SOL     OW19081   3.245   2.029   7.895  0.0261  0.0177  0.0324
 2483SOL    HW119082   3.211   1.997   7.811 -0.7783 -0.5256  0.5635
 2483SOL    HW219083   3.197   2.112   7.892 -2.6945 -1.4676  2.1034
 2484SOL     OW19084   1.916   1.153   9.840 -0.1381 -0.4382  0.7236
 2484SOL    HW119085   1.922   1.128   9.932  2.4502  0.6933  0.8481
 2484SOL    HW219086   1.893   1.246   9.845  1.5486 -0.1676  3.1364
 2485SOL     OW19087   4.431   4.574  14.090  0.0566 -0.3180  0.0752
 2485SOL    HW119088   4.459   4.487  14.061 -1.8625 -0.8632 -0.1320
 2485SOL    HW219089   4.477   4.628  14.025 -1.8081  0.6956 -0.3936
 2486SOL     OW19090   0.001   2.346  16.437 -0.3731 -0.5541  0.7302
 2486SOL    HW119091   0.046   2.262  16.429  2.1153  0.8904 -0.5902
 2486SOL    HW219092   4.661   2.308  16.478 -0.7088 -2.0508 -1.2503
 2487SOL     OW19093   1.432   2.281  14.659 -0.1278 -0.5565 -0.1663
 2487SOL    HW119094   1.514   2.283  14.707 -1.3978 -0.3115  1.9838
 2487SOL    HW219095   1.431   2.370  14.624 -1.2619 -0.2332  0.6755
 2488SOL     OW19096   2.431   1.885  15.607  0.0920  0.2105 -0.4428
 2488SOL    HW119097   2.488   1.907  15.680 -0.7980  0.3529  0.1989
 2488SOL    HW219098   2.493   1.906  15.537  0.0907 -1.5743 -0.9889
 2489SOL     OW19099   2.365   3.516  15.482 -0.3554 -0.3994  0.1890
 2489SOL    HW119100   2.406   3.443  15.529  2.0128  1.4749  1.0273
 2489SOL    HW219101   2.297   3.535  15.546  0.9456  0.2556  1.3751
 2490SOL     OW19102   4.664   0.934   2.764  0.0850  0.3564 -0.2462
 2490SOL    HW119103   4.611   0.982   2.700  1.3769  0.2115 -1.4315
 2490SOL    HW219104   4.732   0.900   2.706 -2.1049 -2.0943 -1.4092
 2491SOL     OW19105   0.687   3.212   2.679 -0.1475 -0.3239  0.1134
 2491SOL    HW119106   0.634   3.197   2.757 -0.8755 -0.0519 -0.3343
 2491SOL    HW219107   0.622   3.259   2.627  0.9039 -1.0178 -1.8256
 2492SOL     OW19108   2.323   2.318   5.911 -0.2042  0.5367 -0.1068
 2492SOL    HW119109   2.260   2.297   5.980  0.8232 -1.9614  0.0861
 2492SOL    HW219110   2.377   2.239   5.914  1.9281  1.9998 -0.1470
 2493SOL     OW19111   0.372   2.740   7.403 -0.1933 -0.0018 -0.2444
 2493SOL    HW119112   0.380   2.647   7.380 -0.0620  0.3955 -1.8073
 2493SOL    HW219113   0.462   2.769   7.390 -1.1265  3.2758  0.5247
 2494SOL     OW19114   0.532   0.777  14.455  0.2799 -0.0134  0.4153
 2494SOL    HW119115   0.546   0.774  14.360  0.1969  1.4749  0.3613
 2494SOL    HW219116   0.437   0.781  14.449  0.2497 -0.9206  0.3688
 2495SOL     OW19117   4.437   3.304   6.587  1.4169 -0.0794  0.4033
 2495SOL    HW119118   4.465   3.395   6.594  0.8080  0.1005  0.5028
 2495SOL    HW219119   4.429   3.294   6.492 -0.1839 -1.2945  0.6566
 2496SOL     OW19120   0.971   1.351  15.398 -0.3377  0.2384  0.2420
 2496SOL    HW119121   0.978   1.262  15.431  2.0974  0.6947  0.9290
 2496SOL    HW219122   1.021   1.388  15.471  0.4354  2.1522 -1.2607
 2497SOL     OW19123   4.736   0.941  13.362  0.5806  0.6373  0.1317
 2497SOL    HW119124   0.066   0.876  13.380  1.0330  0.9425 -0.4723
 2497SOL    HW219125   4.736   0.995  13.441 -1.0152  1.0761 -0.1834
 2498SOL     OW19126   2.357   2.336  17.187  0.0651 -0.0622  0.2391
 2498SOL    HW119127   2.308   2.306  17.264  0.5239 -2.0987 -0.2361
 2498SOL    HW219128   2.292   2.358  17.120 -1.6839 -0.3131  1.8489
 2499SOL     OW19129   3.453   2.231   9.752  0.1242 -0.0346  0.4537
 2499SOL    HW119130   3.414   2.283   9.823 -1.1986  0.4926 -0.6785
 2499SOL    HW219131   3.523   2.195   9.807  2.1078  1.2536 -1.2734
 2500SOL     OW19132   0.396   3.890  16.747 -0.0986 -0.0298  0.0118
 2500SOL    HW119133   0.391   3.811  16.693 -1.0186 -0.2526  0.4214
 2500SOL    HW219134   0.302   3.903  16.759 -0.3369 -3.0274  1.4955
 2501SOL     OW19135   3.018   1.395   0.701  0.1770 -0.3224 -0.2241
 2501SOL    HW119136   2.943   1.403   0.641  1.5819  1.2785 -1.7604
 2501SOL    HW219137   3.080   1.461   0.671 -0.1660  0.7267  1.3907
 2502SOL     OW19138   1.874   4.088  15.685  0.4704 -0.5163  0.4066
 2502SOL    HW119139   1.829   4.173  15.679  2.3791  0.4455 -0.3928
 2502SOL    HW219140   1.958   4.110  15.724  0.0636 -1.0925  1.5883
 2503SOL     OW19141   3.785   2.634   6.821 -0.0945 -0.4204 -0.9121
 2503SOL    HW119142   3.832   2.707   6.781 -0.3854  0.0258 -0.4312
 2503SOL    HW219143   3.720   2.603   6.757 -0.4799 -1.4393 -0.0272
 2504SOL     OW19144   0.872   0.265   8.440 -0.0615  0.5900 -0.6781
 2504SOL    HW119145   0.792   0.268   8.388 -0.9484 -0.3424  0.6448
 2504SOL    HW219146   0.860   0.334   8.504 -2.1867 -1.8700  1.5441
 2505SOL     OW19147   3.345   2.176   9.235 -0.2679  0.2776  0.5537
 2505SOL    HW119148   3.433   2.166   9.271 -1.2819  1.9484  3.5384
 2505SOL    HW219149   3.348   2.128   9.152  0.9892  0.6015  0.4096
 2506SOL     OW19150   3.271   3.158  10.536 -0.2047  0.2555  0.4606
 2506SOL    HW119151   3.257   3.202  10.452  1.1750 -0.2000 -0.0108
 2506SOL    HW219152   3.340   3.096  10.514 -0.1585  0.9673 -1.5073
 2507SOL     OW19153   3.223   4.335  10.213  0.6155 -0.1969  0.0571
 2507SOL    HW119154   3.173   4.382  10.146 -0.2485  1.4247  1.8617
 2507SOL    HW219155   3.208   4.245  10.183  1.9703  0.6835 -3.3011
 2508SOL     OW19156   0.137   2.873   4.376  0.0136 -0.0840  0.6086
 2508SOL    HW119157   0.167   2.958   4.407 -0.5688  0.7218 -1.0298
 2508SOL    HW219158   0.047   2.896   4.355  0.5290 -1.1763 -2.8089
 2509SOL     OW19159   1.545   4.207   5.428 -0.6077 -0.2522  0.4094
 2509SOL    HW119160   1.457   4.183   5.458 -2.3390  1.5430 -3.2112
 2509SOL    HW219161   1.562   4.289   5.473 -2.9174  0.7606 -0.5472
 2510SOL     OW19162   0.295   0.237   6.062  0.2443  0.3990 -0.5285
 2510SOL    HW119163   0.337   0.173   6.120  0.0184  2.1000  1.4705
 2510SOL    HW219164   0.308   0.317   6.112  1.4010  0.1606 -0.4465
 2511SOL     OW19165   4.641   3.024   0.557  0.1901  0.2158  0.1114
 2511SOL    HW119166   4.713   2.961   0.563  0.7840  0.7133 -1.7874
 2511SOL    HW219167   4.641   3.065   0.643 -0.0692 -1.5035  0.9422
 2512SOL     OW19168   1.129   1.982   1.396 -0.1925  0.0458  0.5273
 2512SOL    HW119169   1.160   2.072   1.408  2.5993 -0.8271 -0.0981
 2512SOL    HW219170   1.060   2.005   1.333 -3.5926 -2.1542  3.4496
 2513SOL     OW19171   0.235   0.812  11.318  0.3915  0.5799  0.5559
 2513SOL    HW119172   0.192   0.897  11.318 -0.5999  0.0798 -0.4536
 2513SOL    HW219173   0.306   0.824  11.255  0.4368  0.8472  0.6620
 2514SOL     OW19174   4.179   2.640   8.176  0.0436 -0.2153 -0.1549
 2514SOL    HW119175   4.227   2.606   8.100  2.0674 -1.5437  1.6955
 2514SOL    HW219176   4.166   2.732   8.153 -3.0229 -0.9069 -1.1610
 2515SOL     OW19177   0.229   3.204  16.065  0.0724 -0.0279  0.2632
 2515SOL    HW119178   0.140   3.219  16.096  0.5076 -0.2130  1.6168
 2515SOL    HW219179   0.277   3.262  16.124 -1.3373 -0.1152  1.4894
 2516SOL     OW19180   1.117   3.215  10.946 -0.0420 -0.1404 -0.4253
 2516SOL    HW119181   1.106   3.203  10.852  2.5452  1.0034 -0.8551
 2516SOL    HW219182   1.193   3.158  10.958 -0.3526 -0.6047 -0.6613
 2517SOL     OW19183   2.651   0.862   1.402 -0.1631  0.4294  0.2393
 2517SOL    HW119184   2.612   0.904   1.326  2.8328  2.2167 -0.3045
 2517SOL    HW219185   2.743   0.850   1.377 -0.4109 -1.8150  0.3593
 2518SOL     OW19186   0.958   0.482   5.215 -0.0094  0.1621 -0.5003
 2518SOL    HW119187   1.032   0.536   5.190 -0.3628  1.7372  1.8715
 2518SOL    HW219188   0.989   0.398   5.183  1.3565  0.9970 -1.3283
 2519SOL     OW19189   2.582   0.714   3.589  0.0411 -0.0100  0.4262
 2519SOL    HW119190   2.539   0.769   3.524  0.3247  0.0864  0.3221
 2519SOL    HW219191   2.533   0.636   3.563  1.2793 -0.9584  0.9655
 2520SOL     OW19192   3.564   1.719   3.203  0.1651  0.3666 -0.0996
 2520SOL    HW119193   3.560   1.800   3.151  1.7639  1.8084  1.9939
 2520SOL    HW219194   3.626   1.743   3.272 -1.0288 -0.1320  1.1341
 2521SOL     OW19195   3.550   2.411   1.135 -0.0132  0.0011  0.1307
 2521SOL    HW119196   3.498   2.420   1.215 -0.5771 -1.0358 -0.1238
 2521SOL    HW219197   3.640   2.438   1.156 -0.5522  1.4388  0.6295
 2522SOL     OW19198   3.954   4.689   2.643 -0.0608  0.0900  0.0440
 2522SOL    HW119199   3.954   0.037   2.601  0.0925  0.5841  1.0523
 2522SOL    HW219200   3.873   4.702   2.693 -0.0858  0.6454 -0.1471
 2523SOL     OW19201   4.663   4.415   8.600 -0.0600 -0.0441 -0.3623
 2523SOL    HW119202   4.651   4.453   8.687 -0.1687 -0.1169 -0.3449
 2523SOL    HW219203   4.633   4.483   8.538 -0.3428 -0.0834 -0.2699
 2524SOL     OW19204   0.362   2.449   1.659  0.2218  0.1287 -0.4903
 2524SOL    HW119205   0.418   2.431   1.583  2.1412  0.6225  0.8109
 2524SOL    HW219206   0.412   2.517   1.704 -2.0734 -0.2464  2.6288
 2525SOL     OW19207   3.149   1.312   8.508 -0.2292 -0.1193  0.1926
 2525SOL    HW119208   3.179   1.396   8.473  0.8643 -0.2409  0.8398
 2525SOL    HW219209   3.056   1.312   8.483 -0.1412  1.0172 -0.1196
 2526SOL     OW19210   2.722   3.184   2.779 -0.3253  0.5962 -0.3510
 2526SOL    HW119211   2.792   3.248   2.794 -0.4904  0.9410 -1.0754
 2526SOL    HW219212   2.693   3.199   2.689  1.1642  1.4412 -0.6818
 2527SOL     OW19213   4.391   2.347   4.268 -0.3622 -0.4161 -0.3698
 2527SOL    HW119214   4.361   2.354   4.177 -0.4466 -1.3265 -0.4130
 2527SOL    HW219215   4.442   2.428   4.266 -2.2383  0.7889  0.7546
 2528SOL     OW19216   3.418   2.372   8.111 -0.1097  0.4280 -0.1800
 2528SOL    HW119217   3.474   2.388   8.187 -0.7750 -0.5090  0.5065
 2528SOL    HW219218   3.477   2.408   8.044  0.9811  2.6634  2.0126
 2529SOL     OW19219   4.726   2.258   7.475 -0.7653  0.2853 -0.8838
 2529SOL    HW119220   4.710   2.349   7.501 -0.5309  0.0790 -0.0227
 2529SOL    HW219221   4.650   2.244   7.418  0.4455  0.0091 -2.4144
 2530SOL     OW19222   2.479   0.951   7.430 -0.1951 -0.5852  0.0324
 2530SOL    HW119223   2.469   0.883   7.363 -0.8790 -0.7863  0.3378
 2530SOL    HW219224   2.568   0.981   7.411 -0.3319  1.1217  2.0507
 2531SOL     OW19225   0.588   2.945   5.013 -0.0096 -0.5281  0.1653
 2531SOL    HW119226   0.572   3.036   4.986  0.0589  0.7071  4.2537
 2531SOL    HW219227   0.660   2.960   5.074 -0.7223  1.9962  0.3932
 2532SOL     OW19228   0.090   0.409   9.132 -0.1147  0.2468  0.1057
 2532SOL    HW119229   0.174   0.416   9.086  0.2540  0.0435  0.7495
 2532SOL    HW219230   0.128   0.388   9.218 -0.7761  0.1664  0.3796
 2533SOL     OW19231   1.428   2.241  16.786  0.0829  0.9592  0.1419
 2533SOL    HW119232   1.384   2.322  16.814 -2.3233 -1.6136  3.6689
 2533SOL    HW219233   1.355   2.186  16.760  0.3670  1.8593 -2.5895
 2534SOL     OW19234   2.805   1.622   9.806 -0.4101 -0.1556 -0.5368
 2534SOL    HW119235   2.884   1.580   9.773 -2.0950 -3.5839 -0.2793
 2534SOL    HW219236   2.791   1.549   9.867 -1.8910  0.5947  0.0430
 2535SOL     OW19237   2.516   0.873  15.725  0.2790  0.3669 -0.2754
 2535SOL    HW119238   2.553   0.935  15.662  2.7755 -0.6442  0.1674
 2535SOL    HW219239   2.429   0.912  15.732 -0.3209 -1.2147  0.9552
 2536SOL     OW19240   1.238   3.741   7.818  0.3068 -0.1065  1.1049
 2536SOL    HW119241   1.215   3.829   7.787  1.5130 -1.0392 -2.4648
 2536SOL    HW219242   1.290   3.756   7.897  1.2597  2.1254  0.0719
 2537SOL     OW19243   3.083   0.421   5.214  0.1594 -0.3082  0.0225
 2537SOL    HW119244   3.043   0.492   5.164 -0.8753 -2.7458 -2.6226
 2537SOL    HW219245   3.138   0.463   5.281 -1.7202 -0.0006  1.3762
 2538SOL     OW19246   4.524   0.182   6.043 -0.7303 -0.0484  0.6399
 2538SOL    HW119247   4.432   0.201   6.062 -0.6083  1.3042 -0.1597
 2538SOL    HW219248   4.576   0.252   6.083 -0.4762 -0.9442  1.8990
 2539SOL     OW19249   3.868   2.130   8.516  0.9199  0.1520 -0.0543
 2539SOL    HW119250   3.776   2.128   8.542  0.8034  0.2082 -0.4717
 2539SOL    HW219251   3.876   2.203   8.455  3.9164  0.1006  0.2744
 2540SOL     OW19252   4.161   1.154   7.776  0.2059  0.0760 -0.4229
 2540SOL    HW119253   4.093   1.104   7.821 -0.2391  0.5619 -0.5439
 2540SOL    HW219254   4.161   1.103   7.695 -1.7983 -0.1769 -0.2849
 2541SOL     OW19255   2.010   1.000   5.448 -0.1675 -0.5898  0.1101
 2541SOL    HW119256   1.983   1.089   5.428  0.2522 -0.6696 -0.8422
 2541SOL    HW219257   2.033   0.999   5.541  1.5743  2.2826 -0.2899
 2542SOL     OW19258   3.410   2.808  15.924  0.2086 -0.3896  0.6343
 2542SOL    HW119259   3.420   2.740  15.857  0.6876  0.7775 -0.4888
 2542SOL    HW219260   3.456   2.769  15.998 -1.9020 -0.8597  1.6959
 2543SOL     OW19261   2.360   1.545   7.996  0.2240 -0.2700 -0.5030
 2543SOL    HW119262   2.423   1.576   7.931  0.8671 -1.3804 -0.4135
 2543SOL    HW219263   2.305   1.622   8.006 -2.0651 -1.8851 -0.6641
 2544SOL     OW19264   4.157   3.202   2.547 -0.0728 -0.2502 -0.0961
 2544SOL    HW119265   4.241   3.247   2.541  0.0826 -0.7641 -1.6739
 2544SOL    HW219266   4.123   3.204   2.458  0.9533 -1.2228 -0.5142
 2545SOL     OW19267   0.187   3.714   4.245 -0.2485 -0.1274 -0.1036
 2545SOL    HW119268   0.217   3.660   4.173  0.8750 -3.5396  2.9351
 2545SOL    HW219269   0.259   3.776   4.235  1.3688 -2.2111 -1.1585
 2546SOL     OW19270   0.740   2.313  16.468  0.3182  0.2633 -0.1047
 2546SOL    HW119271   0.753   2.231  16.516  1.4306 -0.3479 -1.4665
 2546SOL    HW219272   0.645   2.323  16.477  0.2550 -3.8847  4.0209
 2547SOL     OW19273   2.722   2.880  11.860 -0.3249  0.4952 -0.2795
 2547SOL    HW119274   2.637   2.859  11.899  0.2206  0.8425  1.1157
 2547SOL    HW219275   2.735   2.963  11.906 -2.2785  0.4197  0.4255
 2548SOL     OW19276   3.359   4.182   6.363 -0.1331 -0.0869 -0.6534
 2548SOL    HW119277   3.449   4.213   6.352  0.8472 -2.5255  0.6871
 2548SOL    HW219278   3.324   4.244   6.427  2.3627 -0.2570  0.8746
 2549SOL     OW19279   4.394   2.757   6.137  0.2046  0.4639 -0.0178
 2549SOL    HW119280   4.355   2.669   6.139  1.7002 -0.2175 -0.7667
 2549SOL    HW219281   4.486   2.743   6.115  0.4739 -0.4355  1.6647
 2550SOL     OW19282   2.889   2.262   7.133 -0.3206 -0.3109 -0.4770
 2550SOL    HW119283   2.849   2.177   7.113  0.6679 -1.5635  2.8655
 2550SOL    HW219284   2.874   2.297   7.045  1.5700  1.3310 -0.1432
 2551SOL     OW19285   0.341   2.237   5.449  0.1893  0.0237 -0.1224
 2551SOL    HW119286   0.363   2.251   5.357  2.7761 -3.4608 -0.0410
 2551SOL    HW219287   0.275   2.305   5.464 -1.0379 -0.7470 -2.0208
 2552SOL     OW19288   4.666   3.226   0.745  0.4293 -0.0091  0.4661
 2552SOL    HW119289   4.629   3.300   0.793  0.9089  1.6700 -1.7424
 2552SOL    HW219290   4.686   3.260   0.658  1.0052 -1.6627 -0.0541
 2553SOL     OW19291   3.738   0.886   0.567 -0.0253 -0.0208  0.1635
 2553SOL    HW119292   3.769   0.795   0.560 -1.7035 -0.5046 -0.8500
 2553SOL    HW219293   3.814   0.921   0.521 -1.1288  0.9414 -0.9051
 2554SOL     OW19294   4.514   1.738   1.610  0.3935 -0.1338 -0.1644
 2554SOL    HW119295   4.469   1.731   1.694  1.4324  1.3097  0.5098
 2554SOL    HW219296   4.506   1.650   1.574  0.9460  0.4010 -1.5734
 2555SOL     OW19297   2.128   3.678   6.956 -0.4301 -0.1232  0.4667
 2555SOL    HW119298   2.118   3.587   6.982 -0.6344  0.4744  2.4778
 2555SOL    HW219299   2.129   3.674   6.860  1.6007 -0.7550  0.5261
 2556SOL     OW19300   4.636   3.622   2.378  0.4008 -0.7598  0.1748
 2556SOL    HW119301   4.729   3.612   2.358  0.4832  0.9355 -0.2495
 2556SOL    HW219302   4.606   3.640   2.289  0.3496 -1.6302  0.0121
 2557SOL     OW19303   1.155   1.305   9.225  0.3114  0.2058  0.4991
 2557SOL    HW119304   1.071   1.272   9.193  0.6469 -0.9985  0.8888
 2557SOL    HW219305   1.222   1.262   9.173 -0.5734  0.5691 -0.9387
 2558SOL     OW19306   2.340   2.791   2.788  0.1776  0.4363 -0.2686
 2558SOL    HW119307   2.385   2.866   2.751  0.5305 -0.4566 -1.6558
 2558SOL    HW219308   2.262   2.828   2.829 -0.5308  0.2333 -1.4456
 2559SOL     OW19309   2.610   1.528   8.537 -0.1568  0.1608 -0.3470
 2559SOL    HW119310   2.670   1.553   8.467 -0.3789 -1.4691 -1.1182
 2559SOL    HW219311   2.669   1.550   8.610  0.1430  0.1525 -0.5892
 2560SOL     OW19312   4.578   4.205  12.506 -0.2314  0.3963  0.1108
 2560SOL    HW119313   4.546   4.120  12.535 -1.0286  0.1256 -1.6154
 2560SOL    HW219314   4.601   4.190  12.415 -0.9100 -2.4428  0.4080
 2561SOL     OW19315   2.339   2.364   3.584 -0.1130  0.1985 -0.8918
 2561SOL    HW119316   2.380   2.304   3.646  0.0427  2.4413  1.1795
 2561SOL    HW219317   2.385   2.443   3.615 -0.9692  0.3186  0.0541
 2562SOL     OW19318   2.712   4.302   7.205  0.5253 -0.2608  0.2125
 2562SOL    HW119319   2.708   4.295   7.300  1.4151 -0.4354  0.2324
 2562SOL    HW219320   2.652   4.377   7.203  0.7840 -0.0436  0.6510
 2563SOL     OW19321   0.728   3.815   7.480 -0.1699 -0.2412 -0.0798
 2563SOL    HW119322   0.781   3.893   7.498 -1.8131  1.1848 -1.4350
 2563SOL    HW219323   0.721   3.776   7.567 -0.1013  1.1737  0.5573
 2564SOL     OW19324   3.308   1.306   9.717  0.1072 -0.2192 -0.2088
 2564SOL    HW119325   3.316   1.214   9.690  0.7030  0.0121 -0.8098
 2564SOL    HW219326   3.394   1.338   9.690 -0.4542  0.8578 -0.7256
 2565SOL     OW19327   1.456   1.182   6.273 -0.1796  0.0686 -0.4966
 2565SOL    HW119328   1.380   1.197   6.217 -1.4344  1.4240  1.5310
 2565SOL    HW219329   1.464   1.087   6.265 -2.6966 -0.2291  0.3509
 2566SOL     OW19330   3.864   4.232  13.146 -0.4431  0.2210  0.2412
 2566SOL    HW119331   3.848   4.160  13.206 -0.6587  0.3985  0.3957
 2566SOL    HW219332   3.815   4.207  13.068  0.7733 -0.6389 -0.2500
 2567SOL     OW19333   4.027   2.736  12.680 -0.3526  0.3274  0.6157
 2567SOL    HW119334   4.057   2.783  12.758 -0.0584  1.8533 -0.4216
 2567SOL    HW219335   4.078   2.656  12.696  1.3681  1.0902 -1.0513
 2568SOL     OW19336   1.361   0.104   6.174 -0.8639 -0.6689  0.2196
 2568SOL    HW119337   1.321   0.052   6.243 -0.8574  0.3479  0.9776
 2568SOL    HW219338   1.372   0.185   6.222 -0.6437 -0.8750  0.5181
 2569SOL     OW19339   1.333   4.100   0.480  0.4573  0.3855 -0.5410
 2569SOL    HW119340   1.367   4.174   0.531 -1.1197 -0.0704  1.1589
 2569SOL    HW219341   1.414   4.050   0.474  1.6399  2.1803  0.4481
 2570SOL     OW19342   2.870   2.167   1.639  0.4423  0.0306 -0.1735
 2570SOL    HW119343   2.905   2.123   1.716 -0.9057 -1.2980 -0.3126
 2570SOL    HW219344   2.836   2.088   1.596 -0.1790 -0.2992  0.9145
 2571SOL     OW19345   2.950   1.257  11.762 -0.3606 -0.1374 -0.2887
 2571SOL    HW119346   2.919   1.212  11.841 -0.1991 -1.4592 -0.9820
 2571SOL    HW219347   2.864   1.278  11.725 -0.2551 -2.4674 -1.8414
 2572SOL     OW19348   0.524   0.176   1.931  0.2739 -0.2452 -0.2142
 2572SOL    HW119349   0.577   0.176   2.011 -1.9900 -3.6619  1.2726
 2572SOL    HW219350   0.437   0.190   1.968  0.2980 -0.9065  0.0909
 2573SOL     OW19351   3.469   1.224   9.298 -0.2938  0.6973 -0.0772
 2573SOL    HW119352   3.392   1.270   9.331 -0.7223  1.1689 -1.7258
 2573SOL    HW219353   3.470   1.266   9.212  0.6405 -3.0703 -1.9257
 2574SOL     OW19354   3.272   1.162   4.282  0.1265  0.7673  0.0050
 2574SOL    HW119355   3.249   1.244   4.326 -1.0625  0.9754 -1.0056
 2574SOL    HW219356   3.201   1.102   4.307  0.7625 -0.2827 -0.7528
 2575SOL     OW19357   3.327   3.242  14.670 -0.0396  0.1426  0.2362
 2575SOL    HW119358   3.407   3.237  14.721  0.9010  0.7925 -1.1611
 2575SOL    HW219359   3.353   3.308  14.605  1.4776 -0.9170 -0.2452
 2576SOL     OW19360   4.477   1.768   5.967  0.2899  0.0556 -0.4284
 2576SOL    HW119361   4.572   1.762   5.966  0.4831  2.7142  0.8791
 2576SOL    HW219362   4.440   1.685   5.938  2.3110 -1.8878  2.6582
 2577SOL     OW19363   0.554   1.358   7.259 -0.0576 -0.4220 -0.3294
 2577SOL    HW119364   0.642   1.322   7.266  0.3968  0.8374  0.4791
 2577SOL    HW219365   0.562   1.400   7.173 -0.7953  0.7207  0.1539
 2578SOL     OW19366   4.318   1.100  13.594  0.2396 -0.1765  0.2845
 2578SOL    HW119367   4.371   1.048  13.533 -0.2782 -0.9543  0.4933
 2578SOL    HW219368   4.282   1.025  13.641 -2.2564 -0.3185 -1.8303
 2579SOL     OW19369   1.935   3.960   4.960 -0.3698  0.3449 -0.2230
 2579SOL    HW119370   1.961   4.027   4.896 -0.5685 -0.4265 -1.1072
 2579SOL    HW219371   1.979   3.877   4.943 -0.8294 -0.1869  1.2397
 2580SOL     OW19372   2.548   2.310   8.586 -0.3201  0.2823  0.4944
 2580SOL    HW119373   2.591   2.390   8.554 -0.1146 -0.4977 -1.1930
 2580SOL    HW219374   2.539   2.262   8.504  1.6068 -0.5840  0.7870
 2581SOL     OW19375   0.935   1.671   2.699 -0.3498  0.0579 -0.2841
 2581SOL    HW119376   0.963   1.727   2.628 -1.4669  0.4084 -0.4540
 2581SOL    HW219377   0.968   1.726   2.770  1.1308  1.5017 -2.1133
 2582SOL     OW19378   3.073   0.094  17.183  0.7841 -0.2577 -0.4555
 2582SOL    HW119379   3.064   4.737  17.187 -1.6228 -0.0071  0.1505
 2582SOL    HW219380   2.980   0.117  17.187  1.0379  0.2662  2.0666
 2583SOL     OW19381   2.664   0.512   7.127 -0.0532 -0.2237 -0.4098
 2583SOL    HW119382   2.665   0.431   7.179 -0.5749 -0.0402 -0.1120
 2583SOL    HW219383   2.633   0.476   7.044 -0.9705  1.9300 -0.9814
 2584SOL     OW19384   4.355   1.443  10.224  0.2171 -0.1592  0.7710
 2584SOL    HW119385   4.262   1.420  10.219  0.1915  0.3398 -0.9770
 2584SOL    HW219386   4.396   1.361  10.250 -1.2573 -1.1271  0.0265
 2585SOL     OW19387   4.462   1.681   7.130  0.2530 -0.8359  0.0682
 2585SOL    HW119388   4.479   1.589   7.108  0.6270 -0.4119 -1.4372
 2585SOL    HW219389   4.554   1.705   7.139  0.0678 -0.3597  0.7256
 2586SOL     OW19390   1.756   4.235   6.439  0.2680  0.3977 -0.0363
 2586SOL    HW119391   1.832   4.289   6.422  0.9773 -0.3602  0.7294
 2586SOL    HW219392   1.736   4.187   6.358  1.6226 -1.5492  0.7690
 2587SOL     OW19393   1.666   2.982   0.857 -0.1867 -0.5602  0.0471
 2587SOL    HW119394   1.686   3.016   0.944  0.0856  0.8168 -0.5465
 2587SOL    HW219395   1.589   2.928   0.875  0.5333 -1.4862  0.3092
 2588SOL     OW19396   0.877   3.494   5.775 -0.2207 -0.3407 -0.8253
 2588SOL    HW119397   0.970   3.509   5.794 -0.7586  1.9182  0.0126
 2588SOL    HW219398   0.847   3.505   5.866  0.1143  2.6729 -1.0690
 2589SOL     OW19399   2.118   2.388  12.576 -0.2568  0.0177 -0.1604
 2589SOL    HW119400   2.207   2.363  12.554 -0.0254  1.6565 -1.0849
 2589SOL    HW219401   2.074   2.394  12.491 -1.8939  1.3206  0.7775
 2590SOL     OW19402   1.755   3.373   6.012 -0.6190  0.2557  0.1028
 2590SOL    HW119403   1.785   3.464   6.010  3.1280 -0.9566  1.1449
 2590SOL    HW219404   1.715   3.370   5.925 -0.4204  2.8338 -0.0845
 2591SOL     OW19405   2.079   2.994   1.692  0.3757 -0.3998  0.3062
 2591SOL    HW119406   2.090   2.939   1.615 -1.1682 -2.0493  1.2849
 2591SOL    HW219407   2.069   2.934   1.766  0.0699  0.1079  0.6746
 2592SOL     OW19408   1.606   2.595   5.447  0.8469 -0.4518  0.8298
 2592SOL    HW119409   1.572   2.623   5.363  0.6100 -2.8932  0.1262
 2592SOL    HW219410   1.545   2.647   5.500 -0.0542 -0.9809  0.3076
 2593SOL     OW19411   2.605   0.002   7.279  0.8030 -0.3852 -0.3047
 2593SOL    HW119412   2.560   0.006   7.195  0.5340 -0.8114 -0.1777
 2593SOL    HW219413   2.542   4.698   7.338  0.7643  1.9711  1.3302
 2594SOL     OW19414   1.118   1.094   8.835 -0.3508  0.1426 -0.0570
 2594SOL    HW119415   1.053   1.163   8.820  1.3794  0.9822 -3.6948
 2594SOL    HW219416   1.071   1.016   8.862 -0.8542  0.3455 -0.3479
 2595SOL     OW19417   0.171   3.275   7.768  0.5539  0.2909  0.3344
 2595SOL    HW119418   0.124   3.335   7.825  0.2454  0.5399 -0.1820
 2595SOL    HW219419   0.170   3.327   7.688 -0.8176  0.5191  0.4996
 2596SOL     OW19420   3.297   4.103   7.900 -0.1596  0.3842 -0.4386
 2596SOL    HW119421   3.315   4.197   7.900 -1.8227  0.6900  4.4481
 2596SOL    HW219422   3.374   4.056   7.867 -0.8966 -0.7317 -0.5970
 2597SOL     OW19423   4.175   1.215   7.329  0.3467  0.9446  0.3073
 2597SOL    HW119424   4.169   1.282   7.396  0.3696 -0.3709  1.6161
 2597SOL    HW219425   4.104   1.234   7.267 -1.6464  0.5596  2.4705
 2598SOL     OW19426   1.541   0.913   1.385 -0.5506  0.1567 -0.1883
 2598SOL    HW119427   1.529   0.847   1.316  0.6313 -1.8421  1.5061
 2598SOL    HW219428   1.576   0.860   1.457 -0.7794  0.3996  0.1017
 2599SOL     OW19429   1.010   0.227   6.519  0.0795 -0.2407 -0.2110
 2599SOL    HW119430   0.927   0.224   6.566 -0.8318  1.5486 -1.6679
 2599SOL    HW219431   0.978   0.256   6.433  0.1078 -1.8934 -0.7752
 2600SOL     OW19432   3.692   4.204  15.687  0.0401 -0.3863  0.2110
 2600SOL    HW119433   3.677   4.284  15.736  1.3782 -0.6810  1.0971
 2600SOL    HW219434   3.782   4.211  15.653 -0.1410  0.7387 -0.0281
 2601SOL     OW19435   3.253   0.394   3.250 -0.1032  0.3960  0.0996
 2601SOL    HW119436   3.275   0.398   3.157  0.4128  1.4023  0.2680
 2601SOL    HW219437   3.187   0.461   3.262  1.0282  1.1622  1.9712
 2602SOL     OW19438   3.599   4.286  10.144  0.0868  0.0384 -0.3652
 2602SOL    HW119439   3.564   4.370  10.115 -1.0512  0.1170  1.1979
 2602SOL    HW219440   3.653   4.308  10.220 -0.7357 -0.3834  0.3397
 2603SOL     OW19441   0.535   2.014   4.486  1.0230 -0.0970 -0.3642
 2603SOL    HW119442   0.463   2.074   4.505  0.9769 -0.4272  0.5171
 2603SOL    HW219443   0.578   2.062   4.416  0.8246  1.8228  0.8241
 2604SOL     OW19444   3.136   2.085   5.968  0.5957  0.1337 -0.3086
 2604SOL    HW119445   3.229   2.062   5.957  0.4450 -0.7410  0.2951
 2604SOL    HW219446   3.092   2.031   5.902  0.4747  0.1619 -0.2509
 2605SOL     OW19447   3.065   4.048   5.258  0.5034 -0.5121 -0.0734
 2605SOL    HW119448   2.984   4.082   5.296 -0.1729 -3.2209  0.9070
 2605SOL    HW219449   3.130   4.066   5.326  0.8527  1.3418 -0.9113
 2606SOL     OW19450   1.090   2.041   3.472  0.1765 -0.0582 -0.4282
 2606SOL    HW119451   1.040   1.986   3.413 -1.2991  1.7692 -0.8979
 2606SOL    HW219452   1.037   2.058   3.551  0.3742 -2.5164  0.2227
 2607SOL     OW19453   1.492   0.191   2.665 -0.3800  0.1851 -0.4561
 2607SOL    HW119454   1.545   0.271   2.664  0.6409 -0.4645  1.1663
 2607SOL    HW219455   1.479   0.174   2.758  1.7897  1.7047  0.1299
 2608SOL     OW19456   3.403   2.979   4.792  0.3578  0.1218  0.1786
 2608SOL    HW119457   3.331   2.980   4.855  0.7893  0.0399  0.6746
 2608SOL    HW219458   3.422   3.072   4.810 -2.0853  0.5460  0.6095
 2609SOL     OW19459   3.016   2.663  14.673  0.4944 -0.1177  0.2764
 2609SOL    HW119460   2.924   2.668  14.698  0.0028  0.0998 -1.5858
 2609SOL    HW219461   3.041   2.579  14.713 -1.5108  0.2926  2.4004
 2610SOL     OW19462   3.507   2.384   5.182 -0.4559 -0.5556 -0.0298
 2610SOL    HW119463   3.526   2.297   5.145  0.8879 -0.4707  0.4708
 2610SOL    HW219464   3.570   2.393   5.253 -1.4557  1.6541  0.5743
 2611SOL     OW19465   3.304   0.495  13.684 -0.1951 -0.2398  0.0166
 2611SOL    HW119466   3.274   0.523  13.597 -0.0435  2.1081  0.7162
 2611SOL    HW219467   3.379   0.440  13.666  0.3585  0.8949 -1.1350
 2612SOL     OW19468   2.960   2.797   7.781 -0.0136  0.0561 -0.7494
 2612SOL    HW119469   3.040   2.784   7.732  0.6912  1.1363  0.1094
 2612SOL    HW219470   2.932   2.887   7.765 -1.3833 -0.2641 -0.1842
 2613SOL     OW19471   1.409   4.167   3.400 -0.1237  0.6766 -1.0041
 2613SOL    HW119472   1.447   4.117   3.471 -0.8923  0.7602 -0.5304
 2613SOL    HW219473   1.317   4.138   3.400  0.1549 -0.1394  1.4077
 2614SOL     OW19474   2.992   3.779  10.680 -0.2085  0.4686  0.2897
 2614SOL    HW119475   2.954   3.865  10.659  0.7178  1.2685  1.9225
 2614SOL    HW219476   3.045   3.793  10.758  1.6575  0.1225 -0.9318
 2615SOL     OW19477   3.863   4.654   7.327 -0.3189 -0.0006 -0.2567
 2615SOL    HW119478   3.821   4.705   7.257 -0.7942 -0.7047 -0.4826
 2615SOL    HW219479   3.920   4.721   7.365 -0.8053 -1.4288  3.0204
 2616SOL     OW19480   3.669   1.399  16.383  0.0693  0.5747  0.4738
 2616SOL    HW119481   3.680   1.476  16.327  2.0699 -0.5425 -0.6692
 2616SOL    HW219482   3.725   1.428  16.456 -1.2928  0.1737  1.6809
 2617SOL     OW19483   1.013   1.747   8.894  0.3444 -0.3958  0.3404
 2617SOL    HW119484   0.959   1.691   8.950  0.9274 -1.2608  0.0349
 2617SOL    HW219485   1.043   1.808   8.961  0.6071  2.3182 -2.2426
 2618SOL     OW19486   3.381   3.416   0.803 -0.2040 -0.3212  0.1911
 2618SOL    HW119487   3.474   3.436   0.788 -0.1819  0.8329  1.8798
 2618SOL    HW219488   3.358   3.468   0.880  1.1192  1.2281 -0.4582
 2619SOL     OW19489   1.124   3.746   2.747 -0.1344  0.0354 -0.1354
 2619SOL    HW119490   1.147   3.776   2.834 -0.2735  1.3579 -0.5595
 2619SOL    HW219491   1.210   3.723   2.711 -0.4164  0.1217 -0.8758
 2620SOL     OW19492   3.224   0.634   6.753  0.2911  0.0738 -0.0538
 2620SOL    HW119493   3.315   0.605   6.744  0.2994  1.3417 -4.2634
 2620SOL    HW219494   3.218   0.685   6.672 -0.1777 -1.1833 -0.8200
 2621SOL     OW19495   0.739   4.205  13.337  0.5307 -0.1856  0.0361
 2621SOL    HW119496   0.739   4.111  13.356  1.2574 -0.3316 -0.6866
 2621SOL    HW219497   0.818   4.243  13.374 -0.0704  0.7673  0.3328
 2622SOL     OW19498   3.354   2.683  12.744 -0.1388 -0.6251 -0.6097
 2622SOL    HW119499   3.379   2.632  12.821  0.0269  3.5691  2.1347
 2622SOL    HW219500   3.329   2.619  12.678  2.4136 -1.7548 -0.4630
 2623SOL     OW19501   1.337   0.623  10.132 -0.3404 -0.2949  0.1953
 2623SOL    HW119502   1.428   0.598  10.151  0.4618  1.3320 -1.5509
 2623SOL    HW219503   1.306   0.614  10.222 -0.3737 -2.1263  0.0042
 2624SOL     OW19504   1.086   2.378  12.471 -0.4109 -0.2683 -0.0972
 2624SOL    HW119505   1.112   2.326  12.394  0.5667  0.5408 -0.3182
 2624SOL    HW219506   1.087   2.466  12.433 -0.4348  0.6546  2.0823
 2625SOL     OW19507   2.164   1.694   4.486  0.0462 -0.1679 -0.0868
 2625SOL    HW119508   2.179   1.787   4.466  0.1907  0.2031  1.8103
 2625SOL    HW219509   2.127   1.669   4.401  1.8972 -3.3166  0.0476
 2626SOL     OW19510   0.278   0.791   6.480 -0.1001  0.3268  0.0488
 2626SOL    HW119511   0.312   0.818   6.395  1.4461  0.0358  0.5594
 2626SOL    HW219512   0.223   0.869   6.488  0.3471  0.9603 -3.2707
 2627SOL     OW19513   2.600   0.229  10.371  0.5849 -0.0669  0.4891
 2627SOL    HW119514   2.581   0.209  10.279  0.4649  0.4140  0.4129
 2627SOL    HW219515   2.538   0.298  10.392  1.1820  0.7702 -0.5147
 2628SOL     OW19516   3.581   1.946  16.735  0.4240  0.3382  0.6773
 2628SOL    HW119517   3.670   1.947  16.771  0.2516  1.3103  1.0660
 2628SOL    HW219518   3.565   1.852  16.744  0.2886  0.3688  0.7639
 2629SOL     OW19519   2.847   4.648   9.466 -0.4788 -0.2142 -0.4343
 2629SOL    HW119520   2.842   4.735   9.426 -2.8674 -0.3329 -0.3914
 2629SOL    HW219521   2.886   4.667   9.551 -0.6854 -1.6610 -0.0245
 2630SOL     OW19522   2.879   3.313  12.858 -0.7009 -0.4129 -0.2100
 2630SOL    HW119523   2.954   3.335  12.912 -1.0148 -1.1676  0.5253
 2630SOL    HW219524   2.808   3.375  12.875 -2.6460 -2.6736 -0.1279
 2631SOL     OW19525   1.891   1.438   3.140  0.3530  0.6482 -0.0617
 2631SOL    HW119526   1.952   1.413   3.071  0.7493  2.5787 -0.4044
 2631SOL    HW219527   1.827   1.366   3.131  2.6703 -1.3045 -0.8467
 2632SOL     OW19528   0.774   0.413  12.718 -0.2153 -0.8367 -0.1474
 2632SOL    HW119529   0.860   0.387  12.750 -0.9545 -2.0446  0.8580
 2632SOL    HW219530   0.804   0.427  12.628  0.6440  0.5311  0.3488
 2633SOL     OW19531   3.310   0.308   2.846 -0.3115  0.5884  0.8698
 2633SOL    HW119532   3.234   0.269   2.802  0.1152 -0.7283  1.3221
 2633SOL    HW219533   3.389   0.301   2.792  1.7772  1.8567  3.7626
 2634SOL     OW19534   2.796   3.307   7.712  0.0651  0.9717  0.0460
 2634SOL    HW119535   2.862   3.353   7.763 -0.0720  2.4719 -1.1228
 2634SOL    HW219536   2.740   3.384   7.701 -1.7560 -0.2197  0.8426
 2635SOL     OW19537   3.887   4.047   3.252 -0.2320  0.2896 -0.5834
 2635SOL    HW119538   3.942   4.125   3.247 -2.3406  1.6770 -2.4402
 2635SOL    HW219539   3.942   3.988   3.200  0.5187  0.6502 -0.1884
 2636SOL     OW19540   2.707   1.724   2.256  0.2132 -0.2935  0.5753
 2636SOL    HW119541   2.751   1.803   2.287 -0.2660  0.8044 -1.5156
 2636SOL    HW219542   2.663   1.758   2.178  1.7404  0.3013 -0.0416
 2637SOL     OW19543   0.681   3.833   4.587  0.2162 -0.7108  0.3068
 2637SOL    HW119544   0.736   3.899   4.629  0.9304 -2.1529  1.6197
 2637SOL    HW219545   0.636   3.799   4.665  3.4017 -2.5264  1.3240
 2638SOL     OW19546   1.135   1.656  16.632  0.1696  0.0502  0.6008
 2638SOL    HW119547   1.172   1.741  16.606  0.1460 -1.0176 -2.9221
 2638SOL    HW219548   1.046   1.663  16.598  0.0184  0.2900  1.0369
 2639SOL     OW19549   0.050   0.019   7.517  0.2328  0.4084 -0.2760
 2639SOL    HW119550   0.023   0.098   7.564 -0.9502 -0.4812  0.5417
 2639SOL    HW219551   4.708   4.711   7.489 -0.9663  1.7399  0.9780
 2640SOL     OW19552   3.617   4.500   9.132 -0.3922  0.0606  0.2494
 2640SOL    HW119553   3.650   4.559   9.200  0.1443  1.1226 -0.9416
 2640SOL    HW219554   3.540   4.466   9.178  0.2794  1.0109  2.1038
 2641SOL     OW19555   1.493   2.261   6.274 -0.3534 -0.3109 -0.0859
 2641SOL    HW119556   1.525   2.171   6.265  1.0580  0.0624  1.1807
 2641SOL    HW219557   1.399   2.242   6.275  0.5167 -4.5711  1.6395
 2642SOL     OW19558   1.978   2.161   6.821  0.5955 -0.4615  0.5291
 2642SOL    HW119559   1.936   2.134   6.740  0.3329 -0.4404  0.6599
 2642SOL    HW219560   2.002   2.251   6.799  2.0632 -0.8405  0.5271
 2643SOL     OW19561   0.952   1.930   7.058  0.5293 -0.2377 -0.3132
 2643SOL    HW119562   0.934   1.985   7.135  0.1653 -1.2525  0.3348
 2643SOL    HW219563   1.021   1.874   7.094 -0.9373 -0.8695  1.5003
 2644SOL     OW19564   4.664   1.620  11.879  0.2333  0.6696 -0.6270
 2644SOL    HW119565   4.677   1.571  11.960 -0.9660 -1.2633 -1.6196
 2644SOL    HW219566   0.014   1.655  11.864  0.2556  0.6638 -0.5132
 2645SOL     OW19567   1.358   0.077  16.519 -0.1798 -0.7620  0.2677
 2645SOL    HW119568   1.436   0.133  16.510 -0.9846  0.3013 -0.1642
 2645SOL    HW219569   1.324   0.120  16.598  0.1178  0.7485 -0.4222
 2646SOL     OW19570   0.923   3.204   6.726 -0.5722 -0.2672  0.3663
 2646SOL    HW119571   0.918   3.223   6.820 -1.9632  0.6987  0.0982
 2646SOL    HW219572   0.962   3.116   6.725  0.7858  0.3501 -0.6167
 2647SOL     OW19573   4.243   4.357   3.905  0.7261 -0.1929 -0.6121
 2647SOL    HW119574   4.335   4.375   3.883  1.2835  0.0497  1.8871
 2647SOL    HW219575   4.192   4.434   3.879  0.0494 -0.8117 -1.1223
 2648SOL     OW19576   1.975   0.572  16.279  0.4491  0.6102  0.1957
 2648SOL    HW119577   1.923   0.532  16.209 -2.9618  2.9194  1.4299
 2648SOL    HW219578   2.062   0.548  16.247 -0.4087  1.1541 -2.5326
 2649SOL     OW19579   0.208   4.218   9.224  0.2190 -0.2946  0.3050
 2649SOL    HW119580   0.202   4.130   9.260 -1.0266 -0.0891  0.5959
 2649SOL    HW219581   0.297   4.245   9.245 -0.2855  1.0828  0.7150
 2650SOL     OW19582   3.716   2.307   6.797 -0.3162 -0.1540  0.4999
 2650SOL    HW119583   3.742   2.340   6.883  0.4746 -0.9604  0.5626
 2650SOL    HW219584   3.700   2.217   6.824 -0.2075 -0.3944 -0.2375
 2651SOL     OW19585   1.125   0.739   2.713 -0.4130  0.5754  0.3426
 2651SOL    HW119586   1.050   0.797   2.723 -1.2868 -0.8160  1.8507
 2651SOL    HW219587   1.203   0.794   2.704 -0.3593  0.7495  1.8142
 2652SOL     OW19588   3.342   4.484  11.386  0.2268  0.2311  0.3079
 2652SOL    HW119589   3.299   4.448  11.463 -2.4655  2.1742 -0.2912
 2652SOL    HW219590   3.334   4.404  11.333  1.2825  0.0218  0.4494
 2653SOL     OW19591   1.505   3.142   7.132  0.0816 -0.1114  0.0623
 2653SOL    HW119592   1.463   3.089   7.064 -0.1375 -0.0503  0.1474
 2653SOL    HW219593   1.587   3.094   7.143 -0.4195 -1.2767 -1.2297
 2654SOL     OW19594   1.240   1.692   5.090 -0.2946 -0.0232 -0.2204
 2654SOL    HW119595   1.297   1.662   5.161  0.5368  2.5034  0.1523
 2654SOL    HW219596   1.282   1.649   5.015  0.5932  0.8302 -0.2076
 2655SOL     OW19597   4.164   1.805   1.760 -0.2083  0.0434  0.0547
 2655SOL    HW119598   4.118   1.760   1.690 -1.3725  0.9061  0.2598
 2655SOL    HW219599   4.164   1.890   1.715 -2.3999  1.8324  3.3573
 2656SOL     OW19600   2.668   0.291   7.269 -0.0699 -0.0994  0.5938
 2656SOL    HW119601   2.701   0.296   7.359 -2.5541  2.6177  1.3521
 2656SOL    HW219602   2.664   0.197   7.249  0.6861 -0.2947  1.3548
 2657SOL     OW19603   4.394   1.802  15.614 -0.0748 -0.1052 -0.1467
 2657SOL    HW119604   4.392   1.852  15.695 -0.4923  1.0984 -0.8996
 2657SOL    HW219605   4.376   1.872  15.551 -2.5216 -1.2413 -0.6849
 2658SOL     OW19606   0.647   1.289   4.170  0.1805 -0.2304  0.3078
 2658SOL    HW119607   0.702   1.322   4.098  0.5695 -0.5310  0.4670
 2658SOL    HW219608   0.704   1.301   4.247  0.5834  1.3134 -0.2176
 2659SOL     OW19609   2.341   3.097   7.488  0.3752  0.0870 -0.4585
 2659SOL    HW119610   2.327   3.003   7.483 -2.4715  0.4635  0.1799
 2659SOL    HW219611   2.322   3.115   7.581  0.1414 -0.0643 -0.4778
 2660SOL     OW19612   1.854   3.581   8.685  0.0299  0.5842  0.2659
 2660SOL    HW119613   1.818   3.547   8.603 -0.5708  1.2876  0.2395
 2660SOL    HW219614   1.804   3.661   8.702  0.3077 -0.0289  3.9738
 2661SOL     OW19615   0.322   2.654   5.317  0.3581  0.0138  0.4133
 2661SOL    HW119616   0.319   2.626   5.226  1.7243 -0.4276  0.5109
 2661SOL    HW219617   0.352   2.570   5.351  1.6933  1.3323  2.4893
 2662SOL     OW19618   3.076   2.348   6.069 -0.0404  0.3618  0.2946
 2662SOL    HW119619   3.102   2.256   6.058  0.8130  0.4408  1.7152
 2662SOL    HW219620   3.003   2.359   6.009  0.3647  0.8612 -0.1070
 2663SOL     OW19621   1.441   2.360   7.386  0.3335 -0.3612 -0.1668
 2663SOL    HW119622   1.522   2.398   7.419 -0.6354  0.7059  0.9877
 2663SOL    HW219623   1.463   2.267   7.391 -0.9314 -0.6058  1.1804
 2664SOL     OW19624   3.360   4.659   9.849  0.3929 -0.1471 -0.3098
 2664SOL    HW119625   3.270   4.666   9.818  0.3985  1.3341  0.0087
 2664SOL    HW219626   3.404   4.624   9.772  1.4583  1.4709 -0.4523
 2665SOL     OW19627   1.518   2.122  14.429 -0.2391 -0.7066  0.3170
 2665SOL    HW119628   1.428   2.106  14.459 -0.3620 -0.1570  0.2610
 2665SOL    HW219629   1.561   2.139  14.513 -0.5739 -0.7347  0.4932
 2666SOL     OW19630   4.053   2.718  13.196 -0.7395  0.1929 -0.0069
 2666SOL    HW119631   4.060   2.746  13.287  1.5340 -0.0595 -0.0980
 2666SOL    HW219632   4.126   2.657  13.197 -0.0019  1.0479 -1.2063
 2667SOL     OW19633   4.697   4.423   0.892  0.5360  0.0783  0.0695
 2667SOL    HW119634   4.693   4.358   0.962  1.0789 -0.2905 -0.2480
 2667SOL    HW219635   4.730   4.501   0.936  0.0098 -0.5803  1.6551
 2668SOL     OW19636   3.611   1.792   3.576  0.1126  0.1903  0.1088
 2668SOL    HW119637   3.602   1.886   3.561 -0.0594  0.3083  0.9548
 2668SOL    HW219638   3.624   1.808   3.669  4.3111 -2.6145  0.0400
 2669SOL     OW19639   4.192   3.143   7.358 -0.2311 -0.4698  0.2515
 2669SOL    HW119640   4.143   3.226   7.352 -2.1271 -1.5462  0.6344
 2669SOL    HW219641   4.227   3.140   7.447 -1.4989  1.7773  0.8176
 2670SOL     OW19642   1.985   2.221  16.281 -0.4654 -0.0953  0.1315
 2670SOL    HW119643   1.970   2.254  16.369 -1.5479  1.8858 -0.7980
 2670SOL    HW219644   2.081   2.215  16.276 -0.4781 -0.3549  0.2126
 2671SOL     OW19645   0.710   1.871   3.396 -0.5127 -0.2404 -0.4246
 2671SOL    HW119646   0.694   1.831   3.482  2.0043 -0.1789  0.0690
 2671SOL    HW219647   0.638   1.828   3.349  0.9359 -0.0591 -2.8120
 2672SOL     OW19648   1.196   2.472   1.548 -0.0304  0.2979  0.1176
 2672SOL    HW119649   1.107   2.498   1.573  1.1860  2.2976  2.3062
 2672SOL    HW219650   1.226   2.559   1.522 -2.3494  0.9284 -0.4512
 2673SOL     OW19651   4.375   1.111  11.675 -0.4044 -0.0205  0.3766
 2673SOL    HW119652   4.465   1.114  11.640 -0.6590  0.2324 -0.2580
 2673SOL    HW219653   4.350   1.018  11.672  1.4517 -0.5451  0.9451
 2674SOL     OW19654   2.030   0.314   3.466 -0.4053  0.6264  0.2229
 2674SOL    HW119655   2.035   0.282   3.376 -0.7110 -0.4405  0.5875
 2674SOL    HW219656   2.004   0.239   3.520 -2.9851  1.0023 -0.4718
 2675SOL     OW19657   2.543   2.279  14.740  0.2833 -0.1442  0.1379
 2675SOL    HW119658   2.569   2.327  14.662 -0.9719 -0.7994 -0.6788
 2675SOL    HW219659   2.458   2.257  14.701  0.5595  1.3403 -1.2887
 2676SOL     OW19660   3.389   2.606   1.509  0.0200  0.3314 -0.2145
 2676SOL    HW119661   3.468   2.654   1.535  0.5888 -1.0416  0.5921
 2676SOL    HW219662   3.325   2.628   1.577 -1.6863  1.5232 -2.2034
 2677SOL     OW19663   0.175   3.376   9.054 -0.1126  0.4069 -0.3833
 2677SOL    HW119664   0.160   3.419   8.970 -0.0086 -0.3524 -0.7852
 2677SOL    HW219665   0.137   3.443   9.111 -0.3364 -0.0444  0.0026
 2678SOL     OW19666   4.320   1.360  12.770  0.3063 -0.5289  0.0627
 2678SOL    HW119667   4.353   1.449  12.773 -0.4015 -0.2182 -1.3135
 2678SOL    HW219668   4.348   1.329  12.684  1.2931 -3.1312  1.3219
 2679SOL     OW19669   4.465   1.280  13.079 -0.4447  0.1817  0.0086
 2679SOL    HW119670   4.553   1.250  13.101 -0.9018 -2.2373 -1.3860
 2679SOL    HW219671   4.449   1.342  13.150 -2.3453  1.3461 -1.4319
 2680SOL     OW19672   1.893   2.833   8.694 -0.3416  0.1391  0.4381
 2680SOL    HW119673   1.813   2.845   8.642  0.0382  1.4356  0.1684
 2680SOL    HW219674   1.896   2.921   8.731 -2.3682  0.8336 -1.0508
 2681SOL     OW19675   3.239   0.593   1.170  0.4393  0.2378 -0.7652
 2681SOL    HW119676   3.197   0.543   1.099  1.2176 -0.2228 -0.9010
 2681SOL    HW219677   3.253   0.678   1.130  0.2771 -0.0393 -1.4222
 2682SOL     OW19678   3.691   0.375   7.912  0.1650  0.5247 -0.1229
 2682SOL    HW119679   3.668   0.352   7.822 -1.1235 -0.6534  0.5020
 2682SOL    HW219680   3.624   0.440   7.931  0.0546  0.7982 -1.4163
 2683SOL     OW19681   0.084   1.005   7.773 -0.1013 -0.8927 -0.4929
 2683SOL    HW119682   0.047   1.091   7.789 -0.3884 -1.0537 -0.2909
 2683SOL    HW219683   0.107   1.007   7.680 -1.3577  0.4369 -0.7638
 2684SOL     OW19684   3.707   3.861   0.061  0.0493 -0.1821 -0.0573
 2684SOL    HW119685   3.706   3.860  17.714  2.2211  0.3859 -0.0698
 2684SOL    HW219686   3.680   3.771   0.079 -2.7781  0.5570 -0.5735
 2685SOL     OW19687   2.340   4.173  16.559  0.7588 -0.0081 -0.1664
 2685SOL    HW119688   2.366   4.194  16.649  1.7212  0.3368 -0.5181
 2685SOL    HW219689   2.324   4.262  16.526  2.8949  0.2756 -0.4613
 2686SOL     OW19690   3.832   1.368  11.612  0.0924  0.0707  0.2134
 2686SOL    HW119691   3.809   1.434  11.547  0.2471 -0.4655 -0.3827
 2686SOL    HW219692   3.886   1.300  11.572 -1.9295 -0.7750 -1.0590
 2687SOL     OW19693   2.915   3.224   4.732  0.3674  0.5560  0.1548
 2687SOL    HW119694   2.940   3.303   4.683  1.7908 -0.3775 -0.6417
 2687SOL    HW219695   2.996   3.218   4.784  0.6691  2.7032 -0.0489
 2688SOL     OW19696   1.188   0.794  10.863  0.5839 -0.6096 -0.4467
 2688SOL    HW119697   1.159   0.791  10.772  1.8464  0.5096 -0.8830
 2688SOL    HW219698   1.105   0.811  10.909  0.4814 -1.7256 -0.2296
 2689SOL     OW19699   3.268   0.222  14.395  0.5320  0.1708  0.4279
 2689SOL    HW119700   3.196   0.171  14.433  0.9417 -0.4075  0.4186
 2689SOL    HW219701   3.326   0.251  14.465  0.7496  0.7804 -0.0010
 2690SOL     OW19702   2.575   1.321   6.899  0.4952 -0.0253 -0.7916
 2690SOL    HW119703   2.637   1.324   6.826 -0.8100  1.4560 -1.8317
 2690SOL    HW219704   2.566   1.226   6.902 -0.4196  0.0222 -2.1428
 2691SOL     OW19705   2.137   1.681  16.777  0.4213  0.3423 -0.2526
 2691SOL    HW119706   2.070   1.646  16.718  0.0990  0.4152  0.0720
 2691SOL    HW219707   2.201   1.693  16.707  0.2060  2.5638 -0.0587
 2692SOL     OW19708   1.617   3.876   5.151  0.1749 -0.1297 -0.2851
 2692SOL    HW119709   1.691   3.834   5.107  0.4129  0.0847 -0.0920
 2692SOL    HW219710   1.554   3.810   5.123 -1.8871  0.5110  2.8172
 2693SOL     OW19711   0.148   0.257   9.650 -0.4218  0.1157  0.4812
 2693SOL    HW119712   0.167   0.289   9.562  1.3164  1.0159  1.1662
 2693SOL    HW219713   0.233   0.266   9.694 -0.0998  4.3726 -1.0286
 2694SOL     OW19714   1.061   1.805   2.448  0.2209 -0.5989  0.5261
 2694SOL    HW119715   1.115   1.881   2.467  1.8672 -1.2943 -1.3402
 2694SOL    HW219716   0.989   1.844   2.399  0.6047  0.3562  0.7200
 2695SOL     OW19717   4.309   3.188  14.407  0.1868  0.0035  0.3339
 2695SOL    HW119718   4.252   3.146  14.342  0.7983  0.9244 -0.8037
 2695SOL    HW219719   4.309   3.281  14.386  0.0874 -0.4027 -1.4399
 2696SOL     OW19720   2.916   2.549   4.851 -0.2305  0.5537  0.2279
 2696SOL    HW119721   2.834   2.590   4.879 -1.9923 -1.4902 -1.9985
 2696SOL    HW219722   2.922   2.462   4.892 -1.1709  0.3219 -0.1349
 2697SOL     OW19723   0.953   1.574   0.678 -0.1668 -0.1053  0.5875
 2697SOL    HW119724   0.920   1.484   0.673 -1.0038  0.0993  2.5022
 2697SOL    HW219725   1.013   1.574   0.603  2.1687  2.2126  2.4367
 2698SOL     OW19726   4.088   3.554   6.980  0.4452  0.2284 -0.6122
 2698SOL    HW119727   4.131   3.547   7.065 -1.5015 -1.2956  0.2274
 2698SOL    HW219728   4.067   3.461   6.971  1.7618 -0.0114 -1.1890
 2699SOL     OW19729   1.430   3.123  12.135 -0.1334 -0.1636  0.3198
 2699SOL    HW119730   1.523   3.102  12.129 -0.1684 -0.3142  0.3158
 2699SOL    HW219731   1.433   3.182  12.211 -1.9496 -0.5511  0.6904
 2700SOL     OW19732   2.131   3.171   5.065 -0.1184  0.1911  0.1116
 2700SOL    HW119733   2.179   3.109   5.121 -4.1672 -1.7958  1.3905
 2700SOL    HW219734   2.165   3.136   4.982  0.6510  1.3675 -0.0663
 2701SOL     OW19735   4.458   1.898   7.557 -0.3616 -0.0105  0.2498
 2701SOL    HW119736   4.369   1.928   7.575 -0.1872 -0.5113  1.9736
 2701SOL    HW219737   4.518   1.969   7.578 -0.3684  0.1903 -0.4103
 2702SOL     OW19738   2.159   4.467   2.751 -0.5784 -0.6131 -0.0706
 2702SOL    HW119739   2.230   4.472   2.814 -0.3721 -1.2415 -0.2471
 2702SOL    HW219740   2.088   4.433   2.805  0.9528 -0.0157  2.2897
 2703SOL     OW19741   1.531   2.637   2.531  0.5154 -0.2856  0.2155
 2703SOL    HW119742   1.617   2.671   2.506  1.1094 -2.5155 -0.7668
 2703SOL    HW219743   1.474   2.712   2.520  1.6880  0.8284  1.7984
 2704SOL     OW19744   1.674   1.805   4.633  0.8642  0.4442  0.4920
 2704SOL    HW119745   1.753   1.752   4.636 -1.0407 -2.3578  1.0196
 2704SOL    HW219746   1.680   1.836   4.543 -0.0540 -0.0730  0.2517
 2705SOL     OW19747   0.374   3.564   7.846 -0.1654 -0.8692 -0.3699
 2705SOL    HW119748   0.286   3.596   7.827  0.4371  1.9723  1.5414
 2705SOL    HW219749   0.356   3.493   7.908  1.4181 -1.3803 -0.4862
 2706SOL     OW19750   4.330   3.580  16.551  1.1050 -0.0901  0.3452
 2706SOL    HW119751   4.241   3.606  16.526  0.0012 -2.5100  1.7891
 2706SOL    HW219752   4.362   3.553  16.465 -1.5464 -1.2635 -0.2754
 2707SOL     OW19753   4.414   2.401   7.154 -0.2813  0.4581 -0.1068
 2707SOL    HW119754   4.358   2.450   7.095 -0.5311  0.9197  0.5055
 2707SOL    HW219755   4.435   2.467   7.221  0.5670 -0.6206  0.6812
 2708SOL     OW19756   4.131   3.107   2.995  0.5502 -0.3147 -0.3265
 2708SOL    HW119757   4.176   3.047   3.054  2.5496 -0.0245 -1.5765
 2708SOL    HW219758   4.120   3.051   2.918 -0.0373  1.4084 -1.4756
 2709SOL     OW19759   1.234   3.056   6.042 -0.1363 -0.1475  0.9128
 2709SOL    HW119760   1.195   3.087   6.123 -1.2647  0.7790  0.0071
 2709SOL    HW219761   1.248   2.962   6.051 -0.9286 -0.3290  0.2277
 2710SOL     OW19762   0.666   3.572  16.822 -0.3712  0.2088  0.1928
 2710SOL    HW119763   0.657   3.573  16.917 -0.5718 -0.2362  0.1767
 2710SOL    HW219764   0.650   3.664  16.800  2.0620  0.2086 -1.6037
 2711SOL     OW19765   0.230   1.437   8.185  0.0121 -0.3557  0.0909
 2711SOL    HW119766   0.159   1.374   8.173  0.6894 -0.8346 -1.3162
 2711SOL    HW219767   0.197   1.488   8.260 -1.9253 -1.0582 -0.2707
 2712SOL     OW19768   0.401   0.769  12.851  0.1710 -0.0310 -0.1256
 2712SOL    HW119769   0.306   0.763  12.858  0.2045 -0.3025  0.0786
 2712SOL    HW219770   0.434   0.689  12.890  2.2482 -0.3340 -2.4682
 2713SOL     OW19771   2.651   2.178   7.851  0.2769  0.0874 -0.5616
 2713SOL    HW119772   2.731   2.145   7.892 -0.7689 -2.2291 -0.3640
 2713SOL    HW219773   2.641   2.132   7.768  3.1848 -0.6572 -0.5044
 2714SOL     OW19774   1.579   0.266  15.731 -0.2539  0.2927 -0.2470
 2714SOL    HW119775   1.643   0.321  15.775 -0.0902 -0.3577  0.3347
 2714SOL    HW219776   1.631   0.247  15.653  0.9899  0.1711  0.6107
 2715SOL     OW19777   1.495   0.116   0.764  0.7707  0.6263  0.8121
 2715SOL    HW119778   1.485   0.022   0.782  2.0758  0.4708  0.7221
 2715SOL    HW219779   1.459   0.156   0.843 -1.3882 -1.2861  0.8056
 2716SOL     OW19780   2.751   2.288   0.723 -0.1761  0.0727  0.7947
 2716SOL    HW119781   2.743   2.384   0.725  0.7660  0.1884 -1.0469
 2716SOL    HW219782   2.668   2.271   0.768 -0.6377  0.7518  0.2223
 2717SOL     OW19783   1.665   3.358   3.450 -0.4635  0.1662 -1.1132
 2717SOL    HW119784   1.731   3.417   3.414 -0.7524  1.7434  0.8875
 2717SOL    HW219785   1.593   3.420   3.457 -0.0308  0.6849 -1.2671
 2718SOL     OW19786   1.309   3.654   8.534 -0.4741 -0.1987 -0.8055
 2718SOL    HW119787   1.368   3.678   8.606 -0.0921 -0.1026 -1.1446
 2718SOL    HW219788   1.367   3.685   8.464 -1.3374  0.3686 -1.2765
 2719SOL     OW19789   0.087   1.435   1.308  0.2204 -0.0338  0.3468
 2719SOL    HW119790   0.092   1.371   1.237 -1.8685 -1.7025  1.7093
 2719SOL    HW219791   0.171   1.479   1.295  0.6070 -0.8495  0.0619
 2720SOL     OW19792   2.727   2.004  13.366  0.9074 -0.4366 -0.4607
 2720SOL    HW119793   2.748   2.062  13.293  1.8345 -0.9587 -0.6112
 2720SOL    HW219794   2.697   2.069  13.430  1.1658 -0.5465 -0.2246
 2721SOL     OW19795   0.575   2.638   3.541 -0.0031  0.0383 -0.0586
 2721SOL    HW119796   0.616   2.603   3.620  1.2276  2.3055  0.3058
 2721SOL    HW219797   0.651   2.653   3.485  0.3936  0.0451  0.4714
 2722SOL     OW19798   1.013   1.429   8.970 -0.4632 -0.4111 -0.2730
 2722SOL    HW119799   0.943   1.393   8.916  0.4106 -0.1440 -1.5944
 2722SOL    HW219800   1.080   1.410   8.904 -0.0316  0.5340 -0.1184
 2723SOL     OW19801   0.906   0.734   3.849 -0.1026  0.1402  0.2536
 2723SOL    HW119802   0.854   0.765   3.923 -0.6735  1.0878 -0.5256
 2723SOL    HW219803   0.833   0.698   3.799 -1.2377 -0.3860  2.3001
 2724SOL     OW19804   1.801   0.257   2.306 -0.0991 -0.3134  0.1439
 2724SOL    HW119805   1.812   0.218   2.220  1.1807  1.1798 -0.3665
 2724SOL    HW219806   1.835   0.345   2.294  0.0765 -0.5972 -1.4096
 2725SOL     OW19807   1.780   0.811   8.263  0.3531 -0.0248  0.1005
 2725SOL    HW119808   1.699   0.815   8.314  1.0599 -1.0907  1.3207
 2725SOL    HW219809   1.825   0.890   8.291  0.4580 -0.0517  0.0059
 2726SOL     OW19810   1.071   1.012   9.328 -0.3845  0.1887  0.6151
 2726SOL    HW119811   1.112   1.029   9.413 -0.5087 -1.3547  0.9824
 2726SOL    HW219812   0.992   0.965   9.357  0.9926 -1.9944  0.7999
 2727SOL     OW19813   0.539   3.420   8.865 -0.4013 -0.6481  0.4402
 2727SOL    HW119814   0.535   3.334   8.823  1.8180 -0.7591  0.4440
 2727SOL    HW219815   0.585   3.468   8.796 -1.2678  0.2718  0.5130
 2728SOL     OW19816   0.416   4.061   8.824 -0.1428 -0.0467 -0.7117
 2728SOL    HW119817   0.480   4.024   8.762 -0.3856 -2.3893  0.4379
 2728SOL    HW219818   0.430   3.996   8.893 -0.0328  0.3093 -0.4047
 2729SOL     OW19819   3.874   1.987   7.662 -0.1660  0.4373  0.2189
 2729SOL    HW119820   3.940   2.048   7.629 -0.4767  0.4916 -0.3113
 2729SOL    HW219821   3.921   1.904   7.671 -0.4587  0.1456 -0.8559
 2730SOL     OW19822   2.352   1.845   0.028 -0.5483 -0.5389 -0.1741
 2730SOL    HW119823   2.381   1.788  17.705 -0.0658 -0.5472  0.0291
 2730SOL    HW219824   2.428   1.860   0.084  1.8506 -1.9320 -3.0861
 2731SOL     OW19825   4.718   0.735   9.135 -0.0217 -0.1121 -0.1327
 2731SOL    HW119826   4.717   0.822   9.174 -2.0106 -0.6433  0.9699
 2731SOL    HW219827   0.062   0.697   9.168  0.5211  1.1904  0.0176
 2732SOL     OW19828   4.515   1.308   0.252  0.5236 -0.2691 -0.7692
 2732SOL    HW119829   4.507   1.215   0.235 -0.9616  0.3319 -3.2750
 2732SOL    HW219830   4.482   1.299   0.342  0.1817 -1.5706 -1.0262
 2733SOL     OW19831   3.202   3.470   8.270 -0.2932  0.0921 -0.5445
 2733SOL    HW119832   3.281   3.423   8.296  0.3006  1.3560 -0.0405
 2733SOL    HW219833   3.215   3.487   8.176  1.1463  3.4734  0.2509
 2734SOL     OW19834   2.724   1.574   6.496  0.4946  0.3451  0.5480
 2734SOL    HW119835   2.678   1.631   6.557 -1.0555  0.5099 -0.7784
 2734SOL    HW219836   2.792   1.636   6.470  0.0071 -0.1277 -1.9435
 2735SOL     OW19837   3.206   1.422   1.779 -0.5406  0.1279  0.3327
 2735SOL    HW119838   3.268   1.415   1.852 -0.2615 -2.4505 -0.1307
 2735SOL    HW219839   3.120   1.393   1.808 -1.6409  2.1299 -0.9656
 2736SOL     OW19840   0.984   4.520  12.361  0.2779  0.2683  0.3115
 2736SOL    HW119841   0.889   4.531  12.364  0.5375  2.2541  1.1231
 2736SOL    HW219842   1.000   4.443  12.306 -0.4010  0.0749  0.3959
 2737SOL     OW19843   2.003   4.591   7.040  0.9702 -0.1285 -0.4819
 2737SOL    HW119844   1.979   4.570   6.950  1.6174 -0.5799 -0.5523
 2737SOL    HW219845   1.971   4.513   7.085  0.8999 -0.0500 -0.3944
 2738SOL     OW19846   1.822   2.691   0.900  0.0773  0.7882 -0.4061
 2738SOL    HW119847   1.744   2.636   0.900  0.2504  0.5360  1.5880
 2738SOL    HW219848   1.783   2.777   0.919 -2.8738 -0.7587  0.4508
 2739SOL     OW19849   2.598   2.931  11.367 -0.4162  0.0161  0.8332
 2739SOL    HW119850   2.593   2.909  11.460  0.3052 -0.3909  0.7764
 2739SOL    HW219851   2.693   2.921  11.354 -0.6934 -1.0789 -0.3360
 2740SOL     OW19852   3.012   3.785  16.916 -1.0628  0.3386 -0.2273
 2740SOL    HW119853   2.974   3.832  16.841 -0.5638  1.9374  0.5173
 2740SOL    HW219854   2.986   3.847  16.983  1.1889  0.6281  0.3935
 2741SOL     OW19855   2.571   2.166   2.694 -0.3964  0.3330  0.2301
 2741SOL    HW119856   2.490   2.121   2.718 -3.0874  3.7799 -2.2324
 2741SOL    HW219857   2.609   2.198   2.776 -1.6998  1.6059  0.3499
 2742SOL     OW19858   4.701   0.224   7.685  0.4250  0.3594 -0.3893
 2742SOL    HW119859   4.668   0.290   7.624  1.0011  0.9200 -0.1061
 2742SOL    HW219860   4.645   0.235   7.762  1.4933  2.5211  0.0801
 2743SOL     OW19861   2.367   4.226  12.716 -0.1996  0.5612  0.2400
 2743SOL    HW119862   2.382   4.132  12.703  0.9158  0.8139 -0.2693
 2743SOL    HW219863   2.305   4.228  12.789 -0.2823 -2.4955  0.2592
 2744SOL     OW19864   4.545   1.900   5.670 -0.2322 -0.6304  0.3868
 2744SOL    HW119865   4.469   1.957   5.656  1.6772  1.6453 -0.7360
 2744SOL    HW219866   4.516   1.861   5.753  0.4977 -0.6213  0.6506
 2745SOL     OW19867   3.210   0.505   3.017 -0.0540  0.3158  0.0035
 2745SOL    HW119868   3.241   0.439   2.955 -1.5859  0.5658 -1.0237
 2745SOL    HW219869   3.288   0.551   3.047 -0.0390  0.1660  0.1957
 2746SOL     OW19870   2.884   1.979  17.522  0.0017 -0.2234 -0.1424
 2746SOL    HW119871   2.960   2.036  17.535 -1.4448  1.6649  0.1457
 2746SOL    HW219872   2.879   1.962  17.428  1.9673 -1.1076 -0.0862
 2747SOL     OW19873   1.866   2.011   3.237  0.4984 -0.0004  0.8631
 2747SOL    HW119874   1.922   2.089   3.246  2.3149 -1.1193 -0.6363
 2747SOL    HW219875   1.899   1.959   3.310 -1.2386  0.5662  2.0483
 2748SOL     OW19876   3.035   0.786   7.695 -0.5070  0.0401 -0.2769
 2748SOL    HW119877   3.074   0.712   7.743 -2.8730 -0.5630  0.7212
 2748SOL    HW219878   3.040   0.855   7.761 -2.3043  1.1153 -1.2845
 2749SOL     OW19879   0.760   2.503   7.268 -0.0121  0.3765 -0.5264
 2749SOL    HW119880   0.734   2.591   7.294  0.3704  1.5279 -4.0919
 2749SOL    HW219881   0.728   2.494   7.179 -5.2616 -1.8930  1.5980
 2750SOL     OW19882   0.457   3.743   7.356  0.6277 -0.3077  0.3066
 2750SOL    HW119883   0.543   3.760   7.395  1.3263  0.0799 -1.3816
 2750SOL    HW219884   0.469   3.805   7.284  1.1505  0.8681  1.4186
 2751SOL     OW19885   2.161   1.955   0.403 -0.4437  0.7302  0.5107
 2751SOL    HW119886   2.213   2.000   0.336  0.0990  0.6283  0.8619
 2751SOL    HW219887   2.192   1.997   0.484 -0.8942  2.5889 -0.2775
 2752SOL     OW19888   2.124   0.274   4.444 -0.0790 -0.4753 -0.3638
 2752SOL    HW119889   2.102   0.366   4.429 -2.0608 -1.0761 -1.0264
 2752SOL    HW219890   2.121   0.253   4.351  2.1824 -0.5447 -0.4140
 2753SOL     OW19891   3.802   0.965   1.700 -0.2513 -0.3102  0.4034
 2753SOL    HW119892   3.835   0.993   1.786  1.1743 -3.6276  0.9309
 2753SOL    HW219893   3.881   0.921   1.668  0.6317  1.3007  0.3554
 2754SOL     OW19894   1.775   4.239   1.460  0.3430  0.0604  0.2780
 2754SOL    HW119895   1.725   4.260   1.538  0.9273 -1.2230  0.9992
 2754SOL    HW219896   1.723   4.281   1.392  0.9248 -0.6520 -0.6160
 2755SOL     OW19897   2.042   1.830   1.171  0.1114 -0.3078  0.7617
 2755SOL    HW119898   1.957   1.786   1.173 -1.3047  2.4896  1.1504
 2755SOL    HW219899   2.013   1.921   1.177 -2.1359 -1.0960  1.6930
 2756SOL     OW19900   1.823   3.998   3.791  0.0678 -0.5186 -0.1122
 2756SOL    HW119901   1.758   4.040   3.847 -0.0644 -0.6229 -0.1876
 2756SOL    HW219902   1.871   4.075   3.761 -2.1598  1.6267  1.8709
 2757SOL     OW19903   2.262   3.616  15.241  0.4458  0.0214 -0.2942
 2757SOL    HW119904   2.229   3.534  15.203  0.6463  0.3266 -1.1442
 2757SOL    HW219905   2.296   3.583  15.324  1.0866  1.3672 -0.0228
 2758SOL     OW19906   3.861   0.255   5.532  0.0884  0.1887 -0.0960
 2758SOL    HW119907   3.825   0.274   5.445  0.6616 -0.9982 -0.5975
 2758SOL    HW219908   3.780   0.254   5.583  0.4050  0.3954  0.4029
 2759SOL     OW19909   3.788   2.367  12.671  0.4159 -0.4630  0.0158
 2759SOL    HW119910   3.694   2.351  12.660  0.5211 -0.0999 -1.4100
 2759SOL    HW219911   3.793   2.429  12.744  0.0793 -2.7164  1.9473
 2760SOL     OW19912   3.330   1.380   8.923 -0.4948  0.7790 -0.0262
 2760SOL    HW119913   3.374   1.402   8.841  1.8361 -0.0604  0.9858
 2760SOL    HW219914   3.398   1.390   8.990  0.0467 -2.3811 -0.0814
 2761SOL     OW19915   1.984   0.707  17.528  0.2594  0.3481 -0.2804
 2761SOL    HW119916   1.932   0.716  17.608 -0.7293  0.4934 -0.9516
 2761SOL    HW219917   2.067   0.719  17.576  0.4954 -0.4308 -0.4868
 2762SOL     OW19918   3.667   2.639   9.350 -0.1388 -0.0009 -0.1568
 2762SOL    HW119919   3.627   2.594   9.424  4.1213 -1.8581  1.0536
 2762SOL    HW219920   3.650   2.566   9.290 -0.2507  0.2568 -0.4377
 2763SOL     OW19921   4.397   0.936  10.637 -0.1484 -0.0669 -0.8744
 2763SOL    HW119922   4.382   0.852  10.592  0.4577 -0.2863 -0.6633
 2763SOL    HW219923   4.483   0.963  10.607 -0.6402  1.7070 -0.7033
 2764SOL     OW19924   4.197   1.747   9.909 -0.2344  0.4130 -0.0586
 2764SOL    HW119925   4.165   1.824   9.954  0.1526  0.4034  0.2341
 2764SOL    HW219926   4.266   1.717   9.968 -0.4857  1.8067  0.9173
 2765SOL     OW19927   3.472   4.226   6.679  0.2902 -0.1030  0.2080
 2765SOL    HW119928   3.532   4.299   6.692 -2.0954  1.4905  2.2039
 2765SOL    HW219929   3.392   4.275   6.661  2.8896  3.6615 -1.0517
 2766SOL     OW19930   2.448   2.447  13.039 -0.7013  0.7804 -0.2625
 2766SOL    HW119931   2.532   2.491  13.027 -1.1197  2.1386  1.6155
 2766SOL    HW219932   2.457   2.417  13.130  0.8511  2.2621  0.0545
 2767SOL     OW19933   4.673   1.018   8.377 -0.5881 -0.2778  0.5712
 2767SOL    HW119934   0.002   0.956   8.407  0.1614 -0.2398 -0.9762
 2767SOL    HW219935   4.691   1.011   8.283  1.0325  0.3502  0.8415
 2768SOL     OW19936   0.285   4.270  16.896  0.3346  0.5359  0.2672
 2768SOL    HW119937   0.301   4.305  16.808 -1.3664  0.2904 -0.1252
 2768SOL    HW219938   0.372   4.232  16.909  0.2652  0.1757 -0.3249
 2769SOL     OW19939   0.148   2.567   4.812 -0.3333 -0.2643 -0.0209
 2769SOL    HW119940   0.070   2.515   4.794 -1.3416  0.7515  1.5142
 2769SOL    HW219941   0.205   2.492   4.831  0.5491 -0.3568 -2.9854
 2770SOL     OW19942   2.687   2.015  14.575  0.4730 -0.5906  0.1259
 2770SOL    HW119943   2.614   2.036  14.517  0.2664  0.2972  0.7125
 2770SOL    HW219944   2.712   2.107  14.582 -0.7482 -0.4435  2.5619
 2771SOL     OW19945   2.776   4.711   3.516  0.2045  0.1390  0.3196
 2771SOL    HW119946   2.841   4.642   3.524 -0.9539 -0.7414  2.0990
 2771SOL    HW219947   2.793   0.038   3.584 -1.5014  0.5213  0.3806
 2772SOL     OW19948   2.821   3.726   5.497 -0.0970 -0.1499 -0.1316
 2772SOL    HW119949   2.802   3.806   5.448 -3.7533 -0.9225  0.0438
 2772SOL    HW219950   2.762   3.742   5.570  1.2500  0.5140  0.7980
 2773SOL     OW19951   1.981   4.104  16.362  0.1950 -0.4991  0.2242
 2773SOL    HW119952   1.921   4.147  16.422  0.5139  0.4439 -0.1252
 2773SOL    HW219953   2.038   4.059  16.425 -0.4775 -1.2751  0.2801
 2774SOL     OW19954   4.556   2.191  12.182 -0.5745 -0.4668  0.4438
 2774SOL    HW119955   4.526   2.108  12.146  0.7694 -1.0614  0.6917
 2774SOL    HW219956   4.613   2.216  12.109 -0.7447  1.7812  1.0646
 2775SOL     OW19957   1.745   3.033   2.084  0.1483  0.3357 -0.2390
 2775SOL    HW119958   1.728   3.071   2.170  0.0313  1.1491 -0.6206
 2775SOL    HW219959   1.832   2.992   2.091  0.2986  1.0861  2.4745
 2776SOL     OW19960   2.275   4.642   1.987  0.1584 -0.1736 -0.5606
 2776SOL    HW119961   2.239   4.701   1.921 -1.1710 -0.9188 -0.4858
 2776SOL    HW219962   2.360   4.685   2.000 -1.1139  1.7693  1.3423
 2777SOL     OW19963   3.602   2.940   7.497  0.4103  0.4196 -0.0560
 2777SOL    HW119964   3.627   2.848   7.496  1.3064  0.7052 -3.2606
 2777SOL    HW219965   3.517   2.943   7.453  0.2280  0.3219  0.2851
 2778SOL     OW19966   3.182   3.861   7.176 -0.3632 -0.0876 -0.0319
 2778SOL    HW119967   3.125   3.796   7.219 -1.1505  0.6884  0.1023
 2778SOL    HW219968   3.253   3.878   7.238  0.6015 -1.4762 -0.7594
 2779SOL     OW19969   2.046   2.220  16.565 -0.1919  0.4829 -0.1136
 2779SOL    HW119970   2.107   2.287  16.597  2.3413 -0.9496 -1.9921
 2779SOL    HW219971   2.036   2.166  16.643 -0.5215  0.5017 -0.1389
 2780SOL     OW19972   0.390   0.380  16.030  0.5333 -0.3067 -0.4908
 2780SOL    HW119973   0.473   0.386  16.078  1.6916  0.8794 -2.6301
 2780SOL    HW219974   0.347   0.464  16.044  2.7025  0.8734 -0.8142
 2781SOL     OW19975   1.221   2.597  12.054 -0.3516  0.1114  0.3772
 2781SOL    HW119976   1.153   2.650  12.095 -0.2546  1.7504 -1.6134
 2781SOL    HW219977   1.269   2.661  12.001  1.3093 -0.8863  0.6513
 2782SOL     OW19978   0.642   0.985   7.330  0.4074  0.2755  0.4682
 2782SOL    HW119979   0.657   1.052   7.397  0.6585 -0.0785  0.7667
 2782SOL    HW219980   0.547   0.977   7.319  0.7408 -3.1847 -0.0300
 2783SOL     OW19981   1.940   3.453   7.050 -0.3090 -0.0748 -0.8057
 2783SOL    HW119982   1.984   3.390   7.107  0.3219 -0.8406 -2.1256
 2783SOL    HW219983   1.850   3.422   7.045 -0.1177 -0.8389  0.6199
 2784SOL     OW19984   4.178   2.155   0.329 -0.0102  0.0353 -0.1022
 2784SOL    HW119985   4.146   2.130   0.243 -1.0818  0.7885  0.0662
 2784SOL    HW219986   4.103   2.209   0.355 -1.0556 -2.1750  1.4216
 2785SOL     OW19987   4.353   0.141   4.558  0.1138 -0.1420 -0.3627
 2785SOL    HW119988   4.321   0.198   4.488 -1.9815  0.0228  0.6967
 2785SOL    HW219989   4.422   0.190   4.603  0.7200 -0.1058 -1.3415
 2786SOL     OW19990   2.694   0.425   8.425  0.2709 -0.1185  0.1725
 2786SOL    HW119991   2.760   0.423   8.495  1.6586  3.1024 -1.0450
 2786SOL    HW219992   2.637   0.488   8.469 -1.5936  0.0453 -2.5198
 2787SOL     OW19993   0.717   4.127   5.511 -0.0066  0.2393  0.2675
 2787SOL    HW119994   0.714   4.065   5.438  0.7745  1.2364 -0.6083
 2787SOL    HW219995   0.685   4.211   5.480 -2.5098 -0.3566  1.1895
 2788SOL     OW19996   2.006   1.135   8.122  0.4537  0.2384  0.4591
 2788SOL    HW119997   1.953   1.121   8.201  1.2062  0.6845  1.0508
 2788SOL    HW219998   2.089   1.099   8.155  0.7661 -0.8311 -1.5311
 2789SOL     OW19999   1.004   1.987   2.019 -0.1209 -0.5364 -0.3255
 2789SOL    HW120000   0.974   1.939   1.942 -0.1543  0.4368 -0.9191
 2789SOL    HW220001   1.077   1.930   2.045  1.3647  0.4970 -2.1908
 2790SOL     OW20002   0.421   2.869   7.111 -0.2383 -1.1641  0.1380
 2790SOL    HW120003   0.411   2.891   7.204  2.5408 -2.1693  0.6963
 2790SOL    HW220004   0.334   2.839   7.089 -1.2300  2.2207 -0.6338
 2791SOL     OW20005   4.289   1.928   6.932 -0.0152  0.1035 -0.5495
 2791SOL    HW120006   4.290   2.021   6.955  1.5958  0.1687 -0.8603
 2791SOL    HW220007   4.382   1.904   6.934  0.0743  0.6196  1.4091
 2792SOL     OW20008   2.409   4.345  14.473  0.1913  0.6099 -0.0905
 2792SOL    HW120009   2.359   4.274  14.514  0.7781 -1.5237 -3.0237
 2792SOL    HW220010   2.361   4.364  14.392 -0.7397  1.4840  0.6779
 2793SOL     OW20011   0.305   2.963   2.847  0.0277 -0.5223 -0.3613
 2793SOL    HW120012   0.319   2.869   2.836 -1.6209 -0.8828  0.6995
 2793SOL    HW220013   0.305   2.973   2.942  2.0229  1.5338 -0.5686
 2794SOL     OW20014   1.065   3.766   7.486 -0.3209  0.2288 -0.0079
 2794SOL    HW120015   1.007   3.842   7.491  0.1382  0.5332  0.6345
 2794SOL    HW220016   1.065   3.742   7.578 -0.5279 -0.1683 -0.1120
 2795SOL     OW20017   3.492   0.492   4.248 -0.1136 -0.0947 -0.2147
 2795SOL    HW120018   3.566   0.431   4.246 -0.6139 -0.6435 -2.0852
 2795SOL    HW220019   3.437   0.458   4.178 -1.0005  0.7207  0.0911
 2796SOL     OW20020   3.475   2.806   8.266  0.0461 -0.5726  0.3626
 2796SOL    HW120021   3.539   2.744   8.230  1.2429  0.3408  0.9210
 2796SOL    HW220022   3.420   2.827   8.190 -1.9698  0.6109  2.1781
 2797SOL     OW20023   2.215   3.274  17.433 -0.5193  0.4484 -0.2060
 2797SOL    HW120024   2.216   3.186  17.470 -1.5755  1.1280  1.4254
 2797SOL    HW220025   2.184   3.318  17.511  2.6144  3.6378 -0.7346
 2798SOL     OW20026   1.762   1.369   8.405 -0.2119  0.2362 -0.7185
 2798SOL    HW120027   1.820   1.424   8.458  0.4203  1.0187 -2.2195
 2798SOL    HW220028   1.715   1.439   8.359 -2.1788 -0.4790  0.2286
 2799SOL     OW20029   1.908   1.389   4.469 -0.0083 -0.4471  0.3141
 2799SOL    HW120030   1.980   1.326   4.465 -0.3825 -0.9141  1.0824
 2799SOL    HW220031   1.855   1.350   4.399 -0.2403 -1.9352  1.3399
 2800SOL     OW20032   4.015   2.575   2.862 -0.1200 -0.2248 -0.2519
 2800SOL    HW120033   4.107   2.552   2.875 -0.0080  0.9029  0.9183
 2800SOL    HW220034   4.012   2.639   2.933  0.0203  0.2211 -0.6447
 2801SOL     OW20035   3.504   1.008  11.384 -0.1156  0.4349 -0.1357
 2801SOL    HW120036   3.545   1.093  11.366 -0.8494  0.4386 -1.8522
 2801SOL    HW220037   3.582   0.959  11.409  0.0867  0.1355 -1.3121
 2802SOL     OW20038   4.395   4.309  11.322 -0.4001  0.2886  0.1709
 2802SOL    HW120039   4.346   4.281  11.400 -1.9081  1.8260 -0.2268
 2802SOL    HW220040   4.370   4.401  11.310 -0.8748  0.2813  1.0815
 2803SOL     OW20041   3.742   2.174  14.969  0.5582 -0.2630 -0.3600
 2803SOL    HW120042   3.649   2.154  14.961  0.6510 -0.7680 -0.1829
 2803SOL    HW220043   3.756   2.256  14.922  1.0976 -1.5542 -2.4511
 2804SOL     OW20044   0.161   2.127  16.367  0.2430 -0.1721  0.8045
 2804SOL    HW120045   0.182   2.180  16.290 -0.9578 -1.2259 -0.2543
 2804SOL    HW220046   0.200   2.044  16.339 -1.7225 -0.6683 -0.4825
 2805SOL     OW20047   0.564   2.168   7.669  0.0750  0.0674  0.3155
 2805SOL    HW120048   0.619   2.161   7.591 -2.0984 -0.5866 -1.1526
 2805SOL    HW220049   0.557   2.076   7.696 -0.1242  0.1216  0.4483
 2806SOL     OW20050   2.808   2.071   6.578 -0.3522 -0.4499 -0.4919
 2806SOL    HW120051   2.753   2.062   6.501  0.1203  0.3595 -0.9270
 2806SOL    HW220052   2.743   2.050   6.646  0.7559  2.1398  1.3801
 2807SOL     OW20053   3.977   4.465   8.328 -0.1395 -0.1735 -0.3493
 2807SOL    HW120054   3.907   4.511   8.375  1.8103  3.2746 -0.8543
 2807SOL    HW220055   3.976   4.518   8.249 -1.2990  2.0022  1.1209
 2808SOL     OW20056   1.396   1.537   2.048 -0.5030  0.5444  0.1609
 2808SOL    HW120057   1.484   1.515   2.080  0.4066 -0.3344 -2.8294
 2808SOL    HW220058   1.402   1.630   2.026 -1.4391  0.9704  1.7561
 2809SOL     OW20059   1.224   1.547   1.105  0.2558 -0.2067  0.0760
 2809SOL    HW120060   1.290   1.479   1.122  1.3456  0.8402 -0.0150
 2809SOL    HW220061   1.270   1.617   1.152 -1.7187  1.1746 -0.0811
 2810SOL     OW20062   3.928   2.217  11.211  0.1150  0.4911  0.2265
 2810SOL    HW120063   4.022   2.225  11.226  1.0809 -1.5503 -4.8001
 2810SOL    HW220064   3.911   2.125  11.232  0.7728 -0.1184 -1.8544
 2811SOL     OW20065   1.530   2.181   2.732 -0.1044  0.1104  0.6001
 2811SOL    HW120066   1.528   2.166   2.827  0.3396  0.6119  0.6885
 2811SOL    HW220067   1.514   2.274   2.719  0.0096 -0.1415 -1.4371
 2812SOL     OW20068   0.737   2.115   4.077  0.3329 -0.2796 -0.4701
 2812SOL    HW120069   0.805   2.051   4.098  0.6343  0.1539 -0.1424
 2812SOL    HW220070   0.687   2.059   4.017 -0.2774 -0.7698  0.4933
 2813SOL     OW20071   0.486   3.949   3.661  0.2842  0.4317  0.1259
 2813SOL    HW120072   0.474   4.041   3.684  0.9927  0.6428 -0.3556
 2813SOL    HW220073   0.427   3.904   3.721 -0.3511  0.6749 -0.3164
 2814SOL     OW20074   2.236   3.056   4.826 -0.1351  0.3124 -0.2644
 2814SOL    HW120075   2.289   2.977   4.834 -0.1562  0.6099  2.8903
 2814SOL    HW220076   2.267   3.079   4.739  0.4842  0.1018 -0.0957
 2815SOL     OW20077   2.148   2.214   9.213 -0.0554 -0.3932  0.1517
 2815SOL    HW120078   2.069   2.172   9.248  0.1765  2.6774  4.4173
 2815SOL    HW220079   2.221   2.153   9.220 -0.8723 -1.4677 -0.7850
 2816SOL     OW20080   1.652   1.574  14.190  0.0392  0.0879  0.4505
 2816SOL    HW120081   1.612   1.615  14.114  1.7720  2.9695  1.0763
 2816SOL    HW220082   1.745   1.557  14.176 -1.0423 -2.2816 -3.8804
 2817SOL     OW20083   3.568   1.948   4.538 -0.7815 -0.3168  0.3695
 2817SOL    HW120084   3.531   2.015   4.596  0.3372 -0.3160  1.0855
 2817SOL    HW220085   3.663   1.959   4.545 -0.7200 -0.7619  0.2484
 2818SOL     OW20086   3.638   1.580  15.818 -0.2462  0.1987 -0.5365
 2818SOL    HW120087   3.603   1.650  15.872 -1.7263 -2.4934  2.0032
 2818SOL    HW220088   3.618   1.506  15.876  2.3556 -1.2035 -1.4458
 2819SOL     OW20089   0.251   3.280   3.002 -0.3909  0.3086  0.0453
 2819SOL    HW120090   0.157   3.261   2.995 -0.2175 -1.2032  2.0121
 2819SOL    HW220091   0.275   3.214   3.067 -0.9409  0.0369 -0.0216
 2820SOL     OW20092   1.288   3.588  11.197 -0.2359  0.5428 -0.2708
 2820SOL    HW120093   1.299   3.649  11.269 -2.8296 -1.3379  1.7611
 2820SOL    HW220094   1.350   3.519  11.220 -1.7493 -0.9875 -0.7103
 2821SOL     OW20095   1.874   2.473  10.566 -0.1904 -0.0602 -0.6277
 2821SOL    HW120096   1.894   2.384  10.595 -0.0933  0.5738  1.2908
 2821SOL    HW220097   1.779   2.468  10.567 -0.1966  0.7093  1.9600
 2822SOL     OW20098   0.815   3.794   7.771 -0.5211 -0.0522 -0.5527
 2822SOL    HW120099   0.811   3.890   7.769 -1.8915 -0.0448  1.7216
 2822SOL    HW220100   0.722   3.771   7.780 -0.5863  0.9922  1.4529
 2823SOL     OW20101   4.564   3.593  16.711  0.1271 -0.0169  0.0461
 2823SOL    HW120102   4.571   3.504  16.747  3.7130  0.3225  0.1770
 2823SOL    HW220103   4.473   3.596  16.682  0.4439 -0.4516 -1.0010
 2824SOL     OW20104   2.448   2.846   5.802 -0.6320 -0.1506  0.0108
 2824SOL    HW120105   2.526   2.841   5.857  0.2051  0.4588 -1.1326
 2824SOL    HW220106   2.424   2.937   5.818  1.8823  0.3240  1.0023
 2825SOL     OW20107   1.796   1.193  17.236  0.7317 -0.4149 -0.1377
 2825SOL    HW120108   1.850   1.262  17.199  0.3767 -0.7256 -1.2618
 2825SOL    HW220109   1.735   1.165  17.167 -0.9737  1.3278  0.6659
 2826SOL     OW20110   2.008   0.533  11.164 -0.2440  0.4144  0.0528
 2826SOL    HW120111   2.095   0.567  11.142 -0.3503  0.5041 -0.2293
 2826SOL    HW220112   1.992   0.593  11.237 -1.2732  1.5704 -1.1306
 2827SOL     OW20113   4.681   4.194   6.867 -0.4118  0.2517  0.1450
 2827SOL    HW120114   0.002   4.185   6.792 -0.9547  0.0787 -0.2648
 2827SOL    HW220115   4.674   4.289   6.875 -1.5544  0.0120  2.1762
 2828SOL     OW20116   2.618   0.476   6.780 -0.1894 -0.5830 -0.8192
 2828SOL    HW120117   2.594   0.410   6.715  0.9914  0.8128 -2.6500
 2828SOL    HW220118   2.588   0.428   6.858  0.8249  1.2060  0.6631
 2829SOL     OW20119   3.482   3.558   7.294 -0.7517  0.2984 -0.7448
 2829SOL    HW120120   3.402   3.540   7.246 -1.8621 -0.8521  1.5275
 2829SOL    HW220121   3.453   3.634   7.345  1.7427  0.8786 -0.1885
 2830SOL     OW20122   3.024   1.802  12.369 -0.2823 -0.1059 -0.2124
 2830SOL    HW120123   3.103   1.761  12.334 -1.0756 -1.5505 -0.2936
 2830SOL    HW220124   3.052   1.865  12.435  0.8850  1.2352 -1.9935
 2831SOL     OW20125   1.191   3.710  16.860 -0.5849  0.2647  0.5175
 2831SOL    HW120126   1.220   3.688  16.772  1.4305  2.7240  0.5465
 2831SOL    HW220127   1.100   3.683  16.849  0.1271 -1.2489 -1.5857
 2832SOL     OW20128   0.582   0.493   6.832 -0.2226 -0.3516 -0.0185
 2832SOL    HW120129   0.651   0.558   6.840  0.4965 -0.8312 -2.2527
 2832SOL    HW220130   0.550   0.509   6.743 -0.5713  1.0154  0.3612
 2833SOL     OW20131   1.818   3.313   7.298 -0.1814  0.3522 -0.0302
 2833SOL    HW120132   1.765   3.334   7.375  3.1507  0.7972  2.1497
 2833SOL    HW220133   1.746   3.303   7.236 -0.4952 -0.5594  0.4801
 2834SOL     OW20134   2.098   0.255   7.414 -0.0940 -0.1241  0.2097
 2834SOL    HW120135   2.191   0.254   7.439  0.1283  1.5334 -0.4984
 2834SOL    HW220136   2.059   0.219   7.494  0.0767 -2.4259 -0.7718
 2835SOL     OW20137   1.057   2.509   1.867  0.4306  0.4895  0.2654
 2835SOL    HW120138   1.134   2.538   1.818  0.9634  0.8285  1.3166
 2835SOL    HW220139   1.001   2.585   1.855 -0.9990 -0.0049  3.8118
 2836SOL     OW20140   0.025   4.058   7.507  0.1611  0.3756 -0.4252
 2836SOL    HW120141   4.713   4.140   7.505  0.0978  0.3139 -1.1885
 2836SOL    HW220142   0.107   4.081   7.462 -0.8264  0.5353 -2.1169
 2837SOL     OW20143   2.625   0.792  12.926 -0.5682 -0.2474  0.0741
 2837SOL    HW120144   2.703   0.760  12.881 -0.2616  0.2297  0.2552
 2837SOL    HW220145   2.673   0.829  13.001 -0.1140  0.7236 -0.7032
 2838SOL     OW20146   3.216   3.506   3.335  0.7211  0.1076 -0.5869
 2838SOL    HW120147   3.166   3.425   3.326 -0.0629  0.2495  2.4548
 2838SOL    HW220148   3.158   3.563   3.285  1.0157  0.3185 -0.6875
 2839SOL     OW20149   1.593   4.069   8.166  0.3904 -0.0965 -0.1094
 2839SOL    HW120150   1.562   4.036   8.082  0.6801 -1.3807  0.2902
 2839SOL    HW220151   1.586   4.163   8.149  0.3995 -0.0859 -0.0556
 2840SOL     OW20152   3.110   0.080   2.794  0.3714 -0.0428  0.2788
 2840SOL    HW120153   3.015   0.084   2.799  0.4228  1.9233 -0.1791
 2840SOL    HW220154   3.125   0.028   2.716 -1.5616 -0.1180 -0.0454
 2841SOL     OW20155   0.636   2.337   5.115  0.0326 -0.5779 -0.2407
 2841SOL    HW120156   0.662   2.401   5.182 -1.5528  0.9249 -1.0681
 2841SOL    HW220157   0.671   2.370   5.033 -0.5079 -1.0144 -0.6495
 2842SOL     OW20158   0.004   3.946   4.826 -0.6213 -0.4212 -0.6012
 2842SOL    HW120159   0.037   3.921   4.912  0.5783  1.5492 -0.4829
 2842SOL    HW220160   0.063   3.882   4.786  1.5390  0.9522  0.3227
 2843SOL     OW20161   1.538   1.845   7.127  0.7823  0.1062 -0.3613
 2843SOL    HW120162   1.626   1.883   7.126  0.3930  1.1084  2.6966
 2843SOL    HW220163   1.517   1.843   7.221  1.8711  2.8766 -0.0460
 2844SOL     OW20164   3.149   0.599   6.431  0.6022  0.3459 -0.7499
 2844SOL    HW120165   3.216   0.531   6.436  0.0426 -0.2747 -1.5912
 2844SOL    HW220166   3.071   0.546   6.442  1.3541 -0.3666  1.0679
 2845SOL     OW20167   4.590   2.207   7.239  0.2610 -0.2666 -0.3764
 2845SOL    HW120168   4.549   2.281   7.194 -0.7708 -0.1650  0.7223
 2845SOL    HW220169   4.519   2.144   7.249 -2.6133  2.5896 -2.6571
 2846SOL     OW20170   2.906   2.142   1.026  0.4017  0.3080  0.3817
 2846SOL    HW120171   2.897   2.234   1.000  1.6802  1.0452  2.6368
 2846SOL    HW220172   2.998   2.134   1.001  0.1862  0.6893 -0.5547
 2847SOL     OW20173   3.570   0.791   1.908  0.4873  0.2469  0.1288
 2847SOL    HW120174   3.611   0.810   1.824  0.1751  2.5376  0.4871
 2847SOL    HW220175   3.532   0.708   1.882  0.2438  0.7251 -1.0363
 2848SOL     OW20176   0.586   2.127   6.479  0.4212 -0.7313 -0.4065
 2848SOL    HW120177   0.618   2.062   6.542  0.1117  1.6244  2.1950
 2848SOL    HW220178   0.505   2.081   6.458  0.3748 -0.1420 -1.5370
 2849SOL     OW20179   1.519   4.736   4.595  0.1159  0.4670 -0.1146
 2849SOL    HW120180   1.548   0.052   4.522  1.0912  0.0438 -0.0296
 2849SOL    HW220181   1.540   0.051   4.673 -2.2125 -1.1148  1.5797
 2850SOL     OW20182   2.155   2.586  14.290  0.0718 -0.3964 -0.0980
 2850SOL    HW120183   2.220   2.635  14.239 -0.2263  0.7507  0.6284
 2850SOL    HW220184   2.077   2.628  14.254  0.3817  2.2731  2.2915
 2851SOL     OW20185   1.069   1.165   6.755 -0.0227  0.0786 -0.1832
 2851SOL    HW120186   1.070   1.259   6.736 -1.2301  0.2611  0.6683
 2851SOL    HW220187   1.160   1.141   6.773  0.0189 -0.3220 -0.9190
 2852SOL     OW20188   0.965   1.311   8.353  0.3423  0.2038 -0.7379
 2852SOL    HW120189   1.014   1.339   8.431 -1.7492 -2.3410  1.4827
 2852SOL    HW220190   1.038   1.284   8.298  0.9145  2.5113 -1.1438
 2853SOL     OW20191   0.058   4.624   2.565 -0.4786 -0.1171 -0.3572
 2853SOL    HW120192   0.129   4.688   2.565 -0.9805  0.4250  0.5309
 2853SOL    HW220193   0.080   4.570   2.488 -0.1585  0.6271 -0.7874
 2854SOL     OW20194   4.393   3.892   4.881 -0.7571 -0.1189  0.1035
 2854SOL    HW120195   4.445   3.946   4.940  0.3057  0.6077 -1.4988
 2854SOL    HW220196   4.453   3.860   4.814 -0.3532 -0.5787  0.6858
 2855SOL     OW20197   4.331   2.221   1.817 -0.2202  0.8169 -0.9961
 2855SOL    HW120198   4.394   2.288   1.789  0.2141 -0.0690 -2.1316
 2855SOL    HW220199   4.344   2.220   1.912 -0.9259 -1.7709 -0.9352
 2856SOL     OW20200   4.348   4.700   1.255 -0.4972  0.5226 -0.0856
 2856SOL    HW120201   4.441   4.698   1.278 -0.8542  0.9649  1.4337
 2856SOL    HW220202   4.298   4.694   1.336 -0.5379  0.4895 -0.1132
 2857SOL     OW20203   2.928   2.716  12.133  0.1550 -0.0849 -0.3695
 2857SOL    HW120204   2.927   2.809  12.155  0.0271 -0.7569  2.4286
 2857SOL    HW220205   3.009   2.711  12.082  0.0660 -0.2644 -0.4946
 2858SOL     OW20206   3.795   0.142   3.190  0.3762 -0.2573  0.2627
 2858SOL    HW120207   3.773   0.093   3.269 -1.1214 -1.5033 -0.9300
 2858SOL    HW220208   3.884   0.164   3.219  0.4518 -0.3147  0.0718
 2859SOL     OW20209   3.976   3.227  11.307  0.0945 -0.8425 -1.0946
 2859SOL    HW120210   3.967   3.140  11.268 -1.3866 -0.9377 -0.5598
 2859SOL    HW220211   3.947   3.210  11.397 -0.5481  0.5721 -1.0207
 2860SOL     OW20212   4.157   1.270  15.471 -0.3946  0.3196  1.0309
 2860SOL    HW120213   4.092   1.305  15.410 -0.3191 -0.2315  0.6282
 2860SOL    HW220214   4.109   1.200  15.515  1.4950 -1.5063  0.1898
 2861SOL     OW20215   1.840   0.380   2.680 -0.0632 -0.0125  0.2108
 2861SOL    HW120216   1.914   0.389   2.620  0.8044  0.8513  1.4050
 2861SOL    HW220217   1.805   0.469   2.680  0.0289  0.0252  3.0281
 2862SOL     OW20218   3.277   2.418   9.079  0.8863  0.9492 -0.1238
 2862SOL    HW120219   3.267   2.338   9.131 -2.5727  1.0350 -0.6375
 2862SOL    HW220220   3.255   2.491   9.137  0.0994  1.0444 -0.5516
 2863SOL     OW20221   0.467   2.499  12.626 -0.4059  0.2410 -0.0994
 2863SOL    HW120222   0.501   2.516  12.538 -1.3230 -2.5180 -0.9948
 2863SOL    HW220223   0.511   2.565  12.679  1.8358 -0.3047 -1.2618
 2864SOL     OW20224   0.912   0.818   7.752  0.3732  0.4288 -0.3193
 2864SOL    HW120225   0.864   0.786   7.675 -0.4833 -0.8934  0.7517
 2864SOL    HW220226   0.908   0.742   7.810 -0.5231 -0.3103 -1.3522
 2865SOL     OW20227   1.737   3.333   3.988 -0.0387 -0.3958 -0.4881
 2865SOL    HW120228   1.689   3.291   3.917 -1.4713 -0.3074  0.4207
 2865SOL    HW220229   1.738   3.255   4.044 -0.1974  0.1483  0.2707
 2866SOL     OW20230   0.479   4.576   1.070 -0.0053  0.2402 -0.1041
 2866SOL    HW120231   0.535   4.501   1.051  0.6478  0.9235 -0.8882
 2866SOL    HW220232   0.414   4.529   1.123 -0.8666  1.9128  0.3453
 2867SOL     OW20233   0.744   3.079  12.057 -0.3577 -0.1129 -0.5174
 2867SOL    HW120234   0.727   3.143  12.127 -0.6485  1.1765 -1.7794
 2867SOL    HW220235   0.836   3.098  12.038 -0.5049 -0.2058 -1.3062
 2868SOL     OW20236   1.485   4.703   6.983  0.2940  0.3985 -1.0770
 2868SOL    HW120237   1.411   0.018   6.955 -0.5155  0.0969  0.5310
 2868SOL    HW220238   1.502   4.635   6.918 -1.6494  0.4493 -1.6266
 2869SOL     OW20239   0.241   3.130  13.627 -0.3353 -0.6008  0.2369
 2869SOL    HW120240   0.218   3.171  13.543 -0.7883 -1.4869 -0.0689
 2869SOL    HW220241   0.281   3.208  13.665  0.3630 -0.7392 -0.2193
 2870SOL     OW20242   4.409   3.046   8.344 -0.0961 -0.2340 -0.0358
 2870SOL    HW120243   4.438   2.969   8.393 -1.2037 -1.1910 -0.9032
 2870SOL    HW220244   4.332   3.068   8.396  0.0598  0.0220  0.0916
 2871SOL     OW20245   2.440   1.240   3.952 -0.0460 -0.1281  0.6850
 2871SOL    HW120246   2.376   1.232   3.880 -1.3598  0.3567  1.7915
 2871SOL    HW220247   2.520   1.212   3.907 -0.3287  1.0417 -0.5597
 2872SOL     OW20248   1.304   4.323   4.327  0.4869  0.2121 -0.0833
 2872SOL    HW120249   1.227   4.267   4.341  0.6346  0.3768  1.4039
 2872SOL    HW220250   1.329   4.347   4.416 -0.9116 -2.3808  1.0026
 2873SOL     OW20251   4.329   0.908   5.578  0.5815 -0.3963 -0.5465
 2873SOL    HW120252   4.264   0.847   5.544 -1.1092  0.4869  1.1057
 2873SOL    HW220253   4.344   0.870   5.664 -1.0700 -1.2410 -0.6393
 2874SOL     OW20254   3.603   3.010   3.960  0.4650 -0.8099 -0.0442
 2874SOL    HW120255   3.610   3.089   3.907  3.0263  0.8820  2.8574
 2874SOL    HW220256   3.694   3.004   3.989  1.0950 -3.2345 -2.4658
 2875SOL     OW20257   2.383   2.236   4.539  0.7739  0.4087  0.1290
 2875SOL    HW120258   2.417   2.211   4.453  0.6861  1.7442 -0.2831
 2875SOL    HW220259   2.291   2.210   4.533  0.9225 -0.2085  0.5218
 2876SOL     OW20260   1.181   1.113   5.521 -0.6199  0.3157  0.1134
 2876SOL    HW120261   1.248   1.181   5.528 -1.2733  0.8152  1.4365
 2876SOL    HW220262   1.152   1.119   5.612 -0.9665  1.2166 -0.0592
 2877SOL     OW20263   2.449   1.618   2.744 -0.3349  0.4954  0.1048
 2877SOL    HW120264   2.540   1.598   2.721  0.0641  1.4397  0.8453
 2877SOL    HW220265   2.392   1.564   2.690 -0.2288  3.0174 -2.5074
 2878SOL     OW20266   3.378   0.820   2.130 -0.1445 -0.6217 -0.2496
 2878SOL    HW120267   3.460   0.807   2.083  0.1717  0.1036  0.1093
 2878SOL    HW220268   3.321   0.795   2.058 -0.5121 -1.0989  0.2064
 2879SOL     OW20269   0.312   3.803   5.303 -0.1761  0.0557  0.4766
 2879SOL    HW120270   0.345   3.819   5.391  0.8948 -1.3977  0.3454
 2879SOL    HW220271   0.324   3.708   5.299 -0.4203  0.0110  0.9467
 2880SOL     OW20272   4.198   2.504   6.686  0.2884 -0.0255 -0.3663
 2880SOL    HW120273   4.254   2.450   6.631 -0.9799  0.1443 -1.8240
 2880SOL    HW220274   4.110   2.484   6.653  1.0629 -0.2539 -2.2379
 2881SOL     OW20275   1.505   4.240   9.073  0.4269 -0.0880  0.4524
 2881SOL    HW120276   1.424   4.212   9.115 -0.1909 -1.2709 -1.5431
 2881SOL    HW220277   1.467   4.314   9.024 -1.3145 -1.4235 -0.2300
 2882SOL     OW20278   1.010   0.181   8.197 -0.5532 -0.5282  0.1343
 2882SOL    HW120279   1.089   0.190   8.251  0.0600  1.8786 -1.1730
 2882SOL    HW220280   0.941   0.205   8.258 -0.4134 -0.0868  0.1149
 2883SOL     OW20281   3.381   1.723   6.533  0.9386 -0.0096 -0.2752
 2883SOL    HW120282   3.377   1.634   6.499 -0.1406  0.2708 -0.8742
 2883SOL    HW220283   3.469   1.713   6.568  1.3663  1.7063 -0.8409
 2884SOL     OW20284   0.921   0.770  12.406 -0.1348 -0.4338  0.5331
 2884SOL    HW120285   0.919   0.861  12.376 -1.1447 -0.1930  1.3379
 2884SOL    HW220286   0.931   0.724  12.323 -0.8545  0.3076  0.0375
 2885SOL     OW20287   1.315   1.578   3.880 -0.0442 -0.3040 -0.0414
 2885SOL    HW120288   1.313   1.512   3.949 -0.2543 -0.8442 -0.5695
 2885SOL    HW220289   1.335   1.655   3.934  1.3690  0.0169 -1.0179
 2886SOL     OW20290   2.849   2.960   1.666  0.1337 -0.4877 -0.0398
 2886SOL    HW120291   2.773   2.952   1.609 -0.1118 -1.2242  0.3961
 2886SOL    HW220292   2.904   3.026   1.624 -1.3868  0.7618 -0.0553
 2887SOL     OW20293   0.998   1.368   6.354  0.4273  0.0900  0.0258
 2887SOL    HW120294   1.052   1.294   6.382 -0.4464 -0.6019 -0.1093
 2887SOL    HW220295   1.057   1.437   6.383  1.9319 -0.5256 -1.5875
 2888SOL     OW20296   2.430   3.748   3.838  0.5121 -0.2090 -0.1032
 2888SOL    HW120297   2.499   3.799   3.880 -0.4359  1.2468 -0.2720
 2888SOL    HW220298   2.482   3.704   3.772 -1.2402  0.2757 -1.8246
 2889SOL     OW20299   2.272   3.373  13.471 -0.1387  0.4194 -0.1510
 2889SOL    HW120300   2.205   3.418  13.420  0.7969  0.7301 -1.1026
 2889SOL    HW220301   2.229   3.368  13.556  1.1032 -1.2938  0.3962
 2890SOL     OW20302   0.497   2.712   4.025 -0.2080 -0.0112  0.1157
 2890SOL    HW120303   0.557   2.734   4.096 -1.8668 -0.7296  1.7587
 2890SOL    HW220304   0.425   2.668   4.072  0.2183 -0.8316  0.0075
 2891SOL     OW20305   2.025   3.053   3.914 -0.3116  0.0151 -0.1793
 2891SOL    HW120306   1.948   3.104   3.939  1.7409  1.3187  3.3771
 2891SOL    HW220307   2.001   2.967   3.948 -0.1664 -0.0633 -0.2772
 2892SOL     OW20308   3.842   3.986   8.282 -0.6121  0.9343 -0.2865
 2892SOL    HW120309   3.889   4.069   8.288  0.3652  0.3524  0.0266
 2892SOL    HW220310   3.758   4.017   8.248 -1.7438  1.0177  2.6294
 2893SOL     OW20311   3.023   0.340   9.641  0.2904  0.0395  0.4488
 2893SOL    HW120312   3.093   0.303   9.696  1.9122  1.3916 -0.6981
 2893SOL    HW220313   3.002   0.419   9.691 -1.4699  0.6025 -1.2174
 2894SOL     OW20314   4.724   1.723  16.730  0.2423 -0.4976 -0.1351
 2894SOL    HW120315   0.051   1.773  16.680 -0.9012  0.2574 -0.8562
 2894SOL    HW220316   0.052   1.698  16.795 -1.3552 -0.6558  1.4152
 2895SOL     OW20317   2.413   0.972   6.374  0.4578 -0.3822  0.8013
 2895SOL    HW120318   2.470   0.963   6.451 -0.2042  2.7765  1.6709
 2895SOL    HW220319   2.449   0.901   6.321  0.3004  1.4021 -1.6807
 2896SOL     OW20320   1.155   3.139   7.063 -0.0455 -0.1554 -0.4402
 2896SOL    HW120321   1.201   3.213   7.103 -2.5118  1.3821 -0.4863
 2896SOL    HW220322   1.068   3.175   7.047  0.6242  0.8209 -1.8293
 2897SOL     OW20323   1.133   4.071   2.427 -0.2845  0.7061 -0.1521
 2897SOL    HW120324   1.152   4.162   2.451 -0.5163  0.4207  1.1411
 2897SOL    HW220325   1.218   4.027   2.425 -0.4174  0.5017 -1.0118
 2898SOL     OW20326   3.586   2.814   3.693 -0.6628  0.1259  0.1863
 2898SOL    HW120327   3.563   2.735   3.743 -0.5480 -0.1108 -0.1382
 2898SOL    HW220328   3.522   2.876   3.728 -1.2616 -0.9117  0.9260
 2899SOL     OW20329   0.800   3.669   4.830 -0.3588 -0.6320  0.6293
 2899SOL    HW120330   0.860   3.740   4.805  0.3979 -0.8259  1.9231
 2899SOL    HW220331   0.715   3.700   4.798 -0.5544 -1.2799  0.5214
 2900SOL     OW20332   2.506   3.956   4.034  0.3243  0.4858 -0.3706
 2900SOL    HW120333   2.444   3.979   4.103 -3.2672 -1.8079 -2.8675
 2900SOL    HW220334   2.577   3.907   4.076 -0.9376  0.5003  1.7228
 2901SOL     OW20335   4.292   2.531   8.416 -0.5318 -0.3511 -0.1708
 2901SOL    HW120336   4.251   2.566   8.337  0.7229  0.7745 -0.3074
 2901SOL    HW220337   4.290   2.441   8.382 -1.8992 -0.9538  1.4738
 2902SOL     OW20338   4.700   3.963  13.338 -0.2839  0.8095  0.6622
 2902SOL    HW120339   4.650   4.045  13.343 -1.5951 -0.0843  2.1071
 2902SOL    HW220340   4.632   3.903  13.369  1.3029 -1.9868 -1.3166
 2903SOL     OW20341   1.843   2.591   5.129 -0.5440 -0.1451  0.2212
 2903SOL    HW120342   1.773   2.654   5.114  0.2343  0.6329 -0.1303
 2903SOL    HW220343   1.917   2.647   5.156 -0.2280  0.3771 -1.7568
 2904SOL     OW20344   3.341   4.462   6.211  0.0520 -0.7583  0.5013
 2904SOL    HW120345   3.301   4.376   6.222 -1.2300 -0.3088 -0.5625
 2904SOL    HW220346   3.266   4.509   6.175  0.2385  1.9312  3.6856
 2905SOL     OW20347   3.798   2.478   8.789  0.1335  0.5966  0.4682
 2905SOL    HW120348   3.753   2.500   8.707 -0.0035  1.4330  0.7721
 2905SOL    HW220349   3.775   2.560   8.833  0.6524  0.8594  0.2602
 2906SOL     OW20350   0.219   0.986   3.630 -0.6801  0.4763  0.0757
 2906SOL    HW120351   0.142   1.027   3.592 -0.6802  0.3092 -0.1010
 2906SOL    HW220352   0.289   1.044   3.600  0.1887  0.0349  1.2277
 2907SOL     OW20353   1.967   3.469  10.897  0.6379 -0.1019 -0.6863
 2907SOL    HW120354   1.959   3.562  10.919 -1.4527 -0.6751  0.9218
 2907SOL    HW220355   2.057   3.456  10.927 -0.1118  0.3133  1.7477
 2908SOL     OW20356   3.318   3.757   1.117  0.0426 -0.1798  0.2031
 2908SOL    HW120357   3.338   3.666   1.096  2.4218  0.3554  0.2525
 2908SOL    HW220358   3.386   3.780   1.179 -1.8538  1.8002  1.5311
 2909SOL     OW20359   1.452   0.579   7.199  0.1105 -0.1058 -0.2643
 2909SOL    HW120360   1.487   0.657   7.241  1.5140 -0.5172 -0.6578
 2909SOL    HW220361   1.415   0.534   7.274  1.6799  0.0438  0.5867
 2910SOL     OW20362   0.827   0.508  12.460 -0.5705 -0.7212  0.0451
 2910SOL    HW120363   0.804   0.448  12.388 -2.0488 -0.8582  0.6216
 2910SOL    HW220364   0.867   0.582  12.415  0.0576 -0.2631  1.3483
 2911SOL     OW20365   0.473   3.032   8.178  0.1899 -0.5465 -0.3642
 2911SOL    HW120366   0.564   3.001   8.182 -0.1103 -1.2720  0.9595
 2911SOL    HW220367   0.439   2.993   8.258 -0.9995 -0.1872 -0.7010
 2912SOL     OW20368   3.207   2.767   3.178  0.3582  0.5484 -0.1266
 2912SOL    HW120369   3.277   2.755   3.242  0.2218 -0.3003 -0.1386
 2912SOL    HW220370   3.150   2.696   3.206 -1.4525  1.5982 -1.1987
 2913SOL     OW20371   2.145   4.491  13.919  0.0032  0.1158  0.5731
 2913SOL    HW120372   2.169   4.542  13.842 -1.2032  1.6807  1.2278
 2913SOL    HW220373   2.164   4.560  13.982 -0.5722 -0.0949  0.9766
 2914SOL     OW20374   1.387   1.420   8.418  0.3292  0.4411 -0.4893
 2914SOL    HW120375   1.423   1.441   8.505  1.3283 -2.4568 -0.1911
 2914SOL    HW220376   1.449   1.452   8.352  0.1803  2.2017  0.2151
 2915SOL     OW20377   1.568   0.458  12.905 -0.5151 -0.0893 -0.3101
 2915SOL    HW120378   1.593   0.449  12.997 -0.7345  1.6852 -0.0811
 2915SOL    HW220379   1.598   0.547  12.889  0.0797 -0.2553 -0.1202
 2916SOL     OW20380   3.740   0.176   3.961  0.6082  0.1968  0.5893
 2916SOL    HW120381   3.680   0.233   3.913  0.1997 -1.6820 -1.1403
 2916SOL    HW220382   3.714   0.095   3.917  1.9749  0.8919 -1.4500
 2917SOL     OW20383   4.070   3.588   2.963  0.1962 -0.7457 -0.0102
 2917SOL    HW120384   3.991   3.556   3.007 -0.8357 -0.0677 -1.3601
 2917SOL    HW220385   4.096   3.657   3.024  0.6097 -0.6726 -0.2763
 2918SOL     OW20386   2.327   3.498   5.702 -0.1005 -0.5691 -0.4104
 2918SOL    HW120387   2.285   3.481   5.618 -1.0104  1.6788 -0.4026
 2918SOL    HW220388   2.249   3.472   5.752  0.5784  0.9915  1.4648
 2919SOL     OW20389   0.121   4.007  14.601 -0.0991 -0.5657 -0.2144
 2919SOL    HW120390   0.093   3.951  14.529 -0.5870 -0.9209  0.2564
 2919SOL    HW220391   0.203   4.045  14.571 -1.0799 -0.0646 -2.2344
 2920SOL     OW20392   3.628   4.029   4.596 -0.4022  0.3543 -0.1322
 2920SOL    HW120393   3.723   4.040   4.606 -0.2004 -0.0836 -1.5896
 2920SOL    HW220394   3.603   4.099   4.657  1.6136  0.9851 -0.0147
 2921SOL     OW20395   4.476   4.601   2.306  0.3216 -0.5976 -0.3852
 2921SOL    HW120396   4.508   4.581   2.218 -0.3511 -1.2948 -0.4767
 2921SOL    HW220397   4.386   4.617   2.277  0.0946 -2.8222 -0.9243
 2922SOL     OW20398   2.499   2.983   6.062 -0.2106 -0.0668 -0.1715
 2922SOL    HW120399   2.500   3.035   6.143  0.6191 -1.9295  1.0033
 2922SOL    HW220400   2.490   2.894   6.095 -1.4323  0.4731  0.9513
 2923SOL     OW20401   0.530   3.347   2.466  0.1086  0.1400 -0.2231
 2923SOL    HW120402   0.545   3.339   2.372 -2.4119 -1.0020 -0.5234
 2923SOL    HW220403   0.601   3.402   2.498  0.3757 -1.2042  1.4836
 2924SOL     OW20404   4.410   3.033   6.653  0.3733  0.3058  0.2936
 2924SOL    HW120405   4.423   3.125   6.632  2.2123 -0.2288 -0.8013
 2924SOL    HW220406   4.420   3.028   6.748 -1.4903 -2.9937  0.3352
 2925SOL     OW20407   4.165   3.677   0.082 -0.1756 -0.3611 -0.3015
 2925SOL    HW120408   4.086   3.627   0.064 -0.7327  0.2378  0.5121
 2925SOL    HW220409   4.176   3.720  17.745 -0.2484  1.2840  0.5018
 2926SOL     OW20410   4.503   1.255   6.029  0.7094 -0.2043 -0.2076
 2926SOL    HW120411   4.559   1.239   6.105 -1.1623  2.1678  1.6522
 2926SOL    HW220412   4.575   1.268   5.967 -0.3341 -1.7036 -1.7273
 2927SOL     OW20413   2.130   0.794   4.401 -0.2780 -0.1338  0.2851
 2927SOL    HW120414   2.105   0.828   4.314  1.1957  1.7100  0.5856
 2927SOL    HW220415   2.211   0.842   4.412  0.5843 -1.7850  1.1188
 2928SOL     OW20416   2.737   2.336   6.628 -0.1306 -1.0520  0.0282
 2928SOL    HW120417   2.747   2.264   6.565  4.4081  0.7373 -1.3160
 2928SOL    HW220418   2.769   2.417   6.588 -1.8377 -0.2122  0.3921
 2929SOL     OW20419   0.345   2.955   4.652  0.2063 -0.2613 -0.2081
 2929SOL    HW120420   0.253   2.936   4.634  0.3889 -2.5655  1.2024
 2929SOL    HW220421   0.342   2.965   4.747  0.2277  2.1183 -0.4619
 2930SOL     OW20422   0.871   1.942   9.225 -0.7030  0.1261  0.0268
 2930SOL    HW120423   0.831   2.009   9.169 -0.6288  0.3921  0.2909
 2930SOL    HW220424   0.948   1.927   9.170 -1.2490 -1.8382 -0.1929
 2931SOL     OW20425   1.294   2.941   1.264 -0.1229 -0.7902  0.3111
 2931SOL    HW120426   1.306   2.868   1.325 -0.4879 -0.6745  0.5170
 2931SOL    HW220427   1.332   3.009   1.319 -2.1888  0.0006  0.7775
 2932SOL     OW20428   3.551   1.650  17.449  0.4857 -0.2034  0.3509
 2932SOL    HW120429   3.481   1.592  17.480 -0.5463 -0.7384 -2.9832
 2932SOL    HW220430   3.591   1.675  17.532 -1.1339 -0.2462  1.1398
 2933SOL     OW20431   4.108   1.065   5.843 -0.2556  0.3766 -0.4627
 2933SOL    HW120432   4.064   1.094   5.923 -0.0623  2.1726 -1.0078
 2933SOL    HW220433   4.196   1.047   5.876 -1.0214 -1.0255  0.7878
 2934SOL     OW20434   2.403   4.553  11.829  0.5259 -0.1785  0.1100
 2934SOL    HW120435   2.475   4.582  11.773 -0.6360  2.8495  0.1804
 2934SOL    HW220436   2.433   4.463  11.839  0.3293 -0.0814  1.6088
 2935SOL     OW20437   0.767   1.359   3.033  0.2191  0.0175 -0.1936
 2935SOL    HW120438   0.739   1.271   3.008 -1.2796  0.2428  0.7257
 2935SOL    HW220439   0.823   1.328   3.105 -0.4349 -0.5364  0.0709
 2936SOL     OW20440   3.041   4.654   1.913 -0.9006  0.1848 -0.8595
 2936SOL    HW120441   3.080   4.735   1.947 -0.8760 -1.2278  2.5359
 2936SOL    HW220442   3.114   4.624   1.858  0.8434  1.7975  0.5715
 2937SOL     OW20443   3.917   3.122   1.404  0.1702 -0.1945 -0.0400
 2937SOL    HW120444   3.979   3.115   1.332 -0.6133 -1.0851 -0.6226
 2937SOL    HW220445   3.834   3.089   1.370  0.6703 -0.9815 -0.4976
 2938SOL     OW20446   1.972   3.042  13.155 -0.1630  0.3000 -0.2450
 2938SOL    HW120447   2.066   3.033  13.144  0.0320  3.0713 -0.7718
 2938SOL    HW220448   1.973   3.102  13.230 -0.8275  0.1964 -0.1512
 2939SOL     OW20449   3.886   1.249  15.670 -0.1542  0.1918 -0.7244
 2939SOL    HW120450   3.944   1.179  15.699  0.3783  1.2114  0.6853
 2939SOL    HW220451   3.809   1.206  15.634  0.8067 -0.0329 -2.4787
 2940SOL     OW20452   1.078   1.013   8.465 -0.4213  0.3941 -0.3831
 2940SOL    HW120453   1.150   1.068   8.497 -0.3843 -0.2229  0.6080
 2940SOL    HW220454   1.088   1.028   8.371 -0.5497  1.0168 -0.3030
 2941SOL     OW20455   0.306   2.642   3.482  0.6789  0.1058 -0.4287
 2941SOL    HW120456   0.402   2.644   3.483  0.6991 -1.7881  1.3750
 2941SOL    HW220457   0.292   2.704   3.555 -1.4784 -0.4404 -0.3879
 2942SOL     OW20458   3.676   0.051  16.236  0.8846  0.5013 -0.1846
 2942SOL    HW120459   3.736   0.029  16.307 -0.9191 -2.9645  0.2277
 2942SOL    HW220460   3.707   4.723  16.174  0.5258 -1.5019  1.7469
 2943SOL     OW20461   1.737   0.294  10.811 -0.1513  0.6920 -0.0159
 2943SOL    HW120462   1.661   0.347  10.785  0.6347  2.1683  0.6868
 2943SOL    HW220463   1.790   0.366  10.844 -0.6325  1.0020  0.0895
 2944SOL     OW20464   3.401   1.048  11.919 -0.3873 -0.0443  0.2781
 2944SOL    HW120465   3.374   0.964  11.956 -1.7791  0.3964  0.2343
 2944SOL    HW220466   3.401   1.102  11.998  1.5983  2.1703 -1.2533
 2945SOL     OW20467   4.438   0.492  13.553 -0.3098 -0.4809  0.2755
 2945SOL    HW120468   4.377   0.532  13.615  1.5649 -1.0693  2.5258
 2945SOL    HW220469   4.453   0.410  13.601 -0.4957  1.2111  3.1817
 2946SOL     OW20470   2.611   3.544  16.079 -0.0310 -0.0253 -0.3260
 2946SOL    HW120471   2.549   3.567  16.010 -0.1409 -0.5779 -0.4060
 2946SOL    HW220472   2.685   3.504  16.033 -0.5422 -1.7480  0.3874
 2947SOL     OW20473   2.324   0.880   9.783  0.1397  0.5815 -0.2928
 2947SOL    HW120474   2.280   0.964   9.769  1.5074  1.4537  0.6808
 2947SOL    HW220475   2.302   0.876   9.876 -1.2109 -0.8825 -0.6802
 2948SOL     OW20476   0.843   0.129   4.519  0.0663 -0.2538 -0.1822
 2948SOL    HW120477   0.767   0.116   4.575 -0.1308 -0.4503 -0.4929
 2948SOL    HW220478   0.835   0.042   4.480 -1.0809 -0.2981  0.1410
 2949SOL     OW20479   0.623   1.522   4.441  0.1404  0.1878  0.0468
 2949SOL    HW120480   0.677   1.455   4.484  2.7159  1.0168 -1.9029
 2949SOL    HW220481   0.595   1.574   4.516 -0.9259  1.1925 -1.0598
 2950SOL     OW20482   3.379   4.236   3.485 -0.1619 -0.2927  0.0048
 2950SOL    HW120483   3.429   4.304   3.529  0.4646  0.1783 -1.4182
 2950SOL    HW220484   3.307   4.289   3.452 -0.7639 -0.9613  0.2555
 2951SOL     OW20485   1.556   3.195   8.408  0.1117  0.3525  0.1295
 2951SOL    HW120486   1.491   3.130   8.384 -0.9032  0.9255  1.3084
 2951SOL    HW220487   1.540   3.265   8.345 -0.2625  1.0980  1.0461
 2952SOL     OW20488   3.507   2.325   2.346  0.2825  0.2448 -0.1015
 2952SOL    HW120489   3.556   2.280   2.415  0.0619 -1.8588 -1.3005
 2952SOL    HW220490   3.499   2.256   2.280  0.0672 -2.7052  3.0186
 2953SOL     OW20491   4.292   3.537  12.401 -0.3808  0.3156  0.5079
 2953SOL    HW120492   4.222   3.581  12.353 -0.3125  0.3160  0.4068
 2953SOL    HW220493   4.283   3.445  12.375  2.9474  0.3586 -0.8791
 2954SOL     OW20494   1.696   2.312  16.896  0.1321 -0.1297  0.2239
 2954SOL    HW120495   1.605   2.323  16.868 -0.0826  1.2294  1.4660
 2954SOL    HW220496   1.736   2.387  16.853 -0.1773 -0.6957 -1.0296
 2955SOL     OW20497   4.259   2.303  16.606 -0.1927 -0.3829 -0.2151
 2955SOL    HW120498   4.174   2.268  16.631 -0.4864  1.7141  1.6889
 2955SOL    HW220499   4.245   2.342  16.519 -2.2965 -0.1150  0.2459
 2956SOL     OW20500   0.876   0.480   2.747  0.1215 -0.3825 -0.1073
 2956SOL    HW120501   0.922   0.537   2.685  0.4352  0.4092  0.8494
 2956SOL    HW220502   0.931   0.402   2.738  1.9415  0.7980  0.6870
 2957SOL     OW20503   4.661   1.585   2.663 -0.5347  0.0323 -0.3148
 2957SOL    HW120504   4.692   1.540   2.742  0.9924 -0.5388 -1.2558
 2957SOL    HW220505   4.693   1.672   2.687 -1.8336  0.4111  0.0666
 2958SOL     OW20506   4.167   3.672   9.957 -0.3143  0.6149  0.2450
 2958SOL    HW120507   4.122   3.652   9.874  0.4387  0.6775 -0.1748
 2958SOL    HW220508   4.257   3.643   9.943 -0.2027  1.3178 -0.4906
 2959SOL     OW20509   3.792   3.353   2.424 -0.3419  0.0234  0.2871
 2959SOL    HW120510   3.727   3.385   2.363  0.2980 -3.5658 -2.2772
 2959SOL    HW220511   3.862   3.317   2.369  0.7618  1.3228  0.8511
 2960SOL     OW20512   3.145   2.864   2.499 -0.2996  0.1866  0.0209
 2960SOL    HW120513   3.193   2.947   2.505 -0.3013  0.2664 -0.9298
 2960SOL    HW220514   3.196   2.817   2.564 -0.4623  2.1023  1.5354
 2961SOL     OW20515   1.866   3.205   4.615  0.8449 -1.0184 -0.5141
 2961SOL    HW120516   1.890   3.230   4.704  0.8105 -0.6604 -0.6036
 2961SOL    HW220517   1.916   3.124   4.616  2.8771  0.2113 -0.7093
 2962SOL     OW20518   2.855   4.728   5.326 -0.0739 -0.2774 -0.4784
 2962SOL    HW120519   2.937   0.030   5.356  0.4536 -1.9890  0.3459
 2962SOL    HW220520   2.807   0.072   5.338  0.9762  0.2461  0.1693
 2963SOL     OW20521   2.770   2.102   2.098 -0.3755  0.0594  0.3361
 2963SOL    HW120522   2.681   2.068   2.088 -0.8027  0.9639  1.1565
 2963SOL    HW220523   2.761   2.197   2.090 -1.5258  0.1614  2.9075
 2964SOL     OW20524   1.257   0.691   6.052 -0.8348  0.4636 -0.1001
 2964SOL    HW120525   1.303   0.692   6.136  0.1325 -2.3528 -0.6250
 2964SOL    HW220526   1.245   0.597   6.039 -0.0770  0.2822  0.5408
 2965SOL     OW20527   1.642   3.588  10.283 -0.2966 -0.1597  0.2416
 2965SOL    HW120528   1.650   3.596  10.378 -0.3477 -0.2770  0.2556
 2965SOL    HW220529   1.553   3.621  10.269  0.1030  1.0314  0.5465
 2966SOL     OW20530   2.236   0.179   2.156 -0.3499 -0.4998  0.0479
 2966SOL    HW120531   2.190   0.169   2.240  1.6925  1.6646  1.4285
 2966SOL    HW220532   2.328   0.188   2.182  0.2374 -1.7884 -1.5786
 2967SOL     OW20533   0.705   4.219  16.389  0.5343 -0.0687 -0.2553
 2967SOL    HW120534   0.621   4.187  16.420  0.3676  0.4211 -0.2135
 2967SOL    HW220535   0.725   4.174  16.306  2.1765  0.8886 -0.3824
 2968SOL     OW20536   2.538   3.822   2.138 -0.2461 -0.0322  0.5851
 2968SOL    HW120537   2.582   3.827   2.223  0.1212 -0.0642  0.3937
 2968SOL    HW220538   2.476   3.890   2.165  0.2477 -0.3834  2.6135
 2969SOL     OW20539   2.257   0.505   4.139  0.0482  0.0708 -0.3901
 2969SOL    HW120540   2.289   0.591   4.111  2.5833 -0.6426  0.3509
 2969SOL    HW220541   2.331   0.446   4.127 -1.4481 -2.1962  1.5731
 2970SOL     OW20542   0.061   4.433   6.448 -0.4235 -0.4863 -0.0112
 2970SOL    HW120543   0.042   4.389   6.531 -0.1302 -1.2045 -0.3252
 2970SOL    HW220544   0.087   4.522   6.471  1.5741 -0.4762 -2.3334
 2971SOL     OW20545   4.092   0.985  13.431  0.0014 -0.1680  0.8380
 2971SOL    HW120546   4.122   0.898  13.405 -0.3538 -0.1827  0.4635
 2971SOL    HW220547   4.172   1.027  13.462  1.6557 -1.6186 -1.5039
 2972SOL     OW20548   2.043   2.966   8.483 -0.4187 -0.1958  0.2190
 2972SOL    HW120549   1.990   3.026   8.535 -2.5177 -0.2791 -1.8310
 2972SOL    HW220550   1.983   2.892   8.472  2.0273 -2.3850  1.6646
 2973SOL     OW20551   3.639   0.784  14.910  0.4891  0.4248  0.2534
 2973SOL    HW120552   3.651   0.695  14.877 -0.4944  0.5868 -0.5210
 2973SOL    HW220553   3.577   0.826  14.850 -0.5068  3.8727  3.6435
 2974SOL     OW20554   2.278   3.840   1.662  0.0838  0.2392  0.2238
 2974SOL    HW120555   2.355   3.885   1.627 -0.6065 -0.3171 -1.9840
 2974SOL    HW220556   2.282   3.749   1.634 -0.2793  0.4257 -0.4257
 2975SOL     OW20557   3.178   2.996   0.062  0.5183  0.2047  0.1462
 2975SOL    HW120558   3.128   3.061   0.111  0.0356  1.4984 -2.0882
 2975SOL    HW220559   3.133   2.912   0.076  1.3484 -0.2613  0.0419
 2976SOL     OW20560   2.628   0.940   6.566  0.7426  0.6282  0.3086
 2976SOL    HW120561   2.631   0.845   6.576  3.2107  0.7251  0.3531
 2976SOL    HW220562   2.712   0.959   6.523  0.6969  1.5018  0.6056
 2977SOL     OW20563   2.065   1.378   1.510 -0.1623  0.0424  0.1419
 2977SOL    HW120564   2.007   1.418   1.575 -0.4167 -0.5277  0.2653
 2977SOL    HW220565   2.055   1.287   1.536 -1.5397  1.0504  3.1907
 2978SOL     OW20566   4.712   4.688   4.116 -0.1936 -0.1862  0.0431
 2978SOL    HW120567   0.055   4.728   4.149 -1.3834  1.1233  1.3880
 2978SOL    HW220568   4.645   4.723   4.175  0.9831  2.4833 -0.2001
 2979SOL     OW20569   1.180   4.687   3.422  0.0342  0.0049  0.5057
 2979SOL    HW120570   1.207   4.719   3.336 -1.2044  2.2168  0.9360
 2979SOL    HW220571   1.262   4.668   3.469 -0.6814  1.7444  2.4618
 2980SOL     OW20572   0.847   4.520   7.653 -0.1768 -0.2451  0.3963
 2980SOL    HW120573   0.938   4.514   7.683 -0.2450 -0.0456  0.6524
 2980SOL    HW220574   0.822   4.608   7.682  0.3345 -0.1180  0.4590
 2981SOL     OW20575   1.983   1.593   3.817  0.2284  0.0794 -0.3153
 2981SOL    HW120576   2.020   1.680   3.802  0.3280 -0.0573 -0.8922
 2981SOL    HW220577   2.033   1.549   3.748  0.4725 -0.1974  0.0383
 2982SOL     OW20578   1.682   1.659   8.498  0.3793  0.0023  0.3805
 2982SOL    HW120579   1.682   1.753   8.515  0.5228  0.1051 -0.1905
 2982SOL    HW220580   1.728   1.627   8.575 -0.1553 -1.5006  0.0813
 2983SOL     OW20581   2.897   1.850  14.500  0.1586  0.6912 -0.1260
 2983SOL    HW120582   2.950   1.923  14.466 -0.6110  1.6913  0.8043
 2983SOL    HW220583   2.826   1.910  14.524 -0.9852 -0.9766  0.6173
 2984SOL     OW20584   4.158   1.677  17.452 -0.1212 -0.2395 -0.4374
 2984SOL    HW120585   4.078   1.711  17.492  0.5758  2.1251 -1.0953
 2984SOL    HW220586   4.199   1.619  17.516 -1.2771  0.7091  1.1656
 2985SOL     OW20587   1.240   0.159   8.360  0.2403  0.3541 -0.5214
 2985SOL    HW120588   1.254   0.065   8.347 -0.8121  0.3181 -1.3468
 2985SOL    HW220589   1.247   0.158   8.455  1.8155 -0.2343 -0.6486
 2986SOL     OW20590   0.252   1.134   2.510 -0.1172 -0.7096 -0.0469
 2986SOL    HW120591   0.195   1.129   2.587 -0.2891 -1.3407 -0.2138
 2986SOL    HW220592   0.209   1.081   2.443 -0.4875 -0.1749 -0.2310
 2987SOL     OW20593   1.375   2.690   8.555 -0.1091 -0.4454  0.2919
 2987SOL    HW120594   1.445   2.643   8.511 -1.6202 -2.0625 -0.3706
 2987SOL    HW220595   1.378   2.641   8.637  0.6302  0.7723  0.9953
 2988SOL     OW20596   1.603   2.824   1.138 -0.1181 -0.3100  0.5135
 2988SOL    HW120597   1.538   2.806   1.070  0.2916  1.4586 -0.3492
 2988SOL    HW220598   1.559   2.771   1.204 -0.1172 -1.9148 -0.7671
 2989SOL     OW20599   0.737   0.544   2.458 -0.2171  0.0359  0.2960
 2989SOL    HW120600   0.733   0.639   2.468  0.0220 -0.0772  1.5225
 2989SOL    HW220601   0.667   0.513   2.516  0.7222  0.4407  1.6601
 2990SOL     OW20602   3.378   3.825   9.069  0.6286  0.1468 -0.0343
 2990SOL    HW120603   3.414   3.835   8.980  1.4453  0.8651  0.3747
 2990SOL    HW220604   3.286   3.846   9.053  0.8562  1.3762  0.2830
 2991SOL     OW20605   3.916   1.783   1.242  0.2606 -0.0049 -0.3235
 2991SOL    HW120606   3.932   1.852   1.307  0.0425  0.0877 -0.3648
 2991SOL    HW220607   3.858   1.725   1.291 -0.0260 -0.2516 -0.9574
 2992SOL     OW20608   1.182   3.795   2.106  0.3271  0.5223 -0.4214
 2992SOL    HW120609   1.106   3.851   2.122 -0.2962 -0.6827  0.8395
 2992SOL    HW220610   1.144   3.730   2.048  0.2378 -0.2323  0.4755
 2993SOL     OW20611   0.438   3.351  15.891 -0.5466 -0.2302  0.2133
 2993SOL    HW120612   0.422   3.362  15.985  1.3760  0.0767  0.5077
 2993SOL    HW220613   0.354   3.313  15.863  0.5108 -1.7121 -0.9064
 2994SOL     OW20614   4.424   0.596  17.463 -0.5243 -0.3913  0.1517
 2994SOL    HW120615   4.468   0.511  17.461 -0.3680 -0.2904 -0.6937
 2994SOL    HW220616   4.484   0.644  17.519 -0.0133  1.2250 -1.7880
 2995SOL     OW20617   2.067   1.264  11.584  0.0514  0.4583  0.0956
 2995SOL    HW120618   1.999   1.260  11.651 -0.1368 -2.4097 -0.2638
 2995SOL    HW220619   2.115   1.185  11.609 -0.7306  0.3770  1.3323
 2996SOL     OW20620   2.447   3.231   4.260  0.1852 -0.1652  0.4553
 2996SOL    HW120621   2.404   3.240   4.175  0.2174 -0.6743  0.3847
 2996SOL    HW220622   2.442   3.135   4.266  0.6943 -0.2943 -1.1489
 2997SOL     OW20623   2.250   4.256  13.955 -0.2935 -0.2366 -0.4085
 2997SOL    HW120624   2.220   4.347  13.952 -1.6443 -0.6095  1.8117
 2997SOL    HW220625   2.336   4.269  13.993  0.3001 -0.7886 -1.5519
 2998SOL     OW20626   3.872   1.751   7.975 -0.1504  0.6325  0.1765
 2998SOL    HW120627   3.859   1.833   8.022  1.3672  0.9322  0.0743
 2998SOL    HW220628   3.943   1.772   7.915 -2.4646  2.0898 -2.0217
 2999SOL     OW20629   3.100   3.719  14.393  0.4884  0.2141 -0.1601
 2999SOL    HW120630   3.076   3.707  14.302  0.8645  1.1546 -0.3806
 2999SOL    HW220631   3.013   3.729  14.431  0.2327 -0.4798 -0.5632
 3000SOL     OW20632   0.644   3.054  17.583 -0.5798 -0.1719  0.6957
 3000SOL    HW120633   0.702   3.086  17.653 -0.5588 -0.2043  0.6934
 3000SOL    HW220634   0.641   3.125  17.520  3.3315  0.5722  1.3225
 3001SOL     OW20635   2.834   2.434   8.396 -0.3041 -0.0184  0.7998
 3001SOL    HW120636   2.848   2.475   8.482  0.2311  1.1142  0.1658
 3001SOL    HW220637   2.749   2.475   8.381  1.4334  2.7982 -1.3301
 3002SOL     OW20638   1.940   1.775   9.796 -0.2849  0.1273  0.5757
 3002SOL    HW120639   1.946   1.734   9.709  1.1572  0.2411  0.6085
 3002SOL    HW220640   1.850   1.806   9.798 -0.1195  0.8012 -1.8751
 3003SOL     OW20641   1.325   4.250   6.522  0.4302 -0.6108 -0.0485
 3003SOL    HW120642   1.353   4.159   6.506  3.5516  0.1440  1.0278
 3003SOL    HW220643   1.282   4.270   6.439 -1.3736  0.9682  1.2796
 3004SOL     OW20644   3.648   2.884   7.028  0.0058 -0.7640 -0.1645
 3004SOL    HW120645   3.633   2.978   7.020  1.1919 -0.6023 -0.4464
 3004SOL    HW220646   3.605   2.861   7.111 -0.0731 -2.2747 -0.6122
 3005SOL     OW20647   0.798   3.659  15.145  0.1959 -0.0689  0.3985
 3005SOL    HW120648   0.725   3.645  15.085  2.2995  0.2910 -2.2232
 3005SOL    HW220649   0.763   3.625  15.228 -0.3599  2.1588  1.0861
 3006SOL     OW20650   3.042   3.052   4.424 -0.1505  0.0490 -0.0427
 3006SOL    HW120651   3.069   3.143   4.432 -1.7156  0.2521  2.6637
 3006SOL    HW220652   2.953   3.044   4.390  0.5469 -0.6766 -1.7296
 3007SOL     OW20653   0.730   0.128   7.997  0.6735  0.4656  0.5931
 3007SOL    HW120654   0.676   0.178   7.936 -0.5144  0.1301  1.3886
 3007SOL    HW220655   0.659   0.090   8.049 -0.0740  1.4769  0.3011
 3008SOL     OW20656   2.327   1.979   2.212  0.0885  0.4491  0.2116
 3008SOL    HW120657   2.265   2.052   2.201  0.6395  0.7792 -0.7345
 3008SOL    HW220658   2.296   1.932   2.290  1.1709  3.6253  2.5914
 3009SOL     OW20659   2.810   0.203   9.790  0.2484  0.8089  0.3970
 3009SOL    HW120660   2.727   0.214   9.745  0.8367  1.0262 -0.6480
 3009SOL    HW220661   2.872   0.227   9.721  0.4243 -2.5611 -0.5986
 3010SOL     OW20662   0.766   2.058   4.729  0.3984  0.2141 -0.0674
 3010SOL    HW120663   0.794   2.138   4.685 -1.1008  0.5472 -0.3887
 3010SOL    HW220664   0.724   2.019   4.653 -0.5866  3.2047 -1.0460
 3011SOL     OW20665   4.363   0.147   5.110 -0.1776 -0.0360  0.7222
 3011SOL    HW120666   4.448   0.127   5.149 -0.7787 -1.2960  1.4063
 3011SOL    HW220667   4.336   0.215   5.172  1.3248  0.4786  0.7964
 3012SOL     OW20668   0.260   2.098  17.249 -0.7676 -0.0536  0.2472
 3012SOL    HW120669   0.304   2.169  17.296 -1.0422  0.9869 -1.0614
 3012SOL    HW220670   0.178   2.106  17.298 -0.0514 -2.2361  1.8118
 3013SOL     OW20671   4.601   0.866   4.888 -0.4121  0.2442 -0.0098
 3013SOL    HW120672   4.589   0.772   4.873 -1.4490 -0.0551  2.6287
 3013SOL    HW220673   4.590   0.890   4.796  1.2286  1.9021  0.2329
 3014SOL     OW20674   4.330   1.177   8.247 -0.7990  0.1345 -0.4142
 3014SOL    HW120675   4.363   1.222   8.169  1.5448 -1.7961 -0.5267
 3014SOL    HW220676   4.284   1.102   8.210 -0.4269 -0.1786 -0.2393
 3015SOL     OW20677   3.433   0.566  13.366  0.2430 -0.4059  0.6625
 3015SOL    HW120678   3.417   0.660  13.363 -2.2231 -0.7974  1.2336
 3015SOL    HW220679   3.486   0.548  13.289 -1.3138 -1.8066 -0.0713
 3016SOL     OW20680   1.391   4.494   4.553  0.0293 -0.4717 -0.1640
 3016SOL    HW120681   1.434   4.580   4.557  2.4435 -1.6200 -0.9754
 3016SOL    HW220682   1.452   4.441   4.606  0.0767  0.4460  0.6870
 3017SOL     OW20683   4.086   1.430   7.499 -0.5406 -0.1440  0.3172
 3017SOL    HW120684   4.003   1.472   7.477  0.2736  0.4280 -1.6049
 3017SOL    HW220685   4.142   1.477   7.438  0.3505 -0.6872  0.7004
 3018SOL     OW20686   4.157   3.208   5.405 -0.2088 -0.3813  0.2274
 3018SOL    HW120687   4.152   3.257   5.487 -0.5425 -1.3932  0.8116
 3018SOL    HW220688   4.067   3.205   5.370  0.5193  0.1450 -1.6863
 3019SOL     OW20689   0.231   3.034   9.831  0.4189 -0.4103  0.3722
 3019SOL    HW120690   0.258   2.959   9.777 -1.5067 -1.1463  0.4182
 3019SOL    HW220691   0.225   3.096   9.758 -2.2776 -0.5645  0.4667
 3020SOL     OW20692   1.012   2.056   9.432 -0.2263 -0.4958  0.2819
 3020SOL    HW120693   0.933   2.106   9.447 -1.5178 -2.4296 -0.0765
 3020SOL    HW220694   0.981   2.006   9.356  0.6068 -0.0537 -0.3487
 3021SOL     OW20695   3.050   1.012   3.662 -0.0605 -0.5278  0.1557
 3021SOL    HW120696   2.982   1.065   3.620 -1.3205 -1.7030  0.6944
 3021SOL    HW220697   3.091   0.964   3.590  1.4619  0.2384  0.5038
 3022SOL     OW20698   1.266   2.654  11.359  0.1717 -0.1153  0.2025
 3022SOL    HW120699   1.235   2.623  11.444  0.3048 -0.2125  0.2159
 3022SOL    HW220700   1.357   2.628  11.374 -0.4594 -2.6308 -0.3409
 3023SOL     OW20701   4.121   1.313  17.422 -0.2620  0.2398  0.0339
 3023SOL    HW120702   4.143   1.395  17.378  1.6854  1.0440  2.5088
 3023SOL    HW220703   4.044   1.348  17.466  2.0072  0.3764  3.9209
 3024SOL     OW20704   4.470   2.666   6.648  0.5549 -0.3564 -0.1671
 3024SOL    HW120705   4.375   2.659   6.645  0.5547  0.1712 -1.1957
 3024SOL    HW220706   4.499   2.578   6.672 -0.9498 -0.5304  1.0209
 3025SOL     OW20707   0.180   2.930   1.739 -0.2765  0.3036  0.1290
 3025SOL    HW120708   0.223   2.952   1.656  1.3134  2.5550  1.5223
 3025SOL    HW220709   0.086   2.924   1.724 -0.0839 -3.3216  0.3392
 3026SOL     OW20710   3.927   2.800   5.265 -0.7515  0.2165  0.2868
 3026SOL    HW120711   3.903   2.821   5.175  0.9353  2.2296  0.3032
 3026SOL    HW220712   3.859   2.841   5.319  0.4213 -0.1306  2.0352
 3027SOL     OW20713   4.153   0.680   2.822  0.0749  0.3058 -0.1328
 3027SOL    HW120714   4.102   0.609   2.783 -1.3377  1.6762 -0.8201
 3027SOL    HW220715   4.228   0.689   2.763 -0.1390  0.5600 -0.3659
 3028SOL     OW20716   0.179   0.570  11.726  0.1094 -0.0766 -0.1931
 3028SOL    HW120717   0.191   0.559  11.631  0.2988 -0.3582 -0.1381
 3028SOL    HW220718   0.108   0.633  11.723  0.3504  0.2389  0.9732
 3029SOL     OW20719   4.643   2.866   0.870  0.3520 -0.1350  0.2612
 3029SOL    HW120720   4.690   2.796   0.826 -0.0687 -0.5628  0.4929
 3029SOL    HW220721   4.628   2.831   0.958  0.7156  0.8617  0.7191
 3030SOL     OW20722   4.448   1.292   3.828  0.0701 -0.0078  0.0652
 3030SOL    HW120723   4.449   1.206   3.869  0.5455 -0.3185 -0.6025
 3030SOL    HW220724   4.537   1.328   3.823 -0.4989  0.9476 -3.1246
 3031SOL     OW20725   1.947   2.475   4.608 -0.3021 -1.0035  0.5721
 3031SOL    HW120726   1.906   2.398   4.567 -0.3349 -0.1817 -0.9233
 3031SOL    HW220727   1.893   2.474   4.687  2.8437 -0.8317  2.6968
 3032SOL     OW20728   3.936   2.930   2.569  0.0974 -0.0906  0.2331
 3032SOL    HW120729   3.889   2.987   2.507  1.2373 -0.1811 -0.7013
 3032SOL    HW220730   3.867   2.877   2.609  0.5907  0.8369  2.2666
 3033SOL     OW20731   0.576   0.516   5.207 -0.0496  0.4398  0.0226
 3033SOL    HW120732   0.533   0.601   5.203 -0.2543  0.2793 -1.2562
 3033SOL    HW220733   0.613   0.520   5.295 -0.1128  4.0937 -0.1174
 3034SOL     OW20734   0.660   3.413   6.275  0.1038 -0.1792 -0.0161
 3034SOL    HW120735   0.713   3.406   6.354 -0.2240  2.1512  0.4071
 3034SOL    HW220736   0.569   3.424   6.302  0.3997 -0.5946  1.1598
 3035SOL     OW20737   1.188   2.280   6.185 -0.7002 -0.0279 -0.5597
 3035SOL    HW120738   1.186   2.329   6.267  1.4503 -2.0881  0.7238
 3035SOL    HW220739   1.224   2.347   6.126  1.7474  0.5251  1.5756
 3036SOL     OW20740   3.587   2.311   3.804  0.3820  0.3795 -0.3120
 3036SOL    HW120741   3.528   2.353   3.741  0.1082  0.0978 -0.2442
 3036SOL    HW220742   3.664   2.368   3.796 -0.0403  0.8030 -1.3984
 3037SOL     OW20743   2.167   2.403   3.978  0.4756  0.1623  0.0447
 3037SOL    HW120744   2.164   2.483   4.030  0.9793  1.5941 -2.1664
 3037SOL    HW220745   2.076   2.413   3.952  0.2308 -0.6894  0.5706
 3038SOL     OW20746   0.941   0.279   9.703 -0.9677 -0.1528 -0.2936
 3038SOL    HW120747   0.988   0.238   9.775 -1.4002  0.1466  0.1597
 3038SOL    HW220748   0.947   0.373   9.720  0.3626  0.0348 -1.8152
 3039SOL     OW20749   4.359   2.589   0.883 -0.3521  0.4196  0.5219
 3039SOL    HW120750   4.421   2.534   0.836  0.2562  1.3917  0.1796
 3039SOL    HW220751   4.288   2.526   0.897  0.0363  0.0353  0.7676
 3040SOL     OW20752   3.114   1.886   9.755 -0.1550 -0.1367  0.3193
 3040SOL    HW120753   3.092   1.814   9.696  1.1953 -0.4299  0.1825
 3040SOL    HW220754   3.065   1.956   9.712  0.3782  0.5086  0.7637
 3041SOL     OW20755   3.920   1.818   0.086 -0.2373 -0.0621 -0.3412
 3041SOL    HW120756   3.944   1.910   0.077 -0.3791 -0.1453 -1.5973
 3041SOL    HW220757   3.943   1.795  17.745  2.7552 -2.6405  1.1057
 3042SOL     OW20758   3.959   4.734  10.374  0.1749 -0.1289 -0.3806
 3042SOL    HW120759   4.002   4.703  10.294 -1.5694 -0.7847 -1.0602
 3042SOL    HW220760   3.948   0.087  10.344 -1.0911 -0.2388 -0.2346
 3043SOL     OW20761   3.980   3.499   4.658  0.5916 -0.7511  0.1687
 3043SOL    HW120762   3.959   3.522   4.748 -0.4352  0.9391 -0.5223
 3043SOL    HW220763   3.891   3.468   4.639 -0.3087  0.0952  3.0848
 3044SOL     OW20764   3.913   4.186   3.715 -0.0145  0.3672 -0.1036
 3044SOL    HW120765   3.954   4.236   3.645 -1.2660 -1.7902 -2.3899
 3044SOL    HW220766   3.835   4.241   3.718  0.1381  0.5437  0.4925
 3045SOL     OW20767   2.280   2.071   1.041  0.5653  0.2540  0.0804
 3045SOL    HW120768   2.367   2.065   1.003  0.8774  0.2886  0.7870
 3045SOL    HW220769   2.297   2.079   1.135  0.3486 -0.3216  0.1732
 3046SOL     OW20770   0.149   0.174   7.051 -0.1705  0.5839  0.5785
 3046SOL    HW120771   0.232   0.206   7.015 -0.7737 -0.7017 -1.9383
 3046SOL    HW220772   0.166   0.155   7.144  0.8254 -0.5392  0.1639
 3047SOL     OW20773   3.981   4.165   8.545  0.1285  0.0596 -0.0306
 3047SOL    HW120774   3.996   4.070   8.550 -0.7287 -0.1110 -0.5488
 3047SOL    HW220775   4.056   4.201   8.499  1.0880 -0.5266  1.1008
 3048SOL     OW20776   0.536   2.509   8.324  0.5027 -0.6039 -0.0417
 3048SOL    HW120777   0.510   2.423   8.359  0.0739 -0.1164  0.8540
 3048SOL    HW220778   0.571   2.547   8.405 -0.5077  0.8137 -0.2679
 3049SOL     OW20779   3.532   0.509  14.569  0.3028 -0.2325  0.0809
 3049SOL    HW120780   3.591   0.524  14.643 -0.2626 -1.7875  0.8307
 3049SOL    HW220781   3.586   0.469  14.500  1.5783 -0.5040  1.2386
 3050SOL     OW20782   0.534   2.785  10.178  0.0672  0.2477 -0.5295
 3050SOL    HW120783   0.496   2.724  10.115  0.1022 -1.1165  0.7677
 3050SOL    HW220784   0.627   2.766  10.171  0.0221  0.1564 -0.8881
 3051SOL     OW20785   2.620   4.308   3.137  0.4268  0.7315  0.3142
 3051SOL    HW120786   2.611   4.394   3.179  1.4714 -0.1981  2.4675
 3051SOL    HW220787   2.712   4.289   3.154  0.7851 -0.9964 -3.5222
 3052SOL     OW20788   0.263   1.253  16.283  0.3285  0.0273  0.0644
 3052SOL    HW120789   0.199   1.188  16.312  1.2462 -1.2306 -0.7374
 3052SOL    HW220790   0.282   1.221  16.195  0.3474  0.4261 -0.0800
 3053SOL     OW20791   0.818   0.323   7.294  0.0391  0.4601 -0.1730
 3053SOL    HW120792   0.750   0.373   7.249  1.4339  1.4094 -1.2303
 3053SOL    HW220793   0.891   0.329   7.232 -1.0191 -1.2524 -1.5562
 3054SOL     OW20794   1.183   4.302  10.448  0.3798 -0.3046  0.3884
 3054SOL    HW120795   1.200   4.253  10.529  1.4538  2.5206  1.8900
 3054SOL    HW220796   1.271   4.329  10.421 -0.2128  0.1201 -1.1332
 3055SOL     OW20797   1.369   1.955   2.603  0.6552 -0.5455 -0.2385
 3055SOL    HW120798   1.420   2.023   2.647 -0.7510  0.9846 -0.9344
 3055SOL    HW220799   1.282   1.991   2.622  0.4966 -1.8161  1.3680
 3056SOL     OW20800   4.130   3.493   4.447  0.4011 -0.1790  0.1888
 3056SOL    HW120801   4.059   3.536   4.398  1.5635  1.1619 -0.3126
 3056SOL    HW220802   4.101   3.500   4.537  1.5094  1.7542  0.3828
 3057SOL     OW20803   1.798   4.451   6.154 -0.2891 -0.6182  0.6823
 3057SOL    HW120804   1.864   4.511   6.187  0.7325 -0.7456 -1.1199
 3057SOL    HW220805   1.853   4.377   6.127 -1.1922 -0.2924 -2.0247
 3058SOL     OW20806   3.279   3.723  15.145  0.5226 -0.0586  0.5414
 3058SOL    HW120807   3.235   3.808  15.147 -1.5834 -1.1424  0.4441
 3058SOL    HW220808   3.260   3.682  15.061  1.2659 -0.1358  0.4052
 3059SOL     OW20809   3.568   4.635  17.422 -0.1933  0.2398  0.1790
 3059SOL    HW120810   3.629   4.567  17.394 -1.2913 -0.7264  0.1059
 3059SOL    HW220811   3.500   4.627  17.354 -0.5871  2.1396  0.3460
 3060SOL     OW20812   0.025   2.103   2.707 -0.0565  0.2908 -0.2559
 3060SOL    HW120813   0.110   2.109   2.751 -0.0573 -1.7935  0.0173
 3060SOL    HW220814   4.708   2.166   2.755 -0.3155  0.8936 -1.3447
 3061SOL     OW20815   2.434   0.846  11.021 -0.0891  0.2460 -0.5519
 3061SOL    HW120816   2.374   0.912  10.985 -2.0627 -0.6026  1.1703
 3061SOL    HW220817   2.464   0.871  11.108  0.0069 -0.1978 -0.4580
 3062SOL     OW20818   1.225   2.203   9.025 -0.2659 -0.3249  0.3538
 3062SOL    HW120819   1.295   2.184   8.963  0.3584  0.7809  0.7244
 3062SOL    HW220820   1.263   2.272   9.079 -0.0205 -0.3820  0.2552
 3063SOL     OW20821   3.497   3.071   2.765  0.2376 -0.5276  0.2361
 3063SOL    HW120822   3.499   3.137   2.834  1.3810  2.2239 -2.4164
 3063SOL    HW220823   3.576   3.103   2.721  0.8121 -0.2865  1.4296
 3064SOL     OW20824   4.251   3.594   7.639 -0.1580 -0.3600 -0.3792
 3064SOL    HW120825   4.303   3.665   7.677 -2.7168  0.3767  1.7316
 3064SOL    HW220826   4.185   3.634   7.581  1.3417  2.1694 -0.3398
 3065SOL     OW20827   0.109   2.067   4.131 -0.0208 -0.1933  0.1431
 3065SOL    HW120828   0.109   2.007   4.205 -2.2414 -1.2414 -0.7176
 3065SOL    HW220829   0.107   2.150   4.179  1.3754  0.8438 -1.6100
 3066SOL     OW20830   4.094   3.584   5.139 -0.2049 -0.7117  0.3051
 3066SOL    HW120831   4.132   3.628   5.062  0.8159 -2.3329 -0.1176
 3066SOL    HW220832   4.084   3.659   5.197  0.7432 -0.4990  0.2030
 3067SOL     OW20833   4.488   1.255   8.469 -0.0002 -0.0263  0.0581
 3067SOL    HW120834   4.499   1.350   8.460 -3.1454 -0.0743 -4.5801
 3067SOL    HW220835   4.468   1.234   8.377  0.9645 -2.2363  0.3645
 3068SOL     OW20836   4.209   4.160   5.279  0.1000 -0.3941 -0.1980
 3068SOL    HW120837   4.227   4.159   5.373  0.8753 -2.4392 -0.3720
 3068SOL    HW220838   4.193   4.253   5.263 -1.0705 -0.2273  1.8844
 3069SOL     OW20839   0.251   0.015   1.881 -0.2849  0.3856 -0.1637
 3069SOL    HW120840   0.181   4.699   1.845 -1.5826 -0.3076  3.3516
 3069SOL    HW220841   0.198   0.088   1.914 -2.1455 -0.8537 -0.4096
 3070SOL     OW20842   4.623   1.452  12.919 -0.1312 -0.6113  0.0751
 3070SOL    HW120843   4.627   1.438  12.825  0.1116  0.4609 -0.0749
 3070SOL    HW220844   4.560   1.385  12.945  0.7010 -0.4295  2.5608
 3071SOL     OW20845   1.657   4.317   1.911  0.0408  0.1946 -1.0691
 3071SOL    HW120846   1.718   4.257   1.953 -0.9878 -0.8559 -1.0739
 3071SOL    HW220847   1.665   4.292   1.819 -1.4880  0.1405 -1.1930
 3072SOL     OW20848   2.552   1.282   1.343  0.3234 -0.2146  0.1169
 3072SOL    HW120849   2.492   1.347   1.379 -0.3251 -2.0948  2.4291
 3072SOL    HW220850   2.616   1.282   1.414 -0.2638  0.8928  0.6342
 3073SOL     OW20851   1.300   3.732  16.022 -0.2741  0.0206 -0.0075
 3073SOL    HW120852   1.329   3.645  15.995  0.2119  0.0222  0.5226
 3073SOL    HW220853   1.383   3.765  16.055 -0.0040 -0.9098  0.2329
 3074SOL     OW20854   4.636   4.352   7.828  0.1640  0.0974 -0.2381
 3074SOL    HW120855   4.612   4.445   7.826 -0.0596  0.0313 -0.5252
 3074SOL    HW220856   4.628   4.323   7.919 -2.2039  1.8455  0.1048
 3075SOL     OW20857   0.469   4.007   0.224  0.5515  0.2936  0.0053
 3075SOL    HW120858   0.448   3.986   0.315 -3.1176  1.9985 -0.4770
 3075SOL    HW220859   0.513   4.091   0.241  1.4719 -0.1268 -0.2804
 3076SOL     OW20860   4.502   3.588   8.356  0.0678 -0.4343 -0.4108
 3076SOL    HW120861   4.478   3.528   8.285  1.0421 -2.3376  0.8899
 3076SOL    HW220862   4.425   3.577   8.411  0.0754 -2.4630 -0.7848
 3077SOL     OW20863   1.779   0.538   4.657  0.3693  0.1670  0.2183
 3077SOL    HW120864   1.741   0.546   4.745  0.9542  0.2882  0.4612
 3077SOL    HW220865   1.849   0.604   4.661 -0.6717  1.2963 -0.2617
 3078SOL     OW20866   3.028   3.926   6.045  0.0500  0.8537  0.1045
 3078SOL    HW120867   2.981   3.880   6.115  1.0541  1.3139  1.0982
 3078SOL    HW220868   3.121   3.924   6.070  0.0692 -1.0666 -0.1126
 3079SOL     OW20869   3.435   0.734   8.432  0.1674 -0.2458  0.4586
 3079SOL    HW120870   3.527   0.709   8.445  0.3048 -0.8305 -1.6812
 3079SOL    HW220871   3.436   0.827   8.409 -1.6416 -0.3383  0.0071
 3080SOL     OW20872   2.307   1.188   3.722 -0.4852  0.5300 -0.1013
 3080SOL    HW120873   2.375   1.198   3.655  0.4793 -0.7452  0.6891
 3080SOL    HW220874   2.272   1.108   3.684 -1.9131  1.7008 -1.2565
 3081SOL     OW20875   3.755   1.997  10.668  0.8567 -0.3676  0.3104
 3081SOL    HW120876   3.792   2.023  10.585 -3.3888  0.3882 -1.3629
 3081SOL    HW220877   3.758   1.902  10.655  2.4252 -0.4421  1.2157
 3082SOL     OW20878   1.022   0.321   3.928  0.3319 -0.5382  0.5630
 3082SOL    HW120879   0.973   0.239   3.934  2.1158 -1.7785 -1.8985
 3082SOL    HW220880   0.962   0.385   3.891  1.3547 -1.3018 -2.4208
 3083SOL     OW20881   0.866   0.786   3.396 -0.4432 -0.0887 -0.8007
 3083SOL    HW120882   0.859   0.694   3.420  1.0684 -0.2332 -0.9179
 3083SOL    HW220883   0.847   0.774   3.303  1.9673  0.7515 -1.3947
 3084SOL     OW20884   3.566   2.875  12.443  0.4019 -0.0368  0.2938
 3084SOL    HW120885   3.637   2.822  12.478 -0.1911 -0.0483  1.4591
 3084SOL    HW220886   3.538   2.827  12.365  0.1249  1.2722 -0.4104
 3085SOL     OW20887   3.538   1.260   8.190 -0.6392  0.0088 -0.9629
 3085SOL    HW120888   3.581   1.300   8.266  0.6806 -0.8069 -1.2801
 3085SOL    HW220889   3.453   1.303   8.198 -0.2813  0.8221 -1.5408
 3086SOL     OW20890   3.165   2.915  15.790 -0.9214 -0.2938 -0.1104
 3086SOL    HW120891   3.136   2.823  15.787  0.9020 -0.8738  0.3118
 3086SOL    HW220892   3.249   2.908  15.835 -1.0814 -2.4885 -0.1178
 3087SOL     OW20893   3.186   4.537   7.998  0.4705  0.2204 -0.2900
 3087SOL    HW120894   3.218   4.621   8.031  1.1589  1.0499 -3.0875
 3087SOL    HW220895   3.093   4.551   7.981 -0.0992 -2.9972  0.1413
 3088SOL     OW20896   3.891   2.587   9.116  0.1591  0.5200 -0.1817
 3088SOL    HW120897   3.806   2.627   9.136  1.1255  2.4722  0.0085
 3088SOL    HW220898   3.893   2.523   9.187 -0.6300  0.4822 -0.1910
 3089SOL     OW20899   2.812   3.408   7.145  0.1016 -0.0351  0.0180
 3089SOL    HW120900   2.772   3.322   7.159  1.7768 -0.8035  0.0652
 3089SOL    HW220901   2.751   3.446   7.081  0.1274  1.1838  0.7163
 3090SOL     OW20902   3.191   0.893   5.846 -0.2455  0.3062 -1.0395
 3090SOL    HW120903   3.115   0.837   5.837 -2.1309  2.5737  0.7589
 3090SOL    HW220904   3.159   0.982   5.836  0.6358  0.5424 -1.7308
 3091SOL     OW20905   1.546   0.447  10.742 -0.1616  0.1845 -0.7768
 3091SOL    HW120906   1.492   0.413  10.670  0.0034 -0.0501 -0.7886
 3091SOL    HW220907   1.473   0.483  10.792  0.1988  0.6819 -0.6219
 3092SOL     OW20908   1.044   3.762   5.187 -0.0142 -0.3832 -0.3938
 3092SOL    HW120909   1.096   3.703   5.132 -0.7080  0.1341 -1.6201
 3092SOL    HW220910   1.118   3.804   5.230  0.8824 -0.4393 -1.8596
 3093SOL     OW20911   0.955   0.760  11.674 -0.0372  0.0450 -0.0479
 3093SOL    HW120912   0.969   0.845  11.716  2.2931  0.5705 -1.8961
 3093SOL    HW220913   1.042   0.742  11.640  0.5673  0.5257  1.2462
 3094SOL     OW20914   0.794   2.980  11.094 -0.0662 -0.1751 -0.3857
 3094SOL    HW120915   0.850   3.048  11.132 -0.3024 -0.9767  1.3718
 3094SOL    HW220916   0.804   2.997  11.000  1.1178  3.8210  0.4598
 3095SOL     OW20917   1.065   4.461   3.518 -0.2433  0.5406 -0.1657
 3095SOL    HW120918   1.102   4.545   3.490  0.3276  0.1995 -0.4296
 3095SOL    HW220919   1.114   4.400   3.463 -0.6971  1.3433 -1.4607
 3096SOL     OW20920   2.940   0.561   1.961  0.2495 -0.7050 -0.2247
 3096SOL    HW120921   2.991   0.580   1.882 -0.3971 -1.2929 -0.7938
 3096SOL    HW220922   2.916   0.469   1.950 -1.5424  0.0977 -3.2190
 3097SOL     OW20923   2.015   3.247   7.758  0.2624  0.0711 -0.1152
 3097SOL    HW120924   2.045   3.328   7.717 -0.0056  0.5289  0.5848
 3097SOL    HW220925   2.090   3.189   7.754  0.4856  0.2272  1.6961
 3098SOL     OW20926   1.653   2.373   5.620  0.4187  0.3343  0.3854
 3098SOL    HW120927   1.633   2.425   5.541 -1.1973 -2.0212 -0.7505
 3098SOL    HW220928   1.614   2.290   5.593 -1.8054  1.4228  0.2480
 3099SOL     OW20929   3.185   2.702   9.650  0.4623 -0.1456 -0.0860
 3099SOL    HW120930   3.095   2.733   9.637  0.4098  0.6520  2.2014
 3099SOL    HW220931   3.233   2.782   9.672 -1.0745  1.5697 -2.8519
 3100SOL     OW20932   3.027   3.196   7.198 -0.0636 -0.2198  0.0182
 3100SOL    HW120933   2.971   3.262   7.157  0.9239  0.2117 -0.6663
 3100SOL    HW220934   2.986   3.113   7.174  0.8983 -1.0441  1.2710
 3101SOL     OW20935   4.673   2.482   7.975 -0.5532  0.5251  0.0811
 3101SOL    HW120936   4.686   2.551   7.910 -0.1537 -0.0117 -0.4091
 3101SOL    HW220937   4.687   2.533   8.055 -0.3022  0.1507  0.2810
 3102SOL     OW20938   0.584   0.375   6.306 -0.1718  0.0255  0.2907
 3102SOL    HW120939   0.520   0.347   6.371 -0.8473  0.1734 -0.3117
 3102SOL    HW220940   0.524   0.423   6.249  1.0104  1.2163  0.0329
 3103SOL     OW20941   3.411   3.293  15.877 -0.8813 -0.2133  0.2287
 3103SOL    HW120942   3.413   3.212  15.928 -0.4384  0.3094  1.0471
 3103SOL    HW220943   3.505   3.300  15.863 -1.3040  0.7395 -2.1557
 3104SOL     OW20944   3.475   1.063  15.818  0.3191  0.1965  0.1963
 3104SOL    HW120945   3.545   1.074  15.882  0.5295  0.6802 -0.1161
 3104SOL    HW220946   3.405   1.018  15.866  1.3487  0.9471  2.3629
 3105SOL     OW20947   1.458   3.739   2.112 -0.4782 -0.6043  0.1224
 3105SOL    HW120948   1.366   3.759   2.128  0.4186  2.7136  1.0861
 3105SOL    HW220949   1.447   3.720   2.019  0.1008 -0.6137  0.0549
 3106SOL     OW20950   3.692   4.651   6.537 -0.0282  0.8591 -0.0565
 3106SOL    HW120951   3.762   4.590   6.514 -1.0433 -0.3023 -0.0713
 3106SOL    HW220952   3.635   4.646   6.461  1.0279  0.4923 -0.8281
 3107SOL     OW20953   1.780   2.228   9.086  0.5015  0.0908  0.6411
 3107SOL    HW120954   1.769   2.133   9.093 -0.4768  0.1877  0.5231
 3107SOL    HW220955   1.705   2.255   9.031  0.7900  0.4520  0.4260
 3108SOL     OW20956   1.892   0.511  10.878 -0.0245 -0.4310  0.3968
 3108SOL    HW120957   1.924   0.500  10.968 -0.9179 -0.4681  0.7063
 3108SOL    HW220958   1.855   0.598  10.888  0.3394 -0.3881  1.4574
 3109SOL     OW20959   4.463   0.534   2.010  0.2974  0.0769 -0.1638
 3109SOL    HW120960   4.497   0.581   2.086  0.2855 -0.5584  0.2312
 3109SOL    HW220961   4.530   0.559   1.946  2.3267 -0.3221  1.8329
 3110SOL     OW20962   4.112   4.387   7.024 -0.1265  0.3752 -0.3351
 3110SOL    HW120963   4.186   4.446   7.036 -0.4561  0.3236  1.8062
 3110SOL    HW220964   4.164   4.317   6.985  1.8593  1.7191 -0.0823
 3111SOL     OW20965   1.155   2.196   9.828  0.4032  0.8608 -0.2256
 3111SOL    HW120966   1.101   2.188   9.906  0.6778  1.7168  0.0533
 3111SOL    HW220967   1.240   2.224   9.863 -0.6849 -0.7604  3.6582
 3112SOL     OW20968   3.786   3.649   0.360 -1.0448  0.0024 -0.4934
 3112SOL    HW120969   3.865   3.699   0.344 -0.1958 -1.1223  0.1545
 3112SOL    HW220970   3.721   3.716   0.382 -2.0483 -0.4819 -2.0395
 3113SOL     OW20971   0.374   4.360   2.277 -0.1215  0.2578  1.1139
 3113SOL    HW120972   0.431   4.425   2.318  1.4836 -1.0784  1.0345
 3113SOL    HW220973   0.289   4.388   2.310 -0.8823  2.1279 -2.4105
 3114SOL     OW20974   1.408   0.891   0.834 -0.1352 -0.7968 -0.4211
 3114SOL    HW120975   1.396   0.798   0.853  0.3387 -0.7023  0.3461
 3114SOL    HW220976   1.323   0.911   0.794  1.1934  2.3350 -1.6160
 3115SOL     OW20977   1.679   4.038   4.830 -0.7146  0.0497  0.3481
 3115SOL    HW120978   1.650   4.123   4.863 -1.2950 -0.1031  0.2233
 3115SOL    HW220979   1.756   4.031   4.887 -0.8585  2.2294  0.8043
 3116SOL     OW20980   0.137   3.758  17.147  0.2697 -0.1091 -0.0452
 3116SOL    HW120981   0.144   3.824  17.078  1.6563  0.1974  0.3803
 3116SOL    HW220982   0.147   3.813  17.225 -1.3129 -0.3002  0.2909
 3117SOL     OW20983   2.777   1.571   8.339  0.1326 -0.0946  0.7939
 3117SOL    HW120984   2.828   1.579   8.258  0.5879 -0.8044  1.0114
 3117SOL    HW220985   2.845   1.603   8.399 -0.1619 -0.5368  1.3679
 3118SOL     OW20986   3.226   4.519   8.294  1.0121  0.0563  0.5603
 3118SOL    HW120987   3.300   4.534   8.352  1.6649  0.4057 -0.3720
 3118SOL    HW220988   3.191   4.607   8.283 -0.1886 -0.7188 -1.9935
 3119SOL     OW20989   4.404   3.120   7.166  0.1668  0.2805  0.0073
 3119SOL    HW120990   4.398   3.037   7.118 -0.0677 -0.7396  1.7954
 3119SOL    HW220991   4.326   3.123   7.222  1.1703  1.2325  1.3513
 3120SOL     OW20992   2.825   1.516   8.710 -0.4991 -0.1376  0.0862
 3120SOL    HW120993   2.813   1.561   8.794  0.1840 -1.7881  1.0764
 3120SOL    HW220994   2.898   1.458   8.734  0.3794  1.1086  0.4643
 3121SOL     OW20995   3.077   1.046   2.720  0.0396 -0.7418  0.2833
 3121SOL    HW120996   3.001   1.097   2.746  0.0019 -0.3807 -0.5292
 3121SOL    HW220997   3.046   0.960   2.693 -2.0777  0.9025 -2.4739
 3122SOL     OW20998   0.833   2.799   6.686 -0.3445 -0.1070 -0.0934
 3122SOL    HW120999   0.787   2.720   6.716  1.6264 -0.0928  3.0315
 3122SOL    HW221000   0.814   2.860   6.757  1.5604 -1.7490  1.8483
 3123SOL     OW21001   0.838   4.149  13.057  0.8735 -0.3464 -0.0068
 3123SOL    HW121002   0.858   4.217  13.121  1.4360 -1.1676  0.6911
 3123SOL    HW221003   0.894   4.177  12.985 -0.2242  2.0604  0.0926
 3124SOL     OW21004   1.624   3.505   8.555 -1.0822 -0.3847  0.1941
 3124SOL    HW121005   1.606   3.575   8.618  0.2841  0.4827 -0.3713
 3124SOL    HW221006   1.542   3.458   8.567 -1.3597  0.6058  2.2498
 3125SOL     OW21007   0.361   1.712   9.223  0.3949 -0.3397  0.0518
 3125SOL    HW121008   0.396   1.741   9.308 -0.4698  0.6538  0.0748
 3125SOL    HW221009   0.278   1.760   9.227  0.0923 -0.6874 -2.2282
 3126SOL     OW21010   1.148   2.555  13.766  0.2605 -0.1127 -0.4626
 3126SOL    HW121011   1.144   2.612  13.843  3.0158 -0.0714 -0.3691
 3126SOL    HW221012   1.145   2.478  13.822 -0.9791  1.4161  1.5949
 3127SOL     OW21013   2.541   0.083  15.888  0.1616 -0.3335  0.1585
 3127SOL    HW121014   2.518   0.011  15.831 -0.2289  0.2869 -0.4676
 3127SOL    HW221015   2.528   0.060  15.980  2.0013 -0.0025  0.5013
 3128SOL     OW21016   0.479   4.700   8.439 -0.5660  0.3503  0.2045
 3128SOL    HW121017   0.533   0.017   8.382 -1.7987 -0.2109 -1.4974
 3128SOL    HW221018   0.512   4.612   8.418  0.0902  0.4193  0.9241
 3129SOL     OW21019   1.485   0.162  15.977  0.1082 -0.5942  0.2410
 3129SOL    HW121020   1.473   0.171  15.882  3.5149 -3.0498 -0.3930
 3129SOL    HW221021   1.580   0.169  15.986 -0.1981  0.3428  2.7844
 3130SOL     OW21022   1.956   2.033   4.786 -0.1624 -0.7732  0.1168
 3130SOL    HW121023   1.966   1.940   4.808 -0.8090 -0.0284  3.5068
 3130SOL    HW221024   1.957   2.026   4.690 -3.0752 -0.2629  0.0682
 3131SOL     OW21025   2.305   0.502   8.989 -0.0390 -0.0876 -0.0412
 3131SOL    HW121026   2.227   0.512   8.934  0.8614  4.4789 -0.4356
 3131SOL    HW221027   2.365   0.571   8.962 -1.2968  1.3296  0.7539
 3132SOL     OW21028   0.659   2.967  11.819  0.3539 -0.2850  0.3660
 3132SOL    HW121029   0.670   3.000  11.908 -0.4965 -1.7610  1.0206
 3132SOL    HW221030   0.637   3.054  11.785 -1.3580 -0.6388  0.6043
 3133SOL     OW21031   1.278   2.490   6.004 -0.3994  0.1529 -0.1840
 3133SOL    HW121032   1.362   2.467   6.043  0.0184  1.5893 -0.2731
 3133SOL    HW221033   1.296   2.477   5.911  0.5192 -1.0511  0.1602
 3134SOL     OW21034   1.171   2.793   1.672 -0.0425  0.2398  0.3525
 3134SOL    HW121035   1.219   2.795   1.755  0.1975 -0.2185  0.2272
 3134SOL    HW221036   1.097   2.851   1.689 -2.1356 -1.8437 -1.7210
 3135SOL     OW21037   2.528   4.699  16.134 -0.0572  0.4639 -0.3806
 3135SOL    HW121038   2.572   4.633  16.080  3.1574  0.5014  2.2412
 3135SOL    HW221039   2.509   4.644  16.210 -1.1204  1.0745 -0.1999
 3136SOL     OW21040   2.558   3.860   7.044  0.3763 -0.7993 -0.2789
 3136SOL    HW121041   2.558   3.764   7.042  0.6278 -0.7867 -0.6506
 3136SOL    HW221042   2.465   3.882   7.051  0.3434 -0.3232 -2.3784
 3137SOL     OW21043   3.876   0.625   4.776  0.4945  0.1578 -0.2554
 3137SOL    HW121044   3.929   0.545   4.777  0.0563 -0.1342 -0.2421
 3137SOL    HW221045   3.863   0.664   4.863  0.8577  2.8675 -1.4345
 3138SOL     OW21046   0.346   0.195   9.973  0.0244 -0.2279 -0.4057
 3138SOL    HW121047   0.419   0.157  10.022  1.1063 -0.0255 -1.8617
 3138SOL    HW221048   0.285   0.121   9.973  1.1181 -1.1368  0.0354
 3139SOL     OW21049   0.910   1.165  12.037 -0.5713 -0.3968  0.2847
 3139SOL    HW121050   0.971   1.238  12.040  2.0774 -2.6140  0.4396
 3139SOL    HW221051   0.947   1.108  11.969 -1.0209 -1.1419  0.6665
 3140SOL     OW21052   2.158   2.178  17.373  0.3384  0.0259 -0.1968
 3140SOL    HW121053   2.141   2.127  17.294  1.2027 -0.7096  0.0998
 3140SOL    HW221054   2.070   2.186  17.409  0.3650  2.4694 -0.6440
 3141SOL     OW21055   1.516   3.106   5.654 -0.3327 -0.6295 -0.2609
 3141SOL    HW121056   1.544   3.016   5.664 -1.0598 -0.8349 -0.0518
 3141SOL    HW221057   1.528   3.124   5.747 -0.9056  1.8310 -0.6422
 3142SOL     OW21058   2.066   4.341   6.834  0.1455  0.0278 -0.0568
 3142SOL    HW121059   2.050   4.261   6.785  0.2813  0.8725 -1.4849
 3142SOL    HW221060   1.974   4.366   6.840  0.1344 -0.1938  0.6513
 3143SOL     OW21061   0.582   1.181  16.691 -0.0691 -0.8632 -0.2765
 3143SOL    HW121062   0.607   1.089  16.704  0.3245 -0.6436  0.5697
 3143SOL    HW221063   0.571   1.182  16.596  3.4165  2.1188 -0.6673
 3144SOL     OW21064   0.803   4.484   3.417 -0.7085  0.2989  0.3492
 3144SOL    HW121065   0.889   4.467   3.456 -0.8563 -1.5399 -0.1747
 3144SOL    HW221066   0.821   4.495   3.324 -0.0908 -1.4554  0.2643
 3145SOL     OW21067   4.646   0.714   4.143 -0.4269  0.0704 -0.2307
 3145SOL    HW121068   4.631   0.804   4.174  1.5704  0.7520 -1.2640
 3145SOL    HW221069   4.731   0.690   4.178  0.3025  2.7172 -0.1392
 3146SOL     OW21070   2.100   3.943   1.864 -0.1255 -0.0915  0.2783
 3146SOL    HW121071   2.116   3.874   1.930 -0.0940 -0.3413  0.0088
 3146SOL    HW221072   2.161   3.921   1.794  0.8271  1.0717  0.7516
 3147SOL     OW21073   2.439   0.475   7.504  0.0385  0.0366  0.3700
 3147SOL    HW121074   2.420   0.389   7.467 -3.6326  1.3694 -0.7918
 3147SOL    HW221075   2.529   0.450   7.527 -0.2989 -1.2506  0.3018
 3148SOL     OW21076   4.598   2.511   0.661  0.0753 -0.2426  0.7203
 3148SOL    HW121077   4.624   2.512   0.569 -0.3563 -0.7537  0.5952
 3148SOL    HW221078   4.677   2.540   0.706 -0.1067  1.0444  0.2145
 3149SOL     OW21079   0.520   1.939   1.658  0.6101 -0.0603 -0.4261
 3149SOL    HW121080   0.492   1.926   1.567 -0.7808 -0.5910  0.0753
 3149SOL    HW221081   0.572   2.019   1.657  1.2926 -0.5059 -0.5316
 3150SOL     OW21082   0.411   2.648   6.813  0.0549  0.6830 -0.4013
 3150SOL    HW121083   0.400   2.714   6.745  3.2151  0.7244 -0.8570
 3150SOL    HW221084   0.326   2.668   6.852  0.5597  3.3882 -0.6742
 3151SOL     OW21085   4.260   4.013   4.194 -0.5540  0.6772  0.2195
 3151SOL    HW121086   4.219   4.095   4.221  1.4324  1.4744  0.7670
 3151SOL    HW221087   4.181   3.968   4.165 -1.2264  2.0596 -0.1145
 3152SOL     OW21088   2.822   2.699   7.388 -0.3914 -0.2086  0.1589
 3152SOL    HW121089   2.856   2.618   7.425  0.9207 -0.2475 -1.1540
 3152SOL    HW221090   2.757   2.680   7.321 -1.3204  0.9192  0.7255
 3153SOL     OW21091   0.438   1.572   8.068 -0.3238 -0.2017  0.4775
 3153SOL    HW121092   0.477   1.485   8.064 -0.9263 -0.4285 -0.2682
 3153SOL    HW221093   0.347   1.548   8.085 -0.2713 -1.2611 -0.8008
 3154SOL     OW21094   2.078   0.458  14.780 -0.3096 -0.3036  0.0149
 3154SOL    HW121095   2.004   0.412  14.820 -1.5685  0.6036 -1.2613
 3154SOL    HW221096   2.076   0.417  14.694 -1.2983 -0.1320 -0.0497
 3155SOL     OW21097   3.126   3.567   0.637 -0.1309 -0.1081 -0.3551
 3155SOL    HW121098   3.204   3.597   0.591  0.2214 -1.1223 -0.4171
 3155SOL    HW221099   3.138   3.593   0.729  0.3190 -0.3517 -0.3482
 3156SOL     OW21100   4.405   1.208   7.875  0.5651  0.2662  0.1536
 3156SOL    HW121101   4.330   1.180   7.824 -1.4281  1.6833  2.3307
 3156SOL    HW221102   4.392   1.302   7.864 -3.0334 -0.4808 -1.9755
 3157SOL     OW21103   3.506   3.576   8.261 -0.3399  0.1560  0.1734
 3157SOL    HW121104   3.423   3.605   8.299  1.0350  0.3810  3.0531
 3157SOL    HW221105   3.521   3.644   8.196 -1.0513 -1.2027 -1.4360
 3158SOL     OW21106   2.348   4.722   5.329  0.2933  0.1782  0.5351
 3158SOL    HW121107   2.415   4.692   5.390  0.7482 -2.7909 -1.4069
 3158SOL    HW221108   2.398   0.046   5.277 -2.7381  1.5757 -0.7411
 3159SOL     OW21109   2.461   3.013  14.922 -0.1922 -0.6211 -0.1530
 3159SOL    HW121110   2.380   3.059  14.943 -0.4707  0.3446 -3.2755
 3159SOL    HW221111   2.426   2.978  14.840  2.0278  2.9004 -2.6545
 3160SOL     OW21112   3.425   3.591   2.468  0.5643 -0.2231  0.3962
 3160SOL    HW121113   3.383   3.614   2.551  0.4884 -1.4049  0.6940
 3160SOL    HW221114   3.394   3.641   2.393  0.9264 -2.4376 -1.2369
 3161SOL     OW21115   1.443   0.080  10.839  0.2246 -0.6702 -0.2204
 3161SOL    HW121116   1.468   0.075  10.747  0.6071 -0.8998 -0.1062
 3161SOL    HW221117   1.522   0.093  10.892 -1.1020  1.3370  1.2327
 3162SOL     OW21118   4.194   3.404   8.394 -0.3372 -0.1888 -0.5525
 3162SOL    HW121119   4.255   3.474   8.416 -1.8543  1.2518 -0.9398
 3162SOL    HW221120   4.114   3.420   8.444  0.8565  0.8978  0.9831
 3163SOL     OW21121   1.356   1.050   2.909  0.0978  0.2187 -0.1081
 3163SOL    HW121122   1.407   1.028   2.987 -0.0948  1.9012  0.4875
 3163SOL    HW221123   1.266   1.029   2.934 -0.5760  2.2852 -0.7918
 3164SOL     OW21124   1.153   0.957   3.075 -1.0129 -0.5802 -0.2414
 3164SOL    HW121125   1.085   1.016   3.042 -0.2577  1.1239  1.2585
 3164SOL    HW221126   1.153   0.973   3.169 -3.0423  0.2916 -0.3994
 3165SOL     OW21127   3.942   2.772   5.952  0.4774 -0.4588  0.0277
 3165SOL    HW121128   4.016   2.782   6.013 -0.2313 -2.1233  1.1392
 3165SOL    HW221129   3.917   2.864   5.939 -0.9756 -1.1401 -2.0013
 3166SOL     OW21130   4.538   4.371   5.827  0.0003 -0.3131  0.2804
 3166SOL    HW121131   4.461   4.392   5.879  0.5051  2.1764  0.0456
 3166SOL    HW221132   4.603   4.367   5.897  1.0607  3.0847 -0.5012
 3167SOL     OW21133   3.124   3.673   2.371 -0.4439 -0.5525  0.7014
 3167SOL    HW121134   3.214   3.664   2.339 -0.0971 -0.6414  1.6823
 3167SOL    HW221135   3.084   3.598   2.327  0.0388 -0.1780 -0.3829
 3168SOL     OW21136   1.157   2.550   4.105  0.6005 -0.4799  0.6080
 3168SOL    HW121137   1.184   2.637   4.073 -0.5434 -0.4163 -0.1907
 3168SOL    HW221138   1.221   2.548   4.176 -0.9109 -2.4284  1.9109
 3169SOL     OW21139   3.882   4.168  10.431  0.1569 -0.3036  0.1098
 3169SOL    HW121140   3.937   4.094  10.406  0.2842  0.6668 -2.5425
 3169SOL    HW221141   3.834   4.130  10.504  2.2368 -1.9015  0.6553
 3170SOL     OW21142   0.747   1.719   9.261  0.0598 -0.3970  0.1563
 3170SOL    HW121143   0.832   1.681   9.240 -0.0900 -1.7958  2.1156
 3170SOL    HW221144   0.779   1.809   9.259  1.7785 -1.0023  1.4063
 3171SOL     OW21145   1.366   0.871  11.144 -0.1456 -0.2567  0.1767
 3171SOL    HW121146   1.353   0.912  11.230 -0.4781  2.7417 -1.2897
 3171SOL    HW221147   1.316   0.793  11.165  0.7073 -0.6406  0.7614
 3172SOL     OW21148   2.583   0.840   4.738  0.4762 -0.1442 -0.5473
 3172SOL    HW121149   2.575   0.757   4.784  0.6928 -0.0671 -0.3707
 3172SOL    HW221150   2.606   0.906   4.804 -0.6976 -1.7000  1.4087
 3173SOL     OW21151   3.858   3.512   8.141 -0.7924 -0.0324  0.0474
 3173SOL    HW121152   3.835   3.452   8.213  0.1961  1.6363  1.7412
 3173SOL    HW221153   3.948   3.484   8.125 -0.8264  2.1911 -3.8653
 3174SOL     OW21154   2.732   3.569   4.124  0.2722 -0.4187  0.0376
 3174SOL    HW121155   2.751   3.585   4.031 -0.7786 -2.6573 -0.5580
 3174SOL    HW221156   2.807   3.518   4.154 -0.1633  0.2555  2.2528
 3175SOL     OW21157   1.062   2.027   4.545  0.0655  0.1988 -0.0180
 3175SOL    HW121158   1.007   1.996   4.473  2.3026 -0.7954 -1.3124
 3175SOL    HW221159   1.010   2.104   4.566 -1.2238 -1.0656  1.4405
 3176SOL     OW21160   3.390   0.056   6.434  0.4638 -0.6172 -0.2610
 3176SOL    HW121161   3.424   0.145   6.448 -1.5326  0.2444 -0.8737
 3176SOL    HW221162   3.372   0.036   6.525  0.0044 -0.9099 -0.4188
 3177SOL     OW21163   0.643   3.628   8.041  0.2101  0.1222  0.2704
 3177SOL    HW121164   0.585   3.657   7.970 -0.6119 -1.5410  0.2611
 3177SOL    HW221165   0.710   3.589   7.985  0.5474  0.9667  0.0795
 3178SOL     OW21166   3.134   3.067   4.150  0.7314 -0.1121  0.9809
 3178SOL    HW121167   3.214   3.118   4.163  2.2726 -2.4016  0.3209
 3178SOL    HW221168   3.114   3.037   4.239  0.3897  0.1385  0.9927
 3179SOL     OW21169   2.898   2.909  11.315 -0.1838  0.0757 -0.1091
 3179SOL    HW121170   2.931   2.917  11.404  0.4998 -0.2967 -0.3361
 3179SOL    HW221171   2.914   2.996  11.279 -1.2686  0.6875  0.8678
 3180SOL     OW21172   1.980   0.913   3.286  0.5108  0.4462  0.6283
 3180SOL    HW121173   1.942   0.826   3.276  0.9657  0.4995 -1.4666
 3180SOL    HW221174   1.965   0.959   3.204  0.0644 -2.2457 -0.8121
 3181SOL     OW21175   3.634   0.186   1.776 -0.1158 -0.0854  0.4154
 3181SOL    HW121176   3.600   0.131   1.846  0.0236  0.1365  0.6551
 3181SOL    HW221177   3.555   0.210   1.726  0.8969 -0.5666 -1.4410
 3182SOL     OW21178   4.585   1.504   6.959 -0.3983 -0.3025  0.6826
 3182SOL    HW121179   4.650   1.485   7.026 -0.8644 -2.5069  0.4863
 3182SOL    HW221180   4.607   1.429   6.904  0.2585 -0.1938  0.7991
 3183SOL     OW21181   3.920   3.561   4.302 -0.3347  0.1462  0.8018
 3183SOL    HW121182   3.897   3.469   4.286  1.5134  0.2082 -2.3675
 3183SOL    HW221183   3.834   3.601   4.303 -1.1297 -1.5279 -0.6757
 3184SOL     OW21184   3.089   2.057   9.048  0.0316 -0.0512  0.3654
 3184SOL    HW121185   3.088   2.129   8.985 -0.8655 -0.3944 -0.0070
 3184SOL    HW221186   3.017   2.079   9.107 -0.1693 -0.3045  0.2162
 3185SOL     OW21187   3.694   3.064   6.577  0.6572 -0.3035  0.2365
 3185SOL    HW121188   3.659   3.152   6.594 -1.0961 -1.0340  0.4481
 3185SOL    HW221189   3.614   3.016   6.555 -0.4325  0.6415  2.1440
 3186SOL     OW21190   3.801   1.960   9.162 -0.1484 -0.6782  0.2480
 3186SOL    HW121191   3.736   2.030   9.164  2.9659  2.1338  3.4899
 3186SOL    HW221192   3.802   1.935   9.069 -2.6644  0.6763 -0.1355
 3187SOL     OW21193   0.215   2.182   3.146 -0.1788  0.6046  0.4010
 3187SOL    HW121194   0.253   2.175   3.059  0.3276 -1.0500  0.7508
 3187SOL    HW221195   0.139   2.233   3.118 -0.0560  1.6380  1.9131
 3188SOL     OW21196   2.041   3.919   4.434 -0.2670  0.0153 -0.4468
 3188SOL    HW121197   1.986   3.848   4.399  0.4358 -0.0636 -1.4072
 3188SOL    HW221198   1.998   3.998   4.403  0.9916  0.4704 -1.0525
 3189SOL     OW21199   3.417   4.571   8.517  0.3216 -0.3581  0.1808
 3189SOL    HW121200   3.396   4.661   8.540 -0.4372 -0.6310  0.5462
 3189SOL    HW221201   3.462   4.556   8.601 -1.3862 -1.3945  0.9034
 3190SOL     OW21202   0.584   3.875   9.233 -0.1533 -0.2535 -0.2389
 3190SOL    HW121203   0.498   3.837   9.219 -1.1141  1.7658  0.1727
 3190SOL    HW221204   0.609   3.905   9.145  0.8297  0.4129  0.2541
 3191SOL     OW21205   3.568   0.353   3.891  0.1618 -0.1532  0.4651
 3191SOL    HW121206   3.504   0.350   3.820  1.5282  0.1253 -0.8000
 3191SOL    HW221207   3.547   0.437   3.933 -0.7784 -0.4685  0.6099
 3192SOL     OW21208   4.224   1.085  10.799  0.9084 -0.0503 -0.1354
 3192SOL    HW121209   4.209   1.164  10.747 -1.9715 -0.3473  0.2261
 3192SOL    HW221210   4.279   1.038  10.736  1.8962  1.4810 -0.4140
 3193SOL     OW21211   4.597   2.683   1.351  0.4996  0.4472  0.3333
 3193SOL    HW121212   4.510   2.710   1.378  1.0255  0.1890  2.2918
 3193SOL    HW221213   4.612   2.720   1.264  1.7061  1.2724  0.8828
 3194SOL     OW21214   1.991   1.741   4.277 -0.6249  0.3279 -0.2552
 3194SOL    HW121215   1.897   1.723   4.282 -0.3646 -0.7189  0.6108
 3194SOL    HW221216   2.025   1.716   4.191  2.1388  0.4518  0.8042
 3195SOL     OW21217   4.427   3.463   4.725 -0.0917 -0.1692 -0.4725
 3195SOL    HW121218   4.401   3.503   4.642 -1.1619  1.7040  0.7670
 3195SOL    HW221219   4.522   3.472   4.711 -0.0496  0.9477  0.6064
 3196SOL     OW21220   0.655   3.731   5.495 -0.1615  0.4124  0.7790
 3196SOL    HW121221   0.679   3.671   5.567 -1.0629  0.1519  0.8569
 3196SOL    HW221222   0.705   3.690   5.425  0.1213  2.2472 -0.1010
 3197SOL     OW21223   0.608   4.691   0.815  0.5187  0.2122  0.5330
 3197SOL    HW121224   0.604   4.723   0.905  1.7592  0.9484  0.3350
 3197SOL    HW221225   0.514   4.694   0.798  1.3208 -0.6830 -4.2267
 3198SOL     OW21226   4.049   0.554  13.117 -0.2615 -0.3603 -0.2052
 3198SOL    HW121227   4.093   0.623  13.067  1.2112 -0.8742  0.3825
 3198SOL    HW221228   3.973   0.605  13.147  1.4247  1.5407  0.7979
 3199SOL     OW21229   0.492   0.096  16.580  0.8999 -0.0021 -0.4668
 3199SOL    HW121230   0.554   0.128  16.646  0.2721 -0.5217  0.3744
 3199SOL    HW221231   0.520   0.005  16.584  0.8626 -0.0580 -1.4842
 3200SOL     OW21232   4.707   1.267   2.772  0.3582 -0.1408  0.7010
 3200SOL    HW121233   4.671   1.231   2.854 -0.5146 -1.4556 -0.2568
 3200SOL    HW221234   0.060   1.290   2.793  0.8961 -3.4600  2.0532
 3201SOL     OW21235   1.215   1.263   0.379 -0.4356 -0.4765 -0.2419
 3201SOL    HW121236   1.197   1.357   0.375 -0.9443 -0.5660  0.0171
 3201SOL    HW221237   1.307   1.255   0.354 -0.0396  1.2586  0.6542
 3202SOL     OW21238   0.531   3.680   2.626  0.4550 -0.3062 -0.0054
 3202SOL    HW121239   0.597   3.612   2.612 -0.4087 -0.6352 -2.3716
 3202SOL    HW221240   0.496   3.648   2.709  0.0666 -0.8348 -0.3713
 3203SOL     OW21241   0.509   0.066  15.136 -0.3026  0.4863 -0.1553
 3203SOL    HW121242   0.428   0.051  15.184 -0.5872 -0.7276 -1.0069
 3203SOL    HW221243   0.483   0.107  15.053 -0.5936  0.8139  0.0985
 3204SOL     OW21244   3.175   0.021   8.188 -0.3243  0.0439  0.2567
 3204SOL    HW121245   3.080   0.031   8.197 -0.3899 -1.1720  0.9459
 3204SOL    HW221246   3.206   0.111   8.178  0.0548 -0.0728  0.4082
 3205SOL     OW21247   1.946   2.302  10.886  0.3220 -0.1667 -0.0979
 3205SOL    HW121248   2.020   2.345  10.843 -0.0920  0.6697  0.0311
 3205SOL    HW221249   1.953   2.362  10.960 -0.1054  1.2289 -1.1948
 3206SOL     OW21250   0.397   4.452   5.516 -0.4135  0.3010 -0.1611
 3206SOL    HW121251   0.374   4.537   5.554 -2.0094 -0.5153  0.6681
 3206SOL    HW221252   0.312   4.412   5.499 -0.3651 -0.3026  1.0804
 3207SOL     OW21253   2.184   0.526   3.580  0.3508  0.2101 -0.1542
 3207SOL    HW121254   2.136   0.448   3.554  2.2961 -1.3706  1.0127
 3207SOL    HW221255   2.263   0.479   3.606 -1.0041 -2.0320 -0.0896
 3208SOL     OW21256   3.050   0.816   2.164  0.4309  0.6417  0.0819
 3208SOL    HW121257   3.110   0.826   2.091 -1.8995  0.0513 -1.8927
 3208SOL    HW221258   2.977   0.770   2.122  1.1333 -1.5248  1.2237
 3209SOL     OW21259   1.992   3.813   1.270  0.1101  0.6428  0.2600
 3209SOL    HW121260   2.003   3.898   1.226  1.5488 -0.9161 -2.3481
 3209SOL    HW221261   1.947   3.768   1.198 -2.2021 -0.8533  2.6312
 3210SOL     OW21262   1.640   2.677   1.950 -0.5115  0.2330 -0.3969
 3210SOL    HW121263   1.603   2.736   2.016 -1.0722 -0.4386 -0.1032
 3210SOL    HW221264   1.720   2.643   1.990 -0.4682  1.3538  0.4692
 3211SOL     OW21265   4.410   1.484   5.919  0.2242 -0.0052  0.1141
 3211SOL    HW121266   4.432   1.447   5.834 -0.9437 -2.1242  0.7410
 3211SOL    HW221267   4.424   1.412   5.980 -1.4289  1.6229  2.4496
 3212SOL     OW21268   4.506   0.725   7.475 -0.0563  0.1116  0.2015
 3212SOL    HW121269   4.598   0.737   7.494 -0.1137  0.5385  0.2107
 3212SOL    HW221270   4.504   0.654   7.411 -0.8842  1.6247 -1.4635
 3213SOL     OW21271   2.708   3.205   5.105 -0.2050 -0.0579 -0.3539
 3213SOL    HW121272   2.740   3.122   5.071  1.2080 -0.5712  2.2027
 3213SOL    HW221273   2.746   3.196   5.193 -0.4465 -0.3885 -0.2830
 3214SOL     OW21274   0.586   4.562   2.321  0.2596 -0.1204  0.5122
 3214SOL    HW121275   0.680   4.555   2.305  0.1961  1.1757 -0.3718
 3214SOL    HW221276   0.582   4.613   2.402  0.4502 -1.3452  1.2977
 3215SOL     OW21277   3.830   1.967  12.430  0.2252 -0.0114 -0.4169
 3215SOL    HW121278   3.758   2.020  12.464  1.0144 -0.2746  1.6998
 3215SOL    HW221279   3.882   2.035  12.388  1.7155 -0.1589  1.2086
 3216SOL     OW21280   1.289   4.058   2.137  0.0290  0.3515 -0.4997
 3216SOL    HW121281   1.380   4.039   2.113  0.2068 -0.8256  1.1621
 3216SOL    HW221282   1.263   3.967   2.126 -2.2894  0.7389  1.7587
 3217SOL     OW21283   0.330   0.833  13.138 -0.0170  0.1173  0.4969
 3217SOL    HW121284   0.356   0.753  13.184  0.9914 -0.5164 -1.1551
 3217SOL    HW221285   0.277   0.795  13.068 -0.7675  0.0637  1.0991
 3218SOL     OW21286   4.247   1.399   6.859  0.3527 -0.1958 -0.3900
 3218SOL    HW121287   4.262   1.472   6.798  1.8454  0.7592  1.1171
 3218SOL    HW221288   4.165   1.354   6.841 -0.7694  1.4862  0.5440
 3219SOL     OW21289   3.506   0.666   9.823  0.1793 -0.5368  0.2923
 3219SOL    HW121290   3.482   0.574   9.833 -0.0065 -0.4191  0.9263
 3219SOL    HW221291   3.592   0.669   9.866 -1.0097 -0.2059  2.6668
 3220SOL     OW21292   4.420   4.597  11.480  0.2264  0.1775 -0.4746
 3220SOL    HW121293   4.358   4.649  11.532  0.6935  1.1182 -0.8516
 3220SOL    HW221294   4.470   4.556  11.550  0.1677 -0.9027 -1.0575
 3221SOL     OW21295   2.023   2.093   5.397  0.8296 -0.0461  0.5665
 3221SOL    HW121296   1.965   2.024   5.428 -0.0550  0.6405  0.4580
 3221SOL    HW221297   1.968   2.127   5.326 -1.2661  0.0610  2.2725
 3222SOL     OW21298   2.533   4.519   5.182  0.2147  0.0033  0.1523
 3222SOL    HW121299   2.484   4.497   5.261 -1.5169  0.1420 -0.8680
 3222SOL    HW221300   2.512   4.612   5.172  1.3391 -0.0076 -2.4740
 3223SOL     OW21301   3.125   2.282  10.208 -0.5187  0.2654 -0.3572
 3223SOL    HW121302   3.147   2.375  10.201 -1.3454  0.5170  0.4897
 3223SOL    HW221303   3.084   2.290  10.294  0.8933 -3.1687  0.6517
 3224SOL     OW21304   0.629   0.689   8.379  0.0651 -0.0630 -0.0915
 3224SOL    HW121305   0.585   0.762   8.336  0.0367 -0.7065 -1.1673
 3224SOL    HW221306   0.653   0.730   8.462 -0.8982  2.4108 -1.0430
 3225SOL     OW21307   0.849   1.229  16.774 -0.2137 -0.2607 -0.4094
 3225SOL    HW121308   0.904   1.281  16.716 -0.3959  0.4882  0.0918
 3225SOL    HW221309   0.774   1.230  16.714  0.4472  0.8549 -1.2233
 3226SOL     OW21310   2.854   2.786   8.448 -0.2109  0.5013  0.5481
 3226SOL    HW121311   2.901   2.857   8.491 -1.1770  1.5865 -0.1808
 3226SOL    HW221312   2.860   2.718   8.514 -2.2671  0.9003  1.1209
 3227SOL     OW21313   3.335   3.273   8.502  0.4117  0.3543 -0.3975
 3227SOL    HW121314   3.334   3.353   8.555 -0.2584 -0.2374  0.4770
 3227SOL    HW221315   3.282   3.214   8.555  1.3616 -1.5025 -1.5413
 3228SOL     OW21316   3.401   3.179  13.836 -0.3157  0.2935 -0.7124
 3228SOL    HW121317   3.449   3.105  13.800  0.9544 -1.1481  3.9867
 3228SOL    HW221318   3.435   3.191  13.925 -2.2886 -1.0143  0.1981
 3229SOL     OW21319   1.393   2.031   5.295  0.5055  0.3762 -0.5546
 3229SOL    HW121320   1.441   1.965   5.245 -2.2928 -0.3927 -2.2544
 3229SOL    HW221321   1.307   2.000   5.323  1.0944  0.3135  1.1574
 3230SOL     OW21322   4.069   3.998   6.507 -0.2948 -0.4344  0.5545
 3230SOL    HW121323   4.110   3.958   6.584 -0.5088 -1.8020 -0.0439
 3230SOL    HW221324   4.054   3.915   6.461 -1.3195  0.0105  0.1148
 3231SOL     OW21325   4.657   4.151   4.660 -0.1146 -0.4025 -0.3249
 3231SOL    HW121326   4.668   4.076   4.719 -0.0667  1.2832  1.8238
 3231SOL    HW221327   4.689   4.112   4.578  0.8992 -0.0478 -0.1041
 3232SOL     OW21328   3.923   0.765   6.076  0.3788  0.5869  0.5339
 3232SOL    HW121329   3.997   0.748   6.134 -0.2883 -1.2396  0.8467
 3232SOL    HW221330   3.857   0.800   6.135  0.4404  1.0297  0.3417
 3233SOL     OW21331   2.816   2.316   0.104 -0.3487  0.3108 -0.7587
 3233SOL    HW121332   2.781   2.234   0.070  0.6012 -0.7386  0.8595
 3233SOL    HW221333   2.910   2.309   0.086 -0.4078  1.0160 -1.3502
 3234SOL     OW21334   2.686   3.714   8.172  0.0379 -0.0525 -0.3296
 3234SOL    HW121335   2.692   3.696   8.078  0.5591 -1.5361 -0.0107
 3234SOL    HW221336   2.775   3.704   8.206  1.5099  4.2077 -2.8501
 3235SOL     OW21337   3.658   3.585  15.193 -0.0379  0.2190 -0.8662
 3235SOL    HW121338   3.630   3.641  15.121  0.3736  1.0507 -0.3837
 3235SOL    HW221339   3.575   3.539  15.191 -0.7004  1.2932  1.4908
 3236SOL     OW21340   3.718   1.671   8.999  0.6801  0.1315 -0.0744
 3236SOL    HW121341   3.758   1.652   9.084 -1.3955  0.6515  1.0233
 3236SOL    HW221342   3.633   1.706   9.025  0.5849  0.2755 -0.5849
 3237SOL     OW21343   1.143   1.261   9.522 -0.0199  0.2462 -0.4234
 3237SOL    HW121344   1.073   1.265   9.457 -1.2234  0.7288  0.8785
 3237SOL    HW221345   1.196   1.335   9.492 -0.1467 -0.0372 -1.3428
 3238SOL     OW21346   3.811   4.720   5.371 -0.1022  0.2023 -0.1896
 3238SOL    HW121347   3.872   4.663   5.419 -1.2435 -1.3981 -0.6124
 3238SOL    HW221348   3.774   0.029   5.446  1.8346  1.8704 -0.2840
 3239SOL     OW21349   3.201   2.700  16.204  0.5553  0.6382 -0.1258
 3239SOL    HW121350   3.139   2.752  16.154 -1.9826 -2.6662 -0.4154
 3239SOL    HW221351   3.151   2.711  16.285 -1.8927 -2.9592 -1.1833
 3240SOL     OW21352   1.261   2.317   7.635 -0.4634  0.1870 -0.5301
 3240SOL    HW121353   1.299   2.265   7.706  2.4342  0.4800 -1.8781
 3240SOL    HW221354   1.333   2.377   7.617 -0.1596 -1.0501 -3.3592
 3241SOL     OW21355   0.680   3.628   7.114  0.5989 -0.1015  0.1208
 3241SOL    HW121356   0.646   3.589   7.194  2.0755  1.3986  1.5041
 3241SOL    HW221357   0.760   3.665   7.154  0.5635  0.0502  0.0532
 3242SOL     OW21358   0.099   0.449   2.384 -0.0016 -0.4505 -0.2912
 3242SOL    HW121359   0.036   0.380   2.406  0.1810  0.1956  2.2247
 3242SOL    HW221360   0.108   0.425   2.291 -0.8116  3.0628 -1.3028
 3243SOL     OW21361   1.112   2.420  17.351  0.4445 -0.2052  0.0096
 3243SOL    HW121362   1.050   2.351  17.375  0.2539  0.2637  0.8555
 3243SOL    HW221363   1.064   2.500  17.373  2.4112  1.1415 -0.5769
 3244SOL     OW21364   2.148   4.514   5.397  0.3023  0.1156 -0.2186
 3244SOL    HW121365   2.221   4.576   5.403  0.2341  0.0228  1.5762
 3244SOL    HW221366   2.128   4.522   5.304  0.7148  0.0941 -0.3098
 3245SOL     OW21367   0.264   3.680   3.621  0.3875  0.0515  0.1135
 3245SOL    HW121368   0.214   3.643   3.547  1.7422 -0.6673 -0.4513
 3245SOL    HW221369   0.235   3.613   3.683  1.8924  0.5634  1.3365
 3246SOL     OW21370   3.436   2.909   3.140 -0.7254  0.3326 -0.0129
 3246SOL    HW121371   3.354   2.865   3.119 -0.9321  0.5054  0.4273
 3246SOL    HW221372   3.407   2.996   3.167  0.2648  0.6650 -0.0109
 3247SOL     OW21373   1.886   4.364   2.571  0.1772 -0.2241 -0.0265
 3247SOL    HW121374   1.966   4.361   2.624 -0.0715  0.1128  0.3694
 3247SOL    HW221375   1.920   4.423   2.503  2.1514 -0.9739  0.3088
 3248SOL     OW21376   3.023   0.791   5.340 -0.1876 -0.2701  0.3848
 3248SOL    HW121377   3.111   0.754   5.345 -0.4538 -0.9081  0.3445
 3248SOL    HW221378   2.977   0.728   5.396 -1.8255  1.3035  0.8453
 3249SOL     OW21379   3.806   1.455  16.850 -0.6877  0.1915 -0.5996
 3249SOL    HW121380   3.833   1.367  16.824 -0.4842 -0.3823  1.5120
 3249SOL    HW221381   3.760   1.428  16.930 -1.4615 -3.3028 -2.2515
 3250SOL     OW21382   3.732   1.078   4.285 -0.4034 -0.2377  0.3866
 3250SOL    HW121383   3.641   1.057   4.306 -0.2115  0.2297  1.6648
 3250SOL    HW221384   3.722   1.105   4.194  0.6361  0.6904  0.5463
 3251SOL     OW21385   1.166   2.379   8.265 -0.3995  0.0159  0.0108
 3251SOL    HW121386   1.081   2.338   8.251 -0.8033  0.5002  1.0386
 3251SOL    HW221387   1.216   2.308   8.226 -2.5810 -0.6445 -1.5849
 3252SOL     OW21388   1.155   0.266   5.158 -0.1848 -0.5704  0.1351
 3252SOL    HW121389   1.105   0.203   5.105  1.1592 -0.5920 -1.0931
 3252SOL    HW221390   1.213   0.212   5.212 -0.9206  1.4927  2.9560
 3253SOL     OW21391   0.833   0.586   7.919 -0.3091 -0.2498  0.0266
 3253SOL    HW121392   0.901   0.566   7.982 -2.1787  0.5307  2.3140
 3253SOL    HW221393   0.756   0.601   7.974 -1.0920 -1.3045 -0.7734
 3254SOL     OW21394   2.314   4.707  13.309  0.2583 -0.1791 -0.4294
 3254SOL    HW121395   2.306   4.720  13.403 -1.4455  3.8960 -1.1640
 3254SOL    HW221396   2.284   0.055  13.279 -0.5474 -0.5478 -0.6715
 3255SOL     OW21397   1.256   3.241   9.971  0.0836  0.0282  0.2973
 3255SOL    HW121398   1.209   3.160   9.989  1.3993 -0.6736  0.5785
 3255SOL    HW221399   1.280   3.228   9.879 -0.1141  0.1952  0.2219
 3256SOL     OW21400   3.409   3.765   7.433 -0.1369  0.2418 -0.3095
 3256SOL    HW121401   3.355   3.795   7.506  0.5112  3.0960 -0.9908
 3256SOL    HW221402   3.454   3.844   7.401  1.0125 -0.2221  0.1845
 3257SOL     OW21403   3.345   4.215   6.945 -0.0284 -0.0199  0.1361
 3257SOL    HW121404   3.438   4.228   6.962  0.4158 -0.4517 -1.9984
 3257SOL    HW221405   3.309   4.284   7.000  1.8618 -0.0722  1.4168
 3258SOL     OW21406   4.183   1.802   5.379  0.1536  0.3491  0.1286
 3258SOL    HW121407   4.197   1.888   5.338  1.0293  0.2084  0.1324
 3258SOL    HW221408   4.274   1.771   5.382 -0.5337 -1.6162  0.0146
 3259SOL     OW21409   3.439   1.064   6.042 -0.4045 -0.2940  0.6510
 3259SOL    HW121410   3.477   1.044   5.957 -1.3886  0.6763 -0.0121
 3259SOL    HW221411   3.517   1.090   6.090  0.4141 -1.1398 -0.2126
 3260SOL     OW21412   2.607   2.234   3.865 -0.4303 -0.1050  0.4931
 3260SOL    HW121413   2.693   2.255   3.829 -0.1101 -1.6076  0.3780
 3260SOL    HW221414   2.579   2.156   3.817 -0.2275 -0.4966  1.0124
 3261SOL     OW21415   4.634   3.788   3.609 -0.0082  0.4025 -0.3028
 3261SOL    HW121416   4.546   3.826   3.603  0.2544  1.1586  0.5352
 3261SOL    HW221417   4.639   3.785   3.704 -1.9697  1.9483 -0.1436
 3262SOL     OW21418   1.608   3.046   7.405  0.0405  0.5762 -0.6066
 3262SOL    HW121419   1.570   3.060   7.318 -1.3069 -0.7054 -0.2268
 3262SOL    HW221420   1.703   3.044   7.393  0.1974 -0.6474  0.8704
 3263SOL     OW21421   2.650   4.734   7.864  0.1870 -0.0592  0.8122
 3263SOL    HW121422   2.658   4.639   7.872  1.4644 -0.0267 -0.1827
 3263SOL    HW221423   2.607   0.007   7.780  1.2080  1.6266  0.4878
 3264SOL     OW21424   2.003   2.570   1.814 -0.3179 -0.1478  0.0017
 3264SOL    HW121425   2.047   2.631   1.873 -2.3403 -0.4989  1.8633
 3264SOL    HW221426   1.910   2.590   1.827 -0.4757 -0.9164  0.0378
 3265SOL     OW21427   2.139   1.665   8.952 -0.0219 -0.3978  0.1092
 3265SOL    HW121428   2.125   1.748   8.907  2.6959  0.2461  0.4332
 3265SOL    HW221429   2.120   1.602   8.882 -1.7443  0.3019 -0.0369
 3266SOL     OW21430   3.541   0.981  11.691  0.1773  0.0988  0.5324
 3266SOL    HW121431   3.508   1.062  11.651  1.5301 -0.2069 -1.1769
 3266SOL    HW221432   3.497   0.995  11.775  0.4400 -0.9225  0.8407
 3267SOL     OW21433   1.603   0.406   4.967  0.1451 -0.2958  0.1858
 3267SOL    HW121434   1.626   0.493   4.934  2.2117 -1.0937 -0.5063
 3267SOL    HW221435   1.688   0.390   5.008 -0.1982 -1.6642  0.3755
 3268SOL     OW21436   3.442   3.013   4.505 -0.2764  0.4244 -0.2220
 3268SOL    HW121437   3.419   2.970   4.588  2.1555 -0.7932 -0.1504
 3268SOL    HW221438   3.389   2.967   4.441  0.3707 -2.1364  1.1093
 3269SOL     OW21439   2.355   1.549   1.669  0.5795  0.0499  0.0643
 3269SOL    HW121440   2.351   1.516   1.579 -0.2687  0.3797 -0.0158
 3269SOL    HW221441   2.286   1.496   1.709 -0.0205 -0.0921 -1.1273
 3270SOL     OW21442   2.213   1.749   2.937 -0.0162 -0.1771  0.8502
 3270SOL    HW121443   2.246   1.834   2.964 -0.9255  0.1999  0.7741
 3270SOL    HW221444   2.124   1.776   2.917 -0.1200 -0.3095  1.1402
 3271SOL     OW21445   3.524   4.389   7.302 -0.3412 -0.1023 -0.5791
 3271SOL    HW121446   3.609   4.404   7.343 -0.2624 -1.2709 -0.3248
 3271SOL    HW221447   3.539   4.430   7.217  0.3213 -1.2984 -1.0322
 3272SOL     OW21448   4.068   1.372   9.422 -0.3432  0.1468  0.8472
 3272SOL    HW121449   4.020   1.362   9.339 -0.1727 -0.5914  0.8340
 3272SOL    HW221450   4.050   1.283   9.454  0.9964 -0.1861  0.7008
 3273SOL     OW21451   3.688   0.676   7.282 -0.1625  0.2227 -0.4459
 3273SOL    HW121452   3.782   0.670   7.268  0.2359  2.4002  1.3395
 3273SOL    HW221453   3.662   0.633   7.201 -0.9394 -1.3374  0.6321
 3274SOL     OW21454   0.854   4.564   2.678 -0.3436 -0.0434 -0.6343
 3274SOL    HW121455   0.938   4.574   2.634 -0.3546  1.4781 -0.3400
 3274SOL    HW221456   0.826   4.473   2.677 -0.5799  0.0017  1.0031
 3275SOL     OW21457   0.945   2.055   7.325  0.0813  0.2545  0.0580
 3275SOL    HW121458   1.036   2.067   7.354  0.3998 -1.0761 -0.3542
 3275SOL    HW221459   0.898   2.122   7.375  0.0639  1.4886 -1.6357
 3276SOL     OW21460   0.653   1.220  13.232  0.5819  0.4904 -0.1706
 3276SOL    HW121461   0.581   1.165  13.200 -0.7698  2.1487 -0.0231
 3276SOL    HW221462   0.723   1.156  13.241  0.3916  0.2951 -0.0720
 3277SOL     OW21463   4.335   4.573   6.126  0.9920 -0.0184  0.3110
 3277SOL    HW121464   4.419   4.613   6.144  1.3380 -0.3222 -0.6099
 3277SOL    HW221465   4.304   4.561   6.216  0.4990 -0.5080  0.0787
 3278SOL     OW21466   1.278   4.594   8.345 -0.1234 -0.2850 -0.2193
 3278SOL    HW121467   1.230   4.530   8.398  1.5276 -1.4940 -0.2046
 3278SOL    HW221468   1.356   4.596   8.400  0.7421 -0.4871 -1.4526
 3279SOL     OW21469   2.607   1.065  17.562  0.1375  0.4152 -0.1299
 3279SOL    HW121470   2.556   1.056  17.643  0.7719 -3.0216 -0.1334
 3279SOL    HW221471   2.571   0.993  17.511 -0.9262  0.0867  1.0782
 3280SOL     OW21472   1.062   3.699   5.596  0.2587  0.2424 -0.3880
 3280SOL    HW121473   1.064   3.795   5.594  0.7883  0.2671  1.0600
 3280SOL    HW221474   1.151   3.680   5.567  0.4044  0.6697 -0.2318
 3281SOL     OW21475   2.316   4.680   4.617  0.2534 -0.2690 -0.1472
 3281SOL    HW121476   2.398   4.661   4.661  1.1244  1.7862 -0.8761
 3281SOL    HW221477   2.341   0.024   4.574  1.7039 -0.4541  0.3743
 3282SOL     OW21478   3.496   1.460   9.125 -0.4695 -0.5918  0.3325
 3282SOL    HW121479   3.511   1.540   9.176 -0.0265  0.0379 -0.7807
 3282SOL    HW221480   3.585   1.430   9.108 -0.1174 -0.3769  1.7541
 3283SOL     OW21481   0.162   0.073   1.306  0.7018  0.2201  0.2187
 3283SOL    HW121482   0.181   0.128   1.383 -1.9367  0.1147  0.9548
 3283SOL    HW221483   0.197   0.132   1.239 -2.6844 -0.7474 -2.3638
 3284SOL     OW21484   0.543   3.731   4.808  0.1919 -0.4037 -0.1907
 3284SOL    HW121485   0.525   3.764   4.896 -1.6414  1.4541 -1.2659
 3284SOL    HW221486   0.484   3.656   4.813 -1.1860  0.7886  1.3548
 3285SOL     OW21487   1.872   4.077   8.269  0.3738 -0.9841  0.8719
 3285SOL    HW121488   1.866   4.163   8.228  3.2407 -0.6032  1.2567
 3285SOL    HW221489   1.794   4.030   8.238 -0.6800  0.7923  0.8330
 3286SOL     OW21490   1.702   1.580   4.105 -0.5299 -0.1142 -0.7164
 3286SOL    HW121491   1.628   1.617   4.153 -1.1023 -1.3240 -0.6729
 3286SOL    HW221492   1.713   1.496   4.149  2.1339  0.7068  0.1531
 3287SOL     OW21493   3.294   2.525   5.283 -1.0722 -0.4570 -0.1632
 3287SOL    HW121494   3.208   2.497   5.253 -0.9383 -0.3294 -0.6771
 3287SOL    HW221495   3.352   2.457   5.249  0.4998  0.6996  0.2099
 3288SOL     OW21496   3.634   0.902  15.655  0.2988 -1.1262 -0.0567
 3288SOL    HW121497   3.666   0.960  15.586  1.6634  0.7438  2.1697
 3288SOL    HW221498   3.587   0.959  15.716  0.7143  0.1567 -0.9510
 3289SOL     OW21499   1.460   1.601   6.694  0.1433 -0.2068 -0.6698
 3289SOL    HW121500   1.547   1.561   6.699  0.1462 -0.2757 -1.2979
 3289SOL    HW221501   1.462   1.603   6.598  0.3389 -1.3364 -0.6854
 3290SOL     OW21502   0.305   0.057   2.827 -0.0950  0.1328 -0.0934
 3290SOL    HW121503   0.245   0.049   2.754 -0.1860  1.3373 -0.1565
 3290SOL    HW221504   0.336   4.706   2.846  1.6149  0.7652  0.1466
 3291SOL     OW21505   2.836   4.171   6.068 -0.1098 -0.3534 -0.0353
 3291SOL    HW121506   2.780   4.206   5.999 -0.7597  2.0390  1.7113
 3291SOL    HW221507   2.830   4.076   6.053  1.8672 -0.2680 -1.4819
 3292SOL     OW21508   4.492   0.147   2.191 -0.4516  0.4118 -0.1562
 3292SOL    HW121509   4.443   0.071   2.160  0.6926 -0.3712 -0.0522
 3292SOL    HW221510   4.502   0.200   2.111 -1.1263  1.2254  0.2966
 3293SOL     OW21511   1.475   0.630   6.927  0.6498 -0.9364 -0.1567
 3293SOL    HW121512   1.487   0.609   7.020  1.6292 -0.1689 -0.1054
 3293SOL    HW221513   1.458   0.724   6.937  0.5379 -0.8458 -1.2258
 3294SOL     OW21514   2.469   0.319  16.501 -0.2240 -0.1172  0.6417
 3294SOL    HW121515   2.535   0.258  16.469 -0.8319 -1.2363  1.5555
 3294SOL    HW221516   2.390   0.284  16.460 -0.1633  0.9884 -0.4448
 3295SOL     OW21517   2.994   4.556  13.557 -0.2669  0.3107 -0.0505
 3295SOL    HW121518   2.919   4.608  13.587 -0.7784 -0.4374 -0.0309
 3295SOL    HW221519   2.949   4.496  13.497  0.5331 -1.1766  0.8372
 3296SOL     OW21520   1.628   4.326   4.885 -0.1662 -0.0427  0.2139
 3296SOL    HW121521   1.618   4.421   4.890 -0.8937 -0.1788  1.5029
 3296SOL    HW221522   1.583   4.297   4.805  1.0990 -0.1056 -0.4666
 3297SOL     OW21523   0.899   3.138   5.221 -0.5004  0.4626 -0.2574
 3297SOL    HW121524   0.960   3.197   5.266 -2.7299 -0.0200  3.3948
 3297SOL    HW221525   0.943   3.119   5.138  1.0509  0.0808  0.6478
 3298SOL     OW21526   4.395   0.648   4.255  0.2094  0.5316 -0.5054
 3298SOL    HW121527   4.479   0.633   4.211  1.0035  2.0617  0.4799
 3298SOL    HW221528   4.386   0.571   4.311  0.0440  1.9121  1.3929
 3299SOL     OW21529   3.423   1.932  10.085  0.0716 -0.6252  0.0301
 3299SOL    HW121530   3.332   1.955  10.102  0.6852  1.8311 -0.0572
 3299SOL    HW221531   3.411   1.872  10.011  2.3355 -1.5195  0.3693
 3300SOL     OW21532   0.131   4.076  13.666  0.1000 -0.4388 -0.4365
 3300SOL    HW121533   0.136   4.163  13.627  0.6471  0.6503  2.0246
 3300SOL    HW221534   0.164   4.021  13.595 -0.0822 -0.4882 -0.4817
 3301SOL     OW21535   0.710   0.760   6.067 -0.4086  0.4504 -0.1836
 3301SOL    HW121536   0.764   0.750   6.145 -1.7370  2.2514  0.9671
 3301SOL    HW221537   0.665   0.675   6.066  1.4447 -0.5285  0.8169
 3302SOL     OW21538   3.877   3.742   5.900 -0.0145  0.1775  0.0563
 3302SOL    HW121539   3.913   3.824   5.933  3.3682 -1.7263  1.0216
 3302SOL    HW221540   3.962   3.714   5.868 -0.4539 -0.5980 -0.4406
 3303SOL     OW21541   1.512   1.026  17.225  0.4564  0.4295 -0.2877
 3303SOL    HW121542   1.547   0.944  17.190  0.0162  0.1556 -0.0803
 3303SOL    HW221543   1.511   1.091  17.154  1.0923  1.4106  0.6064
 3304SOL     OW21544   1.456   1.299   2.826 -0.3766  0.1322 -0.3336
 3304SOL    HW121545   1.361   1.310   2.834 -0.4133 -0.1648 -0.3333
 3304SOL    HW221546   1.464   1.223   2.883  2.0629 -0.5872 -1.6326
 3305SOL     OW21547   1.037   3.214   0.142  0.0306 -0.3748 -0.2873
 3305SOL    HW121548   1.102   3.216   0.213  0.1201  0.4183 -0.3871
 3305SOL    HW221549   1.091   3.220   0.063  0.3302 -0.9946 -0.1289
 3306SOL     OW21550   1.956   0.888   6.937 -0.0211 -0.3692 -0.4154
 3306SOL    HW121551   1.953   0.796   6.964 -0.9725 -0.4622 -0.8244
 3306SOL    HW221552   1.968   0.923   7.025 -2.0941 -1.6890  0.4041
 3307SOL     OW21553   0.133   1.528   6.104  0.1773 -0.2131 -0.0036
 3307SOL    HW121554   0.141   1.615   6.142 -2.7857 -0.4363  1.1174
 3307SOL    HW221555   0.094   1.485   6.180  0.0105  2.2184  1.2600
 3308SOL     OW21556   1.455   1.658   7.698  0.4161 -0.1826  0.1745
 3308SOL    HW121557   1.374   1.608   7.702  0.0883  0.2973 -0.4269
 3308SOL    HW221558   1.488   1.634   7.611 -1.6090  0.3406 -0.7270
 3309SOL     OW21559   4.620   3.144   5.503  0.1637  0.4754  0.2242
 3309SOL    HW121560   4.571   3.066   5.477  0.2964  0.4368  0.0929
 3309SOL    HW221561   4.626   3.201   5.426  0.7043 -0.8983 -0.7435
 3310SOL     OW21562   3.873   3.437   3.086  0.0362 -0.0685 -0.3838
 3310SOL    HW121563   3.873   3.353   3.131 -0.8574  0.6927  1.0685
 3310SOL    HW221564   3.778   3.453   3.081 -0.4159 -2.5692  0.0404
 3311SOL     OW21565   1.930   1.165   6.755  0.0391  0.4173 -0.2682
 3311SOL    HW121566   1.993   1.097   6.731 -0.7039  0.3466 -2.0596
 3311SOL    HW221567   1.910   1.149   6.847 -2.2392  0.7230 -0.7138
 3312SOL     OW21568   0.182   0.881   3.872 -0.6021  0.4881 -0.5693
 3312SOL    HW121569   0.210   0.911   3.785 -0.8515  1.8357 -0.1925
 3312SOL    HW221570   0.170   0.786   3.875 -0.9822  0.6146  1.5247
 3313SOL     OW21571   0.209   3.725  10.129  0.2511  0.0758 -0.3017
 3313SOL    HW121572   0.274   3.795  10.125  0.8550 -0.4615  0.0846
 3313SOL    HW221573   0.152   3.764  10.196 -0.5994 -0.9739 -0.4070
 3314SOL     OW21574   3.568   1.280   2.479  0.3795 -0.9076 -0.1327
 3314SOL    HW121575   3.661   1.289   2.500  0.0895  0.2636  0.6397
 3314SOL    HW221576   3.566   1.260   2.385 -0.9175 -0.1438 -0.2734
 3315SOL     OW21577   3.090   2.746  16.459 -0.4304  0.5162 -0.2171
 3315SOL    HW121578   3.030   2.814  16.490 -0.7876 -0.4288  1.1601
 3315SOL    HW221579   3.178   2.784  16.466  0.5933 -2.3423  2.0819
 3316SOL     OW21580   4.231   0.684  16.974 -0.1348 -0.1808 -0.3890
 3316SOL    HW121581   4.268   0.599  17.000  0.1354  0.3048  0.8177
 3316SOL    HW221582   4.144   0.674  17.014 -0.1597 -1.0245 -0.6411
 3317SOL     OW21583   0.003   1.664   4.337  0.1600  0.5789  0.3780
 3317SOL    HW121584   4.671   1.699   4.392  0.6468  2.6864 -0.3652
 3317SOL    HW221585   4.695   1.597   4.287  1.9545 -0.3998  0.0342
 3318SOL     OW21586   1.739   4.122   2.251  0.2656 -0.2891 -0.9172
 3318SOL    HW121587   1.745   4.049   2.190  0.5573 -1.1617  0.1589
 3318SOL    HW221588   1.709   4.073   2.327  0.2796  0.3391 -0.5080
 3319SOL     OW21589   4.444   1.954   2.224 -0.5324 -0.3680 -0.2826
 3319SOL    HW121590   4.522   1.913   2.185 -2.1004 -2.6058 -1.0746
 3319SOL    HW221591   4.372   1.917   2.173  1.1552 -1.1211 -2.1146
 3320SOL     OW21592   2.423   1.391   5.974 -0.1879 -0.2153  0.3426
 3320SOL    HW121593   2.507   1.368   6.015 -0.2050  1.9234  1.5525
 3320SOL    HW221594   2.448   1.393   5.882  1.0999 -1.3978  0.6609
 3321SOL     OW21595   3.995   3.066   4.588  0.1385 -0.2480  0.2708
 3321SOL    HW121596   3.980   3.160   4.601 -0.8746 -0.4012  0.2437
 3321SOL    HW221597   3.914   3.044   4.541  0.5419  1.1974 -1.0859
 3322SOL     OW21598   4.401   2.689   7.751 -0.0046 -0.0160 -0.9676
 3322SOL    HW121599   4.461   2.685   7.825 -1.5195  0.1185  0.2662
 3322SOL    HW221600   4.394   2.784   7.748  0.3616  0.1941  4.2725
 3323SOL     OW21601   2.427   0.869   0.257  0.3363  0.1781  0.2977
 3323SOL    HW121602   2.474   0.786   0.255  1.2194  0.6588  1.4099
 3323SOL    HW221603   2.335   0.850   0.277 -0.6161  1.5964 -2.7278
 3324SOL     OW21604   0.513   2.247  12.684  0.1498  0.2090 -0.3477
 3324SOL    HW121605   0.480   2.223  12.770  2.7343 -2.4436 -0.0963
 3324SOL    HW221606   0.461   2.326  12.669  1.9761  1.1857 -1.6816
 3325SOL     OW21607   2.262   4.282   5.256  0.1123  0.0536  0.4433
 3325SOL    HW121608   2.255   4.255   5.347 -0.7271  3.2753  1.3449
 3325SOL    HW221609   2.170   4.307   5.248  0.4585  1.4684  0.8524
 3326SOL     OW21610   3.531   3.152   1.154  0.1892 -0.0214  0.1640
 3326SOL    HW121611   3.549   3.115   1.068 -1.9275  0.2536 -0.3759
 3326SOL    HW221612   3.436   3.162   1.151  0.3122  1.2053  0.5104
 3327SOL     OW21613   3.530   2.327  12.193 -1.4369 -0.4296  0.6868
 3327SOL    HW121614   3.561   2.387  12.262 -0.9668 -1.1777  1.1236
 3327SOL    HW221615   3.442   2.360  12.179 -1.1662 -0.2478 -0.5828
 3328SOL     OW21616   2.359   3.383   3.311 -0.5962 -0.4112 -0.1426
 3328SOL    HW121617   2.325   3.295   3.325  2.1285 -1.6141 -1.1406
 3328SOL    HW221618   2.331   3.419   3.396 -0.2746  2.1143 -1.1104
 3329SOL     OW21619   4.182   4.662  14.031  0.1070  0.8340 -0.0040
 3329SOL    HW121620   4.181   4.716  14.110 -0.0075  4.1952 -2.2646
 3329SOL    HW221621   4.250   4.598  14.054 -0.2753  0.8879  1.2547
 3330SOL     OW21622   0.225   0.525   5.071  0.2945  0.3099 -0.3196
 3330SOL    HW121623   0.151   0.496   5.017 -0.2023  0.5175  0.2415
 3330SOL    HW221624   0.264   0.596   5.021 -0.4765 -0.4999 -2.0700
 3331SOL     OW21625   1.967   0.777  11.628 -0.6701 -0.3454 -0.2436
 3331SOL    HW121626   2.032   0.801  11.694  1.3493 -4.0689 -0.8690
 3331SOL    HW221627   2.025   0.718  11.581 -3.1523 -1.3295 -2.0307
 3332SOL     OW21628   0.457   0.207  12.183 -0.1935 -0.4686  0.3710
 3332SOL    HW121629   0.489   0.213  12.093 -3.3135  0.1499 -0.7186
 3332SOL    HW221630   0.535   0.233  12.232 -0.1262  2.2871 -1.1653
 3333SOL     OW21631   0.959   3.539   1.148  0.3092 -0.0194 -0.1389
 3333SOL    HW121632   0.893   3.486   1.193  0.8587  1.4047  2.3344
 3333SOL    HW221633   0.972   3.595   1.224 -0.2280  0.0897 -0.1212
 3334SOL     OW21634   1.155   3.428   6.224 -0.3592 -0.5669  0.7068
 3334SOL    HW121635   1.150   3.408   6.318  1.1487  1.0510  1.1177
 3334SOL    HW221636   1.173   3.522   6.225 -0.8085 -0.4777  0.6988
 3335SOL     OW21637   2.666   0.610   8.785 -0.3390 -0.1562 -0.1703
 3335SOL    HW121638   2.625   0.607   8.698 -0.4344  0.0920 -0.1337
 3335SOL    HW221639   2.625   0.687   8.825 -1.2703  0.1678 -1.7308
 3336SOL     OW21640   1.509   3.651   3.155 -0.0334  0.0249  0.8862
 3336SOL    HW121641   1.601   3.626   3.163 -0.1209 -0.5659  0.1234
 3336SOL    HW221642   1.516   3.733   3.106 -2.1633 -0.2261  0.1304
 3337SOL     OW21643   1.689   3.373   5.737  0.7162  0.1407  0.5453
 3337SOL    HW121644   1.618   3.317   5.770  0.5057  1.3496  2.1289
 3337SOL    HW221645   1.638   3.429   5.678 -1.3501 -1.5837  0.6688
 3338SOL     OW21646   2.198   1.609  12.522 -0.5157 -0.0131  0.6164
 3338SOL    HW121647   2.263   1.667  12.562  1.6635 -0.2129 -2.5547
 3338SOL    HW221648   2.244   1.585  12.441 -0.8608 -1.2957  0.7968
 3339SOL     OW21649   4.358   4.013   7.620 -0.3212  0.2233 -0.6535
 3339SOL    HW121650   4.290   4.020   7.688  0.6048 -0.1477  0.3158
 3339SOL    HW221651   4.407   3.939   7.656 -1.5066  0.1763  0.9124
 3340SOL     OW21652   4.070   0.044   8.557 -0.0018 -0.2372  0.0821
 3340SOL    HW121653   3.984   0.002   8.560 -1.0650  1.8671 -0.9452
 3340SOL    HW221654   4.053   0.102   8.483 -4.8579 -2.5774 -0.6314
 3341SOL     OW21655   2.904   1.242   8.430  0.4471 -0.0727 -0.1423
 3341SOL    HW121656   2.876   1.222   8.519 -0.5821  0.5850 -0.3279
 3341SOL    HW221657   2.820   1.244   8.383 -0.4917 -1.4251  1.4909
 3342SOL     OW21658   1.354   3.702   3.559  0.8160  0.3743 -0.3010
 3342SOL    HW121659   1.310   3.667   3.637  2.4020 -3.5428 -1.1594
 3342SOL    HW221660   1.340   3.795   3.577  0.6247  0.0131  1.4256
 3343SOL     OW21661   2.697   2.661   5.597 -0.5123 -0.8024  0.1927
 3343SOL    HW121662   2.615   2.686   5.556  0.5077  0.7298 -0.9243
 3343SOL    HW221663   2.743   2.743   5.580 -1.0354 -0.1912  1.7131
 3344SOL     OW21664   4.544   2.991   6.106  0.2009 -0.4599 -0.2283
 3344SOL    HW121665   4.470   2.934   6.129 -1.8231  2.7779  1.3061
 3344SOL    HW221666   4.537   2.992   6.011 -0.5952 -2.1021 -0.1932
 3345SOL     OW21667   4.208   2.534   1.993 -1.2411 -0.5718  0.2332
 3345SOL    HW121668   4.239   2.539   1.903  4.0668  2.2391  2.2639
 3345SOL    HW221669   4.157   2.614   2.007 -0.9046  0.0257 -1.9608
 3346SOL     OW21670   1.600   2.372  10.663 -0.1471 -0.0327 -0.3582
 3346SOL    HW121671   1.582   2.372  10.757 -1.9642 -0.2014 -0.6917
 3346SOL    HW221672   1.537   2.437  10.633 -0.6327  0.3357  1.4318
 3347SOL     OW21673   1.125   0.061  10.863  0.2728 -0.7968 -0.2984
 3347SOL    HW121674   1.074   0.088  10.940  0.4788  1.5187 -0.9604
 3347SOL    HW221675   1.163   0.146  10.838 -0.2941 -0.9687 -1.7326
 3348SOL     OW21676   4.331   2.435   3.399  0.1535 -0.0075  0.3522
 3348SOL    HW121677   4.277   2.460   3.474 -2.6210 -0.9967 -1.3302
 3348SOL    HW221678   4.340   2.518   3.352 -0.9909  0.3085  0.6879
 3349SOL     OW21679   3.618   0.625  15.916 -0.1143  0.0739 -0.4185
 3349SOL    HW121680   3.692   0.568  15.937  0.3967  0.9551  0.1646
 3349SOL    HW221681   3.624   0.641  15.822  1.2944  1.2315 -0.1286
 3350SOL     OW21682   1.024   0.109  11.901  0.2742  0.0449  0.4267
 3350SOL    HW121683   0.947   0.053  11.910  0.6212 -0.4659  0.2052
 3350SOL    HW221684   1.015   0.155  11.984  0.7035  0.2251  0.3711
 3351SOL     OW21685   4.686   3.836   4.209  0.0717 -0.2107  0.3796
 3351SOL    HW121686   0.027   3.787   4.187 -0.0784 -0.2676 -0.0358
 3351SOL    HW221687   4.681   3.802   4.298 -0.9060 -1.1131 -0.0085
 3352SOL     OW21688   0.995   3.961   3.646 -0.3646  0.5383  0.1677
 3352SOL    HW121689   0.946   3.879   3.636  0.3884  0.2881 -1.5224
 3352SOL    HW221690   0.961   4.012   3.572  0.2376  0.6255 -0.0434
 3353SOL     OW21691   1.398   4.188   6.191 -0.0846  0.2169 -0.7792
 3353SOL    HW121692   1.352   4.272   6.197 -0.3943 -0.0399  0.4349
 3353SOL    HW221693   1.435   4.178   6.279 -1.2264  1.3082 -0.1597
 3354SOL     OW21694   1.198   1.574   9.478  0.2833 -0.1897  0.5935
 3354SOL    HW121695   1.280   1.614   9.507 -0.7666  0.0018  3.3563
 3354SOL    HW221696   1.139   1.601   9.549  2.8377  0.0308  2.6389
 3355SOL     OW21697   3.639   0.119  13.371  0.9555 -0.3212 -0.2904
 3355SOL    HW121698   3.599   0.038  13.403  2.3210 -1.1751 -0.7568
 3355SOL    HW221699   3.728   0.094  13.396  0.7896  0.8022  1.4416
 3356SOL     OW21700   0.507   2.184  16.280 -0.0974  0.0975 -0.0671
 3356SOL    HW121701   0.581   2.125  16.289 -0.2259  0.0239  0.5103
 3356SOL    HW221702   0.527   2.227  16.197 -1.9270 -0.7128 -0.9387
 3357SOL     OW21703   2.297   4.517   3.196 -0.1843  0.4838  0.1974
 3357SOL    HW121704   2.245   4.451   3.151 -0.3324  0.0684  0.9866
 3357SOL    HW221705   2.293   4.479   3.283 -1.0209  0.8774  0.3319
 3358SOL     OW21706   1.410   1.321   5.660  0.4941 -0.2640  0.0981
 3358SOL    HW121707   1.418   1.272   5.742 -2.5102  0.2340  0.7064
 3358SOL    HW221708   1.436   1.405   5.697 -1.2162 -0.2320  1.2260
 3359SOL     OW21709   0.815   3.651   6.231 -0.2940  0.2843  0.3415
 3359SOL    HW121710   0.757   3.641   6.307 -2.3926  1.2348 -1.1170
 3359SOL    HW221711   0.762   3.597   6.172 -0.3495  2.8211 -1.9202
 3360SOL     OW21712   1.738   3.735   3.690  0.1466  0.0881  0.1006
 3360SOL    HW121713   1.777   3.813   3.727 -1.3234  0.2444  1.3184
 3360SOL    HW221714   1.748   3.674   3.764  2.0151  2.1228  1.5094
 3361SOL     OW21715   3.455   2.741  14.524 -0.3800  0.0606  0.0492
 3361SOL    HW121716   3.430   2.749  14.616  0.2937 -0.0301  0.2356
 3361SOL    HW221717   3.377   2.704  14.483 -1.5774  2.7063 -0.0620
 3362SOL     OW21718   3.381   0.062   8.655 -0.4367 -0.1285 -0.3006
 3362SOL    HW121719   3.325   0.063   8.732 -0.5717  0.1861 -0.3999
 3362SOL    HW221720   3.386   0.157   8.645 -0.9609 -0.2316 -1.5327
 3363SOL     OW21721   3.254   4.587   5.760 -0.7153 -0.5498  0.0173
 3363SOL    HW121722   3.174   4.556   5.802  0.2396 -3.1469 -0.0453
 3363SOL    HW221723   3.319   4.521   5.787  0.0306 -0.1139 -0.7162
 3364SOL     OW21724   4.215   0.147   3.948  0.3595  0.3077  0.1597
 3364SOL    HW121725   4.263   0.087   4.005 -2.1937 -0.7996  1.1643
 3364SOL    HW221726   4.291   0.172   3.896 -0.2096 -2.1450 -1.8199
 3365SOL     OW21727   3.624   2.129  12.481  0.2547 -0.0690  0.1957
 3365SOL    HW121728   3.639   2.219  12.509  0.0242 -0.0211  0.1643
 3365SOL    HW221729   3.550   2.101  12.534  1.2476 -0.7195  1.2135
 3366SOL     OW21730   0.684   2.498   7.009 -0.8810 -0.2687  0.2390
 3366SOL    HW121731   0.633   2.432   6.962 -1.3081  1.4278 -1.6831
 3366SOL    HW221732   0.733   2.539   6.938  0.5875  1.3931  2.2097
 3367SOL     OW21733   3.115   1.635   6.297 -0.7343  0.1117 -0.0642
 3367SOL    HW121734   3.115   1.645   6.392 -1.4076  0.0385 -0.0585
 3367SOL    HW221735   3.190   1.682   6.260  0.0100  0.1512  1.5008
 3368SOL     OW21736   3.605   2.590   2.410  0.5573  0.2118  0.2979
 3368SOL    HW121737   3.588   2.496   2.405 -3.9430  1.1974 -2.1448
 3368SOL    HW221738   3.533   2.628   2.361 -0.4510  0.3109  1.8620
 3369SOL     OW21739   3.600   4.087   3.209  0.4503 -0.2200 -0.3771
 3369SOL    HW121740   3.613   4.160   3.150 -2.1544  0.3639 -0.2131
 3369SOL    HW221741   3.685   4.078   3.253 -1.6014 -3.0814  3.1137
 3370SOL     OW21742   2.302   4.385   0.078  0.0060  0.3093  0.0884
 3370SOL    HW121743   2.300   4.297   0.115  1.3091  0.5429  0.6818
 3370SOL    HW221744   2.319   4.372  17.733  0.2381  1.3574 -0.0207
 3371SOL     OW21745   2.747   2.573   0.722  0.0669  0.6889  0.6831
 3371SOL    HW121746   2.734   2.608   0.810 -2.1083 -1.3029  1.1522
 3371SOL    HW221747   2.668   2.599   0.675  1.0999  0.0365 -1.4159
 3372SOL     OW21748   4.095   0.115   7.390  0.3900  0.2140 -0.3805
 3372SOL    HW121749   4.183   0.141   7.417  0.4269  0.3541 -0.6326
 3372SOL    HW221750   4.122   0.027   7.361  0.9205 -0.9971  3.7509
 3373SOL     OW21751   2.940   3.075   2.478 -0.5415 -0.1741 -0.0956
 3373SOL    HW121752   2.926   3.013   2.550 -0.5208  0.1894  0.2160
 3373SOL    HW221753   3.004   3.025   2.427  0.6705 -1.0978  2.3606
 3374SOL     OW21754   4.013   3.957   4.122 -0.3233  0.5668  0.1238
 3374SOL    HW121755   3.920   3.950   4.145 -0.8622 -0.2016 -2.1995
 3374SOL    HW221756   4.014   4.026   4.055 -0.1250  0.6553  0.2189
 3375SOL     OW21757   4.432   0.206   7.276  0.2502 -0.3350  0.2227
 3375SOL    HW121758   4.404   0.271   7.211 -2.1119 -2.9540 -1.4072
 3375SOL    HW221759   4.430   0.125   7.224  0.3422 -0.7533  0.8713
 3376SOL     OW21760   2.888   4.108   2.886  0.0646  0.0359  0.2143
 3376SOL    HW121761   2.845   4.023   2.878 -0.1205  0.1445  0.0483
 3376SOL    HW221762   2.973   4.069   2.907 -1.1162 -2.9886 -0.5370
 3377SOL     OW21763   4.101   0.217   7.656  0.0462  0.0178  0.0490
 3377SOL    HW121764   4.063   0.195   7.571  0.9464 -0.7683 -0.1548
 3377SOL    HW221765   4.192   0.194   7.638 -0.7770 -2.3530 -1.2036
 3378SOL     OW21766   4.343   1.416   0.739  0.4911 -0.0419 -0.2780
 3378SOL    HW121767   4.356   1.326   0.767 -1.1462  0.2672  1.4692
 3378SOL    HW221768   4.344   1.472   0.816  0.5635  2.1220 -1.8445
 3379SOL     OW21769   2.455   0.663  14.865 -0.4764  0.4111 -0.1887
 3379SOL    HW121770   2.484   0.745  14.825  2.1261 -0.5661 -0.2707
 3379SOL    HW221771   2.363   0.688  14.873 -1.1691 -2.3750  0.7072
 3380SOL     OW21772   0.046   3.728   2.659 -0.3178 -0.1497  0.3285
 3380SOL    HW121773   0.062   3.729   2.565 -1.2849  0.7998  0.1633
 3380SOL    HW221774   4.729   3.807   2.657  0.2481  0.2106 -0.7475
 3381SOL     OW21775   3.282   0.067   5.576  0.4488 -0.1559 -0.9455
 3381SOL    HW121776   3.266   4.735   5.640  1.4413  0.8542  0.3828
 3381SOL    HW221777   3.283   0.145   5.630  1.6298 -0.0890 -1.0723
 3382SOL     OW21778   3.513   1.739   1.453  0.4104  0.4854  0.3342
 3382SOL    HW121779   3.482   1.696   1.533 -0.0162 -0.2798 -0.2389
 3382SOL    HW221780   3.540   1.827   1.479 -0.1871  0.3623  1.4063
 3383SOL     OW21781   0.902   1.556   9.552  0.0819  0.0019  0.4295
 3383SOL    HW121782   0.919   1.466   9.525  0.3908  0.5185 -1.0830
 3383SOL    HW221783   0.884   1.602   9.470 -0.2729 -0.1003  0.4479
 3384SOL     OW21784   0.761   3.575   4.412  0.7311  0.3904  0.5564
 3384SOL    HW121785   0.775   3.481   4.420  0.9874  0.3379 -0.5432
 3384SOL    HW221786   0.706   3.591   4.489  1.4066 -2.2813  1.6085
 3385SOL     OW21787   3.061   1.984   2.670 -0.5569  0.1451  0.3074
 3385SOL    HW121788   3.067   2.058   2.610 -1.6508 -1.4727 -1.7836
 3385SOL    HW221789   3.152   1.972   2.698 -0.0541 -1.0194 -1.8686
 3386SOL     OW21790   4.245   2.156  13.214  0.1285 -0.1389  0.3860
 3386SOL    HW121791   4.276   2.232  13.166 -0.3287  0.8458  1.6534
 3386SOL    HW221792   4.164   2.132  13.170  0.5335 -1.2241  0.2426
 3387SOL     OW21793   3.980   4.016   5.707  0.4308  0.3370  0.0709
 3387SOL    HW121794   4.011   4.077   5.640 -0.0124  2.2819  1.6274
 3387SOL    HW221795   3.907   3.976   5.660 -0.7000  3.4328 -0.7753
 3388SOL     OW21796   4.686   4.621   7.889 -0.0419  0.7753  0.0066
 3388SOL    HW121797   4.706   4.687   7.955  0.1025  0.1206  0.6096
 3388SOL    HW221798   0.034   4.606   7.849  1.1207  2.2513  1.9519
 3389SOL     OW21799   4.436   3.426   9.451 -0.6516  0.5472 -0.3605
 3389SOL    HW121800   4.517   3.385   9.482 -1.1681 -0.4593 -0.3204
 3389SOL    HW221801   4.422   3.393   9.362  1.9055  1.3709 -1.0670
 3390SOL     OW21802   1.461   1.122   7.780  0.4410 -0.6982  0.5451
 3390SOL    HW121803   1.543   1.128   7.828  1.5816 -0.7633 -1.3683
 3390SOL    HW221804   1.408   1.073   7.843  0.3199 -0.3391  0.7227
 3391SOL     OW21805   0.579   3.808   8.941 -0.4543  0.0110  0.3832
 3391SOL    HW121806   0.571   3.816   8.846  1.5950  1.3700  0.3215
 3391SOL    HW221807   0.657   3.862   8.951  0.4552 -1.2796  0.2483
 3392SOL     OW21808   1.089   2.391  10.747  0.5984 -0.1990  0.4378
 3392SOL    HW121809   1.045   2.475  10.733  0.0785 -0.6033 -0.3346
 3392SOL    HW221810   1.051   2.362  10.829  1.5421  1.0662  1.3217
 3393SOL     OW21811   4.158   0.245   9.413  0.3271 -0.4156  0.0019
 3393SOL    HW121812   4.241   0.276   9.377 -1.2373 -0.6118 -3.7247
 3393SOL    HW221813   4.104   0.230   9.336  0.9928 -5.3858  0.4679
 3394SOL     OW21814   1.308   4.401  14.604 -0.3953  0.4354 -0.4835
 3394SOL    HW121815   1.279   4.374  14.517  0.6091  0.9745 -0.9852
 3394SOL    HW221816   1.399   4.373  14.598 -0.1512  1.0844  0.1343
 3395SOL     OW21817   0.625   4.675   5.172  0.1573 -0.5488 -0.0405
 3395SOL    HW121818   0.638   0.032   5.165 -2.0635 -0.2320  0.0110
 3395SOL    HW221819   0.581   4.656   5.255 -1.1052  1.6062 -0.2059
 3396SOL     OW21820   2.008   0.228   3.061 -0.2610 -0.5150 -0.1938
 3396SOL    HW121821   2.056   0.309   3.079  0.1066 -1.0664  1.2836
 3396SOL    HW221822   2.063   0.187   2.994 -1.3642  1.5191 -2.3345
 3397SOL     OW21823   4.168   0.992   9.695  0.5141 -0.4063 -0.5594
 3397SOL    HW121824   4.235   0.939   9.652 -1.6186 -1.9779 -1.9467
 3397SOL    HW221825   4.220   1.067   9.724  1.4296 -0.9707 -0.7339
 3398SOL     OW21826   0.812   1.667  12.286  0.1872 -0.4571 -0.0665
 3398SOL    HW121827   0.901   1.696  12.309  0.4370 -0.0961 -1.4791
 3398SOL    HW221828   0.808   1.706  12.198  0.8212 -1.6577 -0.6379
 3399SOL     OW21829   3.283   1.377   5.377 -0.7478 -0.3012 -0.1589
 3399SOL    HW121830   3.375   1.366   5.399 -0.8076  0.4090  0.4687
 3399SOL    HW221831   3.264   1.469   5.356 -0.1213  0.1672  1.2896
 3400SOL     OW21832   3.651   0.413   6.154  0.0840 -0.4225 -0.4568
 3400SOL    HW121833   3.578   0.427   6.093  0.1872 -0.9247 -0.6920
 3400SOL    HW221834   3.614   0.469   6.223  0.6422  0.9585 -1.2596
 3401SOL     OW21835   2.570   2.273   6.338 -0.4015 -0.5655  0.4056
 3401SOL    HW121836   2.665   2.284   6.334 -0.4076 -0.7235 -0.2767
 3401SOL    HW221837   2.540   2.364   6.329 -0.8666 -0.6620  1.0090
 3402SOL     OW21838   3.464   1.792  10.322  0.5611  0.4879  0.1720
 3402SOL    HW121839   3.478   1.834  10.237 -0.3791 -0.4329 -0.4357
 3402SOL    HW221840   3.376   1.827  10.339  0.3944  0.6019 -0.9452
 3403SOL     OW21841   4.503   0.507   4.522 -0.0850  0.2982 -0.0655
 3403SOL    HW121842   4.460   0.544   4.600 -0.7488 -1.9233  0.6182
 3403SOL    HW221843   4.515   0.421   4.562 -0.3653  0.3459  0.1232
 3404SOL     OW21844   3.229   0.124   8.876  0.0072  0.0607 -0.2515
 3404SOL    HW121845   3.219   0.135   8.971 -1.4467  1.1667 -0.5414
 3404SOL    HW221846   3.136   0.118   8.858  0.3288 -3.8431 -0.6553
 3405SOL     OW21847   3.477   2.411   2.002  0.1330 -0.0576  0.1207
 3405SOL    HW121848   3.414   2.381   2.068 -1.7922 -0.7402 -2.0315
 3405SOL    HW221849   3.562   2.373   2.028 -0.1999 -0.0651  1.2336
 3406SOL     OW21850   1.751   0.159  10.500  0.4292  0.4171  0.2577
 3406SOL    HW121851   1.664   0.121  10.515  0.6071 -0.3306 -0.6584
 3406SOL    HW221852   1.785   0.137  10.587 -2.4535 -0.5203  1.1746
 3407SOL     OW21853   0.742   0.979   5.604 -0.1478  0.0528  0.1068
 3407SOL    HW121854   0.823   0.928   5.611  1.0373  1.9833  0.4255
 3407SOL    HW221855   0.696   0.936   5.532  1.8429  0.4808 -1.4073
 3408SOL     OW21856   3.407   0.208  12.834 -0.4720 -0.2881  0.3280
 3408SOL    HW121857   3.475   0.191  12.899  0.1995 -1.9474 -0.8294
 3408SOL    HW221858   3.463   0.248  12.767  0.3238  1.6888  2.1509
 3409SOL     OW21859   1.927   1.599   7.072 -0.2650 -0.3169 -0.0495
 3409SOL    HW121860   1.887   1.534   7.131 -1.7566 -0.6191 -1.3936
 3409SOL    HW221861   2.001   1.544   7.045 -0.4746 -0.3823 -0.4947
 3410SOL     OW21862   2.740   2.804   5.848 -0.2111  0.2692 -0.3488
 3410SOL    HW121863   2.743   2.850   5.764 -1.9920  2.5734  0.8617
 3410SOL    HW221864   2.745   2.716   5.809  1.7557  0.7042 -1.0855
 3411SOL     OW21865   3.027   3.717   3.486 -0.0884  0.1615  0.0800
 3411SOL    HW121866   3.005   3.783   3.420 -0.0234  1.4984  1.3830
 3411SOL    HW221867   3.093   3.672   3.434 -1.6023 -1.8397 -0.0944
 3412SOL     OW21868   3.469   0.282  10.863 -0.4095 -0.3487 -0.0844
 3412SOL    HW121869   3.381   0.253  10.839  0.2960 -1.1005 -1.7134
 3412SOL    HW221870   3.503   0.209  10.915  2.5930  0.3104 -1.1012
 3413SOL     OW21871   0.648   2.265  14.363 -0.7659 -0.3115  0.0977
 3413SOL    HW121872   0.695   2.186  14.339  2.0826  1.4221  0.0390
 3413SOL    HW221873   0.718   2.326  14.385 -1.2620  0.5302 -0.6512
 3414SOL     OW21874   0.470   2.923   2.566  0.1894  0.6233  0.1188
 3414SOL    HW121875   0.459   3.014   2.595  1.4213  1.5404 -2.2823
 3414SOL    HW221876   0.384   2.883   2.554  0.5231 -0.4000  1.1396
 3415SOL     OW21877   4.040   3.615  16.636 -0.2094 -0.3901  0.0268
 3415SOL    HW121878   3.972   3.605  16.570  0.4342  1.0649 -0.8548
 3415SOL    HW221879   3.992   3.646  16.713  0.1195 -2.8643  1.2327
 3416SOL     OW21880   1.087   0.948   3.875  0.1080 -0.1822 -0.0059
 3416SOL    HW121881   1.030   0.873   3.856 -1.1732  0.2491  2.0903
 3416SOL    HW221882   1.124   0.919   3.958  2.5615  0.0687 -1.0344
 3417SOL     OW21883   1.460   2.240   3.974 -0.4161  0.0581 -0.3663
 3417SOL    HW121884   1.466   2.184   3.897 -1.0992 -0.0507 -0.3392
 3417SOL    HW221885   1.372   2.272   3.957  0.0856  1.3267 -0.6163
 3418SOL     OW21886   1.236   1.978   0.345 -0.4026 -0.0758 -0.0383
 3418SOL    HW121887   1.228   1.904   0.285 -0.7906 -1.7996  2.1407
 3418SOL    HW221888   1.229   1.931   0.428 -0.7627 -2.9260 -1.7028
 3419SOL     OW21889   2.646   2.854   1.191 -0.2257  0.7144  0.2183
 3419SOL    HW121890   2.629   2.764   1.218 -0.7510  0.1480 -1.9901
 3419SOL    HW221891   2.673   2.842   1.100 -1.3411  0.2847 -0.0550
 3420SOL     OW21892   1.580   2.238  17.557  0.3906 -0.4115 -0.0335
 3420SOL    HW121893   1.564   2.243  17.651 -3.0244  0.9382 -0.6758
 3420SOL    HW221894   1.675   2.249  17.551  0.2857  0.5766  0.1475
 3421SOL     OW21895   1.165   0.402   3.348  0.9350  0.0960  0.3516
 3421SOL    HW121896   1.199   0.490   3.337  0.1370  0.6117  1.9759
 3421SOL    HW221897   1.075   0.416   3.379  0.4143 -0.1347 -1.0711
 3422SOL     OW21898   0.235   2.658   4.517  0.0092 -0.0268  0.1119
 3422SOL    HW121899   0.223   2.682   4.609 -1.2814  1.7372 -0.5002
 3422SOL    HW221900   0.183   2.726   4.472 -0.3796 -1.2919 -1.3398
 3423SOL     OW21901   2.789   1.779  12.498 -0.6123 -0.4066  0.2436
 3423SOL    HW121902   2.758   1.693  12.470 -2.9548  1.1683 -1.9802
 3423SOL    HW221903   2.873   1.797  12.455 -0.0472 -0.4392  1.3211
 3424SOL     OW21904   0.355   4.228   2.050 -0.3634  0.2696 -0.4810
 3424SOL    HW121905   0.365   4.149   2.103  1.4689  0.6145 -0.2983
 3424SOL    HW221906   0.354   4.286   2.126 -1.4289  3.5136 -2.9734
 3425SOL     OW21907   1.570   1.815   5.206  0.0684 -0.4847 -0.1403
 3425SOL    HW121908   1.544   1.725   5.222 -0.7129 -0.3885 -0.8652
 3425SOL    HW221909   1.590   1.845   5.295  0.3393  0.3770 -0.4813
 3426SOL     OW21910   2.209   4.162   8.636 -0.6937  0.8374 -0.6815
 3426SOL    HW121911   2.158   4.233   8.675 -3.6309 -0.9684 -1.2390
 3426SOL    HW221912   2.297   4.195   8.655 -1.0196  1.6531 -0.5982
 3427SOL     OW21913   4.444   4.384   4.360 -0.0406  0.1099  0.2391
 3427SOL    HW121914   4.436   4.478   4.343 -1.1727 -0.3657 -1.8516
 3427SOL    HW221915   4.539   4.376   4.351 -0.0211 -2.5745  2.8230
 3428SOL     OW21916   1.711   0.317   6.100 -0.2707  0.0162  0.2167
 3428SOL    HW121917   1.642   0.373   6.064  0.0431 -1.2020 -2.2709
 3428SOL    HW221918   1.762   0.389   6.136 -2.5631  1.6767  0.1697
 3429SOL     OW21919   3.358   3.673   9.288 -0.0715  0.0562  0.5747
 3429SOL    HW121920   3.267   3.643   9.286  0.4603 -1.6127  1.3202
 3429SOL    HW221921   3.354   3.749   9.230 -0.8114 -0.3035  0.1552
 3430SOL     OW21922   4.202   0.009   7.057 -0.9385 -0.2807 -0.4370
 3430SOL    HW121923   4.166   0.000   7.145 -0.3838  1.9276  0.0149
 3430SOL    HW221924   4.251   4.665   7.041  1.7491  1.1102  0.6795
 3431SOL     OW21925   1.622   3.002   5.362  0.3848  0.1373  0.1275
 3431SOL    HW121926   1.555   3.021   5.297  2.1095 -0.5225 -1.8555
 3431SOL    HW221927   1.594   3.056   5.436 -2.1530 -3.5798  1.8752
 3432SOL     OW21928   1.839   3.325   5.452  0.5731  0.4863  0.4000
 3432SOL    HW121929   1.799   3.323   5.539  1.1737 -0.6231  0.6502
 3432SOL    HW221930   1.855   3.419   5.451 -0.8228  0.7203  0.7104
 3433SOL     OW21931   3.757   4.114   0.058 -0.1732 -0.4672 -0.1398
 3433SOL    HW121932   3.841   4.100   0.013  0.6154 -0.1352  1.2191
 3433SOL    HW221933   3.725   4.026   0.075 -0.9733 -0.0273  0.6119
 3434SOL     OW21934   2.915   0.870   8.651 -0.5259 -0.0478  0.1324
 3434SOL    HW121935   2.950   0.869   8.740  0.5061 -3.9516 -0.3224
 3434SOL    HW221936   2.990   0.848   8.596 -1.5350 -0.4606 -1.0739
 3435SOL     OW21937   3.813   2.239   4.963 -0.4188 -0.3662 -0.3724
 3435SOL    HW121938   3.786   2.308   4.903 -0.9426 -1.1107 -0.9971
 3435SOL    HW221939   3.869   2.291   5.020 -1.5143  1.6542 -1.1498
 3436SOL     OW21940   2.450   3.720   9.244  0.3189  0.4597 -0.3774
 3436SOL    HW121941   2.356   3.738   9.241  0.1912  0.0191  0.8981
 3436SOL    HW221942   2.477   3.778   9.315 -1.1104 -0.7419  1.1429
 3437SOL     OW21943   3.686   0.652   6.889 -0.5703 -0.3961  0.4393
 3437SOL    HW121944   3.769   0.630   6.931 -0.8520 -2.8969 -0.3166
 3437SOL    HW221945   3.629   0.595   6.940  0.4623 -0.0194  2.0211
 3438SOL     OW21946   2.191   1.981   6.813 -0.2820 -0.0992  0.5295
 3438SOL    HW121947   2.102   1.983   6.777  0.1279 -0.8637 -0.5320
 3438SOL    HW221948   2.229   2.066   6.796 -1.5645  0.5619  0.9438
 3439SOL     OW21949   0.884   1.034   1.623  0.1226  0.7792  0.8916
 3439SOL    HW121950   0.913   1.063   1.537 -1.0301 -1.7039 -0.3667
 3439SOL    HW221951   0.846   1.112   1.664 -1.4956 -0.5706  2.0340
 3440SOL     OW21952   0.255   4.264   2.553  0.3672  0.2382  0.0611
 3440SOL    HW121953   0.168   4.286   2.586  0.4226  2.2364 -1.0685
 3440SOL    HW221954   0.311   4.284   2.628 -0.3148 -1.3453  0.9893
 3441SOL     OW21955   0.560   2.015   1.039 -0.1918 -0.2381 -0.7454
 3441SOL    HW121956   0.470   2.040   1.062 -0.1934 -1.9951  1.1357
 3441SOL    HW221957   0.542   1.939   0.984 -0.2547 -0.2428 -0.7175
 3442SOL     OW21958   0.673   1.150   6.141  0.0591 -0.2616  0.3745
 3442SOL    HW121959   0.642   1.193   6.221  2.7753 -1.0565  1.8517
 3442SOL    HW221960   0.742   1.096   6.179  0.1323  0.0304  0.6566
 3443SOL     OW21961   0.936   4.612   3.212  0.4777 -0.1499  0.1352
 3443SOL    HW121962   0.998   4.660   3.157 -2.0081 -0.1013 -2.6182
 3443SOL    HW221963   0.906   4.684   3.267  2.0577  0.7464 -0.1570
 3444SOL     OW21964   1.747   1.061   4.212 -0.0949 -0.4802 -0.0622
 3444SOL    HW121965   1.718   1.038   4.124  3.1877  1.1085 -1.5749
 3444SOL    HW221966   1.826   1.006   4.213  0.4645  0.3277  0.1282
 3445SOL     OW21967   0.766   0.873  12.621 -0.5671  0.0105  0.1726
 3445SOL    HW121968   0.820   0.814  12.568 -1.1567 -1.5256  1.2826
 3445SOL    HW221969   0.774   0.957  12.576  0.1594  1.3630  2.7796
 3446SOL     OW21970   1.203   4.643  14.550 -0.6720  0.3450  0.4595
 3446SOL    HW121971   1.239   4.714  14.604 -1.3727  0.8533  0.2678
 3446SOL    HW221972   1.256   4.569  14.577 -1.2291  0.2663  1.3706
 3447SOL     OW21973   2.684   4.722   8.633  0.0743  0.1574  0.2767
 3447SOL    HW121974   2.666   4.652   8.569 -2.4579  0.6962  0.3809
 3447SOL    HW221975   2.746   0.039   8.584  1.0938 -1.2864 -0.0406
 3448SOL     OW21976   2.499   1.725   5.607  0.2329  0.2127 -0.3692
 3448SOL    HW121977   2.500   1.642   5.558  1.9576  0.9846 -1.6566
 3448SOL    HW221978   2.541   1.786   5.547  0.5649  0.0149 -0.3387
 3449SOL     OW21979   2.271   0.807   5.238  0.3920  0.3057 -0.5785
 3449SOL    HW121980   2.278   0.898   5.210 -2.4888  1.1359  1.4050
 3449SOL    HW221981   2.301   0.767   5.156 -3.6374 -1.5615 -1.1510
 3450SOL     OW21982   2.287   1.394   9.026 -0.1329  0.3470  0.1832
 3450SOL    HW121983   2.220   1.359   9.084  0.2103  0.1279  0.4491
 3450SOL    HW221984   2.241   1.457   8.971 -1.5394 -0.1930  0.7531
 3451SOL     OW21985   3.925   1.284   4.694 -0.4093 -0.0829  0.1367
 3451SOL    HW121986   3.869   1.217   4.654 -2.8228  1.7419  0.4056
 3451SOL    HW221987   3.953   1.339   4.621  0.3821 -1.5050 -0.6347
 3452SOL     OW21988   1.843   2.032   6.621 -0.2128  0.7212 -0.0307
 3452SOL    HW121989   1.911   2.034   6.554 -1.0982 -0.1269 -0.9486
 3452SOL    HW221990   1.861   1.947   6.661 -0.4455  0.8774  0.4049
 3453SOL     OW21991   1.564   4.370   6.599  0.0060  0.3966 -0.6842
 3453SOL    HW121992   1.478   4.345   6.565 -0.2801  1.2206 -0.5661
 3453SOL    HW221993   1.634   4.345   6.537  0.5469 -1.0943  0.5258
 3454SOL     OW21994   4.053   0.089   1.854 -0.0088  0.0384  0.1029
 3454SOL    HW121995   4.024   0.011   1.806 -1.5510  0.0736  0.9678
 3454SOL    HW221996   3.974   0.114   1.903  1.1386 -0.0928  2.0315
 3455SOL     OW21997   0.600   2.946   7.888 -0.0416 -0.0601 -0.7617
 3455SOL    HW121998   0.633   2.858   7.906  1.4362  0.6898  0.2225
 3455SOL    HW221999   0.507   2.927   7.896  0.4852 -2.3393  0.1176
 3456SOL     OW22000   4.357   3.030   0.638  0.3609 -0.2906 -1.5252
 3456SOL    HW122001   4.447   3.018   0.606  0.8334  0.0658 -0.3372
 3456SOL    HW222002   4.343   2.957   0.699 -0.9932 -0.0287 -1.5328
 3457SOL     OW22003   2.142   1.878   4.050  0.5972 -0.3386  0.2686
 3457SOL    HW122004   2.232   1.894   4.022  0.4321 -1.1673 -0.7558
 3457SOL    HW222005   2.103   1.815   3.989 -0.4164  2.2273 -1.7645
 3458SOL     OW22006   0.570   1.052  15.704  0.8756  0.8069 -0.4547
 3458SOL    HW122007   0.553   0.959  15.715 -2.2457  1.5877  1.0728
 3458SOL    HW222008   0.567   1.061  15.609 -0.1253  0.4889 -0.4428
 3459SOL     OW22009   3.140   3.225  12.130  0.0235  0.6206 -0.1276
 3459SOL    HW122010   3.056   3.230  12.175 -0.8074 -1.8834 -1.3441
 3459SOL    HW222011   3.199   3.181  12.191 -0.9461  0.1140  0.4405
 3460SOL     OW22012   3.877   2.990   0.025 -0.3280 -0.2533 -0.1018
 3460SOL    HW122013   3.864   2.980   0.119 -0.4171  2.4260  0.1723
 3460SOL    HW222014   3.888   3.085   0.021 -2.1461 -0.0712 -0.9518
 3461SOL     OW22015   1.619   3.857   7.018  0.4614  1.0956 -0.1314
 3461SOL    HW122016   1.703   3.821   7.046  0.1447  0.0173 -0.5864
 3461SOL    HW222017   1.636   3.945   7.051 -0.4859  0.2313  2.6878
 3462SOL     OW22018   3.876   1.585  17.324 -0.1397 -0.0898 -0.5751
 3462SOL    HW122019   3.926   1.548  17.251  0.5183  2.4043 -1.3859
 3462SOL    HW222020   3.807   1.625  17.270 -0.4094  0.0408 -0.1361
 3463SOL     OW22021   3.224   0.415  12.724  0.0289  0.7568  0.2625
 3463SOL    HW122022   3.320   0.415  12.723  0.0119 -1.4507 -1.1341
 3463SOL    HW222023   3.196   0.325  12.739  0.9650  0.1492 -1.5470
 3464SOL     OW22024   0.450   4.007   6.200 -0.5112 -0.1558 -0.0726
 3464SOL    HW122025   0.486   3.956   6.128  1.7004  1.3277 -0.0146
 3464SOL    HW222026   0.360   3.976   6.213 -0.7011  0.2378 -0.4408
 3465SOL     OW22027   4.439   0.217   3.345  0.1505  0.4475  0.7435
 3465SOL    HW122028   4.438   0.311   3.365 -2.1828  0.2240  1.7294
 3465SOL    HW222029   4.372   0.199   3.411 -0.9681  0.1325 -0.4618
 3466SOL     OW22030   2.088   1.930   3.410  0.4459  0.8364  0.3937
 3466SOL    HW122031   2.170   1.978   3.412  1.4521 -0.8832  0.5371
 3466SOL    HW222032   2.118   1.841   3.391 -2.1527  0.5506 -2.4157
 3467SOL     OW22033   3.873   0.803   3.740  0.3582 -0.2369  0.0590
 3467SOL    HW122034   3.859   0.839   3.828 -0.5231  0.1126 -0.2287
 3467SOL    HW222035   3.949   0.854   3.713  1.8792 -0.8128  3.2305
 3468SOL     OW22036   2.539   4.290  14.998  0.6894 -0.4878 -0.4740
 3468SOL    HW122037   2.626   4.271  14.965  0.4920 -0.4593 -1.0208
 3468SOL    HW222038   2.567   4.339  15.076  0.4377 -0.1001 -0.6249
 3469SOL     OW22039   0.574   3.622   8.457 -0.1845  0.6955  0.4388
 3469SOL    HW122040   0.573   3.695   8.396 -0.9145 -0.4744 -0.9403
 3469SOL    HW222041   0.656   3.585   8.424 -1.5248  0.3472 -2.4249
 3470SOL     OW22042   1.824   1.615   3.373  0.3409  0.2612  0.1051
 3470SOL    HW122043   1.834   1.558   3.297 -0.5121  0.8342 -0.4379
 3470SOL    HW222044   1.734   1.592   3.399  0.7765 -2.7351 -1.0156
 3471SOL     OW22045   1.665   3.810   6.434 -0.2371 -0.3394  0.1330
 3471SOL    HW122046   1.751   3.853   6.430 -0.2513 -0.4137 -0.9632
 3471SOL    HW222047   1.657   3.784   6.526  1.9042  4.1690  1.5982
 3472SOL     OW22048   2.639   3.521   7.758  0.2926  0.1636  0.2333
 3472SOL    HW122049   2.578   3.547   7.689 -0.0207  0.5963  0.6803
 3472SOL    HW222050   2.649   3.600   7.810  1.3892  0.4786 -0.4623
 3473SOL     OW22051   4.721   0.840  10.251 -0.4483 -0.4397 -0.6723
 3473SOL    HW122052   0.065   0.844  10.302 -1.5725  0.2471  1.0425
 3473SOL    HW222053   0.003   0.908  10.186  0.4642 -0.3072 -0.2630
 3474SOL     OW22054   1.890   1.274   3.401  0.3816 -0.0936 -0.0470
 3474SOL    HW122055   1.925   1.351   3.356 -0.2930 -0.0116 -0.4343
 3474SOL    HW222056   1.818   1.254   3.341  0.4450  1.3093 -0.5930
 3475SOL     OW22057   2.018   3.768  16.583 -0.5345  0.2732  0.7220
 3475SOL    HW122058   1.962   3.797  16.655  1.1686 -1.1901  2.6578
 3475SOL    HW222059   2.064   3.846  16.551  3.8489 -2.2451  0.8596
 3476SOL     OW22060   4.235   0.109   0.000  0.4037  0.0753 -0.1551
 3476SOL    HW122061   4.180   0.157   0.062 -1.8939 -1.3660 -1.0499
 3476SOL    HW222062   4.318   0.155   0.010  0.2553  0.2181  0.4639
 3477SOL     OW22063   1.326   0.948  14.491  0.2049  0.3644 -0.0391
 3477SOL    HW122064   1.412   0.954  14.451  0.6427 -0.8557  0.7109
 3477SOL    HW222065   1.275   0.965  14.412  1.3593 -1.2139 -1.1309
 3478SOL     OW22066   4.316   3.864   2.799  0.2416  0.3968  0.2339
 3478SOL    HW122067   4.259   3.787   2.794  1.4161 -0.5809  1.9056
 3478SOL    HW222068   4.398   3.831   2.763 -0.8578 -0.6049 -1.4099
 3479SOL     OW22069   1.943   1.928   2.159 -0.3376  0.1921 -0.1021
 3479SOL    HW122070   1.929   1.901   2.068 -0.9614  0.1655  0.0066
 3479SOL    HW222071   1.858   1.916   2.201 -0.4941  0.1098 -0.4406
 3480SOL     OW22072   2.030   0.131   7.017  0.2896 -0.4328  0.8007
 3480SOL    HW122073   2.019   0.040   7.045  1.5004 -0.6395  0.5965
 3480SOL    HW222074   1.951   0.144   6.965  2.5601  1.2254 -2.2233
 3481SOL     OW22075   1.234   1.405   8.781 -0.4264 -0.1428 -0.0821
 3481SOL    HW122076   1.299   1.342   8.751  0.0138  0.5748 -0.6252
 3481SOL    HW222077   1.284   1.487   8.777  0.1728 -0.4114  1.8600
 3482SOL     OW22078   1.824   2.325   2.393 -0.7917 -0.1825  0.6370
 3482SOL    HW122079   1.802   2.233   2.408 -4.1189  0.2148 -1.7053
 3482SOL    HW222080   1.766   2.346   2.320  2.5442  0.7023 -1.7730
 3483SOL     OW22081   0.721   4.217  15.869 -0.5836 -0.3393 -0.0861
 3483SOL    HW122082   0.685   4.161  15.938  1.0718 -1.1215  0.1529
 3483SOL    HW222083   0.775   4.154  15.822  1.1554  2.0288 -1.2636
 3484SOL     OW22084   1.156   1.203  15.204  0.3338 -0.0604  0.3117
 3484SOL    HW122085   1.083   1.263  15.214 -0.4414 -0.8524 -0.5728
 3484SOL    HW222086   1.110   1.123  15.180 -2.5143  1.3953  1.0178
 3485SOL     OW22087   2.136   2.603   6.572  0.2736 -0.0344  0.5639
 3485SOL    HW122088   2.065   2.646   6.524 -0.3099 -0.5526  0.9550
 3485SOL    HW222089   2.208   2.607   6.510  1.1424 -1.6281  1.4605
 3486SOL     OW22090   2.123   3.549  14.028  0.3703 -0.0559 -0.1485
 3486SOL    HW122091   2.044   3.514  13.988 -1.5080  3.0529  0.8344
 3486SOL    HW222092   2.195   3.497  13.994  1.3078  0.8782  0.3954
 3487SOL     OW22093   2.506   1.101  14.601  0.0590 -0.0046  0.0962
 3487SOL    HW122094   2.469   1.098  14.513  1.4730 -1.7102 -0.4494
 3487SOL    HW222095   2.598   1.108  14.573  0.7030 -0.7726  2.0164
 3488SOL     OW22096   3.972   2.954  15.644  0.3325  0.1616  0.0920
 3488SOL    HW122097   3.980   3.023  15.578 -0.6989  0.3090  0.1282
 3488SOL    HW222098   4.052   2.901  15.637 -1.1659 -2.1125  0.0706
 3489SOL     OW22099   4.589   2.447  16.730 -0.0100  0.1147 -0.3781
 3489SOL    HW122100   4.541   2.367  16.710  2.9164 -1.9409  0.8288
 3489SOL    HW222101   4.518   2.509  16.746  0.2064  0.1250  0.5694
 3490SOL     OW22102   4.015   3.976   7.029  0.0628 -0.3859  0.8378
 3490SOL    HW122103   3.974   3.964   6.944  2.2527  1.0261 -0.4229
 3490SOL    HW222104   4.081   4.041   7.006 -0.7064  1.2803  3.3328
 3491SOL     OW22105   3.899   1.963   6.660 -0.2188  0.4559  0.2587
 3491SOL    HW122106   3.959   1.896   6.694 -1.8785  0.5933  3.4294
 3491SOL    HW222107   3.957   2.033   6.631  2.2829 -1.0808  1.5344
 3492SOL     OW22108   2.874   2.957   4.022 -0.5491  0.1256  0.1850
 3492SOL    HW122109   2.846   3.039   3.982  0.8033  0.6331  0.2774
 3492SOL    HW222110   2.906   2.987   4.107  0.7285 -1.5647  0.3122
 3493SOL     OW22111   2.376   1.368  14.983 -0.1459  0.3305 -0.2859
 3493SOL    HW122112   2.351   1.337  14.896  2.4784  1.0038 -1.2600
 3493SOL    HW222113   2.462   1.409  14.974 -1.5077  3.3419  0.2092
 3494SOL     OW22114   2.180   1.517   3.666  0.0186  0.5121 -0.0696
 3494SOL    HW122115   2.273   1.516   3.688  0.5208 -1.0018 -2.2731
 3494SOL    HW222116   2.189   1.484   3.576 -0.6792  1.8340 -0.6265
 3495SOL     OW22117   1.439   4.641   5.730  0.3519  0.1480  0.1651
 3495SOL    HW122118   1.422   4.734   5.714 -1.9936 -0.2856  0.1438
 3495SOL    HW222119   1.440   4.629   5.825 -0.0112  1.5464  0.3442
 3496SOL     OW22120   1.612   1.966   3.888 -0.3303  0.1275  0.1734
 3496SOL    HW122121   1.626   1.992   3.979  0.4878 -0.6054  0.2593
 3496SOL    HW222122   1.672   1.893   3.871 -0.8186  0.0618 -1.3312
 3497SOL     OW22123   3.680   0.155   5.759 -0.3532 -0.2793 -0.2177
 3497SOL    HW122124   3.610   0.204   5.716  0.2091 -0.0399 -0.8556
 3497SOL    HW222125   3.629   0.118   5.831 -0.6623  0.2267 -0.1812
 3498SOL     OW22126   3.412   2.042   5.920  0.6142  0.4253  0.5760
 3498SOL    HW122127   3.491   2.026   5.973 -0.2139 -0.1691  1.6245
 3498SOL    HW222128   3.450   2.049   5.832  1.7781 -3.0462  0.7956
 3499SOL     OW22129   0.343   1.960  16.274  0.4425 -0.0739 -0.2581
 3499SOL    HW122130   0.392   2.042  16.285  2.2206 -0.8104 -3.0093
 3499SOL    HW222131   0.390   1.925  16.199 -1.4184  0.5960 -1.7460
 3500SOL     OW22132   2.634   0.012   6.318 -0.2082 -0.3386 -0.0797
 3500SOL    HW122133   2.656   0.022   6.225  2.4466  1.2735  0.7138
 3500SOL    HW222134   2.549   0.056   6.313 -0.2191 -0.4045 -0.5522
 3501SOL     OW22135   0.767   1.330   6.595  0.3945 -0.0534 -0.1467
 3501SOL    HW122136   0.773   1.238   6.621 -1.2850  0.2330  1.3064
 3501SOL    HW222137   0.851   1.341   6.551  1.4788 -0.0217  1.9192
 3502SOL     OW22138   0.918   2.853   5.467 -0.2232 -0.1932  0.1639
 3502SOL    HW122139   0.850   2.872   5.403 -0.1611 -0.5483 -0.0007
 3502SOL    HW222140   0.942   2.944   5.490 -2.1387  0.0546  1.2095
 3503SOL     OW22141   0.806   2.819  12.093 -0.5884  0.0053 -0.4843
 3503SOL    HW122142   0.740   2.750  12.100 -1.1894  0.6114 -0.1850
 3503SOL    HW222143   0.759   2.900  12.112  1.9059  2.0738 -3.2365
 3504SOL     OW22144   2.609   1.913   5.437 -0.2955  0.4235 -0.1006
 3504SOL    HW122145   2.619   1.901   5.342  1.0926  1.5502 -0.0995
 3504SOL    HW222146   2.561   1.996   5.440  0.7006  0.9941  0.0706
 3505SOL     OW22147   2.776   3.216   4.192 -0.1038  0.1856  0.1233
 3505SOL    HW122148   2.751   3.181   4.107 -1.1054 -1.6131  1.1676
 3505SOL    HW222149   2.844   3.280   4.170  0.2545  0.2405  1.3727
 3506SOL     OW22150   0.634   2.594  17.403 -0.4138 -0.2748 -0.4991
 3506SOL    HW122151   0.593   2.609  17.317 -2.4968  1.1122  0.7270
 3506SOL    HW222152   0.679   2.675  17.425  0.3580 -0.3360 -1.8434
 3507SOL     OW22153   1.769   1.581   9.377  0.3406 -0.1607 -0.3660
 3507SOL    HW122154   1.746   1.501   9.423  2.1644  0.4413  1.5605
 3507SOL    HW222155   1.844   1.612   9.428 -1.3602  1.1931  1.3056
 3508SOL     OW22156   4.517   0.792   3.908  0.2607  0.2203 -0.1224
 3508SOL    HW122157   4.557   0.765   3.991  1.5602  0.2150 -0.7521
 3508SOL    HW222158   4.459   0.716   3.897 -1.3748  1.5117 -0.4047
 3509SOL     OW22159   2.470   3.468  11.706  0.1667  0.0924  0.0937
 3509SOL    HW122160   2.458   3.528  11.780 -0.5074 -0.9854  0.8587
 3509SOL    HW222161   2.490   3.390  11.758 -0.6063 -0.7357 -0.8708
 3510SOL     OW22162   2.388   4.110  14.619  0.1432  0.4090  0.0152
 3510SOL    HW122163   2.337   4.139  14.696 -1.8934  1.4726 -1.7392
 3510SOL    HW222164   2.326   4.049  14.579  1.4565 -1.5143  0.8784
 3511SOL     OW22165   0.342   0.081   6.818  0.7849 -0.0439 -0.1942
 3511SOL    HW122166   0.342   0.174   6.842  2.0429 -0.6108  2.1045
 3511SOL    HW222167   0.428   0.061   6.855  0.6853 -0.0921  0.0122
 3512SOL     OW22168   4.602   0.275   1.456  0.7010  0.1193 -0.1497
 3512SOL    HW122169   4.582   0.181   1.464  2.7477 -0.1422  1.7936
 3512SOL    HW222170   4.514   0.311   1.471  0.1735 -0.4192 -1.9070
 3513SOL     OW22171   1.236   0.586  15.741 -0.0471 -0.0427 -0.2961
 3513SOL    HW122172   1.285   0.506  15.720  2.3528  1.2572  0.3537
 3513SOL    HW222173   1.285   0.632  15.809  1.2026 -0.9582 -0.5683
 3514SOL     OW22174   4.445   0.920  10.292 -0.1924 -0.2924 -0.1499
 3514SOL    HW122175   4.415   0.890  10.378 -1.5621 -1.2439 -0.9405
 3514SOL    HW222176   4.534   0.886  10.284  0.4776  1.3150  0.5300
 3515SOL     OW22177   4.240   0.407  16.233 -0.0793 -0.6382 -0.0074
 3515SOL    HW122178   4.165   0.396  16.292 -0.9848  1.3447 -0.7658
 3515SOL    HW222179   4.282   0.322  16.239  1.7038  0.3822  1.9902
 3516SOL     OW22180   4.049   4.621   5.508  0.3410  0.2787  0.4253
 3516SOL    HW122181   4.092   4.673   5.440  0.9067 -0.2954  0.3367
 3516SOL    HW222182   4.129   4.610   5.560 -0.5589 -2.0339  1.3131
 3517SOL     OW22183   0.317   4.002  14.035 -0.5040 -0.1800 -0.1209
 3517SOL    HW122184   0.357   4.031  14.118 -1.2232  0.1277  0.1199
 3517SOL    HW222185   0.383   4.034  13.974 -0.5572  1.4611  0.6794
 3518SOL     OW22186   1.437   1.023   4.124 -0.9184 -0.3794 -0.4643
 3518SOL    HW122187   1.452   1.095   4.063 -3.2341  0.5610  0.0614
 3518SOL    HW222188   1.421   0.945   4.071 -0.1230  0.0569 -1.3505
 3519SOL     OW22189   2.446   2.396   8.874  0.3585  0.8964  0.1170
 3519SOL    HW122190   2.367   2.402   8.820  0.2176  0.7603  0.3071
 3519SOL    HW222191   2.427   2.456   8.946 -2.0738 -0.1820  0.3864
 3520SOL     OW22192   2.464   4.151  17.247  0.3142 -0.0752  0.5694
 3520SOL    HW122193   2.543   4.115  17.206 -0.1823 -2.6938  1.8823
 3520SOL    HW222194   2.492   4.173  17.335  1.1288  0.7874  0.0968
 3521SOL     OW22195   0.727   3.998   6.430 -0.2764 -0.1808 -0.2424
 3521SOL    HW122196   0.781   3.972   6.356 -1.0777  0.2167 -0.9712
 3521SOL    HW222197   0.776   3.989   6.512 -2.8915 -0.8420  1.2426
 3522SOL     OW22198   3.818   1.251   9.262  0.0533 -0.2376 -1.3180
 3522SOL    HW122199   3.773   1.168   9.275  1.4255 -0.8615 -0.5757
 3522SOL    HW222200   3.775   1.290   9.186 -3.5083 -2.3054 -0.3570
 3523SOL     OW22201   0.246   2.905   9.567  0.3853  0.1290  0.3843
 3523SOL    HW122202   0.246   2.949   9.482  0.2212 -0.8184 -0.1036
 3523SOL    HW222203   0.297   2.828   9.540  2.2255  0.7020  2.2329
 3524SOL     OW22204   0.379   0.001   3.709 -0.2082  0.4212  0.3724
 3524SOL    HW122205   0.396   4.722   3.616  1.2719  3.3045  0.1374
 3524SOL    HW222206   0.424   0.084   3.728  2.0770 -0.6035 -0.6788
 3525SOL     OW22207   4.495   0.323   8.388  0.0977  0.0099  0.0914
 3525SOL    HW122208   4.485   0.417   8.404 -0.7383 -0.0501 -0.1100
 3525SOL    HW222209   4.406   0.298   8.411 -1.2773  3.2137 -1.7462
 3526SOL     OW22210   2.639   1.302   2.899 -0.4259 -0.4808 -0.3618
 3526SOL    HW122211   2.701   1.369   2.871 -0.9455  0.1183 -0.0648
 3526SOL    HW222212   2.624   1.334   2.988 -0.9540  0.9405 -0.9759
 3527SOL     OW22213   4.487   4.065   9.005 -0.3780 -0.3890 -0.1063
 3527SOL    HW122214   4.580   4.043   8.998 -0.1632  0.6216 -0.4297
 3527SOL    HW222215   4.489   4.079   9.099  0.6930 -0.7174 -0.0759
 3528SOL     OW22216   4.106   1.601   5.137 -0.4021  0.3008 -0.1248
 3528SOL    HW122217   4.033   1.659   5.117  0.2765  1.6201  1.2179
 3528SOL    HW222218   4.141   1.636   5.219 -1.8664 -2.0447  1.4869
 3529SOL     OW22219   2.863   1.644   1.778 -0.0282  0.0592  0.0200
 3529SOL    HW122220   2.879   1.552   1.758  0.9960  0.7329 -2.2289
 3529SOL    HW222221   2.779   1.663   1.736 -0.7139 -0.3009  1.2143
 3530SOL     OW22222   1.195   2.852   4.298 -0.2426  0.2765  0.2871
 3530SOL    HW122223   1.231   2.813   4.219  0.2170 -0.4102  0.8354
 3530SOL    HW222224   1.244   2.935   4.307  0.3857  0.0668 -1.2375
 3531SOL     OW22225   4.179   4.570   8.700 -0.0826  0.3005  0.1412
 3531SOL    HW122226   4.168   4.628   8.624  2.4310 -1.6896 -1.7513
 3531SOL    HW222227   4.166   4.631   8.772  1.4475  1.1640 -0.3243
 3532SOL     OW22228   0.236   0.421   4.301 -0.0718 -0.2249  0.1891
 3532SOL    HW122229   0.206   0.355   4.238 -0.6271  1.4334 -1.2888
 3532SOL    HW222230   0.243   0.366   4.380  0.5595 -0.4029  0.0063
 3533SOL     OW22231   4.489   2.002   3.498  0.2035  0.6351  0.9625
 3533SOL    HW122232   4.481   2.083   3.447  2.4227  0.0810 -0.2839
 3533SOL    HW222233   4.514   2.031   3.585  0.9758  0.6645  0.7302
 3534SOL     OW22234   4.517   1.476   8.218  0.5435 -0.1748 -0.1438
 3534SOL    HW122235   4.589   1.493   8.157  2.4830 -1.3455  1.8557
 3534SOL    HW222236   4.535   1.527   8.297 -1.1341  2.4884 -1.4667
 3535SOL     OW22237   4.299   0.695   4.995  0.0095 -0.2291  0.5699
 3535SOL    HW122238   4.320   0.618   5.046 -1.7950 -1.8910 -1.1758
 3535SOL    HW222239   4.203   0.695   5.001 -0.2111 -1.4864 -2.8130
 3536SOL     OW22240   4.322   2.278   6.612  0.0319 -0.7702  0.4650
 3536SOL    HW122241   4.405   2.289   6.658  0.1433  0.0827  0.0441
 3536SOL    HW222242   4.342   2.225   6.535  2.0740 -0.1940  0.6091
 3537SOL     OW22243   4.048   0.159  11.278 -0.4025 -0.5175  0.4489
 3537SOL    HW122244   4.060   0.086  11.340  1.1926  0.8769  1.7714
 3537SOL    HW222245   4.129   0.209  11.289 -0.3073 -0.7040  0.6148
 3538SOL     OW22246   0.651   2.200   5.371  0.0968  0.7237  0.3037
 3538SOL    HW122247   0.619   2.221   5.283 -0.6564 -0.5827  0.2660
 3538SOL    HW222248   0.703   2.127   5.338  0.2032  1.5036 -1.2364
 3539SOL     OW22249   3.385   4.027   4.390  0.1729 -0.0987 -0.2962
 3539SOL    HW122250   3.402   4.113   4.428  1.0591  0.1352 -1.1908
 3539SOL    HW222251   3.451   3.990   4.449  0.0715  0.2854  0.0512
 3540SOL     OW22252   2.876   4.333   4.132 -0.6271  0.8223  0.0213
 3540SOL    HW122253   2.830   4.250   4.143  2.1656 -0.4809  1.7817
 3540SOL    HW222254   2.966   4.309   4.112 -1.2793 -1.6849  0.1507
 3541SOL     OW22255   1.333   0.350   4.965 -0.0563 -0.1518  0.3490
 3541SOL    HW122256   1.294   0.305   5.040  0.1485 -2.8377 -1.1621
 3541SOL    HW222257   1.414   0.382   5.004  0.4051 -0.8054 -0.0634
 3542SOL     OW22258   1.993   2.298   3.105  0.4216 -0.1642  0.1130
 3542SOL    HW122259   2.032   2.374   3.062 -0.1287  1.0152  1.7031
 3542SOL    HW222260   1.917   2.276   3.051  0.6725  0.5378 -0.5202
 3543SOL     OW22261   2.407   0.833   3.793 -0.4339  0.4372 -0.6201
 3543SOL    HW122262   2.449   0.771   3.733 -0.4302 -1.0728  0.9273
 3543SOL    HW222263   2.345   0.889   3.746 -0.2961 -0.0966 -1.4291
 3544SOL     OW22264   1.110   2.814   9.744 -0.2387  0.0603 -0.1060
 3544SOL    HW122265   1.165   2.736   9.735  1.4347  0.9755  2.1376
 3544SOL    HW222266   1.129   2.859   9.662  1.3171 -1.8114 -0.7767
 3545SOL     OW22267   4.046   3.406   7.579  0.5142 -0.6353 -0.0016
 3545SOL    HW122268   4.125   3.451   7.607 -0.0535 -0.0435  0.6304
 3545SOL    HW222269   4.071   3.392   7.487 -0.7295 -0.7013 -0.3335
 3546SOL     OW22270   3.362   0.648   7.187 -0.3196 -0.2785  0.2131
 3546SOL    HW122271   3.334   0.681   7.102  1.1799 -0.3511 -0.3047
 3546SOL    HW222272   3.299   0.699   7.240 -1.2152  0.3344 -1.4511
 3547SOL     OW22273   2.245   3.947   6.812  0.1654 -0.2664  0.1539
 3547SOL    HW122274   2.211   3.885   6.877 -0.3817  1.7069  1.7450
 3547SOL    HW222275   2.163   3.943   6.763 -0.9179 -0.6183  1.9706
 3548SOL     OW22276   0.606   0.135   6.909 -0.1690  0.1188 -0.2019
 3548SOL    HW122277   0.654   0.052   6.911  1.4215  0.9921 -2.0489
 3548SOL    HW222278   0.609   0.164   7.000 -3.4465  2.5997 -0.8816
 3549SOL     OW22279   3.774   2.499   3.787  0.3086 -0.3859  0.0568
 3549SOL    HW122280   3.760   2.594   3.799  2.4635 -0.1204  0.4468
 3549SOL    HW222281   3.867   2.505   3.805  0.1005  1.4228  0.5950
 3550SOL     OW22282   1.358   3.396   8.585 -0.1623 -0.2191 -0.2337
 3550SOL    HW122283   1.294   3.447   8.536  0.6246  1.2892  0.3129
 3550SOL    HW222284   1.352   3.322   8.524 -0.8921 -0.2116 -0.1679
 3551SOL     OW22285   4.645   0.365   3.887 -0.1094 -0.3999 -0.1033
 3551SOL    HW122286   0.002   0.356   3.902 -0.3151  0.0914  1.5415
 3551SOL    HW222287   4.656   0.422   3.811 -0.9948  2.7972  2.1755
 3552SOL     OW22288   1.513   1.248   7.528  0.8162 -0.5067 -0.2678
 3552SOL    HW122289   1.606   1.228   7.515  0.3757 -1.9006 -1.2881
 3552SOL    HW222290   1.499   1.214   7.616 -0.1226  0.2780 -0.1065
 3553SOL     OW22291   2.713   2.015   0.216 -0.6423 -0.0838  0.2571
 3553SOL    HW122292   2.702   2.054   0.130 -2.0952 -0.9369  0.0555
 3553SOL    HW222293   2.710   2.098   0.263 -1.8272  0.6270 -1.0653
 3554SOL     OW22294   1.806   1.133   8.797 -0.0864 -0.3733  0.1712
 3554SOL    HW122295   1.767   1.048   8.775  0.7563 -0.3654 -1.3922
 3554SOL    HW222296   1.747   1.174   8.859 -0.3330 -0.2457 -0.1489
 3555SOL     OW22297   4.636   0.824   8.595  0.5156 -0.2608 -0.4468
 3555SOL    HW122298   4.632   0.737   8.635  3.1055 -0.5561 -0.8519
 3555SOL    HW222299   4.721   0.824   8.551 -0.4607 -0.4825 -2.3363
 3556SOL     OW22300   3.045   4.562   2.182  0.0511  0.0478 -0.2890
 3556SOL    HW122301   3.095   4.643   2.190 -0.3138  0.2255  0.1654
 3556SOL    HW222302   3.021   4.569   2.089  0.5494 -0.4967 -0.4589
 3557SOL     OW22303   1.408   4.214  16.427 -0.4306 -0.2215  0.3375
 3557SOL    HW122304   1.410   4.174  16.514 -0.4547 -1.7153 -0.3444
 3557SOL    HW222305   1.322   4.254  16.440  0.5564  1.3147  2.1810
 3558SOL     OW22306   3.243   2.555   5.775  0.0680 -0.1571 -0.5441
 3558SOL    HW122307   3.254   2.461   5.761 -0.4265 -0.2927 -0.0231
 3558SOL    HW222308   3.156   2.566   5.735  0.2059  2.5675 -0.0437
 3559SOL     OW22309   3.024   4.307   2.690  0.0171  0.0024 -0.4078
 3559SOL    HW122310   3.003   4.362   2.615 -0.0755  1.3569  0.6187
 3559SOL    HW222311   2.937   4.277   2.714  0.2256  0.3274  0.7173
 3560SOL     OW22312   1.952   4.424   3.457 -0.3043 -0.0721  0.1295
 3560SOL    HW122313   1.908   4.467   3.530 -1.3088 -0.9696  0.0487
 3560SOL    HW222314   1.927   4.469   3.377  0.6703 -0.8237 -0.6002
 3561SOL     OW22315   0.285   1.654  16.517 -0.3618  0.4685 -0.2041
 3561SOL    HW122316   0.230   1.621  16.446 -1.3129 -0.0515  0.7667
 3561SOL    HW222317   0.255   1.743  16.536 -0.0053  0.6599 -0.5507
 3562SOL     OW22318   4.660   2.136   6.199 -0.0735  0.5846  0.0383
 3562SOL    HW122319   4.617   2.165   6.119 -1.0738  0.4284  0.5170
 3562SOL    HW222320   0.006   2.093   6.182  0.2556  2.5320 -3.2005
 3563SOL     OW22321   1.128   4.050  14.273  0.4609 -0.2596 -0.4668
 3563SOL    HW122322   1.071   4.080  14.203 -1.3451  1.7423  1.8661
 3563SOL    HW222323   1.073   4.056  14.351  2.5845  0.8562  0.9471
 3564SOL     OW22324   2.508   2.258   0.814  0.3908  0.1336 -0.2749
 3564SOL    HW122325   2.440   2.271   0.748  1.9649  0.2026 -1.9018
 3564SOL    HW222326   2.465   2.303   0.886 -1.1475 -0.3765 -0.8750
 3565SOL     OW22327   4.307   1.924   9.376 -0.9832  0.0823  0.0689
 3565SOL    HW122328   4.221   1.883   9.363 -0.7907 -1.1043  2.4531
 3565SOL    HW222329   4.309   1.932   9.471 -1.0417  1.3930 -0.0473
 3566SOL     OW22330   3.247   0.929   5.451  0.9943 -0.6244  0.3220
 3566SOL    HW122331   3.245   0.906   5.358 -0.8420 -1.7041  0.6446
 3566SOL    HW222332   3.200   1.012   5.460 -2.2203 -2.4834  0.3140
 3567SOL     OW22333   0.839   3.839   8.530  0.0479 -0.2436 -0.7103
 3567SOL    HW122334   0.850   3.898   8.456  3.2759 -1.8703 -1.5556
 3567SOL    HW222335   0.899   3.767   8.510 -0.5314 -0.3188 -2.1600
 3568SOL     OW22336   2.474   1.909   2.009 -0.0458 -0.1878 -0.2468
 3568SOL    HW122337   2.431   1.918   2.094  0.4609  1.3675 -0.1548
 3568SOL    HW222338   2.430   1.982   1.966 -1.9153 -0.9546  0.3778
 3569SOL     OW22339   0.839   3.932   6.202  0.4097  0.0179  0.0470
 3569SOL    HW122340   0.830   3.967   6.113 -1.2609 -2.1694 -0.6402
 3569SOL    HW222341   0.820   3.841   6.180  0.4063  0.2397 -0.8766
 3570SOL     OW22342   1.759   2.209  10.398  0.1394 -0.0523 -0.1638
 3570SOL    HW122343   1.796   2.246  10.318 -0.2578  0.0663 -0.2962
 3570SOL    HW222344   1.835   2.206  10.455 -0.2861 -1.1151  0.3339
 3571SOL     OW22345   0.337   0.211   7.667 -0.5653  0.1956  0.6938
 3571SOL    HW122346   0.318   0.140   7.728  0.6617 -1.6977 -1.1390
 3571SOL    HW222347   0.298   0.278   7.723  2.1263  2.6493 -0.3329
 3572SOL     OW22348   4.619   1.659  14.854  0.5096 -0.0625  0.1212
 3572SOL    HW122349   4.542   1.642  14.909  0.6307  0.1771  0.3664
 3572SOL    HW222350   4.642   1.741  14.897  0.3844 -0.7873  1.6099
 3573SOL     OW22351   1.362   0.235   0.563  0.3280 -0.1407 -0.5280
 3573SOL    HW122352   1.427   0.206   0.627  0.7972 -3.3265 -2.4371
 3573SOL    HW222353   1.370   0.329   0.581 -0.4657 -0.2801  0.4806
 3574SOL     OW22354   3.186   3.198  16.984  0.5394 -0.2984 -0.4089
 3574SOL    HW122355   3.237   3.241  17.053  0.3009 -1.6973  0.6363
 3574SOL    HW222356   3.104   3.243  16.968  1.0369  0.8958  0.4253
 3575SOL     OW22357   3.653   3.221   7.759  0.2823 -0.1904 -0.1644
 3575SOL    HW122358   3.580   3.236   7.698  0.5153 -1.4163 -0.7493
 3575SOL    HW222359   3.606   3.211   7.842 -0.5334 -1.7709 -0.8026
 3576SOL     OW22360   2.662   1.390   7.422  0.3650  0.2752 -0.1646
 3576SOL    HW122361   2.721   1.342   7.480  0.0270  2.7545  2.1859
 3576SOL    HW222362   2.724   1.428   7.360  1.0361 -0.0359  0.3213
 3577SOL     OW22363   3.597   1.042   5.792 -0.1571  0.0301  0.4274
 3577SOL    HW122364   3.622   1.113   5.733  0.0234  0.9178  1.5649
 3577SOL    HW222365   3.671   0.981   5.782 -1.4179 -1.5629  0.8433
 3578SOL     OW22366   2.415   0.786   3.378 -0.1385 -0.5428 -0.3380
 3578SOL    HW122367   2.350   0.724   3.346 -2.3530  0.2950  2.5549
 3578SOL    HW222368   2.364   0.867   3.378  0.6027 -0.0763  3.0843
 3579SOL     OW22369   3.199   0.557   5.422  0.2608 -0.0826 -0.7178
 3579SOL    HW122370   3.120   0.548   5.476  0.0523 -0.8165 -1.1511
 3579SOL    HW222371   3.268   0.522   5.478 -2.0143  0.5091  2.4995
 3580SOL     OW22372   1.169   1.233   5.848 -0.4080 -0.3918 -0.4394
 3580SOL    HW122373   1.216   1.314   5.869  0.0105 -1.5043  2.9339
 3580SOL    HW222374   1.143   1.200   5.934  2.0415 -1.8587 -0.2628
 3581SOL     OW22375   0.716   2.937   8.264  0.6987  0.0385  0.2686
 3581SOL    HW122376   0.795   2.888   8.241 -0.6321 -1.3670 -1.3401
 3581SOL    HW222377   0.682   2.885   8.336 -0.2826 -1.1233 -1.0393
 3582SOL     OW22378   1.936   4.287  12.810  0.3632  0.0740 -0.1366
 3582SOL    HW122379   1.916   4.307  12.719  0.3098  0.7277  0.0158
 3582SOL    HW222380   2.028   4.313  12.819 -0.5645  3.0945  0.6320
 3583SOL     OW22381   2.088   1.846  11.885  0.1966  0.2440 -0.2493
 3583SOL    HW122382   2.085   1.776  11.950  1.0444  1.9005  1.5926
 3583SOL    HW222383   1.996   1.836  11.861  0.9468 -1.6605 -2.4222
 3584SOL     OW22384   1.147   4.658  11.204  0.6195 -0.3806  0.6112
 3584SOL    HW122385   1.062   4.700  11.218  0.7451  0.9187 -2.5183
 3584SOL    HW222386   1.161   4.672  11.110 -0.1583 -0.9370  0.4179
 3585SOL     OW22387   1.469   4.101   5.178  0.0068 -0.1398 -0.6562
 3585SOL    HW122388   1.529   4.033   5.147  2.4165  1.5311  0.4163
 3585SOL    HW222389   1.518   4.131   5.254  1.6427  2.7500 -2.8699
 3586SOL     OW22390   0.428   0.266   5.814 -0.3364 -0.5982  0.5233
 3586SOL    HW122391   0.432   0.361   5.811 -0.0437 -0.6698 -1.3656
 3586SOL    HW222392   0.384   0.256   5.898 -0.7659 -0.3052  0.3289
 3587SOL     OW22393   3.303   4.630   2.308  0.0850  0.1406 -0.1135
 3587SOL    HW122394   3.293   4.538   2.281  1.8833 -0.0525 -0.0814
 3587SOL    HW222395   3.269   4.677   2.232  2.1865  0.4169 -0.8601
 3588SOL     OW22396   0.928   2.544   5.715 -0.0354  0.6591 -0.1912
 3588SOL    HW122397   0.990   2.583   5.653 -0.1505  0.7941 -0.2196
 3588SOL    HW222398   0.877   2.485   5.660  1.7902 -0.5787 -0.5640
 3589SOL     OW22399   3.714   0.172  15.786  0.1827 -0.0210 -0.0099
 3589SOL    HW122400   3.780   0.129  15.840  1.7660  1.0220 -1.1032
 3589SOL    HW222401   3.638   0.113  15.787 -0.3524  0.6948  1.5664
 3590SOL     OW22402   1.584   4.419   7.262  0.0412  0.2831  0.0634
 3590SOL    HW122403   1.607   4.512   7.260  1.3641 -0.0495 -0.3652
 3590SOL    HW222404   1.509   4.426   7.204 -1.8968 -0.2485  2.5288
 3591SOL     OW22405   0.629   0.401   3.661 -0.0118  0.0998 -0.0842
 3591SOL    HW122406   0.719   0.380   3.684  0.5936  1.9562 -0.7673
 3591SOL    HW222407   0.609   0.364   3.575  0.9576 -0.8432  0.0914
 3592SOL     OW22408   3.035   0.898   8.898  0.0490  0.2929  0.0997
 3592SOL    HW122409   3.082   0.981   8.888  0.5687 -0.1767 -1.3460
 3592SOL    HW222410   3.079   0.877   8.980  0.8489  1.4032 -0.0447
 3593SOL     OW22411   1.397   1.728   1.249  0.1798 -0.0001  0.1060
 3593SOL    HW122412   1.385   1.823   1.252  3.8519  0.5297 -2.4543
 3593SOL    HW222413   1.373   1.717   1.341 -0.9064  3.4116  0.2309
 3594SOL     OW22414   1.549   2.217   2.993 -0.1309  0.1344 -0.3860
 3594SOL    HW122415   1.567   2.155   3.063 -2.5186 -0.9985 -0.7953
 3594SOL    HW222416   1.640   2.225   2.963 -0.1422 -0.3917 -0.5663
 3595SOL     OW22417   2.976   2.889   9.814 -0.2016 -0.3750 -0.6666
 3595SOL    HW122418   3.050   2.906   9.872 -1.0902  0.1372  0.3136
 3595SOL    HW222419   2.904   2.927   9.865  1.5364  1.6618  0.2435
 3596SOL     OW22420   2.878   2.482  17.488 -1.0573  0.5465 -0.0260
 3596SOL    HW122421   2.838   2.558  17.529 -0.0191  0.3003  1.4555
 3596SOL    HW222422   2.885   2.516  17.399  1.6125  1.7053  0.6168
 3597SOL     OW22423   0.177   0.324   7.829  0.5156  0.3441 -0.5337
 3597SOL    HW122424   0.113   0.258   7.803  2.4521 -1.5599 -0.5097
 3597SOL    HW222425   0.125   0.393   7.870 -0.5180 -1.1478  0.6690
 3598SOL     OW22426   4.239   1.757   8.836 -0.0118  0.4876 -0.7495
 3598SOL    HW122427   4.240   1.730   8.928 -2.0140 -0.6277 -1.0481
 3598SOL    HW222428   4.213   1.672   8.800  0.3906 -0.4654  1.2647
 3599SOL     OW22429   3.614   3.393   4.271 -0.3987 -0.2146 -0.1246
 3599SOL    HW122430   3.535   3.341   4.257 -0.7197  0.0137  0.7920
 3599SOL    HW222431   3.652   3.406   4.185  1.3473  1.6960  0.9344
 3600SOL     OW22432   2.403   2.130   6.129 -0.3765 -0.2340 -0.5766
 3600SOL    HW122433   2.469   2.173   6.182  0.8657 -1.7869 -0.8670
 3600SOL    HW222434   2.447   2.057   6.085 -0.1881 -0.6671  0.3515
 3601SOL     OW22435   1.823   0.755  17.740  0.1365  0.3981  0.6010
 3601SOL    HW122436   1.749   0.780  17.684  0.7539  0.8015 -0.0362
 3601SOL    HW222437   1.821   0.661  17.720  1.6150  0.5172 -0.1006
 3602SOL     OW22438   4.720   0.951   8.130 -0.0589 -0.3176  0.0004
 3602SOL    HW122439   0.038   0.908   8.065  1.5631  0.8585  0.6216
 3602SOL    HW222440   4.637   0.940   8.083 -0.7379  1.6036  0.7536
 3603SOL     OW22441   1.620   2.921   3.825  0.7005  0.3630 -0.2762
 3603SOL    HW122442   1.572   2.920   3.742 -1.7912  1.2108  1.1331
 3603SOL    HW222443   1.595   2.841   3.871 -1.6315  1.7595  0.8821
 3604SOL     OW22444   2.899   1.928   5.498  0.0911 -0.6569 -0.0891
 3604SOL    HW122445   2.804   1.921   5.509  0.3271  0.1011  2.3069
 3604SOL    HW222446   2.935   1.909   5.585  1.7028  0.1980 -0.5735
 3605SOL     OW22447   1.962   1.886  14.650  0.5292  0.1931 -0.4973
 3605SOL    HW122448   1.894   1.904  14.586  1.4660  2.4160 -0.8611
 3605SOL    HW222449   1.914   1.905  14.731  1.8095  0.5606  0.1792
 3606SOL     OW22450   1.826   2.816   0.319  0.8135  0.3241  0.0359
 3606SOL    HW122451   1.841   2.733   0.365  1.4610  0.7660  0.6023
 3606SOL    HW222452   1.842   2.790   0.228 -0.4388 -1.2315  0.2579
 3607SOL     OW22453   3.260   1.888  17.585  0.3032 -0.2707 -0.0007
 3607SOL    HW122454   3.236   1.922  17.499 -0.7025  0.5933  0.6167
 3607SOL    HW222455   3.196   1.819  17.602  0.5641 -0.4176  0.3758
 3608SOL     OW22456   2.210   1.615   8.581  0.4051  0.4898  0.1215
 3608SOL    HW122457   2.229   1.707   8.599  4.0088  0.2275 -2.3138
 3608SOL    HW222458   2.285   1.590   8.528  0.2440  2.3656 -0.9673
 3609SOL     OW22459   1.398   3.972   5.796  0.2805  0.0733 -0.6488
 3609SOL    HW122460   1.481   3.991   5.753  1.7968 -2.1897  1.2931
 3609SOL    HW222461   1.349   4.034   5.743 -2.1681 -2.2017 -1.0600
 3610SOL     OW22462   0.401   1.063   9.648  0.5189  0.8068 -0.5173
 3610SOL    HW122463   0.344   1.124   9.600  1.8692  0.9557 -1.9264
 3610SOL    HW222464   0.346   1.045   9.724  1.0195  0.0107 -0.3463
 3611SOL     OW22465   3.148   4.036   2.954  0.6517  0.3198 -0.2880
 3611SOL    HW122466   3.192   4.096   2.893  0.5388  0.7194  0.0259
 3611SOL    HW222467   3.214   4.019   3.021  2.0210 -0.7474 -1.9181
 3612SOL     OW22468   0.910   1.268  16.044  0.1368  0.0730 -0.3478
 3612SOL    HW122469   0.875   1.203  15.983 -0.5805  1.3947 -1.3466
 3612SOL    HW222470   1.003   1.248  16.044  0.3556  1.0998 -0.1696
 3613SOL     OW22471   0.193   3.722   1.148 -0.5840 -0.7093 -0.3027
 3613SOL    HW122472   0.135   3.655   1.112 -0.3326 -0.6363 -0.8510
 3613SOL    HW222473   0.186   3.794   1.085  0.6334 -0.8161 -0.5579
 3614SOL     OW22474   0.243   0.485   4.678  0.4162  0.4002 -0.0590
 3614SOL    HW122475   0.160   0.515   4.640 -0.3515 -1.6173  0.0288
 3614SOL    HW222476   0.248   0.405   4.626 -0.7524  0.0368  0.3859
 3615SOL     OW22477   1.397   2.602  12.357  0.1675 -0.1391  0.0048
 3615SOL    HW122478   1.412   2.546  12.281  0.8269  0.4643 -0.3114
 3615SOL    HW222479   1.304   2.619  12.343  1.0933  4.9302 -0.0403
 3616SOL     OW22480   0.299   1.218   3.795  0.1492  0.1779  0.1204
 3616SOL    HW122481   0.273   1.155   3.863 -1.6104  1.3468  0.5367
 3616SOL    HW222482   0.372   1.166   3.762  0.0736  0.6594 -0.7807
 3617SOL     OW22483   4.384   0.336  13.782  0.3392 -0.4726  0.0212
 3617SOL    HW122484   4.398   0.348  13.876  1.6057 -0.9602 -0.0984
 3617SOL    HW222485   4.340   0.251  13.782 -1.4924  0.4956 -0.7972
 3618SOL     OW22486   1.551   3.091   8.949  0.2287 -0.0810 -0.2688
 3618SOL    HW122487   1.555   3.134   8.864  0.6957  2.5614  1.0974
 3618SOL    HW222488   1.529   2.999   8.935 -0.1691  0.4288 -2.9914
 3619SOL     OW22489   4.472   2.144   5.398 -0.2033  0.0228 -0.0548
 3619SOL    HW122490   4.490   2.232   5.431 -0.9618  0.3731 -0.5851
 3619SOL    HW222491   4.399   2.166   5.340 -0.7499  1.2022  1.1057
 3620SOL     OW22492   3.052   1.591   4.182  0.2678  0.2052  0.3428
 3620SOL    HW122493   2.988   1.658   4.155  0.2710  0.2910  0.5444
 3620SOL    HW222494   3.135   1.638   4.186 -0.7749  2.4203 -3.3010
 3621SOL     OW22495   2.204   1.227   6.942 -0.4149  0.5427  0.0649
 3621SOL    HW122496   2.291   1.188   6.950 -0.2537  1.3048  1.9752
 3621SOL    HW222497   2.157   1.170   6.881 -1.6071  0.6279  0.8970
 3622SOL     OW22498   4.125   0.216   9.129 -0.2623  0.1786  0.4815
 3622SOL    HW122499   4.146   0.307   9.151  2.1579 -0.7005  1.8715
 3622SOL    HW222500   4.209   0.184   9.097  0.1182  1.1296  0.5106
 3623SOL     OW22501   0.915   3.996   7.518  0.6518 -0.0326 -0.2177
 3623SOL    HW122502   0.955   4.061   7.460  0.0265  0.3575 -0.2169
 3623SOL    HW222503   0.947   4.022   7.604 -1.0005 -1.8471  0.9690
 3624SOL     OW22504   0.878   2.693   1.719  0.8582  0.1387 -0.2718
 3624SOL    HW122505   0.898   2.757   1.650 -1.2968 -1.1633 -2.1241
 3624SOL    HW222506   0.866   2.754   1.791 -2.4119 -1.2831  0.3756
 3625SOL     OW22507   3.694   4.020   4.890  0.2126  0.3254 -0.2504
 3625SOL    HW122508   3.629   4.081   4.925 -0.8557 -1.4900  0.9086
 3625SOL    HW222509   3.769   4.075   4.911  0.3086 -0.1462  0.6344
 3626SOL     OW22510   0.286   2.247   7.107  0.6497 -0.1297 -0.1194
 3626SOL    HW122511   0.339   2.172   7.080  0.6696  0.1645 -0.9064
 3626SOL    HW222512   0.210   2.193   7.129 -0.6538  0.6558 -2.7129
 3627SOL     OW22513   2.525   2.377  16.690 -0.0381  0.1843 -0.4258
 3627SOL    HW122514   2.605   2.408  16.648 -0.8139  1.6243 -0.8339
 3627SOL    HW222515   2.520   2.287  16.657  0.3118 -0.3323  0.9309
 3628SOL     OW22516   0.895   2.477   2.922  0.0741  0.5300  0.1558
 3628SOL    HW122517   0.960   2.482   2.851  1.4643 -0.3271  1.3580
 3628SOL    HW222518   0.936   2.428   2.993 -0.4495  0.3070  0.3041
 3629SOL     OW22519   2.585   1.759   6.643 -0.5686 -0.2050  0.3881
 3629SOL    HW122520   2.619   1.722   6.725  2.4589  0.6724 -0.5020
 3629SOL    HW222521   2.591   1.853   6.664  0.8370 -0.2922  0.3316
 3630SOL     OW22522   3.672   0.791   2.903 -0.2667  0.0562 -0.1272
 3630SOL    HW122523   3.650   0.827   2.988  2.5345  2.2619 -0.3343
 3630SOL    HW222524   3.766   0.803   2.889 -0.7182  0.7827 -2.6568
 3631SOL     OW22525   1.092   1.341   4.156  0.0634  0.4289  0.1653
 3631SOL    HW122526   1.185   1.342   4.178 -0.2770  2.6419  1.4980
 3631SOL    HW222527   1.091   1.305   4.068 -2.4553  0.2143  0.2814
 3632SOL     OW22528   3.406   3.469  12.074 -0.4883  0.4701 -0.1155
 3632SOL    HW122529   3.381   3.436  11.987  0.3339  1.7621 -0.8336
 3632SOL    HW222530   3.478   3.410  12.096  0.5396  0.0209 -4.6966
 3633SOL     OW22531   0.293   4.269   8.042 -0.3120  0.2115  0.1992
 3633SOL    HW122532   0.286   4.349   8.094 -0.4829  1.2569 -1.4283
 3633SOL    HW222533   0.386   4.247   8.044 -0.9917 -2.4632  2.5137
 3634SOL     OW22534   3.756   0.896   9.926 -0.7337 -0.2722  0.2132
 3634SOL    HW122535   3.684   0.879   9.986 -1.0991 -2.3929 -0.8108
 3634SOL    HW222536   3.828   0.903   9.988  1.7829  0.6069 -2.7780
 3635SOL     OW22537   3.711   3.387   8.364  0.2081 -0.5266 -0.4592
 3635SOL    HW122538   3.643   3.434   8.316  3.0587  0.2677 -3.7149
 3635SOL    HW222539   3.694   3.427   8.450 -0.3345 -1.4090 -0.1577
 3636SOL     OW22540   4.440   4.320   2.874 -1.3968 -0.5259 -0.2684
 3636SOL    HW122541   4.440   4.407   2.915 -1.1537 -0.5779 -0.1567
 3636SOL    HW222542   4.516   4.334   2.818  0.8425 -1.4102  2.5323
 3637SOL     OW22543   1.638   1.841   9.777 -0.0608 -0.6000  0.0424
 3637SOL    HW122544   1.550   1.802   9.769 -0.0545 -0.7540  0.7569
 3637SOL    HW222545   1.652   1.856   9.870 -0.6093  1.6218 -0.2395
 3638SOL     OW22546   3.346   0.561   2.382 -0.4303  0.0162 -0.3243
 3638SOL    HW122547   3.268   0.609   2.356 -0.7365  0.4343  1.3340
 3638SOL    HW222548   3.403   0.636   2.401 -1.6182  0.3805  1.8586
 3639SOL     OW22549   2.971   1.994   3.808  0.1706  0.1614  0.0270
 3639SOL    HW122550   3.058   2.033   3.793 -0.6894  1.2432 -2.1048
 3639SOL    HW222551   2.984   1.947   3.890  0.1872 -1.6240 -0.9896
 3640SOL     OW22552   0.506   1.042   8.781 -0.7913 -0.1546  0.3653
 3640SOL    HW122553   0.455   0.999   8.850 -0.6484  1.3522  1.4300
 3640SOL    HW222554   0.574   1.083   8.836  2.8349  1.2200 -5.1611
 3641SOL     OW22555   3.908   4.215   6.496  0.0568  0.5213  0.3837
 3641SOL    HW122556   3.860   4.176   6.422  1.4718 -0.5991  0.0693
 3641SOL    HW222557   3.983   4.156   6.500 -1.3353 -1.3303 -0.6335
 3642SOL     OW22558   1.822   1.094   4.659 -0.4405  0.2229 -0.1421
 3642SOL    HW122559   1.871   1.035   4.601  0.9686 -1.9797  3.3471
 3642SOL    HW222560   1.833   1.045   4.740  0.1720 -0.6349 -0.7426
 3643SOL     OW22561   2.139   2.420   7.231 -0.0347  0.0580 -0.2395
 3643SOL    HW122562   2.208   2.455   7.288  0.9632  0.3921 -1.6627
 3643SOL    HW222563   2.143   2.487   7.163 -1.4610  1.7123  1.3194
 3644SOL     OW22564   4.067   4.304  10.934  0.0470  0.1148 -0.3623
 3644SOL    HW122565   4.074   4.350  10.850 -0.6143 -0.8867 -0.9636
 3644SOL    HW222566   4.156   4.304  10.971 -0.4198  2.4260  0.7505
 3645SOL     OW22567   2.645   2.518   6.950  0.5576  0.2033 -0.0270
 3645SOL    HW122568   2.697   2.439   6.936  1.7873  1.0878 -0.4632
 3645SOL    HW222569   2.593   2.494   7.027 -1.1222  0.7424 -0.9895
 3646SOL     OW22570   1.662   3.862  11.173  0.1814  0.5142  0.0384
 3646SOL    HW122571   1.655   3.825  11.261 -0.8221  0.1552 -0.1921
 3646SOL    HW222572   1.569   3.859  11.151  0.0061 -0.1690  0.8501
 3647SOL     OW22573   1.798   2.980   6.232  0.8596  0.0287  0.1307
 3647SOL    HW122574   1.764   2.970   6.143  1.3357 -0.0912 -0.0343
 3647SOL    HW222575   1.758   3.065   6.251  0.7212  0.3663 -1.6152
 3648SOL     OW22576   2.078   0.322   1.428  0.0008 -0.0412  0.2906
 3648SOL    HW122577   1.989   0.358   1.426 -0.2186 -0.6159 -0.1641
 3648SOL    HW222578   2.110   0.367   1.350  1.3670 -0.8219  0.4037
 3649SOL     OW22579   3.247   2.976  14.472 -0.2264  0.0682 -0.6973
 3649SOL    HW122580   3.230   2.882  14.476 -0.1895  0.0795 -0.2970
 3649SOL    HW222581   3.218   2.997  14.561 -1.9563  1.3029 -1.5439
 3650SOL     OW22582   2.931   4.519   3.318  0.5048  0.2414  0.1533
 3650SOL    HW122583   2.872   4.443   3.317  0.6245  0.1337  2.2244
 3650SOL    HW222584   3.009   4.478   3.354  1.4123 -0.7693 -2.9958
 3651SOL     OW22585   0.412   2.966   8.564  0.2619  0.2150 -0.1791
 3651SOL    HW122586   0.365   2.914   8.628  0.6693 -0.4067 -0.3821
 3651SOL    HW222587   0.380   2.919   8.487 -0.3089 -0.4929  0.4882
 3652SOL     OW22588   0.746   0.551   6.582  0.4278 -0.7199  0.4763
 3652SOL    HW122589   0.834   0.550   6.544  0.7585  2.0821  1.1874
 3652SOL    HW222590   0.747   0.629   6.637 -0.7813  0.4569 -1.1897
 3653SOL     OW22591   0.601   1.141   5.167  0.1822 -0.4364  0.0557
 3653SOL    HW122592   0.675   1.136   5.227 -0.8404  4.1114  1.6562
 3653SOL    HW222593   0.626   1.075   5.102 -0.6387 -1.2201  0.5263
 3654SOL     OW22594   3.122   3.872   2.153 -0.0084  0.2685  0.2737
 3654SOL    HW122595   3.147   3.965   2.159  2.1499 -0.2464 -0.5821
 3654SOL    HW222596   3.081   3.842   2.235 -0.2307  2.3120  0.9150
 3655SOL     OW22597   3.895   3.166   6.399  0.3575  0.4724 -0.5269
 3655SOL    HW122598   3.832   3.140   6.466 -0.5523  0.9049 -1.2087
 3655SOL    HW222599   3.857   3.116   6.326 -0.3946 -0.1961  0.3360
 3656SOL     OW22600   2.352   0.780   4.078 -1.1219 -0.6923  0.3888
 3656SOL    HW122601   2.391   0.811   3.996 -1.2393 -1.8335 -0.0997
 3656SOL    HW222602   2.263   0.775   4.043 -1.1648  1.4040  0.2265
 3657SOL     OW22603   2.568   2.680   2.080 -0.4002 -0.5749  0.2616
 3657SOL    HW122604   2.639   2.635   2.126  0.5022  1.6715  1.1031
 3657SOL    HW222605   2.505   2.618   2.043 -1.5772  0.6580  0.2117
 3658SOL     OW22606   4.095   0.877   1.844  0.2995 -0.1850  0.1970
 3658SOL    HW122607   4.179   0.840   1.869  0.7506  1.8610  1.7673
 3658SOL    HW222608   4.043   0.897   1.923 -1.5642  1.8068 -1.5204
 3659SOL     OW22609   1.102   4.228  17.654 -0.3771  0.1378 -0.0605
 3659SOL    HW122610   1.011   4.255  17.662 -0.6603 -1.1827  1.2378
 3659SOL    HW222611   1.142   4.275  17.727  0.3213 -1.3639  0.5331
 3660SOL     OW22612   3.127   4.062   5.727  0.4596  0.2835  0.2230
 3660SOL    HW122613   3.097   4.077   5.817 -1.7361  0.6046 -0.5733
 3660SOL    HW222614   3.130   4.150   5.689  0.3323  0.8974  1.6253
 3661SOL     OW22615   1.456   2.532   2.109 -0.4787  0.2498  0.2651
 3661SOL    HW122616   1.366   2.507   2.085 -0.2358  0.2925 -0.7155
 3661SOL    HW222617   1.470   2.619   2.071  2.3747 -0.3811 -0.1379
 3662SOL     OW22618   3.147   0.793   4.929  0.3995  0.2990  0.4061
 3662SOL    HW122619   3.107   0.849   4.862 -0.5301  1.1842  1.6934
 3662SOL    HW222620   3.211   0.745   4.877 -1.9620 -0.9053 -1.3998
 3663SOL     OW22621   0.064   2.752   5.244 -0.4178 -0.0654  0.0195
 3663SOL    HW122622   0.049   2.846   5.253 -0.7875 -0.1265  0.0335
 3663SOL    HW222623   0.146   2.739   5.292 -0.5490  1.7841  0.7387
 3664SOL     OW22624   3.312   4.147   9.630  0.3804 -0.4670  0.1001
 3664SOL    HW122625   3.360   4.158   9.548  1.9891 -0.9792  0.9593
 3664SOL    HW222626   3.363   4.079   9.675 -3.1465 -2.2373  1.3999
 3665SOL     OW22627   3.349   2.573  12.152 -0.2569 -0.6074  0.0197
 3665SOL    HW122628   3.367   2.529  12.235  0.4165 -3.5873 -1.7130
 3665SOL    HW222629   3.333   2.664  12.177  0.3319 -0.5984  0.3543
 3666SOL     OW22630   4.140   0.413   3.253  0.1128  0.0670  0.0040
 3666SOL    HW122631   4.215   0.422   3.311 -0.0648  0.0570  0.2353
 3666SOL    HW222632   4.085   0.352   3.302 -0.7899  1.5250  0.8046
 3667SOL     OW22633   3.665   2.252   4.474 -0.1539 -0.3604  0.1591
 3667SOL    HW122634   3.613   2.234   4.552  1.6989 -0.0027  1.4762
 3667SOL    HW222635   3.661   2.347   4.470 -0.9767 -0.4199 -0.4959
 3668SOL     OW22636   2.372   3.673   6.206  0.5476 -0.2058  0.3008
 3668SOL    HW122637   2.367   3.607   6.137  1.3271  2.4997 -2.3766
 3668SOL    HW222638   2.463   3.675   6.237  0.9529  1.7387 -0.9874
 3669SOL     OW22639   2.250   3.911   7.375  0.3501  0.0634  0.1375
 3669SOL    HW122640   2.207   3.984   7.420  0.5904  0.0434  0.4008
 3669SOL    HW222641   2.324   3.878   7.426  2.2075  3.0275 -0.6288
 3670SOL     OW22642   3.695   0.085   8.261  0.3920  0.2447 -0.4577
 3670SOL    HW122643   3.629   0.105   8.327  0.2206  0.1157 -0.5914
 3670SOL    HW222644   3.648   0.106   8.181  0.5437  1.3731 -0.2414
 3671SOL     OW22645   1.840   2.186   4.410  0.1020 -0.9733 -0.5716
 3671SOL    HW122646   1.753   2.170   4.448 -0.1614 -0.1553 -0.8328
 3671SOL    HW222647   1.817   2.211   4.320  2.0946  1.5308 -0.3721
 3672SOL     OW22648   3.841   2.377  11.575  0.7602  0.2902  0.0006
 3672SOL    HW122649   3.792   2.412  11.650  2.7022  0.5967  1.1261
 3672SOL    HW222650   3.893   2.313  11.624  0.0814  0.5530  1.0667
 3673SOL     OW22651   3.415   2.699   6.355  0.4334  0.5867 -0.3249
 3673SOL    HW122652   3.384   2.642   6.285 -0.2539  1.6163 -0.8562
 3673SOL    HW222653   3.355   2.680   6.426  1.0014  0.4566  0.1229
 3674SOL     OW22654   2.877   0.510   7.725  0.1038  0.3626 -0.3458
 3674SOL    HW122655   2.816   0.584   7.727  0.1028  0.3209  0.8600
 3674SOL    HW222656   2.932   0.544   7.796  0.6905  0.6985 -0.9481
 3675SOL     OW22657   3.995   3.753  17.533  0.0609 -0.2602  0.1419
 3675SOL    HW122658   3.922   3.717  17.481 -0.5772  1.0950  0.1089
 3675SOL    HW222659   4.064   3.719  17.475 -1.3229 -1.0660 -1.0391
 3676SOL     OW22660   4.046   2.110   2.883 -0.2769  0.3131  0.3658
 3676SOL    HW122661   4.081   2.138   2.967  0.3264 -1.6596  0.7725
 3676SOL    HW222662   4.054   2.183   2.822 -0.8688  2.1468  2.4868
 3677SOL     OW22663   2.725   2.205   4.391 -0.1667  0.2143  0.4135
 3677SOL    HW122664   2.686   2.213   4.303 -0.3919  1.0661  0.5908
 3677SOL    HW222665   2.669   2.132   4.417 -1.5801  1.4815  0.9292
 3678SOL     OW22666   0.952   0.592  15.275  0.5250  0.5878 -0.5612
 3678SOL    HW122667   0.925   0.551  15.192 -1.0495  0.0439  0.2370
 3678SOL    HW222668   1.039   0.553  15.291  0.5245  0.7483 -0.1727
 3679SOL     OW22669   1.720   2.151   8.118 -0.1243  0.3488  0.8416
 3679SOL    HW122670   1.652   2.105   8.069 -0.5133  0.3385  1.3893
 3679SOL    HW222671   1.717   2.237   8.077  0.0927  1.0791  2.3598
 3680SOL     OW22672   1.128   2.967   6.833  0.1676 -0.0464  0.3613
 3680SOL    HW122673   1.211   2.991   6.792 -1.4047  1.9801 -1.6429
 3680SOL    HW222674   1.127   3.031   6.905 -0.8401 -0.1552  0.4392
 3681SOL     OW22675   1.487   3.171   7.614  0.1765 -0.2698  0.1008
 3681SOL    HW122676   1.409   3.194   7.563 -0.6488  0.3548  1.6530
 3681SOL    HW222677   1.532   3.112   7.554  0.6339  0.0172  0.1551
 3682SOL     OW22678   0.671   0.806   7.096 -0.2108  0.0767 -0.2243
 3682SOL    HW122679   0.638   0.861   7.167 -1.4701 -1.6354  0.5384
 3682SOL    HW222680   0.761   0.817   7.125 -0.2561 -2.3702  0.9158
 3683SOL     OW22681   3.050   0.137   5.863  0.2720 -0.1400 -0.4443
 3683SOL    HW122682   3.022   0.049   5.839 -0.7521  0.0546  0.0352
 3683SOL    HW222683   3.060   0.129   5.958 -0.0571  2.7177 -0.1505
 3684SOL     OW22684   2.742   0.066   2.536 -0.2507  0.5444 -0.2180
 3684SOL    HW122685   2.748   0.137   2.601 -0.8052 -0.1019  0.5294
 3684SOL    HW222686   2.814   0.009   2.562  1.4601  2.5644 -0.5213
 3685SOL     OW22687   0.026   2.035   2.428  0.0641 -0.4418  0.6622
 3685SOL    HW122688   0.026   2.037   2.524 -0.7593  2.6663  0.6066
 3685SOL    HW222689   4.683   2.085   2.416 -1.0031 -1.7493  2.4601
 3686SOL     OW22690   1.864   4.437   5.072 -0.6774  0.2975  0.6062
 3686SOL    HW122691   1.821   4.420   5.156 -1.2239  0.2698  0.3187
 3686SOL    HW222692   1.797   4.411   5.009  0.3760  2.1712 -1.3094
 3687SOL     OW22693   0.226   3.017   0.352 -0.3888  0.0112  0.4848
 3687SOL    HW122694   0.225   3.079   0.425 -2.8214 -0.7120  1.0753
 3687SOL    HW222695   0.235   2.930   0.391  3.2277  0.7130  1.1430
 3688SOL     OW22696   1.555   0.081   5.466  0.0950 -0.3015  0.1623
 3688SOL    HW122697   1.491   0.015   5.441 -0.7300 -0.5870  3.0895
 3688SOL    HW222698   1.534   0.099   5.557  1.6478 -1.3849  0.7286
 3689SOL     OW22699   3.616   2.506   4.500 -0.5562 -0.8608  0.6707
 3689SOL    HW122700   3.619   2.589   4.453 -1.9875 -1.4919 -0.5354
 3689SOL    HW222701   3.575   2.549   4.575 -1.3091 -0.1046 -0.1634
 3690SOL     OW22702   2.999   2.422   4.040  0.3962  0.1010 -0.0478
 3690SOL    HW122703   2.976   2.448   4.129  0.9119  0.8895 -0.1429
 3690SOL    HW222704   3.052   2.498   4.014 -0.5510  0.5208 -0.7212
 3691SOL     OW22705   3.992   1.345   6.980  0.4135  0.2082  0.1027
 3691SOL    HW122706   3.914   1.310   6.937  0.0063  1.2727 -0.0339
 3691SOL    HW222707   3.980   1.330   7.074 -1.0783 -2.3128 -0.5078
 3692SOL     OW22708   2.527   1.100   8.661  0.5322  0.5714 -0.3498
 3692SOL    HW122709   2.465   1.087   8.589 -1.8339  2.1212  1.4646
 3692SOL    HW222710   2.471   1.134   8.730 -0.4526 -1.3091 -0.2202
 3693SOL     OW22711   3.367   1.806   5.518 -0.2010  0.1954 -0.3253
 3693SOL    HW122712   3.442   1.814   5.459  0.0640  0.8011  0.0946
 3693SOL    HW222713   3.410   1.755   5.587 -1.1151  0.2252  0.2654
 3694SOL     OW22714   0.572   0.290  16.412 -0.3878  0.0214  0.1432
 3694SOL    HW122715   0.521   0.224  16.457  1.2358 -2.4048 -1.5409
 3694SOL    HW222716   0.625   0.231  16.358 -0.5219  0.6346 -0.6795
 3695SOL     OW22717   1.303   0.249   4.010 -0.2000  0.7570 -0.5199
 3695SOL    HW122718   1.211   0.274   4.003 -1.7943 -5.1343 -0.5373
 3695SOL    HW222719   1.298   0.158   3.981 -1.5856  0.4300  0.7510
 3696SOL     OW22720   0.240   2.922   9.042 -0.5566 -0.2947  0.0061
 3696SOL    HW122721   0.178   2.964   8.983  0.1200  3.3826  1.9112
 3696SOL    HW222722   0.232   2.976   9.121  0.5439  1.8806 -1.3594
 3697SOL     OW22723   0.660   2.773   7.014 -0.0476  0.0770  0.0014
 3697SOL    HW122724   0.662   2.681   7.040  1.8248  0.5924  1.7255
 3697SOL    HW222725   0.572   2.794   7.046  1.3821  4.6282  0.9164
 3698SOL     OW22726   1.794   0.566   3.041  0.0765 -0.0167  0.1550
 3698SOL    HW122727   1.721   0.618   3.076 -0.4475 -1.0189  0.5712
 3698SOL    HW222728   1.740   0.487   3.034 -1.0696  0.6653  1.1711
 3699SOL     OW22729   0.311   0.737   6.761 -0.3077 -0.0383 -0.3669
 3699SOL    HW122730   0.304   0.744   6.666  0.2294 -3.4593 -0.6644
 3699SOL    HW222731   0.405   0.719   6.768 -0.3604  0.5510  1.8200
 3700SOL     OW22732   2.037   1.073   2.290  0.0238  0.0053  0.0675
 3700SOL    HW122733   2.018   0.985   2.259  0.5983 -0.6068  1.4457
 3700SOL    HW222734   1.947   1.107   2.286 -0.0969 -0.1801  1.0360
 3701SOL     OW22735   0.748   3.910  12.945  0.1964  0.0942  0.0153
 3701SOL    HW122736   0.747   3.992  12.995 -1.4245  0.4412 -0.5933
 3701SOL    HW222737   0.784   3.938  12.861 -3.6572  2.6092 -0.7993
 3702SOL     OW22738   3.781   3.428   9.450  0.0794  0.2680  0.7412
 3702SOL    HW122739   3.810   3.354   9.396 -0.7740 -1.7011  2.9732
 3702SOL    HW222740   3.731   3.487   9.394  0.9438  2.0140  1.8410
 3703SOL     OW22741   2.375   2.597   5.029 -0.0345 -0.5350 -0.4138
 3703SOL    HW122742   2.376   2.505   5.056  0.4704 -0.2315  0.6215
 3703SOL    HW222743   2.352   2.641   5.111  0.0890  0.3873 -0.8730
 3704SOL     OW22744   2.060   2.346   1.537  0.7137 -0.2681  0.3088
 3704SOL    HW122745   2.087   2.421   1.590 -0.1156  1.3539 -1.5363
 3704SOL    HW222746   2.131   2.341   1.473  0.4072 -2.8444  0.1645
 3705SOL     OW22747   1.457   3.775   4.381 -0.4336  0.0498 -0.3055
 3705SOL    HW122748   1.477   3.856   4.335  0.9866  1.1585  2.2857
 3705SOL    HW222749   1.362   3.776   4.385 -0.4627  0.6789 -1.1973
 3706SOL     OW22750   0.308   4.311   6.167  0.3359  0.0161 -0.6174
 3706SOL    HW122751   0.301   4.384   6.105  1.4321  0.2999 -0.4031
 3706SOL    HW222752   0.281   4.236   6.113 -0.2823 -0.3592  0.2213
 3707SOL     OW22753   1.517   2.751   5.223 -0.0573  0.2151 -0.2397
 3707SOL    HW122754   1.422   2.763   5.224 -0.0840  0.1741 -1.8585
 3707SOL    HW222755   1.539   2.793   5.140  0.5327 -0.0468 -0.2161
 3708SOL     OW22756   1.583   1.511   2.724 -0.3561  0.1598  0.4459
 3708SOL    HW122757   1.556   1.424   2.753  0.9965 -0.4884 -0.2306
 3708SOL    HW222758   1.498   1.554   2.717  0.1498  1.0456 -0.3028
 3709SOL     OW22759   0.917   1.779   4.423  0.3099 -0.1423  0.2776
 3709SOL    HW122760   0.988   1.753   4.365  0.1402  1.6049 -0.7179
 3709SOL    HW222761   0.850   1.721   4.387  0.5475 -0.5302  0.4686
 3710SOL     OW22762   2.696   0.876   8.525 -0.2879  0.1376 -0.1074
 3710SOL    HW122763   2.780   0.860   8.568 -0.6807  1.3067  1.1031
 3710SOL    HW222764   2.664   0.950   8.577 -1.3570 -0.8477  0.6445
 3711SOL     OW22765   3.922   4.662  13.902  0.3806  0.2548  1.1297
 3711SOL    HW122766   3.895   4.708  13.981  0.0610  3.3410 -0.7974
 3711SOL    HW222767   3.994   4.611  13.939  0.6396  0.3146  0.7039
 3712SOL     OW22768   0.339   3.873   4.078  0.2327 -0.1933 -0.1011
 3712SOL    HW122769   0.300   3.950   4.038  1.0347  0.5427  0.5496
 3712SOL    HW222770   0.310   3.802   4.020 -3.1472  1.6749 -0.6254
 3713SOL     OW22771   3.611   4.308   8.931  0.2352  0.2449 -0.2422
 3713SOL    HW122772   3.629   4.368   9.004 -1.0041 -0.6476  0.8014
 3713SOL    HW222773   3.517   4.289   8.938  0.1800  0.1691 -1.1186
 3714SOL     OW22774   0.796   2.317   5.560  0.0721 -0.0209 -0.1707
 3714SOL    HW122775   0.718   2.322   5.617 -0.2700 -0.7407 -0.5701
 3714SOL    HW222776   0.749   2.285   5.483 -1.3132  0.1769  0.5962
 3715SOL     OW22777   2.333   2.122   2.808  0.6110  0.1131 -0.0481
 3715SOL    HW122778   2.372   2.154   2.890 -1.0881 -1.7253  1.4837
 3715SOL    HW222779   2.319   2.028   2.819 -0.9659  0.3746  0.2992
 3716SOL     OW22780   4.582   3.665   7.042 -0.7985  0.0839 -0.4233
 3716SOL    HW122781   4.595   3.678   7.136  1.8455 -0.8409 -0.6650
 3716SOL    HW222782   4.667   3.633   7.013 -0.2502 -0.2950  1.5957
 3717SOL     OW22783   0.483   3.241  10.804  0.0027  0.6468  0.3128
 3717SOL    HW122784   0.539   3.197  10.740 -1.7579  0.1845 -0.9155
 3717SOL    HW222785   0.418   3.171  10.812 -0.2563  0.7030 -1.3304
 3718SOL     OW22786   3.010   0.719   1.696  0.3236 -0.5336  0.4315
 3718SOL    HW122787   3.014   0.811   1.669 -0.1492 -0.3276  1.0515
 3718SOL    HW222788   3.026   0.674   1.613 -1.5167 -1.3983  0.5298
 3719SOL     OW22789   0.687   0.227   3.988  0.1580 -0.1081 -0.3916
 3719SOL    HW122790   0.669   0.172   4.064  1.0646 -3.3508 -2.5370
 3719SOL    HW222791   0.724   0.301   4.036  0.3843 -1.4305  1.4387
 3720SOL     OW22792   3.319   4.081   3.205 -0.9153  0.2164  0.1897
 3720SOL    HW122793   3.391   4.031   3.246  0.2316  2.3213  0.7214
 3720SOL    HW222794   3.360   4.167   3.201 -1.3764  0.2926 -2.9561
 3721SOL     OW22795   4.414   2.486  12.612  0.5563 -0.2201 -0.5227
 3721SOL    HW122796   4.474   2.553  12.644 -0.9989  0.4677  0.9993
 3721SOL    HW222797   4.430   2.471  12.519  1.3345 -2.2657 -0.0512
 3722SOL     OW22798   3.742   1.035  16.537 -1.0559 -0.6082 -0.5745
 3722SOL    HW122799   3.753   0.943  16.511 -0.1441 -0.1095 -1.9353
 3722SOL    HW222800   3.648   1.044  16.519 -1.3596 -0.8599  0.8937
 3723SOL     OW22801   1.155   0.654   8.484 -0.0675 -0.0910 -0.0616
 3723SOL    HW122802   1.141   0.725   8.547  1.0578  0.7426 -0.7547
 3723SOL    HW222803   1.102   0.590   8.531  0.1806  0.4925  1.0157
 3724SOL     OW22804   1.479   4.566  15.125 -0.3734 -0.3594  0.7741
 3724SOL    HW122805   1.403   4.614  15.157 -0.1227  1.2556 -1.0088
 3724SOL    HW222806   1.461   4.560  15.031 -2.5940  0.7613  1.1395
 3725SOL     OW22807   4.197   2.532  12.756  0.5155 -0.2341  0.3195
 3725SOL    HW122808   4.272   2.542  12.698 -1.3416  1.3808 -1.8316
 3725SOL    HW222809   4.166   2.445  12.731  1.1938 -0.7502  1.2829
 3726SOL     OW22810   3.117   0.916   1.526 -0.3293  0.1048  0.2940
 3726SOL    HW122811   3.185   0.849   1.523 -1.2303 -0.8051  0.3648
 3726SOL    HW222812   3.176   0.991   1.538 -1.1559  0.4800  1.9859
 3727SOL     OW22813   0.299   2.633   5.913 -0.9366 -0.1960 -0.5376
 3727SOL    HW122814   0.377   2.596   5.872 -0.5227  2.6905 -2.3661
 3727SOL    HW222815   0.329   2.712   5.958 -0.0883  0.5843 -2.4715
 3728SOL     OW22816   4.176   0.964   4.372 -0.1205 -0.5452  0.4073
 3728SOL    HW122817   4.128   0.884   4.394 -0.1925 -1.1329 -1.9111
 3728SOL    HW222818   4.215   0.926   4.293  0.1059 -0.5591  0.5245
 3729SOL     OW22819   1.365   1.936   4.519  0.1145 -0.1161 -0.4357
 3729SOL    HW122820   1.278   1.975   4.511  0.5527  1.4429  2.2955
 3729SOL    HW222821   1.359   1.856   4.466  2.1748  0.8946 -2.1447
 3730SOL     OW22822   3.342   2.529   2.917  0.0083 -0.1156 -0.2184
 3730SOL    HW122823   3.251   2.532   2.889  0.4856  1.8325 -1.5620
 3730SOL    HW222824   3.391   2.469   2.861 -1.9004 -0.3327 -1.6457
 3731SOL     OW22825   1.532   0.685   8.571  0.1046  0.2406  0.3177
 3731SOL    HW122826   1.593   0.611   8.581  1.1174  0.9265 -0.8561
 3731SOL    HW222827   1.466   0.676   8.641  1.6259 -0.5607  1.6707
 3732SOL     OW22828   0.115   1.201   1.508  0.1876 -0.0628  0.4534
 3732SOL    HW122829   0.138   1.256   1.583 -0.0508 -0.1362  0.5829
 3732SOL    HW222830   0.095   1.271   1.446 -0.4087  0.4908  1.2684
 3733SOL     OW22831   3.394   3.046  15.106 -0.0185  0.3311  0.1262
 3733SOL    HW122832   3.356   3.134  15.111 -0.5411  0.1496 -0.6626
 3733SOL    HW222833   3.483   3.073  15.129 -0.3999 -0.8541  2.9807
 3734SOL     OW22834   3.047   0.654   3.173  0.4615  0.1557 -0.0029
 3734SOL    HW122835   3.083   0.743   3.175  1.6036 -0.2945 -0.2332
 3734SOL    HW222836   3.096   0.616   3.099  0.8513  0.2728  0.1937
 3735SOL     OW22837   3.731   4.589   7.900  0.5116  0.2202 -0.1854
 3735SOL    HW122838   3.654   4.645   7.911 -1.1370 -1.8641 -1.0668
 3735SOL    HW222839   3.781   4.643   7.839  1.6197 -1.4409 -0.7639
 3736SOL     OW22840   3.757   1.725  16.814 -0.2248  0.2849  0.0839
 3736SOL    HW122841   3.718   1.727  16.901 -3.3995 -1.2971 -1.2831
 3736SOL    HW222842   3.774   1.631  16.803 -1.9188 -0.2704  2.2218
 3737SOL     OW22843   2.658   2.681   4.876 -0.4732 -0.2411 -0.2473
 3737SOL    HW122844   2.610   2.717   4.801  1.5284 -0.5892 -1.6979
 3737SOL    HW222845   2.658   2.762   4.928  1.2280 -0.3880 -0.0305
 3738SOL     OW22846   0.305   1.156  17.207  0.2762 -0.2870 -0.0775
 3738SOL    HW122847   0.305   1.066  17.238 -0.0960 -0.3220 -0.1721
 3738SOL    HW222848   0.376   1.148  17.144  0.8499  0.1443  0.5032
 3739SOL     OW22849   2.408   0.498  13.752  0.2740  0.5972 -0.1943
 3739SOL    HW122850   2.317   0.523  13.766  0.7058  1.8095  0.4293
 3739SOL    HW222851   2.459   0.565  13.798  0.2337 -1.1069  2.3401
 3740SOL     OW22852   0.914   2.576   5.178 -0.2643  0.5519 -0.0135
 3740SOL    HW122853   0.911   2.536   5.091 -0.2198  4.4810 -1.8159
 3740SOL    HW222854   0.824   2.590   5.208 -0.8420 -1.2984 -0.8734
 3741SOL     OW22855   2.512   1.741  17.557  0.4789  0.1803 -0.0455
 3741SOL    HW122856   2.483   1.790  17.480 -0.6989  1.3267  1.1381
 3741SOL    HW222857   2.607   1.733  17.551  0.1584 -2.3794 -1.8783
 3742SOL     OW22858   3.690   3.198  15.022  0.4511  0.7380 -0.0256
 3742SOL    HW122859   3.660   3.172  15.109 -0.6513  1.2503 -0.2581
 3742SOL    HW222860   3.759   3.132  15.015 -0.2141  0.0310  0.0537
 3743SOL     OW22861   0.038   2.222   6.888 -0.1041 -0.2676 -0.0850
 3743SOL    HW122862   0.073   2.189   6.970  0.5410 -0.1589 -0.3142
 3743SOL    HW222863   4.690   2.179   6.884 -0.6443  0.6825  1.2491
 3744SOL     OW22864   4.337   1.327   4.651  0.3501 -0.4229 -0.4887
 3744SOL    HW122865   4.310   1.411   4.689  1.3765  0.0308 -0.7773
 3744SOL    HW222866   4.256   1.303   4.606 -0.1471 -1.2382  0.8315
 3745SOL     OW22867   1.047   3.318   8.505  0.3104 -0.1280  0.0271
 3745SOL    HW122868   0.975   3.258   8.483  0.7204  0.1012 -1.9451
 3745SOL    HW222869   1.055   3.324   8.600 -0.1293 -0.4421  0.0859
 3746SOL     OW22870   1.374   1.587   9.010  0.1982 -0.7667 -0.3672
 3746SOL    HW122871   1.386   1.599   9.104 -0.3463 -0.2388 -0.3651
 3746SOL    HW222872   1.456   1.542   8.993  0.7657 -0.7090  2.1984
 3747SOL     OW22873   2.835   4.500   5.157  0.1327 -0.1015  0.5277
 3747SOL    HW122874   2.848   4.557   5.233  0.4260  1.2848 -0.5618
 3747SOL    HW222875   2.740   4.512   5.150  0.3330 -1.2903 -4.0652
 3748SOL     OW22876   3.469   2.849   9.390  0.2772 -0.4786  0.4884
 3748SOL    HW122877   3.424   2.840   9.474  1.7881  3.3541  1.7034
 3748SOL    HW222878   3.556   2.866   9.425  1.0919  0.4055 -1.9163
 3749SOL     OW22879   1.578   2.753   3.267  0.2868  0.5476 -0.9680
 3749SOL    HW122880   1.662   2.734   3.225  0.8147  1.1807 -0.2056
 3749SOL    HW222881   1.542   2.827   3.218 -1.7690 -0.6875 -1.3102
 3750SOL     OW22882   0.760   1.558   6.784  0.0822  0.0033 -0.3291
 3750SOL    HW122883   0.772   1.498   6.710  1.8536  0.6677 -0.5879
 3750SOL    HW222884   0.814   1.634   6.762  0.8000 -0.0028  1.4832
 3751SOL     OW22885   2.689   3.463  15.801  0.5707  0.7682 -0.0268
 3751SOL    HW122886   2.767   3.518  15.809  2.4039 -1.6737 -1.2131
 3751SOL    HW222887   2.728   3.377  15.788 -0.6028  0.4765 -1.5489
 3752SOL     OW22888   4.328   1.788   6.469  0.4741  1.0162 -0.3584
 3752SOL    HW122889   4.342   1.768   6.376  1.7109 -1.4787  0.3792
 3752SOL    HW222890   4.256   1.851   6.460  1.3549  2.0907  0.0699
 3753SOL     OW22891   0.530   4.209   2.474 -0.3435  0.3842  0.1373
 3753SOL    HW122892   0.456   4.262   2.504  1.2474  1.9692  1.2966
 3753SOL    HW222893   0.523   4.129   2.526 -0.4654  1.5750  1.9745
 3754SOL     OW22894   3.483   0.534   6.675 -0.5598 -0.1273  0.1702
 3754SOL    HW122895   3.491   0.441   6.694  0.7443 -0.0006  0.2421
 3754SOL    HW222896   3.540   0.577   6.739 -0.2552  0.5298 -0.5407
 3755SOL     OW22897   0.450   3.835  13.248  0.5909  0.1600 -0.0007
 3755SOL    HW122898   0.441   3.930  13.248  0.3916  0.1439 -2.1256
 3755SOL    HW222899   0.441   3.828  13.153  0.1610 -0.0436  0.0551
 3756SOL     OW22900   3.661   0.450  11.248 -0.2045  0.4042 -0.1431
 3756SOL    HW122901   3.696   0.364  11.226 -1.8826 -0.6097  1.1845
 3756SOL    HW222902   3.637   0.485  11.162 -2.6614  0.7763  0.6918
 3757SOL     OW22903   4.388   3.514   0.231 -0.5523 -0.2154 -0.1135
 3757SOL    HW122904   4.415   3.429   0.196  3.9390  0.9481  0.6035
 3757SOL    HW222905   4.330   3.547   0.162 -1.4550  0.4206  0.9601
 3758SOL     OW22906   4.077   3.258   5.657 -0.5212  0.1714 -0.4492
 3758SOL    HW122907   4.075   3.275   5.751  1.9580 -1.6609 -0.0865
 3758SOL    HW222908   3.996   3.305   5.637 -1.0244 -0.5052 -0.0010
 3759SOL     OW22909   3.942   4.430   4.818 -0.0628  0.4086  0.0434
 3759SOL    HW122910   4.030   4.409   4.785 -0.2131  0.2309 -0.2356
 3759SOL    HW222911   3.960   4.520   4.844 -1.5240  0.9236 -0.7527
 3760SOL     OW22912   1.543   4.499   6.229 -0.3993  0.4953 -0.1339
 3760SOL    HW122913   1.574   4.572   6.282 -0.6446 -1.4240  2.6525
 3760SOL    HW222914   1.619   4.454   6.192 -0.6598 -0.7201  0.7949
 3761SOL     OW22915   1.748   4.544  10.615 -0.1613  0.4016  0.1689
 3761SOL    HW122916   1.779   4.623  10.659  0.4893  0.0215  0.3894
 3761SOL    HW222917   1.745   4.568  10.522 -1.2804 -0.7574 -0.1049
 3762SOL     OW22918   1.024   0.225   7.942 -0.4954 -0.3506  0.3040
 3762SOL    HW122919   0.930   0.237   7.958 -0.9537 -1.5268 -1.5950
 3762SOL    HW222920   1.045   0.210   8.034 -0.7066 -0.3522  0.3529
 3763SOL     OW22921   4.329   1.190   5.654  0.0432 -0.0777  0.7310
 3763SOL    HW122922   4.325   1.102   5.616  1.2044 -0.5531  1.7135
 3763SOL    HW222923   4.281   1.177   5.736 -0.2682  1.5218  0.8032
 3764SOL     OW22924   0.822   2.287   2.273 -0.4257 -0.1675  0.5565
 3764SOL    HW122925   0.822   2.382   2.262 -0.9643 -0.1155  0.9965
 3764SOL    HW222926   0.751   2.261   2.214 -1.2747  2.4358  0.4383
 3765SOL     OW22927   4.460   3.916   6.443  0.4904 -0.1297  0.0690
 3765SOL    HW122928   4.498   3.867   6.516 -0.3873  0.6560  1.0575
 3765SOL    HW222929   4.479   3.864   6.366 -0.1035 -0.0564 -0.1228
 3766SOL     OW22930   2.637   3.524   9.172  0.4033  0.1117  0.1267
 3766SOL    HW122931   2.678   3.504   9.256 -0.1614  0.3732  0.4601
 3766SOL    HW222932   2.580   3.598   9.189 -1.4228 -1.4070  0.6275
 3767SOL     OW22933   3.172   4.706   3.061  0.1586 -0.1916 -0.2719
 3767SOL    HW122934   3.085   4.682   3.031 -0.3183  1.2755 -0.0333
 3767SOL    HW222935   3.199   0.019   2.984  1.4123 -1.3175 -0.5902
 3768SOL     OW22936   3.293   1.944   6.726  0.4257 -0.2754 -0.3490
 3768SOL    HW122937   3.330   2.022   6.685  2.7973 -1.0542  0.3278
 3768SOL    HW222938   3.328   1.879   6.665 -1.1719 -0.8372 -0.6569
 3769SOL     OW22939   3.253   0.747   0.011 -0.3348  0.0065  0.1898
 3769SOL    HW122940   3.344   0.778   0.009 -0.2315 -0.2638  0.7467
 3769SOL    HW222941   3.240   0.739   0.105 -0.6449  0.6094  0.1983
 3770SOL     OW22942   3.125   0.787   7.326 -0.0527  0.1490  0.3353
 3770SOL    HW122943   3.098   0.877   7.345 -2.1488  0.1025 -2.4480
 3770SOL    HW222944   3.036   0.751   7.315  0.7548 -2.0623  0.9499
 3771SOL     OW22945   4.493   1.389   1.048  0.1142 -0.3063 -0.3281
 3771SOL    HW122946   4.479   1.468   1.101  0.2140 -1.4361  1.3909
 3771SOL    HW222947   4.421   1.337   1.084  0.8090  0.0531  1.6252
 3772SOL     OW22948   3.369   0.043   3.245 -0.1714  0.3529  0.0830
 3772SOL    HW122949   3.302   0.003   3.189  0.4134  1.8763 -1.6658
 3772SOL    HW222950   3.449   0.011   3.204  0.3447  2.1264 -0.2751
 3773SOL     OW22951   0.709   1.346  15.298 -0.6572  0.2462  0.2844
 3773SOL    HW122952   0.796   1.343  15.337 -0.0778 -0.7381 -1.1137
 3773SOL    HW222953   0.700   1.441  15.300 -1.2083  0.2116 -1.0237
 3774SOL     OW22954   3.077   1.117   3.000 -0.1298  0.0973  0.2806
 3774SOL    HW122955   3.134   1.087   2.929 -0.7640  1.0306 -0.6435
 3774SOL    HW222956   3.077   1.213   2.998  0.6105  0.0488 -1.8176
 3775SOL     OW22957   4.286   0.233   8.558 -0.0525 -0.5384 -0.2606
 3775SOL    HW122958   4.216   0.298   8.556  0.3685  0.0370  3.0489
 3775SOL    HW222959   4.239   0.169   8.611 -1.5874  1.5369  0.8562
 3776SOL     OW22960   1.044   0.623  15.587  0.2829  1.0279 -0.0742
 3776SOL    HW122961   1.118   0.606  15.644 -0.0576 -0.2931 -0.0365
 3776SOL    HW222962   1.036   0.532  15.558 -2.7233  1.1903  0.1942
 3777SOL     OW22963   0.381   1.828   2.397  0.9076  0.0236  0.2250
 3777SOL    HW122964   0.466   1.801   2.363  0.2597 -2.1987  0.3824
 3777SOL    HW222965   0.413   1.878   2.472  0.2050  1.0527 -0.1610
 3778SOL     OW22966   0.834   3.114   7.833  0.2906  0.1961 -0.1423
 3778SOL    HW122967   0.767   3.045   7.829 -0.5714  1.0318 -0.0142
 3778SOL    HW222968   0.775   3.189   7.839 -1.4450 -1.2024  0.6147
 3779SOL     OW22969   0.666   2.741   2.702 -0.4409  0.7508  0.0518
 3779SOL    HW122970   0.754   2.749   2.664 -0.2936 -0.6319  0.0793
 3779SOL    HW222971   0.623   2.818   2.666 -1.4311  0.6858  1.0744
 3780SOL     OW22972   3.575   0.558   7.500 -0.0841  0.2766 -0.3250
 3780SOL    HW122973   3.492   0.606   7.500 -1.0911 -1.4412  1.1603
 3780SOL    HW222974   3.618   0.593   7.422  3.0247 -1.3609  0.6619
 3781SOL     OW22975   1.799   3.925   4.162  0.0306  0.3018 -0.9681
 3781SOL    HW122976   1.763   4.009   4.134  1.2461  0.8091 -1.0188
 3781SOL    HW222977   1.757   3.870   4.096 -0.8674 -0.9549  0.6618
 3782SOL     OW22978   1.729   0.158   0.625  0.2479 -0.9522 -0.1612
 3782SOL    HW122979   1.660   0.121   0.680 -0.1563 -0.2571 -0.1884
 3782SOL    HW222980   1.680   0.172   0.545  0.7157 -0.3960 -0.3509
 3783SOL     OW22981   2.273   2.360   2.181 -0.7035 -0.1108 -0.3326
 3783SOL    HW122982   2.201   2.312   2.222  0.9199 -3.7988 -1.8445
 3783SOL    HW222983   2.329   2.362   2.258 -0.9881  0.0809 -0.1268
 3784SOL     OW22984   4.508   1.057   8.633 -0.0444 -0.2320 -0.1101
 3784SOL    HW122985   4.520   1.113   8.556  0.9435 -1.9109 -1.1990
 3784SOL    HW222986   4.571   0.991   8.603 -0.4501 -0.4048 -0.5838
 3785SOL     OW22987   1.459   0.433   3.388 -0.4455 -0.3464  0.0248
 3785SOL    HW122988   1.547   0.420   3.422  0.1684  0.2278 -1.3395
 3785SOL    HW222989   1.405   0.381   3.447  0.4492 -1.3324 -0.0384
 3786SOL     OW22990   2.167   2.680  12.233  0.2440 -0.1318  0.4849
 3786SOL    HW122991   2.210   2.756  12.193  1.2374 -0.5180  0.8161
 3786SOL    HW222992   2.148   2.626  12.156  1.1955 -0.3808  0.4208
 3787SOL     OW22993   1.112   4.388   9.373  0.5766 -0.5330  0.3225
 3787SOL    HW122994   1.023   4.352   9.371  1.0889 -1.7408 -0.6253
 3787SOL    HW222995   1.132   4.372   9.465 -1.7078  1.3360  1.1475
 3788SOL     OW22996   4.438   0.343   2.972  0.5378  0.2982 -0.1742
 3788SOL    HW122997   4.484   0.370   3.051  1.6893 -2.7994  0.2026
 3788SOL    HW222998   4.492   0.387   2.906  1.0836  1.0152  0.7531
 3789SOL     OW22999   4.527   2.131  10.030 -0.0554  1.2974 -0.6480
 3789SOL    HW123000   4.569   2.108  10.113 -2.2576 -0.6793 -0.0658
 3789SOL    HW223001   4.592   2.100   9.968 -0.1322  1.3953 -0.7790
 3790SOL     OW23002   0.357   0.989   7.337 -0.2848  0.1319 -0.0963
 3790SOL    HW123003   0.311   0.905   7.325 -1.3880  0.5035  1.6379
 3790SOL    HW223004   0.300   1.028   7.403  0.2503 -0.0264  0.4513
 3791SOL     OW23005   3.590   3.559   8.951  0.3537 -0.1137 -0.5332
 3791SOL    HW123006   3.608   3.514   9.034 -0.2412 -0.7603 -0.7593
 3791SOL    HW223007   3.523   3.623   8.974 -0.2485 -0.7319 -0.5595
 3792SOL     OW23008   1.070   4.211   8.808 -0.0393  0.6322  0.2548
 3792SOL    HW123009   0.998   4.274   8.800 -2.3210 -1.9044  0.4536
 3792SOL    HW223010   1.011   4.141   8.779 -0.3539  0.3941  1.4479
 3793SOL     OW23011   4.239   3.930  17.630  0.8403 -0.4142  0.2429
 3793SOL    HW123012   4.271   4.018  17.609 -2.7559  0.7512 -0.3423
 3793SOL    HW223013   4.270   3.929  17.721 -0.1666 -1.5562  0.5665
 3794SOL     OW23014   0.002   1.362   3.810  0.6087 -0.5363  0.0698
 3794SOL    HW123015   0.040   1.408   3.736  1.1005 -0.2459  0.5020
 3794SOL    HW223016   0.053   1.282   3.817  2.3781  0.5166 -0.9762
 3795SOL     OW23017   1.216   0.576   6.735  0.0475 -0.3986  0.2593
 3795SOL    HW123018   1.205   0.644   6.801  2.8187 -0.6159  0.9500
 3795SOL    HW223019   1.145   0.516   6.758  0.5762 -0.9610  0.4397
 3796SOL     OW23020   2.162   1.454   9.814  0.4315 -0.0452  0.0011
 3796SOL    HW123021   2.082   1.472   9.863  2.0419 -0.8819  2.9292
 3796SOL    HW223022   2.137   1.384   9.754  0.5571  1.4116 -1.7537
 3797SOL     OW23023   2.053   2.388   8.275 -0.0907 -0.1963  0.2725
 3797SOL    HW123024   2.064   2.473   8.233 -0.4713 -0.3538 -0.1440
 3797SOL    HW223025   2.006   2.418   8.353 -0.1439 -0.0288  0.1755
 3798SOL     OW23026   4.681   4.080   6.367  0.4703  0.1886 -0.5707
 3798SOL    HW123027   4.586   4.078   6.375  0.6149 -0.6720  0.9408
 3798SOL    HW223028   4.705   3.996   6.405  0.2049  0.0156 -0.7883
 3799SOL     OW23029   4.072   0.977   3.641 -0.9105  0.2666  0.9827
 3799SOL    HW123030   4.151   0.928   3.662 -0.3353  0.7714  0.0308
 3799SOL    HW223031   4.097   1.056   3.690  0.0841  1.2962 -1.1592
 3800SOL     OW23032   1.239   1.516   7.726  0.0533  0.0132  0.3271
 3800SOL    HW123033   1.199   1.541   7.809 -0.6135 -1.1920  0.3679
 3800SOL    HW223034   1.249   1.422   7.739 -2.2046 -0.2247  0.3813
 3801SOL     OW23035   2.530   2.182   8.337  0.1629 -0.0540  0.3650
 3801SOL    HW123036   2.439   2.208   8.343  0.4119  1.0761 -0.8454
 3801SOL    HW223037   2.551   2.205   8.247  0.0137  0.5538  0.4893
 3802SOL     OW23038   0.721   1.208   7.537 -0.3566  0.4074 -0.0923
 3802SOL    HW123039   0.782   1.275   7.507 -1.4594  1.6948  0.5165
 3802SOL    HW223040   0.788   1.148   7.569  0.6681  2.2455  1.1623
 3803SOL     OW23041   3.329   2.453   0.694  0.1963 -0.3145 -0.3489
 3803SOL    HW123042   3.392   2.402   0.745 -0.1750 -1.8391 -1.4339
 3803SOL    HW223043   3.312   2.408   0.612 -1.8787 -0.8199  0.3359
 3804SOL     OW23044   1.626   2.712  12.892  0.1509 -0.0376 -0.7013
 3804SOL    HW123045   1.695   2.740  12.832  0.0742  0.7862 -0.4034
 3804SOL    HW223046   1.568   2.784  12.865  1.7986  2.1289  1.5737
 3805SOL     OW23047   1.310   3.227  12.854  0.1862 -0.0286  0.1961
 3805SOL    HW123048   1.399   3.211  12.884 -0.9814  0.1941  3.9168
 3805SOL    HW223049   1.261   3.189  12.928 -1.4657 -3.2887 -2.5793
 3806SOL     OW23050   2.685   3.142  12.973  0.3279 -0.6190  0.6521
 3806SOL    HW123051   2.697   3.049  12.957 -0.1732 -0.4516 -0.7298
 3806SOL    HW223052   2.772   3.166  12.941  0.2641 -1.4066 -0.0993
 3807SOL     OW23053   1.907   2.939  17.051 -0.3771  0.4432  0.5067
 3807SOL    HW123054   1.935   3.020  17.008 -0.9979 -0.0105 -0.7653
 3807SOL    HW223055   1.812   2.946  17.044 -0.4421 -0.2965  0.6519
 3808SOL     OW23056   3.482   1.306  13.182 -0.5922 -0.3174 -0.1506
 3808SOL    HW123057   3.467   1.394  13.148  1.5144 -0.2192 -0.8283
 3808SOL    HW223058   3.567   1.316  13.223 -0.7453 -3.1376  0.8203
 3809SOL     OW23059   0.473   2.648  17.184 -0.1371  0.0229  0.0178
 3809SOL    HW123060   0.452   2.555  17.173  0.5336 -0.1116 -0.1555
 3809SOL    HW223061   0.513   2.663  17.098  0.2389  2.6598  0.6526
 3810SOL     OW23062   1.622   4.206   0.985 -0.1064  0.2371  0.2732
 3810SOL    HW123063   1.589   4.144   0.920  1.6033 -1.1819  0.7480
 3810SOL    HW223064   1.705   4.163   1.004  0.0508  0.3426 -0.1876
 3811SOL     OW23065   4.471   3.402   8.147  0.0419  0.0617  0.0928
 3811SOL    HW123066   4.432   3.405   8.060 -0.1364 -0.9954  0.1354
 3811SOL    HW223067   4.489   3.309   8.160 -0.3063  0.0911  0.7774
 3812SOL     OW23068   1.893   0.525  13.094  0.2404 -0.6037  0.4403
 3812SOL    HW123069   1.799   0.533  13.108  0.1490  0.1904 -0.6490
 3812SOL    HW223070   1.899   0.430  13.083  1.4774 -0.4278 -0.4846
 3813SOL     OW23071   0.503   0.764   5.114 -0.2733  0.2989 -0.0957
 3813SOL    HW123072   0.579   0.806   5.073 -0.1368  0.6591  0.5144
 3813SOL    HW223073   0.455   0.845   5.136 -1.2945 -1.1331  2.8892
 3814SOL     OW23074   0.722   2.282   1.654 -0.1450  0.3494  0.2352
 3814SOL    HW123075   0.667   2.329   1.591 -0.6486 -2.6643 -1.5800
 3814SOL    HW223076   0.768   2.219   1.599  0.1703  0.1451  0.7372
 3815SOL     OW23077   1.843   1.382   7.278  0.2061 -0.3350  0.1561
 3815SOL    HW123078   1.915   1.326   7.307 -0.0826  0.6886  2.7883
 3815SOL    HW223079   1.805   1.407   7.362 -0.3416 -0.1685 -0.1408
 3816SOL     OW23080   1.892   0.516   2.392  0.1799 -0.4511  0.2810
 3816SOL    HW123081   1.940   0.502   2.311  0.1794 -1.4130  0.4446
 3816SOL    HW223082   1.950   0.569   2.446  0.3475 -0.2417 -0.1089
 3817SOL     OW23083   4.538   3.980   3.181 -0.1563  0.0931 -0.1863
 3817SOL    HW123084   4.580   3.925   3.247  0.0218 -1.2911 -1.4632
 3817SOL    HW223085   4.534   3.921   3.106 -1.6806 -1.3859  1.0616
 3818SOL     OW23086   0.435   1.146   8.522  0.4128 -0.6714 -0.1522
 3818SOL    HW123087   0.487   1.122   8.599  2.0274  3.1892 -0.0653
 3818SOL    HW223088   0.417   1.237   8.547  0.3688 -0.3223 -1.4501
 3819SOL     OW23089   3.627   4.716   3.809 -0.5484  0.6099  0.5220
 3819SOL    HW123090   3.533   4.697   3.815 -0.6317  0.3236 -1.7363
 3819SOL    HW223091   3.675   4.637   3.786 -0.1286  1.3343 -1.1396
 3820SOL     OW23092   0.239   2.248   2.346 -0.8500 -0.4240 -0.2753
 3820SOL    HW123093   0.179   2.176   2.367 -0.7286 -1.3530 -3.1327
 3820SOL    HW223094   0.281   2.238   2.432 -0.1814  0.0750 -0.5444
 3821SOL     OW23095   0.022   1.313   7.387  0.1715  0.5602  0.6424
 3821SOL    HW123096   0.057   1.363   7.313  1.4283 -1.2680  0.0051
 3821SOL    HW223097   0.015   1.377   7.458 -2.0129  1.4828 -0.4085
 3822SOL     OW23098   1.289   4.534   2.694  0.2501 -0.1823  0.6172
 3822SOL    HW123099   1.231   4.601   2.657 -2.1418 -1.8530  1.3686
 3822SOL    HW223100   1.304   4.481   2.616 -0.8131 -1.5145  1.3386
 3823SOL     OW23101   0.536   1.520   0.925  0.1041  0.0745  0.3035
 3823SOL    HW123102   0.607   1.461   0.950  0.4030  0.7218  0.9818
 3823SOL    HW223103   0.467   1.455   0.911 -0.0672  0.0553  1.1982
 3824SOL     OW23104   0.842   1.897   7.494 -0.7133 -0.0367 -0.4270
 3824SOL    HW123105   0.753   1.898   7.461 -1.8143 -0.5148  2.5160
 3824SOL    HW223106   0.883   1.929   7.413 -0.8982 -1.6961 -1.1826
 3825SOL     OW23107   1.773   2.868   5.986 -0.0963 -0.6768 -0.0418
 3825SOL    HW123108   1.775   2.782   6.027  2.5539 -0.4260  0.3590
 3825SOL    HW223109   1.707   2.865   5.917 -1.2929 -3.2592  1.2118
 3826SOL     OW23110   0.771   0.488   4.056  0.6626 -0.8018  0.3703
 3826SOL    HW123111   0.786   0.578   4.085 -2.0254 -0.0691 -0.5734
 3826SOL    HW223112   0.770   0.448   4.144  0.0059 -0.9416  0.3010
 3827SOL     OW23113   1.818   2.215  10.650  0.0899 -0.0581 -0.3343
 3827SOL    HW123114   1.851   2.229  10.739 -0.7364  0.4631 -0.1106
 3827SOL    HW223115   1.749   2.281  10.653 -1.1872 -1.3837 -0.8778
 3828SOL     OW23116   4.635   1.127   2.523  0.1349  0.0631  0.3750
 3828SOL    HW123117   4.670   1.190   2.587 -0.3692  2.3802 -1.6287
 3828SOL    HW223118   4.605   1.196   2.464  1.3795 -0.8046 -1.2556
 3829SOL     OW23119   2.568   4.406   4.341 -0.0535  0.4433  0.2546
 3829SOL    HW123120   2.642   4.444   4.388 -1.4912  1.6996  1.4980
 3829SOL    HW223121   2.507   4.401   4.414 -0.0070  0.5147  0.2984
 3830SOL     OW23122   4.156   4.383   4.676  1.2493  0.2605  0.2402
 3830SOL    HW123123   4.138   4.290   4.664 -1.6118  0.5405  2.1343
 3830SOL    HW223124   4.232   4.402   4.622  0.7762  0.8209 -0.2277
 3831SOL     OW23125   4.526   3.870   5.451 -0.2013 -0.7792  0.4637
 3831SOL    HW123126   4.451   3.894   5.396  0.5206 -1.0908 -0.6581
 3831SOL    HW223127   4.498   3.900   5.538 -0.6107  1.0374 -0.2941
 3832SOL     OW23128   1.592   2.468   3.872 -0.4342  0.2952 -0.0180
 3832SOL    HW123129   1.621   2.414   3.798 -0.1981  1.4956 -0.8084
 3832SOL    HW223130   1.550   2.403   3.928 -1.9581 -0.1613 -1.6755
 3833SOL     OW23131   4.434   4.513   6.752 -0.2130  0.1245  0.3639
 3833SOL    HW123132   4.339   4.509   6.741 -0.3109 -0.6810  1.4980
 3833SOL    HW223133   4.467   4.476   6.670 -1.0962  0.2631 -0.0485
 3834SOL     OW23134   2.150   3.921   8.770 -0.0231 -0.2800 -0.0399
 3834SOL    HW123135   2.100   3.981   8.826 -0.1642  0.6789 -1.1997
 3834SOL    HW223136   2.184   3.983   8.705 -0.5838 -1.1863 -1.1927
 3835SOL     OW23137   3.861   3.163  15.388 -0.0969  0.1271  0.4192
 3835SOL    HW123138   3.800   3.219  15.436 -0.9701  0.1367 -0.7090
 3835SOL    HW223139   3.895   3.225  15.324 -3.0874  1.6260  0.2716
 3836SOL     OW23140   0.541   2.363  11.348  0.2631 -0.7206  0.1500
 3836SOL    HW123141   0.567   2.453  11.366  1.6912 -1.7252  3.1158
 3836SOL    HW223142   0.563   2.363  11.255  0.0279 -0.0414  0.0959
 3837SOL     OW23143   2.715   2.718   3.456  0.1699  0.3352  0.1555
 3837SOL    HW123144   2.798   2.675   3.435  1.0445  1.5231  1.1957
 3837SOL    HW223145   2.654   2.662   3.409  0.3955  0.3924 -0.2109
 3838SOL     OW23146   0.431   3.240   9.538  0.1628 -0.2897 -0.1998
 3838SOL    HW123147   0.471   3.156   9.558 -0.0136 -0.3234  0.0084
 3838SOL    HW223148   0.482   3.262   9.460 -0.8667  0.2077 -0.7340
 3839SOL     OW23149   3.940   2.744   8.895  0.3006 -0.0203 -0.1093
 3839SOL    HW123150   3.899   2.692   8.964  2.0201 -1.3120 -0.0625
 3839SOL    HW223151   4.030   2.713   8.904  0.3980  0.7071  1.5212
 3840SOL     OW23152   1.670   0.912   2.157 -0.2636 -0.1854 -0.1847
 3840SOL    HW123153   1.655   0.823   2.189  1.4558  0.2047  1.7428
 3840SOL    HW223154   1.622   0.960   2.225  1.6131  1.3491  0.0608
 3841SOL     OW23155   2.960   4.087   8.196  0.2517 -0.7253  0.4710
 3841SOL    HW123156   2.869   4.090   8.166  0.3209  2.4431  0.5336
 3841SOL    HW223157   2.960   4.181   8.216  1.2295 -0.6577  0.1648
 3842SOL     OW23158   2.983   2.599  13.348  0.2581 -0.3377  0.0921
 3842SOL    HW123159   3.023   2.607  13.435  0.4057 -0.5604  0.0443
 3842SOL    HW223160   2.929   2.678  13.349 -1.1367 -1.3269  1.1231
 3843SOL     OW23161   2.069   0.510   4.368 -0.0015  0.2579 -0.1036
 3843SOL    HW123162   2.083   0.593   4.414  0.3985 -0.3996  0.9730
 3843SOL    HW223163   2.120   0.534   4.291  3.4001  0.7774  2.2951
 3844SOL     OW23164   0.065   2.319   8.399  0.9763  0.0444 -0.0220
 3844SOL    HW123165   0.113   2.252   8.447  0.7914  0.3517  0.5828
 3844SOL    HW223166   0.099   2.399   8.440  1.1763 -0.6377  1.1179
 3845SOL     OW23167   0.403   3.534   9.610 -0.0080  0.7794 -0.0787
 3845SOL    HW123168   0.496   3.524   9.628 -0.0787 -2.7801 -1.6461
 3845SOL    HW223169   0.368   3.468   9.670 -0.1757  0.5254 -0.4542
 3846SOL     OW23170   0.255   1.418  12.562  0.1114 -0.4246  0.5401
 3846SOL    HW123171   0.252   1.511  12.586  2.4035 -0.3222  0.4327
 3846SOL    HW223172   0.227   1.418  12.471  0.4969 -1.1232  0.4249
 3847SOL     OW23173   4.702   1.113   7.168 -0.0931  0.2125 -0.8283
 3847SOL    HW123174   4.722   1.201   7.201 -3.2986  2.0684 -3.7786
 3847SOL    HW223175   4.655   1.067   7.237 -0.3709  0.7829 -0.6326
 3848SOL     OW23176   0.485   3.059   0.554 -0.2023  0.2300  0.1966
 3848SOL    HW123177   0.415   3.116   0.523  0.6149  0.0409 -2.0084
 3848SOL    HW223178   0.550   3.076   0.486  0.8429 -0.8274  0.9323
 3849SOL     OW23179   0.184   3.078   7.120  0.2251  0.1481 -0.1913
 3849SOL    HW123180   0.171   3.165   7.158  0.4265 -0.1345  0.5255
 3849SOL    HW223181   0.229   3.095   7.038 -4.8734 -1.5269 -3.3377
 3850SOL     OW23182   0.955   3.254   2.929  0.0728  0.0839 -0.0146
 3850SOL    HW123183   1.040   3.240   2.970  1.1044  1.4927 -1.7039
 3850SOL    HW223184   0.896   3.200   2.983  1.1572 -0.9591  0.1404
 3851SOL     OW23185   4.632   2.117   1.959  0.7293  0.5362  0.2433
 3851SOL    HW123186   4.684   2.151   1.887 -0.5421 -0.4840 -1.1504
 3851SOL    HW223187   4.642   2.023   1.944 -1.2059  0.5879 -1.3289
 3852SOL     OW23188   2.427   4.255   8.041 -0.1208  0.0387 -0.1869
 3852SOL    HW123189   2.507   4.210   8.013  0.1898  1.1537 -1.0983
 3852SOL    HW223190   2.368   4.218   7.975 -1.2358  0.5194  0.5522
 3853SOL     OW23191   4.656   1.362   0.842  0.7999 -0.0176  0.4964
 3853SOL    HW123192   4.592   1.375   0.912  0.8022  0.2345  0.4526
 3853SOL    HW223193   4.662   1.454   0.814  0.7730 -0.1806 -0.0464
 3854SOL     OW23194   0.152   3.892   8.497 -0.3114 -0.4476  0.3244
 3854SOL    HW123195   0.177   3.920   8.585  4.3471  1.2401 -1.5558
 3854SOL    HW223196   0.096   3.965   8.469  1.1202 -0.2349 -2.0590
 3855SOL     OW23197   2.619   1.617  14.342 -0.6151 -0.1426 -0.4312
 3855SOL    HW123198   2.578   1.533  14.363  2.6917 -1.2814  1.6465
 3855SOL    HW223199   2.671   1.618  14.423  0.9127 -1.8247 -1.3904
 3856SOL     OW23200   1.094   0.025  10.559  0.1299 -0.1458  0.1007
 3856SOL    HW123201   1.161   4.697  10.539  0.6464  0.3713  0.1322
 3856SOL    HW223202   1.108   0.036  10.653  1.1339  1.4496 -0.2457
 3857SOL     OW23203   3.823   0.349   5.163 -0.1909 -0.7794 -0.3216
 3857SOL    HW123204   3.732   0.320   5.165 -0.1069 -0.9451  1.1530
 3857SOL    HW223205   3.809   0.442   5.182 -2.5797 -1.1663 -0.1594
 3858SOL     OW23206   2.309   0.602   1.805 -0.6430  0.0100  0.3723
 3858SOL    HW123207   2.328   0.549   1.728  0.2885 -0.7984  1.1525
 3858SOL    HW223208   2.224   0.566   1.832 -0.2780 -1.2015 -0.0843
 3859SOL     OW23209   3.673   4.628   7.574  0.0683  0.0847  0.2194
 3859SOL    HW123210   3.719   4.712   7.565  0.3979 -0.1338 -0.1367
 3859SOL    HW223211   3.731   4.577   7.518 -0.1828  1.3301 -1.1888
 3860SOL     OW23212   1.695   3.041  12.110 -0.1011  0.6887  0.4379
 3860SOL    HW123213   1.768   3.079  12.159  1.2974  0.9792 -1.8975
 3860SOL    HW223214   1.743   2.994  12.042 -1.9565 -1.0860  0.3278
 3861SOL     OW23215   2.009   2.685  10.656  0.6177 -0.0870 -0.0222
 3861SOL    HW123216   1.945   2.616  10.638 -0.1668  0.8318 -0.8001
 3861SOL    HW223217   1.972   2.723  10.736  1.2810 -0.8946  0.6674
 3862SOL     OW23218   2.987   2.298   8.140 -0.0373 -0.5791 -0.0940
 3862SOL    HW123219   2.906   2.323   8.184 -0.0306  0.2794 -0.5712
 3862SOL    HW223220   3.009   2.219   8.190  1.1923  0.4874  1.0848
 3863SOL     OW23221   3.077   3.254  11.581 -0.1349  1.2509 -0.7134
 3863SOL    HW123222   3.059   3.205  11.661  1.1615  0.2574 -1.0232
 3863SOL    HW223223   3.058   3.342  11.612 -3.4884  0.4777 -0.6052
 3864SOL     OW23224   1.944   2.649  14.141 -0.0888 -0.3617  0.1817
 3864SOL    HW123225   1.910   2.559  14.137  2.2261 -1.0733 -3.0739
 3864SOL    HW223226   1.966   2.662  14.049 -0.0221 -0.1790  0.2240
 3865SOL     OW23227   0.366   0.335   6.912 -0.8981 -0.6988 -0.0032
 3865SOL    HW123228   0.329   0.410   6.959  1.4030 -1.0406  2.3140
 3865SOL    HW223229   0.457   0.363   6.897 -1.4098  0.7437 -0.4361
 3866SOL     OW23230   4.378   0.971   3.485  0.0679 -0.1386 -0.8163
 3866SOL    HW123231   4.379   0.888   3.532 -1.8074 -0.6909 -1.7653
 3866SOL    HW223232   4.286   0.991   3.470 -0.5158 -1.7700  0.6007
 3867SOL     OW23233   4.550   0.941  17.244  0.5335 -0.3537  0.7977
 3867SOL    HW123234   4.509   0.956  17.329 -0.8990 -0.8937  0.2014
 3867SOL    HW223235   4.512   0.855  17.226  1.8408 -0.9248  0.7828
 3868SOL     OW23236   1.184   0.236  10.338  0.2814 -0.3995  0.0728
 3868SOL    HW123237   1.159   0.166  10.398 -0.6051  0.1328  0.3213
 3868SOL    HW223238   1.258   0.196  10.294 -0.3980 -2.4125  0.7849
 3869SOL     OW23239   4.483   0.573   9.230 -0.4774  0.7015 -0.0606
 3869SOL    HW123240   4.441   0.558   9.145  0.4779 -2.2454  0.0008
 3869SOL    HW223241   4.555   0.634   9.211  0.2659  0.5300  2.2095
 3870SOL     OW23242   1.005   3.588   0.258  0.3719  0.1948 -0.1335
 3870SOL    HW123243   1.075   3.633   0.210  0.1586  0.9232  0.2312
 3870SOL    HW223244   1.037   3.601   0.347 -2.5627  0.1799  0.9437
 3871SOL     OW23245   2.799   4.255  14.879 -0.1726 -0.2532  0.3981
 3871SOL    HW123246   2.750   4.216  14.806  0.2902 -0.2797  0.0994
 3871SOL    HW223247   2.844   4.326  14.832 -0.3556 -0.8134 -0.6251
 3872SOL     OW23248   1.974   0.669   1.487  0.2013 -0.0575  0.4312
 3872SOL    HW123249   1.961   0.673   1.392  0.0556  0.8219  0.4971
 3872SOL    HW223250   2.068   0.683   1.489  0.3400 -0.8251 -0.5545
 3873SOL     OW23251   2.499   3.823   8.348 -0.2366  0.6444  0.6513
 3873SOL    HW123252   2.543   3.772   8.281 -2.9757 -1.5855  0.5495
 3873SOL    HW223253   2.440   3.868   8.288  0.2674  2.0182  1.1872
 3874SOL     OW23254   0.597   4.291   1.390  0.0425 -0.1295 -0.3360
 3874SOL    HW123255   0.570   4.280   1.482  1.0994 -1.1565 -0.1441
 3874SOL    HW223256   0.608   4.386   1.391 -1.9538  0.1089 -1.3117
 3875SOL     OW23257   3.552   1.297   0.925 -0.1646  0.4063 -0.0949
 3875SOL    HW123258   3.466   1.261   0.904  0.0210  0.3288 -0.7004
 3875SOL    HW223259   3.535   1.330   1.014 -0.1720  0.8132 -0.2442
 3876SOL     OW23260   2.757   3.385  12.039 -0.4475 -0.0178  0.5486
 3876SOL    HW123261   2.700   3.420  12.108 -1.8156 -1.7408  0.3095
 3876SOL    HW223262   2.697   3.312  12.022  0.2387 -0.3494 -0.4228
 3877SOL     OW23263   0.082   1.695   7.999 -0.0434  0.5001  0.1011
 3877SOL    HW123264   0.083   1.757   7.927  1.8165 -1.4743 -1.5786
 3877SOL    HW223265   0.071   1.612   7.952 -1.5290 -0.3001  1.8832
 3878SOL     OW23266   3.449   1.872   8.531  0.4355 -0.4130  0.2002
 3878SOL    HW123267   3.520   1.870   8.594 -0.2742 -2.0069  0.9674
 3878SOL    HW223268   3.368   1.854   8.578  1.3462 -1.2606  1.4360
 3879SOL     OW23269   4.436   3.690   7.858 -0.1715 -0.2119  0.0205
 3879SOL    HW123270   4.491   3.759   7.821  0.7209 -0.0495  1.6782
 3879SOL    HW223271   4.468   3.624   7.797 -0.5240  2.0403 -2.6012
 3880SOL     OW23272   1.978   0.033  17.153 -0.5486 -0.4969  0.1942
 3880SOL    HW123273   1.921   0.079  17.215 -1.1420 -2.2125  0.9083
 3880SOL    HW223274   1.995   0.108  17.095  0.1195 -0.4194  0.4905
 3881SOL     OW23275   1.021   0.182   4.164 -0.9852 -0.5331 -0.9446
 3881SOL    HW123276   0.959   0.136   4.221 -1.6136  0.4550 -0.8347
 3881SOL    HW223277   0.983   0.269   4.159 -1.1578 -0.3330  3.6336
 3882SOL     OW23278   0.913   1.190   5.009  0.1024 -0.3491 -0.0027
 3882SOL    HW123279   0.885   1.228   5.092  1.2547  1.1508 -0.2905
 3882SOL    HW223280   0.886   1.254   4.943  0.7543  0.4170  0.4834
 3883SOL     OW23281   1.713   2.529  10.285 -0.5335 -0.4234  0.1677
 3883SOL    HW123282   1.792   2.485  10.254  0.4928  1.0424  0.7422
 3883SOL    HW223283   1.759   2.589  10.343 -1.0936  1.8828 -1.7884
 3884SOL     OW23284   2.379   3.336   1.973 -0.4832 -0.4111  0.1315
 3884SOL    HW123285   2.404   3.419   2.013 -1.2563 -0.2550  0.2840
 3884SOL    HW223286   2.457   3.310   1.925 -1.0508 -1.4042 -0.2566
 3885SOL     OW23287   1.316   2.720  10.009  0.2046  0.4567  0.9247
 3885SOL    HW123288   1.304   2.675  10.092 -0.3470 -0.5990  0.2667
 3885SOL    HW223289   1.272   2.664   9.945  0.6857  1.2753 -0.1336
 3886SOL     OW23290   0.889   1.891   5.905 -0.1226 -0.3558  0.2578
 3886SOL    HW123291   0.873   1.975   5.947 -0.3170 -1.4856  2.4375
 3886SOL    HW223292   0.814   1.878   5.847  1.0269 -1.1849 -1.0279
 3887SOL     OW23293   2.086   4.101   5.848  0.1064 -0.0948  0.2546
 3887SOL    HW123294   2.074   4.087   5.755  1.7143 -0.7555  0.1514
 3887SOL    HW223295   2.170   4.060   5.869  0.3684  0.7998  0.9825
 3888SOL     OW23296   2.653   0.503  13.068  0.2283  0.4330 -0.2535
 3888SOL    HW123297   2.704   0.554  13.004 -1.5596 -0.8133 -2.6500
 3888SOL    HW223298   2.565   0.539  13.061 -0.0010 -0.1688 -0.4359
 3889SOL     OW23299   1.457   4.022   6.449 -0.4394 -0.2703  0.3731
 3889SOL    HW123300   1.547   3.990   6.447 -0.6346 -0.5351 -3.6215
 3889SOL    HW223301   1.405   3.946   6.423 -0.0422 -0.5311  0.3362
 3890SOL     OW23302   0.798   0.342   4.912  0.2478  0.7038 -0.6199
 3890SOL    HW123303   0.816   0.315   5.002 -1.0489  1.6013 -0.0837
 3890SOL    HW223304   0.878   0.307   4.872 -0.2262 -0.8184 -0.2221
 3891SOL     OW23305   3.264   3.190  11.873  0.0295  0.0668 -0.3197
 3891SOL    HW123306   3.192   3.144  11.830  0.1540 -1.8353  1.5503
 3891SOL    HW223307   3.218   3.212  11.954 -0.1325 -3.0741  0.4365
 3892SOL     OW23308   2.839   3.840   7.083  0.0902 -0.5058  0.0259
 3892SOL    HW123309   2.823   3.933   7.073 -0.8638 -0.6670  0.1031
 3892SOL    HW223310   2.791   3.797   7.012 -1.7752  3.3682 -1.0274
 3893SOL     OW23311   3.167   4.256  12.609  0.5888  0.6904  0.2485
 3893SOL    HW123312   3.239   4.286  12.553  0.1465 -2.3860 -1.9779
 3893SOL    HW223313   3.180   4.162  12.608  0.8434  0.7122  2.6024
 3894SOL     OW23314   0.921   3.204   7.319  0.1801 -1.0146  0.0065
 3894SOL    HW123315   0.983   3.270   7.351 -2.7891  1.0624  1.5175
 3894SOL    HW223316   0.945   3.130   7.375  1.6063 -0.5169  0.0510
 3895SOL     OW23317   1.544   0.018   0.428 -0.3038  0.3420 -0.0398
 3895SOL    HW123318   1.465   0.007   0.481 -0.6996  1.2714 -0.4416
 3895SOL    HW223319   1.581   4.667   0.427  2.3329  1.4742 -4.8385
 3896SOL     OW23320   3.395   0.244   8.299  0.2728  0.3368 -0.1913
 3896SOL    HW123321   3.463   0.236   8.366 -0.9787 -1.4628  0.8869
 3896SOL    HW223322   3.318   0.235   8.356  0.4620  0.4956  0.0914
 3897SOL     OW23323   3.850   1.974   3.263  0.7033  0.1384 -0.1122
 3897SOL    HW123324   3.930   1.944   3.219 -0.8869 -1.1116 -2.1087
 3897SOL    HW223325   3.820   1.892   3.303 -3.4466  0.8569 -1.8072
 3898SOL     OW23326   4.049   1.560   9.811  0.1078 -0.2372  0.3237
 3898SOL    HW123327   4.102   1.634   9.839  0.0848  1.3294 -3.6871
 3898SOL    HW223328   3.960   1.596   9.805 -0.1294 -0.5526  2.0683
 3899SOL     OW23329   2.482   4.219  10.538  0.2019 -0.2561  0.3408
 3899SOL    HW123330   2.510   4.128  10.546 -0.5483 -0.2740  2.6307
 3899SOL    HW223331   2.489   4.229  10.443 -0.1487 -1.5186  0.1900
 3900SOL     OW23332   0.416   1.167  16.047  0.2119 -0.0164  0.7628
 3900SOL    HW123333   0.493   1.113  16.068 -0.3081 -1.3421 -0.7399
 3900SOL    HW223334   0.453   1.255  16.052  0.5221 -0.3769  4.6421
 3901SOL     OW23335   1.885   1.834   3.015 -0.3054  0.5326 -0.5519
 3901SOL    HW123336   1.893   1.896   3.088  0.1734 -0.1150 -0.0585
 3901SOL    HW223337   1.823   1.767   3.046 -0.0621 -0.2342 -1.7363
 3902SOL     OW23338   4.387   3.964   5.210 -0.7788 -0.1707 -0.6047
 3902SOL    HW123339   4.314   4.023   5.222 -0.2197  0.9729 -2.9059
 3902SOL    HW223340   4.442   4.016   5.151 -0.5773  1.6868  1.2165
 3903SOL     OW23341   4.108   0.775  12.185 -0.5343 -0.4438 -0.5727
 3903SOL    HW123342   4.180   0.823  12.144  0.2345 -1.5092 -0.4617
 3903SOL    HW223343   4.112   0.804  12.277 -2.1943  0.4190 -0.7786
 3904SOL     OW23344   2.186   2.293  17.693 -0.3280 -0.1925 -0.3831
 3904SOL    HW123345   2.255   2.349  17.659  1.4198 -1.2023  1.5230
 3904SOL    HW223346   2.229   2.257   0.022 -0.2244  0.1873 -0.2646
 3905SOL     OW23347   0.919   3.865  12.001  0.5723 -0.6328 -0.0661
 3905SOL    HW123348   0.825   3.885  12.000  0.5412 -0.8540 -1.4340
 3905SOL    HW223349   0.925   3.813  12.081  1.7399 -0.6288 -0.1562
 3906SOL     OW23350   0.864   1.155   0.207  0.3562  0.2146 -0.0324
 3906SOL    HW123351   0.935   1.154   0.271  0.7833 -1.2760 -0.5365
 3906SOL    HW223352   0.786   1.192   0.248 -0.4933 -2.0886  0.4485
 3907SOL     OW23353   0.878   2.533  11.025 -0.3296 -0.0985  0.4300
 3907SOL    HW123354   0.850   2.575  10.944 -0.5197  0.0949  0.5950
 3907SOL    HW223355   0.808   2.469  11.034 -0.5675 -0.0163 -0.8451
 3908SOL     OW23356   3.032   4.232   8.630  0.4344 -0.5517  0.2997
 3908SOL    HW123357   3.107   4.249   8.573  1.7763  1.0360  2.5442
 3908SOL    HW223358   3.028   4.137   8.640  0.7520 -0.7677 -1.5400
 3909SOL     OW23359   2.257   2.932   7.212  0.2818  0.2925 -0.2825
 3909SOL    HW123360   2.191   2.984   7.258 -0.2428 -0.2104 -0.4674
 3909SOL    HW223361   2.264   2.989   7.135  1.2804 -0.6142 -0.8600
 3910SOL     OW23362   2.976   1.047   5.618  0.0500  0.3991  0.1231
 3910SOL    HW123363   3.011   1.085   5.537 -0.2402 -1.3719 -0.8201
 3910SOL    HW223364   3.057   1.060   5.668  1.0519 -1.8765 -0.9318
 3911SOL     OW23365   0.979   1.600  15.929 -0.2273  0.3925 -0.7685
 3911SOL    HW123366   0.975   1.555  15.845  3.2898  2.6226 -2.1058
 3911SOL    HW223367   0.887   1.591  15.957  0.4253  0.7684  1.5245
 3912SOL     OW23368   1.860   0.629   6.860 -0.3432 -0.2175 -0.2513
 3912SOL    HW123369   1.850   0.668   6.774  0.2116 -0.8431 -0.5983
 3912SOL    HW223370   1.799   0.556   6.847 -0.4379 -0.3366  0.8186
 3913SOL     OW23371   2.947   1.315   6.313  0.1831 -0.2883 -0.0028
 3913SOL    HW123372   2.861   1.355   6.318  0.4504  0.2744  0.0929
 3913SOL    HW223373   2.983   1.326   6.225  2.0718  0.3483  0.8543
 3914SOL     OW23374   2.033   3.133   3.167  0.0567  0.2915  0.6301
 3914SOL    HW123375   2.073   3.105   3.249 -2.5259 -1.6210  1.2551
 3914SOL    HW223376   1.971   3.064   3.141  2.5958 -1.2082 -1.4001
 3915SOL     OW23377   2.509   4.695  15.088  0.0968  0.4794 -0.2984
 3915SOL    HW123378   2.422   4.660  15.110 -0.5709  2.6372  0.4702
 3915SOL    HW223379   2.509   4.687  14.992 -2.1745 -0.7008 -0.2068
 3916SOL     OW23380   2.152   1.569   1.080 -0.5362 -0.4068  0.4990
 3916SOL    HW123381   2.148   1.645   1.022  1.7300  0.0465  0.9491
 3916SOL    HW223382   2.246   1.552   1.081 -0.4314  0.1231 -0.0975
 3917SOL     OW23383   1.244   2.558   7.914 -0.7267 -0.0819  0.2632
 3917SOL    HW123384   1.269   2.471   7.885 -0.9520 -0.3376  0.8323
 3917SOL    HW223385   1.214   2.610   7.839 -0.4223  1.1818  1.0032
 3918SOL     OW23386   0.863   4.176   5.725  0.1258  0.1040  0.4649
 3918SOL    HW123387   0.909   4.251   5.687  3.3012 -2.4896 -0.9099
 3918SOL    HW223388   0.818   4.155   5.643  1.1065 -2.0406  0.4574
 3919SOL     OW23389   2.414   2.973  17.587  0.0898 -0.6923  0.1800
 3919SOL    HW123390   2.418   3.049  17.644  1.1085  0.2963 -1.1980
 3919SOL    HW223391   2.341   3.008  17.535  1.6334 -0.3514 -1.7879
 3920SOL     OW23392   4.652   1.874   8.611 -0.3217  0.3967 -0.1450
 3920SOL    HW123393   4.641   1.924   8.531  0.7356  1.1325  0.1615
 3920SOL    HW223394   4.570   1.828   8.629  0.2141  0.2711  2.0325
 3921SOL     OW23395   3.951   3.915   8.895 -0.0738 -0.3131  0.1107
 3921SOL    HW123396   3.968   3.822   8.881  0.5335  0.2847 -3.0470
 3921SOL    HW223397   3.856   3.913   8.883 -0.0254  1.0931 -0.5929
 3922SOL     OW23398   4.101   3.245   4.024 -0.2850 -0.3717  0.0651
 3922SOL    HW123399   4.169   3.178   4.031 -1.4050 -1.3882  1.2299
 3922SOL    HW223400   4.034   3.216   4.087 -0.6510 -2.1910 -1.1455
 3923SOL     OW23401   3.675   3.354   3.351  0.0006  0.1677 -0.2671
 3923SOL    HW123402   3.623   3.427   3.317  1.5129  1.2970 -0.1440
 3923SOL    HW223403   3.705   3.392   3.433  0.0325 -2.6280  1.0056
 3924SOL     OW23404   0.382   0.230   8.189 -0.0144  0.5278  0.4546
 3924SOL    HW123405   0.371   0.146   8.145  2.3447 -0.0885  1.0331
 3924SOL    HW223406   0.424   0.282   8.121 -3.2628  0.7123 -1.4144
 3925SOL     OW23407   1.294   0.154   6.947  0.3410  0.3282  0.7369
 3925SOL    HW123408   1.324   0.222   6.887 -0.0639 -0.7359 -0.6941
 3925SOL    HW223409   1.227   0.192   7.003 -0.7064  0.2868 -0.4811
 3926SOL     OW23410   1.033   1.091   7.179  0.0337  0.0171  0.8926
 3926SOL    HW123411   1.068   1.178   7.156 -0.8826  0.9396  2.9852
 3926SOL    HW223412   1.113   1.043   7.159  0.9807  1.2006  1.8158
 3927SOL     OW23413   1.116   1.954   9.686 -0.1248 -0.2254 -0.5008
 3927SOL    HW123414   1.072   1.980   9.605  1.4885  1.4266 -0.8489
 3927SOL    HW223415   1.127   2.040   9.725  0.1546 -0.5263  0.0774
 3928SOL     OW23416   3.617   2.101   7.149 -0.2313 -0.0839  0.0635
 3928SOL    HW123417   3.640   2.044   7.075 -1.4742 -1.5782  0.8188
 3928SOL    HW223418   3.662   2.180   7.119 -2.3383  0.7070 -1.0287
 3929SOL     OW23419   1.219   2.903  12.642 -0.3005  1.3957 -0.4904
 3929SOL    HW123420   1.172   2.983  12.621 -1.9387  0.2945 -0.9534
 3929SOL    HW223421   1.292   2.912  12.580  2.0030 -0.9962  1.8541
 3930SOL     OW23422   0.540   2.104   7.038  0.2384 -0.6387  0.0511
 3930SOL    HW123423   0.624   2.150   7.037  0.9497 -1.8651  3.0873
 3930SOL    HW223424   0.578   2.017   7.045 -1.6797 -1.4147  0.8950
 3931SOL     OW23425   1.784   4.577   3.648 -0.1508  0.2139  0.5295
 3931SOL    HW123426   1.716   4.601   3.711 -1.0145  2.7322 -1.3073
 3931SOL    HW223427   1.858   4.544   3.699 -1.7291 -0.7769  2.1431
 3932SOL     OW23428   3.633   1.679   2.106 -0.2699  0.1299 -0.3788
 3932SOL    HW123429   3.724   1.708   2.100 -0.5143  1.1985  0.8241
 3932SOL    HW223430   3.635   1.630   2.189 -0.8630 -0.5569 -0.7687
 3933SOL     OW23431   4.216   1.320  11.691 -0.3710  0.4123  0.4486
 3933SOL    HW123432   4.168   1.281  11.618  1.8877 -0.5839 -0.4885
 3933SOL    HW223433   4.284   1.255  11.704 -0.2309  0.3026 -0.8083
 3934SOL     OW23434   3.025   1.944   0.707 -1.1603 -0.3309  0.3336
 3934SOL    HW123435   3.098   1.993   0.743  0.3057 -0.9093 -1.8153
 3934SOL    HW223436   3.076   1.869   0.676 -2.2233 -0.5545 -0.8480
 3935SOL     OW23437   0.068   3.792   6.424 -0.2111 -0.1987  0.0399
 3935SOL    HW123438   0.133   3.810   6.492 -1.5962  0.2027  1.2705
 3935SOL    HW223439   0.072   3.697   6.424  0.0560 -0.1842 -0.7534
 3936SOL     OW23440   3.321   3.633   5.154  0.3816 -0.1932  0.3299
 3936SOL    HW123441   3.334   3.583   5.074  1.1470 -0.7927  0.8163
 3936SOL    HW223442   3.238   3.681   5.153 -0.7593 -2.2233 -1.2630
 3937SOL     OW23443   2.546   2.258   1.920  0.0862 -0.0039  0.1648
 3937SOL    HW123444   2.548   2.224   1.830 -1.2540  1.9720 -0.6142
 3937SOL    HW223445   2.635   2.290   1.931  0.1928 -0.0213 -0.6555
 3938SOL     OW23446   1.778   4.007  17.016 -0.3786 -0.3328 -0.0950
 3938SOL    HW123447   1.851   4.038  16.961  0.9045 -1.1193  1.1604
 3938SOL    HW223448   1.708   3.989  16.954  1.0503  1.1836 -2.1759
 3939SOL     OW23449   0.291   2.385   3.571 -0.2354 -0.1160  0.5579
 3939SOL    HW123450   0.331   2.350   3.492  1.8857  0.7533  1.2516
 3939SOL    HW223451   0.309   2.477   3.555  0.0494 -0.1464  0.6977
 3940SOL     OW23452   2.268   0.187   0.705  0.4733  0.1683 -0.2515
 3940SOL    HW123453   2.284   0.208   0.797  1.2497  1.2562 -0.6341
 3940SOL    HW223454   2.174   0.202   0.703  0.1187 -1.6141  3.7897
 3941SOL     OW23455   0.233   2.981   7.708  0.0868  0.4935 -0.0996
 3941SOL    HW123456   0.236   3.076   7.702 -3.4522  0.5674 -0.8825
 3941SOL    HW223457   0.275   2.972   7.794 -1.8012 -1.1776  0.6569
 3942SOL     OW23458   4.183   2.384   0.939  0.5819  0.3803  0.1874
 3942SOL    HW123459   4.096   2.353   0.911  0.9198 -1.8162  1.5487
 3942SOL    HW223460   4.241   2.313   0.913 -1.8284 -2.0587  1.3650
 3943SOL     OW23461   0.979   0.104  11.082  0.8537 -0.0476 -0.5750
 3943SOL    HW123462   0.947   0.186  11.117 -2.7057 -1.6607 -0.1104
 3943SOL    HW223463   0.912   0.039  11.104  0.8106  0.3979  0.6189
 3944SOL     OW23464   4.122   3.260  14.195 -0.0566  0.5520  0.8156
 3944SOL    HW123465   4.159   3.340  14.158  0.7704  0.4291  1.3825
 3944SOL    HW223466   4.048   3.302  14.238 -3.1000 -1.9167 -2.0032
 3945SOL     OW23467   2.037   1.271   7.443  0.0693 -0.0915 -0.2609
 3945SOL    HW123468   2.094   1.204   7.406 -1.6409 -0.9934 -1.2989
 3945SOL    HW223469   2.100   1.342   7.458  0.8699 -1.1578  1.4107
 3946SOL     OW23470   1.565   1.189   1.431  0.7121  0.8046 -0.4008
 3946SOL    HW123471   1.589   1.099   1.411 -0.6021  0.5717 -0.9581
 3946SOL    HW223472   1.495   1.183   1.496  0.6083 -1.0346 -0.6828
 3947SOL     OW23473   0.396   0.842   2.573 -0.7591 -0.2324 -0.3537
 3947SOL    HW123474   0.322   0.852   2.634  0.3325  1.4440  0.7163
 3947SOL    HW223475   0.384   0.921   2.521  1.8295  0.3729 -0.0519
 3948SOL     OW23476   2.047   3.476   7.592  0.4263 -0.0578  0.4827
 3948SOL    HW123477   2.081   3.432   7.514 -3.0918 -2.9928  0.6115
 3948SOL    HW223478   1.975   3.522   7.550  0.6785  0.6011  0.7822
 3949SOL     OW23479   1.667   1.105   7.245  0.3614 -0.5551  0.5773
 3949SOL    HW123480   1.713   1.161   7.307  1.2129 -0.2105 -0.3659
 3949SOL    HW223481   1.682   1.022   7.290 -1.3218 -0.5491  1.1473
 3950SOL     OW23482   1.838   1.701   6.342  0.5264  0.0883 -0.2588
 3950SOL    HW123483   1.872   1.673   6.257 -2.1667 -0.2096 -1.2669
 3950SOL    HW223484   1.905   1.678   6.406  1.0785  0.6559 -0.6378
 3951SOL     OW23485   1.905   3.365   6.380 -0.0614  0.5949 -0.5554
 3951SOL    HW123486   1.891   3.411   6.463  1.5258 -1.3958  0.8279
 3951SOL    HW223487   1.981   3.313   6.405 -0.6481 -0.4553 -0.9505
 3952SOL     OW23488   4.258   0.696   5.324 -0.6327 -0.0864 -0.3150
 3952SOL    HW123489   4.248   0.789   5.303  2.6596  0.6571  1.3995
 3952SOL    HW223490   4.171   0.674   5.360 -0.7743  0.8026 -0.1222
 3953SOL     OW23491   1.700   2.928   4.467 -0.0103 -0.5756  0.0999
 3953SOL    HW123492   1.762   2.914   4.538 -0.4255 -1.9680  0.1898
 3953SOL    HW223493   1.748   2.929   4.384  0.3690 -2.0532  0.2999
 3954SOL     OW23494   3.384   2.107   6.541  0.4101 -0.3306 -0.1690
 3954SOL    HW123495   3.470   2.136   6.513  0.8902 -0.6406  1.0075
 3954SOL    HW223496   3.332   2.132   6.464  0.6312 -0.8261 -0.4774
 3955SOL     OW23497   2.563   1.803   3.229  0.6273  0.2567  0.5100
 3955SOL    HW123498   2.611   1.757   3.298  1.9221 -0.0322 -0.5739
 3955SOL    HW223499   2.507   1.741   3.183 -0.4624  1.0362  0.7879
 3956SOL     OW23500   0.367   1.966   6.493  0.1483 -0.2678  0.3148
 3956SOL    HW123501   0.356   1.877   6.461  0.0397  0.3286 -1.3147
 3956SOL    HW223502   0.280   1.997   6.519 -0.3776 -0.5547 -1.0973
 3957SOL     OW23503   2.611   2.908   1.914 -0.2040  0.1099 -0.9896
 3957SOL    HW123504   2.563   2.912   1.831 -4.8103 -1.9936  1.5780
 3957SOL    HW223505   2.565   2.836   1.957 -1.9683  1.3630 -0.7891
 3958SOL     OW23506   3.675   0.732   6.624 -0.0871  0.4721 -0.8426
 3958SOL    HW123507   3.651   0.820   6.596 -0.3227  0.5377 -0.4320
 3958SOL    HW223508   3.666   0.736   6.719 -1.2838  0.6639 -0.9586
 3959SOL     OW23509   2.837   0.074  10.038 -0.1795 -0.2183 -0.1666
 3959SOL    HW123510   2.849   0.115   9.952 -1.0283  0.4519  0.0359
 3959SOL    HW223511   2.918   0.023  10.048  1.9066  2.8010 -1.5570
 3960SOL     OW23512   2.581   4.341   5.608 -0.1901 -0.1593 -0.8229
 3960SOL    HW123513   2.502   4.383   5.644  0.2904  0.1129 -0.0794
 3960SOL    HW223514   2.549   4.252   5.595 -0.3885 -0.4004  1.3055
 3961SOL     OW23515   4.636   1.158   3.554 -0.6608 -0.1606  0.0992
 3961SOL    HW123516   4.584   1.153   3.634 -2.9557  0.4453 -1.3558
 3961SOL    HW223517   4.597   1.083   3.508  0.8781 -1.3519  0.7592
 3962SOL     OW23518   0.545   1.773   0.844 -0.2966 -0.6928 -0.0470
 3962SOL    HW123519   0.534   1.684   0.877  1.5543 -1.7700 -2.3837
 3962SOL    HW223520   0.639   1.779   0.823 -0.3415  1.5992  0.4647
 3963SOL     OW23521   2.663   2.982   6.685 -0.3396  0.8843  0.4338
 3963SOL    HW123522   2.700   3.014   6.767  1.7448  1.3822 -0.6913
 3963SOL    HW223523   2.743   2.947   6.646 -1.5008  0.6766 -1.7423
 3964SOL     OW23524   3.130   4.666   9.587 -0.1622  0.5209  0.3674
 3964SOL    HW123525   3.102   4.582   9.551  2.1343  0.4282 -1.2207
 3964SOL    HW223526   3.195   4.700   9.525  1.0914  0.1774  1.5065
 3965SOL     OW23527   1.277   0.812   1.800  0.2874  0.6377  0.3155
 3965SOL    HW123528   1.282   0.791   1.707 -0.3743 -0.2545  0.4898
 3965SOL    HW223529   1.184   0.823   1.815  0.2473  1.9115 -0.8718
 3966SOL     OW23530   0.967   3.363  15.237 -0.0156  0.2109  0.0550
 3966SOL    HW123531   0.876   3.381  15.260  0.0713  1.3373 -0.4854
 3966SOL    HW223532   1.003   3.442  15.195 -1.8767  0.2674 -1.4236
 3967SOL     OW23533   2.486   4.180   5.878 -0.2118  0.2843 -0.3597
 3967SOL    HW123534   2.400   4.206   5.848  0.4727  3.3265  0.3151
 3967SOL    HW223535   2.525   4.247   5.934 -0.5775 -0.2442  0.5320
 3968SOL     OW23536   0.435   0.154   5.572  0.1719 -0.3757  1.0773
 3968SOL    HW123537   0.425   0.171   5.666  2.0455  0.0492  1.1857
 3968SOL    HW223538   0.484   0.235   5.556 -2.6322  0.9564 -0.8974
 3969SOL     OW23539   4.199   0.165   5.628  0.9887 -0.3262 -0.2055
 3969SOL    HW123540   4.242   0.212   5.557 -0.6707 -0.8168 -1.5349
 3969SOL    HW223541   4.167   0.086   5.585  1.8349 -1.0660  0.5392
 3970SOL     OW23542   0.541   1.588  15.770 -0.3362  0.0012  0.0837
 3970SOL    HW123543   0.474   1.590  15.838 -1.0505 -2.9505 -0.5170
 3970SOL    HW223544   0.529   1.500  15.734 -0.7337  0.0995 -0.0291
 3971SOL     OW23545   0.315   3.997   2.805  0.0736  0.1062  0.4691
 3971SOL    HW123546   0.310   3.906   2.836 -2.5580  0.3824  0.8407
 3971SOL    HW223547   0.233   4.032   2.838  0.3646  0.6440  0.6150
 3972SOL     OW23548   2.565   2.825   4.614  0.2701  0.2700 -0.1163
 3972SOL    HW123549   2.631   2.893   4.628  1.6362 -1.2978  1.0572
 3972SOL    HW223550   2.492   2.883   4.632  0.4107  0.3457  0.2033
 3973SOL     OW23551   2.051   0.320   3.871 -0.3245 -0.3144 -0.5624
 3973SOL    HW123552   2.048   0.238   3.920 -0.1602  1.4218  2.3132
 3973SOL    HW223553   2.114   0.290   3.806 -0.9085  0.3538 -1.4410
 3974SOL     OW23554   0.623   1.285   6.369  0.3267  0.1553 -0.0068
 3974SOL    HW123555   0.663   1.279   6.456  2.3109 -0.7479 -0.9759
 3974SOL    HW223556   0.655   1.370   6.338 -1.5206  1.6983  2.3027
 3975SOL     OW23557   3.350   2.083   6.213  0.3037  0.1829  0.1374
 3975SOL    HW123558   3.293   2.133   6.272 -0.2968  0.1346 -0.4177
 3975SOL    HW223559   3.292   2.037   6.153 -1.0784  3.4780 -1.0321
 3976SOL     OW23560   1.592   0.576   6.444  0.1687  0.1963  0.2797
 3976SOL    HW123561   1.639   0.493   6.452  0.2687  0.1331 -0.9683
 3976SOL    HW223562   1.565   0.601   6.533 -1.7643 -0.6496 -0.0773
 3977SOL     OW23563   1.822   2.291   7.240  0.5673 -0.3959 -0.1699
 3977SOL    HW123564   1.882   2.250   7.178  1.3178 -0.4115  0.5575
 3977SOL    HW223565   1.740   2.274   7.196 -0.5019 -2.9708  2.7455
 3978SOL     OW23566   3.983   1.333   7.722  0.1243 -0.4286  0.1148
 3978SOL    HW123567   4.023   1.383   7.651  0.1564  0.5308  0.8217
 3978SOL    HW223568   4.062   1.295   7.762 -1.4979  1.0263  4.6269
 3979SOL     OW23569   0.938   1.096   5.815  0.2569 -0.4482 -0.1118
 3979SOL    HW123570   1.018   1.149   5.816  1.6622 -2.5240 -0.6571
 3979SOL    HW223571   0.883   1.160   5.860  1.3825 -0.4852  1.3418
 3980SOL     OW23572   3.393   0.934   6.539  0.1074  0.6318  0.3335
 3980SOL    HW123573   3.420   0.850   6.502 -1.1038  0.5238 -0.2965
 3980SOL    HW223574   3.482   0.963   6.559  0.1277 -0.5787  2.0736
 3981SOL     OW23575   3.565   1.312   8.649  0.2581 -0.4728  0.3845
 3981SOL    HW123576   3.527   1.345   8.568  0.4788  0.4344  0.6519
 3981SOL    HW223577   3.592   1.397   8.683  0.0910 -0.2595 -0.0241
 3982SOL     OW23578   4.733   3.423   1.353 -0.3687 -0.0760 -0.4005
 3982SOL    HW123579   0.079   3.433   1.399  0.2679 -1.0000 -1.3564
 3982SOL    HW223580   4.732   3.333   1.321  1.0578  0.8796 -3.1107
 3983SOL     OW23581   1.457   3.557  10.930  0.2435 -1.0787 -0.4104
 3983SOL    HW123582   1.401   3.595  10.997  0.1801 -0.8906 -0.5734
 3983SOL    HW223583   1.545   3.590  10.946 -0.4673  0.3078  0.5571
 3984SOL     OW23584   0.820   0.009   1.455  0.7470  0.3887 -0.4545
 3984SOL    HW123585   0.868   0.090   1.471  1.9412 -0.1725 -1.1551
 3984SOL    HW223586   0.807   4.718   1.546 -0.6308 -0.9598 -1.0732
 3985SOL     OW23587   2.904   2.862   1.918 -0.2833  0.4989  0.4148
 3985SOL    HW123588   2.808   2.863   1.926 -0.1692  4.1953  1.2852
 3985SOL    HW223589   2.917   2.904   1.834 -1.4066 -2.1047 -1.0855
 3986SOL     OW23590   0.838   2.768  11.231  0.5013 -1.0555 -0.4663
 3986SOL    HW123591   0.802   2.838  11.175  3.2898  1.7316  1.2407
 3986SOL    HW223592   0.871   2.705  11.167 -1.1180 -0.6659 -1.6996
 3987SOL     OW23593   0.630   4.588   8.659 -0.0807 -0.4407  0.2782
 3987SOL    HW123594   0.559   4.648   8.634  1.2211  0.3443 -1.4945
 3987SOL    HW223595   0.581   4.540   8.726 -3.4605  2.5119 -0.0675
 3988SOL     OW23596   1.886   0.243   8.648 -0.1923 -0.0105 -0.2403
 3988SOL    HW123597   1.949   0.261   8.718  0.7144 -1.6872 -0.6220
 3988SOL    HW223598   1.816   0.234   8.714 -1.5597  0.6362 -1.6144
 3989SOL     OW23599   4.433   3.987   3.600 -0.0194 -0.4727 -0.1187
 3989SOL    HW123600   4.361   3.973   3.661 -1.0756  1.4916 -0.9366
 3989SOL    HW223601   4.401   4.035   3.524  0.3015 -0.4936 -0.2688
 3990SOL     OW23602   1.524   2.563  14.657  0.1892  0.1582  0.0103
 3990SOL    HW123603   1.463   2.629  14.689  1.2327  1.0696  0.1182
 3990SOL    HW223604   1.583   2.619  14.607  0.7866 -1.5706 -1.2381
 3991SOL     OW23605   3.520   0.380   9.648  0.4673 -0.0418 -0.2475
 3991SOL    HW123606   3.604   0.424   9.660  0.3477  0.5397 -1.5354
 3991SOL    HW223607   3.454   0.437   9.689 -1.8189 -1.1209 -2.4770
 3992SOL     OW23608   3.750   3.643   2.784  0.1551  0.4535  0.1896
 3992SOL    HW123609   3.804   3.578   2.738 -0.1970 -0.6799  1.3986
 3992SOL    HW223610   3.695   3.593   2.844 -1.5722  0.3687 -1.4637
 3993SOL     OW23611   0.120   0.791   6.933 -0.2632 -0.2799  0.0181
 3993SOL    HW123612   0.051   0.743   6.886  0.7070 -2.3542  0.7254
 3993SOL    HW223613   0.181   0.802   6.860  0.5990  1.5272  1.0088
 3994SOL     OW23614   3.537   3.975   6.521 -0.3448  0.9063 -0.2032
 3994SOL    HW123615   3.583   4.004   6.442 -0.3761 -0.3500 -0.6741
 3994SOL    HW223616   3.529   4.059   6.567 -1.8414  0.0986  1.0032
 3995SOL     OW23617   4.557   2.134   7.710  0.6694  0.0018  0.1219
 3995SOL    HW123618   4.626   2.189   7.672 -2.0734  2.6572 -1.0344
 3995SOL    HW223619   4.524   2.203   7.768 -1.2376 -0.3935 -0.5070
 3996SOL     OW23620   3.793   0.883   5.224  0.4999 -0.2838  0.5706
 3996SOL    HW123621   3.887   0.888   5.210  0.6530 -2.8067  0.6497
 3996SOL    HW223622   3.767   0.958   5.171  0.1253 -1.7756 -1.3348
 3997SOL     OW23623   2.226   0.394  16.771 -0.0432  0.3976  0.2126
 3997SOL    HW123624   2.185   0.469  16.814  1.1552  0.6130  1.0050
 3997SOL    HW223625   2.235   0.407  16.677 -0.8305 -0.3338  0.0399
 3998SOL     OW23626   1.194   1.277   7.862 -0.1138 -0.2570  0.3717
 3998SOL    HW123627   1.128   1.210   7.875  0.0234 -0.1345  1.6563
 3998SOL    HW223628   1.271   1.235   7.900  0.6930  0.2377 -0.7061
 3999SOL     OW23629   3.188   2.087   3.150  0.4204 -0.1334 -0.3371
 3999SOL    HW123630   3.164   2.065   3.060  0.3821  0.4665 -0.4727
 3999SOL    HW223631   3.201   2.182   3.156  1.3375 -0.2196 -0.8802
 4000SOL     OW23632   3.226   3.655   8.031 -0.2742  0.0368 -0.1090
 4000SOL    HW123633   3.289   3.646   7.960 -2.7271  0.2881 -2.3310
 4000SOL    HW223634   3.214   3.750   8.034  0.4376  0.1435 -0.4466
 4001SOL     OW23635   1.436   2.249   4.231  0.2461  0.1785  0.0127
 4001SOL    HW123636   1.400   2.337   4.236 -1.9507 -0.7377  0.1667
 4001SOL    HW223637   1.448   2.244   4.136  0.2419  1.0799 -0.0293
 4002SOL     OW23638   0.071   0.559   2.680 -0.3867  0.4040  0.7169
 4002SOL    HW123639   0.010   0.500   2.725 -0.6028 -0.8104 -1.1990
 4002SOL    HW223640   0.075   0.516   2.595  2.3400 -1.2165  1.6493
 4003SOL     OW23641   1.168   0.848   9.142  0.4138 -0.0481  0.2817
 4003SOL    HW123642   1.085   0.821   9.104  0.4336 -4.0131  3.0560
 4003SOL    HW223643   1.139   0.917   9.202  0.2746  0.7013 -0.6583
 4004SOL     OW23644   1.981   3.325   2.326 -0.1034  0.5421  0.0675
 4004SOL    HW123645   2.059   3.381   2.333 -0.8977  1.8275 -1.3290
 4004SOL    HW223646   1.907   3.386   2.326 -0.2905  0.3133  1.5676
 4005SOL     OW23647   1.999   0.865   7.424  0.4112 -0.3256 -0.6273
 4005SOL    HW123648   2.012   0.930   7.493  1.4291 -1.1963  0.0030
 4005SOL    HW223649   2.068   0.806   7.456 -1.6747 -1.9154  0.9843
 4006SOL     OW23650   4.163   1.489   8.791  0.1233  0.3154 -0.2898
 4006SOL    HW123651   4.104   1.489   8.866  0.0511 -1.1136 -0.3573
 4006SOL    HW223652   4.170   1.400   8.757 -1.0915  0.7314 -1.6543
 4007SOL     OW23653   3.997   0.191   3.354 -0.0102 -0.4073  0.2454
 4007SOL    HW123654   3.992   0.215   3.446  0.1663  1.1506 -0.1482
 4007SOL    HW223655   4.017   0.098   3.352  0.0354 -0.3966  0.2009
 4008SOL     OW23656   1.367   0.082  15.544  0.2537  0.2022  0.4019
 4008SOL    HW123657   1.340   4.731  15.566 -1.8813 -0.1010 -3.6221
 4008SOL    HW223658   1.458   0.057  15.531 -0.4487 -1.8025 -0.5198
 4009SOL     OW23659   0.617   4.480   4.928  0.1738  0.3108 -0.2697
 4009SOL    HW123660   0.608   4.555   4.987 -0.1042 -0.1204  0.2336
 4009SOL    HW223661   0.533   4.437   4.946  0.0773 -0.5464 -2.7677
 4010SOL     OW23662   0.494   2.972  17.027  0.0741 -0.2625 -0.1320
 4010SOL    HW123663   0.519   2.881  17.012 -4.1035 -1.3140 -0.7748
 4010SOL    HW223664   0.475   3.007  16.940 -2.0108 -0.9277  0.0450
 4011SOL     OW23665   2.046   0.721  12.002  0.7931 -0.4141  0.2037
 4011SOL    HW123666   1.958   0.695  12.031  0.4290  0.5384 -0.0222
 4011SOL    HW223667   2.062   0.635  11.964 -1.1886 -1.3344  1.4108
 4012SOL     OW23668   4.509   2.875   8.536  0.4662  0.0851  0.0007
 4012SOL    HW123669   4.441   2.895   8.600  0.3764  1.9634 -0.6701
 4012SOL    HW223670   4.518   2.783   8.558 -2.1769 -0.0883  0.4357
 4013SOL     OW23671   1.058   0.323  11.415 -0.0216  0.5372  0.0668
 4013SOL    HW123672   1.095   0.291  11.497  0.6962 -2.8731 -1.5737
 4013SOL    HW223673   1.138   0.313  11.362  0.9734  1.1971  1.4305
 4014SOL     OW23674   0.280   4.173   6.457  0.1761  0.1720  0.5221
 4014SOL    HW123675   0.372   4.196   6.443 -0.2868  0.5599 -1.9369
 4014SOL    HW223676   0.255   4.206   6.370 -4.5869  1.3917  2.3315
 4015SOL     OW23677   0.555   0.933  16.055 -0.3343  0.5618  0.4703
 4015SOL    HW123678   0.474   0.885  16.072  0.1370 -0.3513  0.1720
 4015SOL    HW223679   0.568   0.914  15.962 -2.6203  2.2815 -0.2034
 4016SOL     OW23680   3.899   4.467  15.260 -0.0985 -0.2711 -0.2835
 4016SOL    HW123681   3.927   4.478  15.169 -2.1499 -3.9483 -1.3609
 4016SOL    HW223682   3.918   4.373  15.270 -0.1890  0.0502  2.9058
 4017SOL     OW23683   2.377   4.357   5.032 -0.3443 -0.2127  0.2989
 4017SOL    HW123684   2.342   4.337   5.119 -1.5920 -3.4180 -0.9418
 4017SOL    HW223685   2.441   4.425   5.052 -1.5143  1.0263 -0.1643
 4018SOL     OW23686   2.243   4.555   3.692  0.6683  0.3828 -0.3117
 4018SOL    HW123687   2.289   4.479   3.729 -0.6716 -0.5878 -0.6178
 4018SOL    HW223688   2.304   4.626   3.708  1.4846 -0.4099  0.1327
 4019SOL     OW23689   4.295   3.289   4.320  0.3058  0.6929 -0.2744
 4019SOL    HW123690   4.275   3.356   4.386 -2.2763 -0.6785  0.3396
 4019SOL    HW223691   4.276   3.341   4.242  0.0274  1.2214  0.1397
 4020SOL     OW23692   3.203   2.260   6.349  0.0815  0.3312  0.2280
 4020SOL    HW123693   3.161   2.257   6.435  1.7650  1.5958  1.0976
 4020SOL    HW223694   3.137   2.303   6.296 -0.4824  0.4960  1.0669
 4021SOL     OW23695   1.172   2.450   7.376  0.0363  0.6890  0.3730
 4021SOL    HW123696   1.190   2.527   7.322 -0.3493  0.7799  0.3729
 4021SOL    HW223697   1.262   2.421   7.392  0.0951  0.3106 -0.6281
 4022SOL     OW23698   3.157   4.329  17.227  0.1204 -0.2561 -0.6259
 4022SOL    HW123699   3.185   4.324  17.318  0.8626 -1.1176 -0.9033
 4022SOL    HW223700   3.237   4.306  17.179  0.4415  1.7724 -1.0882
 4023SOL     OW23701   2.027   1.703  17.486  1.0902  0.5796 -0.0260
 4023SOL    HW123702   1.932   1.703  17.494  0.9384  2.5559 -1.6517
 4023SOL    HW223703   2.055   1.723  17.575 -0.1508 -0.4250  0.5908
 4024SOL     OW23704   3.085   2.286   1.474  0.2125 -0.0446 -0.0076
 4024SOL    HW123705   2.998   2.252   1.494  0.1331  1.6937  2.6205
 4024SOL    HW223706   3.112   2.313   1.561  1.3734 -1.3632  0.0403
 4025SOL     OW23707   3.094   1.156  10.032 -0.0943  0.6050 -0.3443
 4025SOL    HW123708   3.185   1.147  10.001 -0.5714 -2.4551 -0.8481
 4025SOL    HW223709   3.066   1.244  10.008 -1.4482  0.2685  0.0400
 4026SOL     OW23710   1.746   1.166   5.459  0.4437  0.0661 -0.1069
 4026SOL    HW123711   1.656   1.176   5.427  0.1544 -1.8359  0.1080
 4026SOL    HW223712   1.734   1.082   5.504  0.0405  0.1901  0.0211
 4027SOL     OW23713   4.384   4.245   0.459  0.6114 -0.1969 -0.3793
 4027SOL    HW123714   4.456   4.266   0.399 -1.2872  1.1429 -2.1986
 4027SOL    HW223715   4.314   4.294   0.416  0.2009  0.1530  0.6679
 4028SOL     OW23716   3.574   2.392   9.160  0.1759 -0.1610 -0.1457
 4028SOL    HW123717   3.597   2.302   9.184  1.1369  0.3083  0.7002
 4028SOL    HW223718   3.478   2.394   9.169  0.0060 -0.2867 -2.0298
 4029SOL     OW23719   4.177   1.867  16.738 -0.2419 -0.2279  0.2541
 4029SOL    HW123720   4.251   1.821  16.698 -0.5639  0.5801 -1.2651
 4029SOL    HW223721   4.186   1.835  16.827  1.2761 -0.7448 -0.0867
 4030SOL     OW23722   3.213   3.099   2.831  0.1562 -0.1613 -0.4018
 4030SOL    HW123723   3.281   3.033   2.846 -0.0347 -0.3317 -0.3019
 4030SOL    HW223724   3.146   3.048   2.786  1.3461 -1.7815 -0.3463
 4031SOL     OW23725   3.029   4.149   7.269  0.0512 -0.0348  0.6637
 4031SOL    HW123726   3.108   4.130   7.320  0.0547 -1.3044  0.1719
 4031SOL    HW223727   3.052   4.223   7.212  1.4228 -1.9808 -1.3219
 4032SOL     OW23728   0.831   4.699   1.967 -0.2026  0.4373  0.4520
 4032SOL    HW123729   0.814   4.607   1.946  1.1004 -0.3192  2.7786
 4032SOL    HW223730   0.838   4.695   2.062 -0.4619  2.3041  0.5522
 4033SOL     OW23731   3.608   0.783   4.558  0.2946 -0.0898  0.7322
 4033SOL    HW123732   3.564   0.866   4.540  0.8074 -0.6564 -3.0919
 4033SOL    HW223733   3.689   0.801   4.511 -1.3195  3.2954 -0.7367
 4034SOL     OW23734   1.912   0.616   3.383  0.2034 -0.4469 -0.4610
 4034SOL    HW123735   1.822   0.614   3.350 -0.3282 -0.3018  0.9869
 4034SOL    HW223736   1.892   0.611   3.477  0.3232 -1.8522 -0.5147
 4035SOL     OW23737   2.456   3.903   9.467  0.3255  0.0540  0.1859
 4035SOL    HW123738   2.402   3.969   9.511  0.9192  1.6577 -1.5232
 4035SOL    HW223739   2.533   3.914   9.523  1.4987  0.9491 -1.6091
 4036SOL     OW23740   1.164   3.506  10.945  0.4422  0.2828  0.1447
 4036SOL    HW123741   1.155   3.411  10.936  2.1504  0.0201  1.2802
 4036SOL    HW223742   1.176   3.521  11.039  0.1809  0.1876  0.1941
 4037SOL     OW23743   4.149   2.803   0.224  0.5480 -0.3625  0.4071
 4037SOL    HW123744   4.152   2.711   0.253 -1.1406  0.5474  3.5090
 4037SOL    HW223745   4.140   2.860   0.300  0.4388  1.0989 -0.7112
 4038SOL     OW23746   4.560   2.374   6.068 -0.2458 -0.4465  0.1798
 4038SOL    HW123747   4.521   2.451   6.028  0.7250 -1.0425 -1.9321
 4038SOL    HW223748   4.632   2.411   6.119  0.8458 -0.2125 -1.5450
 4039SOL     OW23749   0.641   1.134   2.706  0.0496 -0.6238  0.3598
 4039SOL    HW123750   0.690   1.173   2.634 -1.5088 -0.5572 -0.6638
 4039SOL    HW223751   0.574   1.087   2.656 -0.0348 -1.5868  1.3646
 4040SOL     OW23752   0.701   3.962   3.439  0.7926  0.2331 -0.2245
 4040SOL    HW123753   0.632   3.967   3.505  0.6310 -2.0628 -0.2198
 4040SOL    HW223754   0.738   3.874   3.446  0.6463  0.1941  0.0575
 4041SOL     OW23755   0.361   3.514   4.846  0.0184  0.5671 -0.0377
 4041SOL    HW123756   0.371   3.490   4.939 -0.9035  2.2003  0.4647
 4041SOL    HW223757   0.360   3.431   4.799  0.0046 -0.1382  1.1859
 4042SOL     OW23758   4.630   1.263   7.749 -0.3443 -0.0839 -0.1562
 4042SOL    HW123759   4.560   1.223   7.800  0.3295 -0.4899  0.4562
 4042SOL    HW223760   4.575   1.303   7.682 -0.7272 -1.9217 -0.9244
 4043SOL     OW23761   3.626   1.169   4.031  0.0865 -0.1868 -0.0197
 4043SOL    HW123762   3.563   1.117   3.981  1.9886 -1.4477 -1.0917
 4043SOL    HW223763   3.595   1.260   4.025  1.1932  0.0716 -1.9483
 4044SOL     OW23764   1.630   3.234  12.505 -0.5241 -0.3838 -0.2774
 4044SOL    HW123765   1.690   3.160  12.512  0.1353  0.0079 -1.8531
 4044SOL    HW223766   1.615   3.260  12.596 -0.4380  2.9385 -1.2040
 4045SOL     OW23767   2.420   1.227   5.291 -0.2246 -0.1483  0.0715
 4045SOL    HW123768   2.378   1.145   5.314 -1.9433  0.8674  0.5451
 4045SOL    HW223769   2.359   1.288   5.333 -1.2293 -0.3573 -1.0841
 4046SOL     OW23770   3.652   1.235   7.348 -0.1753 -0.2069  0.1620
 4046SOL    HW123771   3.672   1.259   7.439  0.2810  0.3327 -0.0815
 4046SOL    HW223772   3.612   1.148   7.358 -0.1255 -0.3544 -1.0249
 4047SOL     OW23773   0.139   1.272   6.480 -0.0262 -0.0829  0.0975
 4047SOL    HW123774   0.098   1.329   6.415  1.9443  1.7682  0.4777
 4047SOL    HW223775   0.224   1.243   6.447 -0.0966  0.9399 -0.9660
 4048SOL     OW23776   2.161   0.139   2.880 -0.1785  0.0381  0.1475
 4048SOL    HW123777   2.235   0.088   2.914  0.3651 -0.0941 -1.2246
 4048SOL    HW223778   2.141   0.092   2.799  2.1912  0.8763 -0.9284
 4049SOL     OW23779   3.693   0.331   7.359  0.3358  0.5164  0.1501
 4049SOL    HW123780   3.644   0.405   7.395  2.1550  2.7568 -1.9088
 4049SOL    HW223781   3.775   0.373   7.332  1.6061 -1.4186  1.0917
 4050SOL     OW23782   3.641   3.736   7.719  0.0860  0.3278  0.5404
 4050SOL    HW123783   3.678   3.660   7.763 -0.3872 -0.5356 -0.5675
 4050SOL    HW223784   3.700   3.734   7.643 -0.2535  1.2474  0.2469
 4051SOL     OW23785   1.978   0.909   4.184  0.1418 -0.0998  1.0302
 4051SOL    HW123786   1.959   0.866   4.101  2.6762 -2.4387  1.6448
 4051SOL    HW223787   2.058   0.958   4.164  1.8871 -3.7344 -1.0555
 4052SOL     OW23788   4.449   3.489   8.774 -0.3073 -0.0939  0.3104
 4052SOL    HW123789   4.460   3.434   8.852  1.4612  1.4505  1.1337
 4052SOL    HW223790   4.530   3.471   8.726 -2.2964 -4.2005 -1.5248
 4053SOL     OW23791   4.333   4.629   3.703 -0.2238 -0.4242 -0.1242
 4053SOL    HW123792   4.361   4.588   3.622 -2.3369 -0.0499 -1.0407
 4053SOL    HW223793   4.415   4.637   3.753 -0.7807 -0.2233  0.7651
 4054SOL     OW23794   0.156   3.565   2.311  0.0708  0.0602 -0.3100
 4054SOL    HW123795   0.201   3.484   2.335  0.8022  0.4226 -0.4619
 4054SOL    HW223796   0.216   3.633   2.342  0.1414 -0.8746  1.6202
 4055SOL     OW23797   0.266   2.389  11.272  0.0411 -0.0309 -0.1954
 4055SOL    HW123798   0.357   2.368  11.251  0.7679 -0.6814  3.5261
 4055SOL    HW223799   0.218   2.307  11.273 -2.8601  1.6633  2.1273
 4056SOL     OW23800   1.814   3.748   0.502 -0.3673  0.3753  0.0397
 4056SOL    HW123801   1.792   3.739   0.409  1.3269 -0.0942 -0.3060
 4056SOL    HW223802   1.843   3.839   0.511  2.2781  0.0311 -4.8075
 4057SOL     OW23803   3.164   3.396   2.705 -0.1345 -0.2856 -0.1286
 4057SOL    HW123804   3.240   3.342   2.682 -0.0097 -0.2354  0.1653
 4057SOL    HW223805   3.207   3.477   2.733  0.4985 -0.7467  0.2149
 4058SOL     OW23806   3.475   3.469   5.910  0.3615  0.2056  0.1181
 4058SOL    HW123807   3.530   3.421   5.971 -0.7764  0.0532  1.0049
 4058SOL    HW223808   3.413   3.517   5.965 -1.2388 -0.5715 -1.0182
 4059SOL     OW23809   4.512   3.434   7.424 -0.5171 -0.5886  0.4358
 4059SOL    HW123810   4.448   3.505   7.414 -0.0334 -0.3968 -1.3098
 4059SOL    HW223811   4.559   3.459   7.503 -0.1358 -1.7762  0.5792
 4060SOL     OW23812   0.327   0.804   5.443  0.2080  0.1707  0.6385
 4060SOL    HW123813   0.303   0.724   5.396  1.5096  0.7793 -1.0211
 4060SOL    HW223814   0.362   0.768   5.525 -2.1958 -1.0133  1.1587
 4061SOL     OW23815   1.599   4.161   2.667  0.3727 -0.5298 -0.2458
 4061SOL    HW123816   1.543   4.172   2.745 -0.5511  2.5588 -1.3147
 4061SOL    HW223817   1.614   4.250   2.635 -1.2290  0.5759  2.0262
 4062SOL     OW23818   1.867   2.746   1.416 -0.2435 -0.0160 -0.2559
 4062SOL    HW123819   1.773   2.743   1.400 -0.4726 -2.1507  1.5320
 4062SOL    HW223820   1.870   2.668   1.471 -2.0765  1.7380  2.3258
 4063SOL     OW23821   3.006   3.652   7.206 -1.0870  0.9947 -0.6164
 4063SOL    HW123822   2.940   3.704   7.160  0.3602  2.6149 -0.8550
 4063SOL    HW223823   2.950   3.583   7.243  2.0127 -2.0035 -1.5167
 4064SOL     OW23824   4.109   4.683  11.472  0.7762 -0.3373 -0.2503
 4064SOL    HW123825   4.144   4.731  11.548 -0.6108 -0.3520  0.3938
 4064SOL    HW223826   4.084   4.600  11.514 -2.0985  0.1657 -0.9579
 4065SOL     OW23827   4.290   3.292   9.238 -0.4974 -0.3763 -0.4038
 4065SOL    HW123828   4.227   3.224   9.215 -0.9136 -0.1840  0.1761
 4065SOL    HW223829   4.230   3.360   9.271  0.6692  1.0851 -1.2759
 4066SOL     OW23830   0.477   3.068  11.562 -0.4961 -0.0241  0.1740
 4066SOL    HW123831   0.527   3.130  11.615 -2.0634 -0.7702  2.4990
 4066SOL    HW223832   0.462   3.116  11.480  0.0899  0.9396  0.6310
 4067SOL     OW23833   0.986   4.031   2.960 -0.1156  0.2236  0.1771
 4067SOL    HW123834   0.971   4.107   3.016 -1.2311  1.6213 -2.0456
 4067SOL    HW223835   0.947   4.068   2.881 -0.8802 -2.9520 -0.9313
 4068SOL     OW23836   2.186   0.281   6.774  0.0235 -0.3463  0.8423
 4068SOL    HW123837   2.100   0.297   6.813 -1.5689 -0.9607 -2.3885
 4068SOL    HW223838   2.215   0.372   6.773 -0.4463 -0.2214 -1.1662
 4069SOL     OW23839   0.583   3.765  13.634 -0.0122 -0.5453  0.5842
 4069SOL    HW123840   0.498   3.741  13.598 -0.7366  1.3303  1.0547
 4069SOL    HW223841   0.570   3.748  13.727  0.7583 -1.0904  0.6021
 4070SOL     OW23842   1.830   3.190  13.781 -0.0195  0.7578 -0.2579
 4070SOL    HW123843   1.864   3.237  13.705 -1.1352  0.1772 -1.1247
 4070SOL    HW223844   1.914   3.145  13.796 -2.2066 -3.1285  0.3947
 4071SOL     OW23845   2.939   0.349   5.610  0.6459 -0.0419 -0.1412
 4071SOL    HW123846   3.001   0.277   5.601  0.4630 -0.0639 -1.1999
 4071SOL    HW223847   2.878   0.325   5.680 -1.1056  2.3537 -0.8327
 4072SOL     OW23848   1.848   1.046   2.858 -0.3145  0.2717 -0.6260
 4072SOL    HW123849   1.882   0.995   2.784  0.3055 -0.8625  0.4371
 4072SOL    HW223850   1.805   0.975   2.906  1.3691 -1.3734 -1.5550
 4073SOL     OW23851   3.444   1.250  11.627 -0.4446 -0.1091  0.0082
 4073SOL    HW123852   3.378   1.302  11.581 -0.1989  0.1541 -0.0419
 4073SOL    HW223853   3.524   1.286  11.589 -1.0195 -0.7970 -1.8592
 4074SOL     OW23854   2.312   4.362   6.059 -0.2481 -0.0467  0.0859
 4074SOL    HW123855   2.270   4.401   6.136 -1.0587 -5.4360  2.3621
 4074SOL    HW223856   2.259   4.396   5.987  0.4053  0.8185  0.0172
 4075SOL     OW23857   4.172   0.101   8.846  0.2100 -0.2753  0.5365
 4075SOL    HW123858   4.149   0.192   8.866  1.3499  0.6393 -2.2413
 4075SOL    HW223859   4.240   0.086   8.912  0.2998  0.5697  0.6453
 4076SOL     OW23860   1.000   2.814  10.511 -0.0259  0.1182  0.1147
 4076SOL    HW123861   0.993   2.873  10.435  2.0446 -0.0620 -0.2218
 4076SOL    HW223862   1.042   2.874  10.572  1.0535  0.0193 -0.5380
 4077SOL     OW23863   1.590   2.002   1.191  0.1538  0.2261  0.2855
 4077SOL    HW123864   1.525   1.980   1.257  0.5446  0.3310  0.7032
 4077SOL    HW223865   1.649   2.063   1.235 -1.1447  1.4821  0.2816
 4078SOL     OW23866   1.446   1.228   4.588 -0.3984  0.4640  0.6932
 4078SOL    HW123867   1.471   1.172   4.515 -1.8740 -0.4205  0.8746
 4078SOL    HW223868   1.531   1.264   4.614  0.1781 -1.6200  1.7624
 4079SOL     OW23869   4.227   0.406   5.741  0.7040  0.6215 -0.1652
 4079SOL    HW123870   4.141   0.417   5.702 -0.1885 -0.7591  1.3993
 4079SOL    HW223871   4.236   0.313   5.720 -1.2490  0.2016  0.8299
 4080SOL     OW23872   4.524   0.980   5.396 -0.4140  0.5462  0.2680
 4080SOL    HW123873   4.469   0.972   5.473 -2.3235  1.2873 -1.0282
 4080SOL    HW223874   4.559   1.069   5.400  3.6551 -1.0713  1.2132
 4081SOL     OW23875   0.777   1.713   6.420  0.6675  0.3295  0.2726
 4081SOL    HW123876   0.795   1.805   6.404  1.9121 -0.1636 -1.2837
 4081SOL    HW223877   0.848   1.694   6.482  0.6166 -1.7425 -0.2938
 4082SOL     OW23878   2.014   4.653   8.756  0.0442  0.3458 -0.2401
 4082SOL    HW123879   1.948   4.699   8.808 -1.0484 -0.3621 -1.0046
 4082SOL    HW223880   2.006   4.563   8.786 -2.0683  0.2700 -1.1022
 4083SOL     OW23881   0.509   2.461   5.467 -0.0841  0.5954 -0.1193
 4083SOL    HW123882   0.513   2.365   5.468  0.0614  0.5721 -2.5252
 4083SOL    HW223883   0.470   2.480   5.552 -0.6961 -0.6874 -0.1041
 4084SOL     OW23884   0.675   0.487   5.983 -0.1882  0.4088 -0.3261
 4084SOL    HW123885   0.659   0.393   5.971 -0.4460  0.6144 -1.6616
 4084SOL    HW223886   0.748   0.489   6.045 -0.2674 -0.1085 -0.2191
 4085SOL     OW23887   3.785   3.724  13.194 -0.1876  0.4970 -0.0302
 4085SOL    HW123888   3.873   3.711  13.158  0.2914 -0.5732  1.4745
 4085SOL    HW223889   3.728   3.722  13.118  0.4073  2.5562 -0.5356
 4086SOL     OW23890   1.487   2.025  12.934  0.6867 -0.5159  0.5600
 4086SOL    HW123891   1.569   2.073  12.926  1.6019 -2.2788 -0.7477
 4086SOL    HW223892   1.512   1.938  12.902  0.6895 -0.5727  0.7173
 4087SOL     OW23893   0.051   3.721   3.119  0.2353 -0.0221  0.1088
 4087SOL    HW123894   0.019   3.780   3.188 -1.1915  0.2560 -0.8087
 4087SOL    HW223895   4.709   3.714   3.068 -0.3591  1.5109  0.8312
 4088SOL     OW23896   1.614   2.492   6.475 -0.2331  0.3631  0.4758
 4088SOL    HW123897   1.614   2.401   6.444  0.0727  0.4555  0.1992
 4088SOL    HW223898   1.520   2.500   6.493 -0.2526 -1.0189  1.0112
 4089SOL     OW23899   1.344   4.381   8.720  0.0566 -0.0539  0.1522
 4089SOL    HW123900   1.260   4.335   8.721  1.1391 -2.0018  0.8485
 4089SOL    HW223901   1.324   4.445   8.652  4.0536  1.3490  0.3244
 4090SOL     OW23902   2.843   1.559   5.665  0.0704 -0.1395  0.7858
 4090SOL    HW123903   2.932   1.574   5.631 -0.5597  1.1232 -0.2992
 4090SOL    HW223904   2.859   1.485   5.724 -2.4413  1.4026  3.3585
 4091SOL     OW23905   1.816   1.918   1.537 -0.2587  0.8643  0.2908
 4091SOL    HW123906   1.895   1.932   1.485 -0.2173  1.6057  0.5540
 4091SOL    HW223907   1.788   1.843   1.485 -1.8163  2.7411 -1.6210
 4092SOL     OW23908   0.797   1.023  11.008  0.2070 -0.0864 -0.3123
 4092SOL    HW123909   0.756   0.998  11.090 -0.8512  0.9946 -0.5213
 4092SOL    HW223910   0.850   0.949  10.977  2.8170  1.2202  1.1059
 4093SOL     OW23911   3.478   2.668  16.145 -0.3000  0.3773 -0.8366
 4093SOL    HW123912   3.384   2.651  16.139 -0.3442  0.7879 -1.3588
 4093SOL    HW223913   3.512   2.585  16.177 -0.7717  0.7907  0.7109
 4094SOL     OW23914   3.257   2.920   1.195  0.5999  0.8597  0.1510
 4094SOL    HW123915   3.283   3.008   1.171 -0.4684  1.2246  0.3407
 4094SOL    HW223916   3.163   2.930   1.182  0.6494  2.4054  1.0199
 4095SOL     OW23917   2.844   2.246   3.556  0.1683  0.2660  0.0637
 4095SOL    HW123918   2.870   2.270   3.645  0.2571  0.1323  0.0745
 4095SOL    HW223919   2.862   2.329   3.512 -1.0514 -0.5077 -1.8890
 4096SOL     OW23920   4.425   4.506   9.217  0.3720 -0.1090 -0.2732
 4096SOL    HW123921   4.483   4.544   9.151  0.1563 -0.4088 -0.6397
 4096SOL    HW223922   4.499   4.489   9.276 -0.8564  2.0904  1.9141
 4097SOL     OW23923   0.534   1.104  12.603  0.2849 -0.7841  0.1163
 4097SOL    HW123924   0.618   1.085  12.563  0.0570 -0.4218 -0.5372
 4097SOL    HW223925   0.536   1.199  12.613 -1.0457 -0.7941  0.5131
 4098SOL     OW23926   0.640   1.724   3.622  0.0187  0.0672  0.1238
 4098SOL    HW123927   0.645   1.740   3.716 -3.8766 -0.0896  0.3598
 4098SOL    HW223928   0.550   1.749   3.602 -0.2801 -0.3780  0.8906
 4099SOL     OW23929   3.334   0.347   6.383 -0.1562 -0.5140  0.0454
 4099SOL    HW123930   3.419   0.386   6.402 -0.6551  1.6707 -2.1136
 4099SOL    HW223931   3.296   0.383   6.302 -1.1837  0.7416  1.0868
 4100SOL     OW23932   2.408   1.319   4.628  0.1108  0.1125  0.3760
 4100SOL    HW123933   2.363   1.327   4.544  0.3485 -3.3966 -0.0799
 4100SOL    HW223934   2.448   1.406   4.624 -0.8353  0.5669  0.8310
 4101SOL     OW23935   1.821   0.509  17.674  0.4040 -0.9274 -0.1581
 4101SOL    HW123936   1.831   0.417  17.698  1.3992 -1.0661 -1.1208
 4101SOL    HW223937   1.837   0.505  17.580  0.1378  1.5668 -0.3050
 4102SOL     OW23938   0.774   0.021   9.798 -0.0111 -0.1183  0.4429
 4102SOL    HW123939   0.751   0.087   9.864  0.7800  0.0113  0.5944
 4102SOL    HW223940   0.866   0.039   9.778 -0.7100  1.3676 -1.3676
 4103SOL     OW23941   4.272   4.394  15.965  0.0169  0.4558 -0.4411
 4103SOL    HW123942   4.324   4.324  16.004  1.1804  2.3280  1.3804
 4103SOL    HW223943   4.223   4.427  16.041  0.3660 -1.1261  0.4819
 4104SOL     OW23944   2.581   4.000   2.346  0.0637 -0.5338  0.2237
 4104SOL    HW123945   2.537   3.968   2.426  0.8594  1.1111  1.3166
 4104SOL    HW223946   2.564   4.094   2.348 -0.5824 -0.6835  2.2757
 4105SOL     OW23947   2.290   4.553   0.811 -0.2958  0.5270 -0.1167
 4105SOL    HW123948   2.288   4.626   0.872  1.7573  0.2520  0.2762
 4105SOL    HW223949   2.198   4.528   0.822  0.0948 -0.1479  1.6721
 4106SOL     OW23950   2.043   3.801  13.597 -0.8224 -0.3416 -0.4486
 4106SOL    HW123951   2.071   3.768  13.682  3.6623 -1.1588 -2.2183
 4106SOL    HW223952   2.128   3.805  13.553 -0.3886  1.7121  0.5601
 4107SOL     OW23953   0.546   2.738   1.400  0.0051 -0.4654 -0.3352
 4107SOL    HW123954   0.582   2.785   1.475 -1.8447 -0.3510  0.4589
 4107SOL    HW223955   0.479   2.686   1.444  0.2317 -0.1325  0.4026
 4108SOL     OW23956   0.255   1.324   7.726 -0.4899 -0.0268  0.5754
 4108SOL    HW123957   0.238   1.316   7.632 -0.7172  0.5404  0.5640
 4108SOL    HW223958   0.348   1.303   7.722 -1.0652 -2.3049 -0.7617
 4109SOL     OW23959   2.910   4.062  10.298 -0.0230 -0.7775 -0.0095
 4109SOL    HW123960   2.972   4.067  10.225  0.2288 -1.4945  0.1595
 4109SOL    HW223961   2.936   4.146  10.337  1.3434 -0.6873 -1.0989
 4110SOL     OW23962   3.534   4.646  13.470 -0.2764  0.4030  0.0535
 4110SOL    HW123963   3.444   4.634  13.498 -0.1240  0.3519  0.5267
 4110SOL    HW223964   3.583   4.591  13.531 -0.9124  1.1703  1.2484
 4111SOL     OW23965   3.054   2.497  11.577 -0.0641 -0.3311  0.0377
 4111SOL    HW123966   3.124   2.507  11.642 -0.4826  0.4451  0.3760
 4111SOL    HW223967   2.985   2.559  11.601 -0.4736 -1.3323  1.4794
 4112SOL     OW23968   1.997   0.238   0.645 -0.4316 -0.4693 -0.2000
 4112SOL    HW123969   1.917   0.197   0.678 -0.6562 -0.3821 -0.6361
 4112SOL    HW223970   1.998   0.192   0.561 -3.6879 -2.2785  0.7570
 4113SOL     OW23971   1.115   2.620  12.341  0.2976 -0.1464  0.3989
 4113SOL    HW123972   1.052   2.642  12.409 -0.3247 -0.3835 -0.1007
 4113SOL    HW223973   1.094   2.697  12.288 -0.4516 -0.8251 -0.2919
 4114SOL     OW23974   3.615   3.764   5.845  0.1887 -0.0176  0.1377
 4114SOL    HW123975   3.590   3.702   5.913 -1.0740 -0.8039 -1.0415
 4114SOL    HW223976   3.707   3.739   5.837 -0.1571 -1.1703 -0.1406
 4115SOL     OW23977   3.051   2.200  11.043  0.5927  0.0009  0.0470
 4115SOL    HW123978   3.078   2.231  11.129 -0.0930  3.7571 -1.0846
 4115SOL    HW223979   3.012   2.282  11.012  0.3362 -1.3103 -3.1656
 4116SOL     OW23980   3.678   3.439  11.855 -0.3113 -0.2689 -0.2276
 4116SOL    HW123981   3.584   3.440  11.838 -0.1636 -0.6388 -1.0539
 4116SOL    HW223982   3.708   3.374  11.791 -3.5337 -0.9335 -1.0373
 4117SOL     OW23983   0.506   0.778  12.555  0.4987 -0.2665 -0.3981
 4117SOL    HW123984   0.592   0.790  12.596  0.9968 -1.0180 -1.2303
 4117SOL    HW223985   0.457   0.752  12.633  0.0295 -1.4292 -1.0830
 4118SOL     OW23986   1.230   0.485   4.389 -0.3807  0.1029  0.4305
 4118SOL    HW123987   1.174   0.407   4.388  0.2869 -0.3627 -0.2643
 4118SOL    HW223988   1.311   0.448   4.423 -0.0970  0.3519  0.0242
 4119SOL     OW23989   4.047   0.724  10.673  0.0396 -0.1533  0.1165
 4119SOL    HW123990   3.981   0.658  10.648  1.6963 -1.3171 -1.1770
 4119SOL    HW223991   4.120   0.672  10.705 -2.2761 -3.1184  0.5788
 4120SOL     OW23992   2.981   3.463   4.615 -0.3089 -0.2848 -0.3651
 4120SOL    HW123993   2.892   3.484   4.642 -1.6488 -2.8334 -2.8692
 4120SOL    HW223994   3.028   3.533   4.660 -1.6712  0.8514 -0.7042
 4121SOL     OW23995   0.783   3.298   4.464  0.1061  0.1578 -0.3312
 4121SOL    HW123996   0.758   3.232   4.399  0.2240 -0.2249  0.0037
 4121SOL    HW223997   0.794   3.246   4.544 -1.0148  0.7145  0.1831
 4122SOL     OW23998   2.719   0.608   5.641 -0.3367  0.2257  0.3935
 4122SOL    HW123999   2.703   0.697   5.671 -1.1157  1.1829 -2.8342
 4122SOL    HW224000   2.642   0.566   5.679  0.6098  0.1268  2.1880
 4123SOL     OW24001   2.826   0.612   2.199  0.2631 -0.4285  0.0764
 4123SOL    HW124002   2.870   0.595   2.116 -1.3172 -0.9975 -0.6256
 4123SOL    HW224003   2.765   0.683   2.180  1.4386  0.5196 -0.1396
 4124SOL     OW24004   4.654   4.069   1.008 -0.5347  0.9073 -0.9277
 4124SOL    HW124005   4.622   3.990   1.052  2.7814  0.0741 -0.0494
 4124SOL    HW224006   4.629   4.053   0.917 -1.6397  1.1017 -0.6650
 4125SOL     OW24007   2.758   0.514  10.446  0.0011  0.1283 -0.0869
 4125SOL    HW124008   2.728   0.433  10.403 -2.6836  1.2200 -0.2785
 4125SOL    HW224009   2.804   0.557  10.374 -1.7316  0.6863 -0.8544
 4126SOL     OW24010   0.918   0.504   3.417  0.1222  0.4160  0.3429
 4126SOL    HW124011   0.889   0.467   3.500 -0.7880  0.8154  0.2095
 4126SOL    HW224012   0.860   0.451   3.362 -0.0967  2.1044 -1.0712
 4127SOL     OW24013   0.726   4.626   5.997  0.2321 -0.1283  0.4453
 4127SOL    HW124014   0.766   4.632   5.911 -0.8940 -0.4865 -0.0934
 4127SOL    HW224015   0.633   4.610   5.981  0.1308  2.4605 -1.6277
 4128SOL     OW24016   3.557   1.052   8.539 -0.0643 -0.5325 -0.0503
 4128SOL    HW124017   3.550   1.139   8.578 -0.5142 -0.1422 -1.0252
 4128SOL    HW224018   3.652   1.050   8.551  0.0134  3.7507 -0.1994
 4129SOL     OW24019   1.870   3.999  10.703 -0.3970  0.5159  0.3725
 4129SOL    HW124020   1.845   4.090  10.686  1.1154  1.2041  1.7953
 4129SOL    HW224021   1.812   3.981  10.777  0.5503  0.1478  1.0317
 4130SOL     OW24022   3.088   3.121   8.376  0.1470 -0.5413 -0.1049
 4130SOL    HW124023   3.074   3.213   8.396  1.1784 -0.7733  1.6934
 4130SOL    HW224024   3.063   3.068   8.452  1.7260  1.8851  2.0861
 4131SOL     OW24025   3.227   4.559   4.143 -0.7585  0.7158  0.8051
 4131SOL    HW124026   3.215   4.474   4.186  1.8735 -1.1483 -2.1484
 4131SOL    HW224027   3.203   4.619   4.214 -4.1090 -0.5836  0.7351
 4132SOL     OW24028   3.364   2.124   8.443 -0.0271 -0.3202  0.2926
 4132SOL    HW124029   3.386   2.034   8.467 -2.8858 -1.3262 -0.8544
 4132SOL    HW224030   3.372   2.119   8.347 -0.9044 -0.2194  0.2044
 4133SOL     OW24031   2.613   1.716   1.185 -0.3783  0.4077 -0.2559
 4133SOL    HW124032   2.660   1.796   1.162  0.6516  0.5475  2.3352
 4133SOL    HW224033   2.679   1.647   1.180  0.5320  1.2117  0.8189
 4134SOL     OW24034   3.091   0.159   7.478  0.2123  0.4045 -0.4142
 4134SOL    HW124035   3.044   0.235   7.512  0.6968  0.7783 -0.5787
 4134SOL    HW224036   3.019   0.130   7.423 -1.3778  0.8412  1.4307
 4135SOL     OW24037   2.789   0.958   3.159  0.2231 -0.1218 -0.1206
 4135SOL    HW124038   2.744   0.969   3.075  0.1518  2.3317  0.2511
 4135SOL    HW224039   2.761   0.876   3.201 -1.0637 -0.5732 -1.8541
 4136SOL     OW24040   1.749   1.013   3.940  0.4577 -0.3445  0.0885
 4136SOL    HW124041   1.761   0.918   3.938 -0.5225 -0.4716  0.2233
 4136SOL    HW224042   1.691   1.026   3.864  0.8418  1.8764  0.1593
 4137SOL     OW24043   3.508   1.045   9.046  0.6803 -0.2746 -0.6042
 4137SOL    HW124044   3.457   0.971   9.012 -1.0969  0.4510  0.5357
 4137SOL    HW224045   3.513   1.018   9.138  1.1796  0.4066 -0.4364
 4138SOL     OW24046   0.468   3.820   6.413 -0.0099 -0.2416 -0.1596
 4138SOL    HW124047   0.502   3.893   6.362 -1.2483  0.2326 -0.3223
 4138SOL    HW224048   0.549   3.772   6.432 -1.3786 -1.5354  2.4723
 4139SOL     OW24049   0.591   2.138   1.301 -0.5066  0.0109 -0.1610
 4139SOL    HW124050   0.533   2.089   1.361  0.2026 -0.3152  0.2555
 4139SOL    HW224051   0.567   2.103   1.215 -0.7019  1.1434 -0.5599
 4140SOL     OW24052   3.607   2.254   8.851 -0.4797 -0.1787 -0.2853
 4140SOL    HW124053   3.554   2.328   8.880 -0.8181 -0.3710 -0.4098
 4140SOL    HW224054   3.694   2.294   8.844 -1.1042  1.0910 -0.9471
 4141SOL     OW24055   3.983   0.489   2.735 -0.2243  0.0976  1.1155
 4141SOL    HW124056   3.925   0.480   2.810 -1.4167  1.0254  0.2987
 4141SOL    HW224057   4.010   0.399   2.718  2.0760  0.7901  1.1047
 4142SOL     OW24058   2.496   2.136  14.969 -0.2102  0.2415  0.0414
 4142SOL    HW124059   2.557   2.190  15.019  1.8081 -1.3649 -0.7143
 4142SOL    HW224060   2.516   2.171  14.882  2.2187 -0.5375  0.2886
 4143SOL     OW24061   2.533   4.589   4.757  0.1002  0.0799 -0.0615
 4143SOL    HW124062   2.617   4.548   4.739 -0.3141 -1.4234  1.4108
 4143SOL    HW224063   2.563   4.666   4.805  1.2220 -0.3900 -0.0148
 4144SOL     OW24064   4.362   3.689   6.883  0.4366  0.6811 -0.2938
 4144SOL    HW124065   4.283   3.642   6.910  0.5355  0.2531 -0.7601
 4144SOL    HW224066   4.418   3.694   6.961 -1.6420  1.9605  1.1557
 4145SOL     OW24067   1.217   2.188   6.708 -0.4210 -0.0370 -0.0109
 4145SOL    HW124068   1.171   2.227   6.783 -0.0102 -2.4783  1.5394
 4145SOL    HW224069   1.229   2.097   6.736 -1.4720 -0.6876 -1.6919
 4146SOL     OW24070   2.450   3.640   4.776 -0.0551 -0.7120  0.2447
 4146SOL    HW124071   2.385   3.599   4.719 -0.8263  0.0609  0.5585
 4146SOL    HW224072   2.452   3.586   4.855  0.1717  2.1069  2.1671
 4147SOL     OW24073   4.709   1.315   5.837 -0.2394  0.0001  0.5909
 4147SOL    HW124074   0.032   1.253   5.797 -1.4295 -1.1391  0.5624
 4147SOL    HW224075   4.727   1.398   5.792 -0.9594  0.5615  1.3425
 4148SOL     OW24076   4.135   2.414   2.241 -0.5453 -0.3431  0.2692
 4148SOL    HW124077   4.192   2.478   2.199 -0.9489  0.0839  0.3853
 4148SOL    HW224078   4.057   2.428   2.188  0.0392 -1.3867 -0.8780
 4149SOL     OW24079   0.347   1.055   8.014 -0.0118  0.0764 -0.4484
 4149SOL    HW124080   0.424   1.033   8.067 -0.3254  1.9662  0.8196
 4149SOL    HW224081   0.288   1.069   8.089  0.6789 -3.3561  0.6993
 4150SOL     OW24082   3.064   0.995   4.351 -0.2760 -0.1654 -0.1657
 4150SOL    HW124083   3.084   0.969   4.441  1.1881  0.8146 -0.2055
 4150SOL    HW224084   3.005   0.926   4.320 -1.9396  0.5663  1.4047
 4151SOL     OW24085   1.722   3.501   1.645  0.0901 -0.1617 -0.5423
 4151SOL    HW124086   1.788   3.555   1.687  0.3590 -1.2861  0.4732
 4151SOL    HW224087   1.783   3.446   1.595  0.4014  0.7955 -1.2319
 4152SOL     OW24088   1.577   0.082   3.154  0.0808  0.1897  0.3759
 4152SOL    HW124089   1.610   0.082   3.244 -2.8410 -0.6352  1.4628
 4152SOL    HW224090   1.655   0.053   3.107 -0.2477  2.8521 -1.7618
 4153SOL     OW24091   3.269   1.107   8.861 -0.3046 -0.3554  0.0870
 4153SOL    HW124092   3.288   1.201   8.865 -3.2084  0.0888  3.1409
 4153SOL    HW224093   3.271   1.080   8.953  0.3881  2.4498  0.8895
 4154SOL     OW24094   3.711   1.787   4.323  0.4384 -0.6652  0.0780
 4154SOL    HW124095   3.767   1.865   4.323 -2.6607  1.5598  2.8813
 4154SOL    HW224096   3.674   1.790   4.411 -0.6304 -0.3877 -0.3707
 4155SOL     OW24097   2.090   2.900  13.969 -0.3384  0.5552  0.3883
 4155SOL    HW124098   2.056   2.890  13.880  2.0027  0.0604 -0.4641
 4155SOL    HW224099   2.088   2.995  13.977 -2.4972  0.4526  0.9303
 4156SOL     OW24100   2.340   2.703  17.578 -0.3902  0.2065  0.0882
 4156SOL    HW124101   2.247   2.696  17.601 -0.3412  3.4214  1.2138
 4156SOL    HW224102   2.352   2.798  17.576 -3.0144  0.5597  0.1818
 4157SOL     OW24103   0.644   0.778   2.770  0.3610 -0.3083  0.0044
 4157SOL    HW124104   0.621   0.685   2.773 -2.9613  0.4903  0.0456
 4157SOL    HW224105   0.594   0.810   2.695 -0.4947  0.1497  0.7712
 4158SOL     OW24106   2.475   1.923  12.904 -0.4474 -0.1320 -0.2346
 4158SOL    HW124107   2.544   1.939  12.840  0.9600 -1.8976  0.8257
 4158SOL    HW224108   2.501   1.966  12.986 -1.0738 -1.3944  0.6259
 4159SOL     OW24109   3.790   1.953   5.350  0.4241 -0.2939 -0.3213
 4159SOL    HW124110   3.737   2.010   5.404  0.5919  1.7898 -2.3625
 4159SOL    HW224111   3.842   1.905   5.415  0.5549 -0.1223 -0.2989
 4160SOL     OW24112   4.167   0.153   6.540 -0.0272 -0.0049  0.1305
 4160SOL    HW124113   4.080   0.190   6.555 -0.2307  0.1055 -1.3436
 4160SOL    HW224114   4.182   0.103   6.620 -0.4377 -0.3973 -0.0355
 4161SOL     OW24115   2.473   2.531   2.756 -0.1134  0.4003 -0.1646
 4161SOL    HW124116   2.404   2.585   2.795  2.3083  1.3026  2.9311
 4161SOL    HW224117   2.430   2.459   2.710 -1.1220  2.0022 -1.7151
 4162SOL     OW24118   0.175   2.428   6.025  0.3127 -0.3381 -0.4004
 4162SOL    HW124119   0.202   2.499   5.968 -0.0743  1.1262  1.2422
 4162SOL    HW224120   0.211   2.349   5.985 -0.4617 -1.0657  0.3145
 4163SOL     OW24121   1.898   3.602   5.501 -0.1162  0.4688  0.7908
 4163SOL    HW124122   1.850   3.641   5.573 -0.3373  0.7462  0.4919
 4163SOL    HW224123   1.938   3.678   5.458 -0.1208 -0.2183 -0.4546
 4164SOL     OW24124   2.176   0.307  12.700 -0.3330 -0.4973  0.8360
 4164SOL    HW124125   2.091   0.334  12.666  2.1328  2.8703 -2.6154
 4164SOL    HW224126   2.231   0.361  12.644  1.0335 -2.6709  0.0875
 4165SOL     OW24127   4.071   3.990  17.212  0.2710 -0.3973  0.4100
 4165SOL    HW124128   4.105   4.077  17.194  1.1064 -0.9777 -0.8078
 4165SOL    HW224129   4.008   3.975  17.142  0.4388 -0.9507  0.3811
 4166SOL     OW24130   1.499   4.169   1.234  0.4765  0.2078  0.0305
 4166SOL    HW124131   1.564   4.203   1.173  1.8324  0.1713  1.4389
 4166SOL    HW224132   1.440   4.140   1.165  0.4868 -0.1534  0.1699
 4167SOL     OW24133   2.905   0.620   3.868 -0.3446 -0.7292 -0.3983
 4167SOL    HW124134   2.814   0.607   3.895 -0.8892  0.8266 -1.4356
 4167SOL    HW224135   2.893   0.644   3.776  1.1554 -0.2249 -0.4638
 4168SOL     OW24136   1.991   0.124  16.162  0.1779  0.4286  0.1291
 4168SOL    HW124137   2.080   0.127  16.126  0.6107 -1.6660  1.0591
 4168SOL    HW224138   2.000   0.154  16.252  1.3475 -2.0969  0.8573
 4169SOL     OW24139   2.440   0.300   7.928  0.2607  0.2206  0.3503
 4169SOL    HW124140   2.443   0.392   7.900  1.0549  0.3517  0.8500
 4169SOL    HW224141   2.345   0.291   7.936  0.1120 -0.8916 -2.5726
 4170SOL     OW24142   1.345   2.595   8.826  0.5298 -0.6900 -0.3417
 4170SOL    HW124143   1.356   2.579   8.920  0.3383  0.4373 -0.1213
 4170SOL    HW224144   1.253   2.570   8.819  0.5073 -0.5326 -0.6187
 4171SOL     OW24145   0.838   4.162   1.880  0.1900  0.4228  0.5596
 4171SOL    HW124146   0.824   4.204   1.965 -1.1444 -1.4935  1.2884
 4171SOL    HW224147   0.881   4.229   1.827  0.4671  1.2114  1.7955
 4172SOL     OW24148   0.042   4.321   7.567  0.6536  0.4044  0.1000
 4172SOL    HW124149   4.715   4.358   7.627  0.4875 -0.0359  0.1959
 4172SOL    HW224150   0.086   4.267   7.633 -1.0927 -0.8298  0.2627
 4173SOL     OW24151   2.078   3.548  13.407  0.4366 -0.1325  0.1749
 4173SOL    HW124152   2.071   3.604  13.329 -0.3153  0.5248  0.7050
 4173SOL    HW224153   2.008   3.585  13.461 -0.9667  2.4130 -3.3240
 4174SOL     OW24154   3.634   2.177   0.612  0.2007  0.3114  0.9105
 4174SOL    HW124155   3.629   2.242   0.682  0.9110  1.0834  0.2370
 4174SOL    HW224156   3.632   2.101   0.670  0.4906 -0.8140 -0.5643
 4175SOL     OW24157   2.969   3.451   2.224  0.2508 -0.1650 -0.0870
 4175SOL    HW124158   2.926   3.394   2.160 -0.7056 -0.4386  0.7962
 4175SOL    HW224159   2.990   3.396   2.300  0.3904 -1.6609 -1.2151
 4176SOL     OW24160   0.099   3.052   8.261 -0.0761  0.3250 -0.7985
 4176SOL    HW124161   0.096   3.086   8.172  1.6852 -0.5328 -1.1738
 4176SOL    HW224162   0.097   3.134   8.311 -1.0939 -0.8950  1.1727
 4177SOL     OW24163   3.824   0.546   3.663  0.0349 -0.3801 -0.3825
 4177SOL    HW124164   3.755   0.521   3.724 -0.0254  0.0597 -0.2660
 4177SOL    HW224165   3.833   0.635   3.698  0.7043 -0.9767  0.9439
 4178SOL     OW24166   3.219   1.339   0.042  0.1971  0.0499  0.0021
 4178SOL    HW124167   3.209   1.314   0.134  2.0299  1.1482  0.4946
 4178SOL    HW224168   3.134   1.305   0.012  0.6660 -0.7548 -0.4271
 4179SOL     OW24169   3.892   2.642   7.222  0.2578 -0.0681 -0.5040
 4179SOL    HW124170   3.812   2.627   7.170  0.8700 -0.4085 -1.3404
 4179SOL    HW224171   3.912   2.730   7.191  1.5419 -0.3531 -0.4475
 4180SOL     OW24172   0.624   2.574  11.769  0.5061  0.1641  0.0474
 4180SOL    HW124173   0.528   2.573  11.767  0.4834  0.1758  1.4394
 4180SOL    HW224174   0.636   2.619  11.852  0.7390 -2.3437  1.3494
 4181SOL     OW24175   4.262   2.473  12.182 -0.2336 -0.2643  0.1231
 4181SOL    HW124176   4.329   2.418  12.222 -0.3109  0.3255  1.0867
 4181SOL    HW224177   4.259   2.428  12.098 -2.4083  0.6030 -0.2695
 4182SOL     OW24178   2.449   1.200  10.971  0.4097 -0.0610 -0.3397
 4182SOL    HW124179   2.439   1.294  10.958  0.6942  0.0567  0.2823
 4182SOL    HW224180   2.537   1.191  11.009 -0.3933 -1.7095  1.1365
 4183SOL     OW24181   1.888   2.821   3.527  0.2854  0.1898 -0.0688
 4183SOL    HW124182   1.800   2.794   3.500  0.7331  0.2699 -1.6368
 4183SOL    HW224183   1.872   2.904   3.571  1.2176  0.7433 -0.7820
 4184SOL     OW24184   1.456   2.584   0.561 -0.2126  0.2895 -0.1741
 4184SOL    HW124185   1.538   2.628   0.583  0.7816 -1.8548  0.4280
 4184SOL    HW224186   1.396   2.655   0.584 -0.4882  0.2168 -0.6561
 4185SOL     OW24187   2.577   0.910   7.132 -0.3288 -0.4916 -0.7279
 4185SOL    HW124188   2.659   0.866   7.157 -2.0190 -2.6352  0.9561
 4185SOL    HW224189   2.577   0.994   7.178 -1.2199  1.4211 -4.2715
 4186SOL     OW24190   3.801   2.544  12.876 -0.0177 -0.3878  0.0008
 4186SOL    HW124191   3.776   2.636  12.882 -0.4822 -0.6430  1.9179
 4186SOL    HW224192   3.828   2.536  12.967 -0.6851 -2.1884  0.0378
 4187SOL     OW24193   0.497   4.207  10.187  0.1735  0.3244  0.0564
 4187SOL    HW124194   0.422   4.251  10.226 -1.0235 -1.4983 -0.2026
 4187SOL    HW224195   0.561   4.277  10.174 -0.9882  1.5272  0.9264
 4188SOL     OW24196   0.342   4.686  12.127  0.4480 -0.3894  0.0449
 4188SOL    HW124197   0.273   4.686  12.193 -0.9551 -2.2847 -1.4085
 4188SOL    HW224198   0.412   0.008  12.153 -2.0091  2.2420  0.6085
 4189SOL     OW24199   1.538   2.471   0.294 -0.1752  0.3108 -0.7157
 4189SOL    HW124200   1.505   2.389   0.331 -1.1108  1.8363  1.8198
 4189SOL    HW224201   1.508   2.544   0.347  0.7735  0.1866 -0.0099
 4190SOL     OW24202   0.685   1.576   5.141 -0.4029 -0.3590 -0.3374
 4190SOL    HW124203   0.756   1.515   5.161 -1.7505 -1.6971  0.3787
 4190SOL    HW224204   0.609   1.517   5.147 -1.4139  1.1832  1.7846
 4191SOL     OW24205   2.829   0.097   2.799 -0.2273 -0.7487  0.1875
 4191SOL    HW124206   2.786   0.047   2.868 -1.0790  0.1385  0.2983
 4191SOL    HW224207   2.791   0.182   2.820 -1.4103 -1.4428  0.8191
 4192SOL     OW24208   1.067   4.009   6.619 -0.6334 -0.0747  0.0859
 4192SOL    HW124209   1.004   3.938   6.630  1.7767 -2.4667 -1.6034
 4192SOL    HW224210   1.070   4.019   6.524 -0.0360  2.2730  0.3418
 4193SOL     OW24211   3.401   3.169   4.133  1.5880  0.0860 -0.0592
 4193SOL    HW124212   3.444   3.119   4.064 -0.8081  1.2011 -2.3816
 4193SOL    HW224213   3.376   3.248   4.086  1.2151  0.1949  0.3207
 4194SOL     OW24214   1.125   0.546   8.912 -0.2644 -0.2155 -0.1149
 4194SOL    HW124215   1.096   0.534   8.821 -0.0300 -5.3199  0.4986
 4194SOL    HW224216   1.064   0.496   8.966 -0.7841 -2.2358 -2.5632
 4195SOL     OW24217   3.140   2.355  14.500  0.0757 -0.6651  0.6103
 4195SOL    HW124218   3.084   2.367  14.577 -3.2953 -2.0698 -1.6115
 4195SOL    HW224219   3.114   2.425  14.440 -0.2345  0.8260  2.5018
 4196SOL     OW24220   4.306   0.097  11.030  0.7876  0.3229  0.0895
 4196SOL    HW124221   4.357   0.060  11.101  1.2209  1.7266  0.5132
 4196SOL    HW224222   4.299   0.014  10.983  1.3439  0.7653 -0.7874
 4197SOL     OW24223   3.913   4.360   2.110 -0.3261 -0.1520 -0.1029
 4197SOL    HW124224   3.957   4.284   2.148 -0.4879 -0.1953 -0.0039
 4197SOL    HW224225   3.984   4.424   2.106 -2.3138  1.8673 -2.8840
 4198SOL     OW24226   1.756   4.040   3.130  0.5638 -0.1625 -0.4664
 4198SOL    HW124227   1.712   4.125   3.133  0.7893 -0.0297 -1.0048
 4198SOL    HW224228   1.811   4.063   3.056 -0.9444 -0.7618 -1.7772
 4199SOL     OW24229   2.042   2.529   0.074  0.1829  0.0808  0.2909
 4199SOL    HW124230   1.955   2.539   0.112  0.3626 -0.2230  0.7787
 4199SOL    HW224231   2.032   2.455   0.015  1.8319  0.6824 -0.7450
 4200SOL     OW24232   2.090   2.919   3.405 -0.3632 -0.1641  0.0882
 4200SOL    HW124233   2.114   2.836   3.365  0.4237  0.1394 -0.0678
 4200SOL    HW224234   2.013   2.890   3.454  0.2635 -2.4913 -0.3300
 4201SOL     OW24235   0.043   0.931   8.815 -0.2827 -0.1276  0.5515
 4201SOL    HW124236   4.708   0.947   8.754 -0.1285  1.1116  0.6950
 4201SOL    HW224237   0.060   0.837   8.803 -3.2111 -0.6518  0.4249
 4202SOL     OW24238   3.169   0.265   9.850 -0.2400  0.2587  0.6281
 4202SOL    HW124239   3.263   0.258   9.871  0.1660 -1.5646 -1.8617
 4202SOL    HW224240   3.136   0.322   9.920 -0.4854  0.8650  0.0068
 4203SOL     OW24241   3.304   0.140  14.846 -0.4264  0.1714 -0.0374
 4203SOL    HW124242   3.223   0.106  14.809  0.1387 -1.1883 -0.0415
 4203SOL    HW224243   3.301   0.223  14.799 -0.4807  0.0680 -0.2146
 4204SOL     OW24244   0.841   1.747   4.961 -0.3922  0.1449 -0.0625
 4204SOL    HW124245   0.881   1.833   4.948 -2.3878  0.9844 -0.6462
 4204SOL    HW224246   0.874   1.724   5.048 -2.3124  1.2114  0.9530
 4205SOL     OW24247   4.366   0.967  15.254 -0.3341  0.0136 -0.2376
 4205SOL    HW124248   4.317   0.989  15.174 -0.9129 -0.6622 -0.0631
 4205SOL    HW224249   4.397   0.878  15.241 -2.2294 -0.8693  1.3518
 4206SOL     OW24250   3.443   0.012   5.363  0.6360  0.2370 -0.3932
 4206SOL    HW124251   3.371   0.018   5.426 -0.8142 -0.9755 -1.9367
 4206SOL    HW224252   3.481   4.664   5.381  1.5456  0.7966  0.3245
 4207SOL     OW24253   4.230   1.996   5.163 -0.0889  0.0924  0.3926
 4207SOL    HW124254   4.203   2.087   5.170 -0.5970 -0.0525  0.2809
 4207SOL    HW224255   4.169   1.956   5.101 -0.5269 -0.9897  1.5068
 4208SOL     OW24256   3.143   4.636   6.127  0.2395 -0.4543  0.6422
 4208SOL    HW124257   3.190   4.719   6.131  2.3123 -1.5262 -1.7628
 4208SOL    HW224258   3.069   4.661   6.072  2.8154 -0.4167 -2.8040
 4209SOL     OW24259   3.898   1.828   5.126  0.2670  0.2330  0.6898
 4209SOL    HW124260   3.809   1.807   5.097  1.0062 -0.0845 -1.3535
 4209SOL    HW224261   3.884   1.880   5.205 -2.2322 -0.5281  0.7567
 4210SOL     OW24262   2.564   2.894   2.341  0.0192  0.3466 -0.3232
 4210SOL    HW124263   2.622   2.818   2.338 -1.3565 -0.7005 -0.6359
 4210SOL    HW224264   2.622   2.944   2.284  3.5999 -0.3397  2.6984
 4211SOL     OW24265   3.246   0.842  12.002 -0.0978  0.2189  0.3244
 4211SOL    HW124266   3.285   0.755  11.990  1.2432  0.6551  1.4976
 4211SOL    HW224267   3.160   0.840  11.960  0.7296 -0.8478 -1.2676
 4212SOL     OW24268   0.635   2.493  12.365 -0.4988 -0.2731  0.2673
 4212SOL    HW124269   0.667   2.425  12.424  1.2415  0.6927  0.4544
 4212SOL    HW224270   0.687   2.568  12.394 -4.9362  2.3243  1.3538
 4213SOL     OW24271   4.504   4.003  17.200 -0.6253 -0.6548  0.2143
 4213SOL    HW124272   4.423   3.971  17.238  0.4493  0.1110  3.1247
 4213SOL    HW224273   4.571   3.969  17.260 -0.1838 -1.2785 -0.6272
 4214SOL     OW24274   2.450   0.767   7.643 -0.0733  0.0894 -0.0342
 4214SOL    HW124275   2.466   0.824   7.567 -0.9574  1.5139  0.8411
 4214SOL    HW224276   2.381   0.709   7.609  0.4152 -1.1765  1.1251
 4215SOL     OW24277   1.427   1.620   5.275 -0.1866 -0.2292  0.5824
 4215SOL    HW124278   1.448   1.539   5.322  1.1310 -0.4016 -0.2933
 4215SOL    HW224279   1.385   1.676   5.341  2.2187  0.4676  1.5371
 4216SOL     OW24280   4.711   0.099   4.679  0.9218 -0.0771 -0.0914
 4216SOL    HW124281   4.691   0.010   4.648  0.8845  0.1438 -0.7025
 4216SOL    HW224282   4.720   0.069   4.770  1.2568  0.5900  0.0942
 4217SOL     OW24283   4.270   0.502  14.478 -0.0340  0.2151  0.5646
 4217SOL    HW124284   4.237   0.460  14.399 -0.6070  1.8614 -0.0721
 4217SOL    HW224285   4.278   0.596  14.464 -3.6640 -0.0842 -3.5342
 4218SOL     OW24286   4.362   0.290   9.681 -0.1782  0.5643 -0.2243
 4218SOL    HW124287   4.452   0.274   9.653 -0.3103 -0.0978 -0.2707
 4218SOL    HW224288   4.369   0.311   9.774 -0.0463  3.2366 -0.8314
 4219SOL     OW24289   2.702   3.505  12.941  0.0583 -0.0823 -0.0047
 4219SOL    HW124290   2.646   3.552  12.879  0.7243 -2.2117 -2.2357
 4219SOL    HW224291   2.717   3.568  13.010  1.1693 -0.7955  0.3982
 4220SOL     OW24292   2.078   3.155   7.234  0.1618 -0.3617  0.6651
 4220SOL    HW124293   2.041   3.086   7.178  0.0455 -0.2543  0.6084
 4220SOL    HW224294   2.001   3.162   7.290 -1.2028 -1.7816 -1.0239
 4221SOL     OW24295   3.861   4.173   6.773  0.2462  0.1371 -0.3706
 4221SOL    HW124296   3.872   4.181   6.678  0.5464  1.7055 -0.2029
 4221SOL    HW224297   3.887   4.081   6.781 -1.1078 -0.1683  0.4689
 4222SOL     OW24298   0.284   1.114   8.302  0.2434 -0.1382  0.0848
 4222SOL    HW124299   0.199   1.153   8.319  0.3122 -0.1447  0.4495
 4222SOL    HW224300   0.320   1.135   8.388 -0.5621  2.2999 -0.1988
 4223SOL     OW24301   3.703   2.480  12.419 -0.3341  0.4563 -0.2953
 4223SOL    HW124302   3.798   2.474  12.428 -0.3805 -1.4116 -1.0416
 4223SOL    HW224303   3.691   2.545  12.489 -0.2339 -1.2876  1.3406
 4224SOL     OW24304   1.027   3.659   8.472  0.7086  0.2263 -0.1071
 4224SOL    HW124305   1.045   3.603   8.397  0.8303 -2.3031  1.8159
 4224SOL    HW224306   1.116   3.662   8.506  0.8440  0.4337 -0.4769
 4225SOL     OW24307   0.484   4.170   4.134 -0.1380  0.5668  0.1826
 4225SOL    HW124308   0.451   4.155   4.223  1.5899  3.2004  1.2598
 4225SOL    HW224309   0.401   4.192   4.091  0.7704  0.1364 -1.7673
 4226SOL     OW24310   1.072   0.726   7.424 -0.5747  0.2416 -0.0725
 4226SOL    HW124311   0.996   0.671   7.444  0.9946 -1.7684  0.3858
 4226SOL    HW224312   1.141   0.661   7.436  1.6647  2.7325  0.6577
 4227SOL     OW24313   4.197   4.307   4.246  0.5312  0.2396 -0.2942
 4227SOL    HW124314   4.277   4.334   4.291 -1.2916  2.9070  1.3813
 4227SOL    HW224315   4.213   4.344   4.159 -1.6728 -1.8796 -1.6041
 4228SOL     OW24316   1.388   1.280   3.207 -0.3336 -0.7776  0.3149
 4228SOL    HW124317   1.313   1.222   3.203 -1.5648  0.7387  1.3887
 4228SOL    HW224318   1.467   1.231   3.185  0.3506 -0.3740  1.9175
 4229SOL     OW24319   4.061   2.753   3.580  0.1265 -0.5333  0.2253
 4229SOL    HW124320   4.089   2.843   3.563  0.1339 -0.8363 -1.3670
 4229SOL    HW224321   3.985   2.774   3.634  0.4987  2.1573 -0.2984
 4230SOL     OW24322   3.037   4.063   6.474 -0.1269  0.2013 -0.5446
 4230SOL    HW124323   2.995   3.994   6.525 -1.4306  0.6094 -1.0758
 4230SOL    HW224324   2.962   4.111   6.440 -0.7482 -0.3900 -0.0204
 4231SOL     OW24325   3.684   4.446   5.922 -0.5007  0.1281  0.0443
 4231SOL    HW124326   3.736   4.380   5.876  0.0769  1.0768 -0.6336
 4231SOL    HW224327   3.707   4.526   5.876 -0.5982  0.5034  0.6474
 4232SOL     OW24328   3.424   0.521   5.589 -0.1868  0.1607 -0.3107
 4232SOL    HW124329   3.443   0.615   5.596  0.9439 -0.2407  2.0929
 4232SOL    HW224330   3.411   0.485   5.677 -0.0526 -0.6310 -0.6126
 4233SOL     OW24331   0.289   1.684   6.482 -0.0661 -0.5667 -0.0058
 4233SOL    HW124332   0.231   1.719   6.550 -1.4548  0.1002 -1.5186
 4233SOL    HW224333   0.344   1.623   6.531  1.1410  1.2378  0.8818
 4234SOL     OW24334   4.223   1.519   5.611  0.1379  0.0850 -0.1848
 4234SOL    HW124335   4.310   1.485   5.631  0.7871  2.7547  1.5590
 4234SOL    HW224336   4.212   1.471   5.529  0.0944  1.1295 -0.7925
 4235SOL     OW24337   3.841   0.472   0.117  0.4764  0.0091  0.3764
 4235SOL    HW124338   3.806   0.403   0.061 -0.5547  0.7758  0.0681
 4235SOL    HW224339   3.926   0.490   0.079  0.3847 -4.4319 -1.8813
 4236SOL     OW24340   0.594   4.404  13.057  0.0757 -0.4750  0.3187
 4236SOL    HW124341   0.513   4.453  13.041  1.2191  1.0172 -0.8358
 4236SOL    HW224342   0.589   4.345  12.982 -0.8419 -0.5638  0.4545
 4237SOL     OW24343   0.797   2.352   1.906 -0.2470 -0.7393 -0.1812
 4237SOL    HW124344   0.768   2.321   1.820 -1.9676 -0.2988  0.2345
 4237SOL    HW224345   0.879   2.390   1.876  1.6343 -1.1918  4.3714
 4238SOL     OW24346   1.205   3.624  13.179 -0.1241  0.0382 -0.4389
 4238SOL    HW124347   1.274   3.570  13.141  0.1846  1.5718 -2.0853
 4238SOL    HW224348   1.224   3.615  13.272 -0.6593 -1.1172 -0.4460
 4239SOL     OW24349   4.578   1.488   4.582  0.2650  0.1709  0.2871
 4239SOL    HW124350   4.583   1.564   4.639  0.7087 -0.3914  0.9958
 4239SOL    HW224351   4.578   1.419   4.649  0.9434 -2.6130 -2.5332
 4240SOL     OW24352   4.706   0.242   5.839 -0.2396 -0.0901  0.3887
 4240SOL    HW124353   4.667   0.196   5.913  1.9408 -0.2701  1.4055
 4240SOL    HW224354   0.042   0.183   5.822 -0.0481  0.6599 -1.4078
 4241SOL     OW24355   3.410   2.534  17.135 -0.4006 -0.2813 -0.1197
 4241SOL    HW124356   3.426   2.496  17.048  2.7292  0.2777  0.1917
 4241SOL    HW224357   3.481   2.599  17.134  0.6320 -1.4047  0.3143
 4242SOL     OW24358   0.174   3.823   6.163 -0.0481  0.5140  0.5118
 4242SOL    HW124359   0.127   3.849   6.242  0.1395  0.3844  0.6646
 4242SOL    HW224360   0.197   3.733   6.186  1.6296  0.6149 -0.7370
 4243SOL     OW24361   2.390   3.249  17.672 -0.0655  0.0837  0.0891
 4243SOL    HW124362   2.438   3.304  17.610  0.6541 -0.9687 -0.2859
 4243SOL    HW224363   2.373   3.308  17.745  2.4544  0.3004  0.4905
 4244SOL     OW24364   3.253   3.556   6.759 -0.5992 -0.4686 -0.5277
 4244SOL    HW124365   3.172   3.533   6.803  0.3607 -2.6883  0.0629
 4244SOL    HW224366   3.268   3.639   6.805 -2.1598 -1.8602  2.4621
 4245SOL     OW24367   2.640   4.606  17.161  0.1438 -0.0634 -0.3803
 4245SOL    HW124368   2.601   4.570  17.241  1.2905  0.9558  0.6583
 4245SOL    HW224369   2.597   4.691  17.151 -1.8359 -1.0622 -0.2347
 4246SOL     OW24370   1.006   1.912  13.240 -0.4758 -0.6373 -0.2162
 4246SOL    HW124371   0.922   1.953  13.262 -0.0491 -0.5381  1.2420
 4246SOL    HW224372   0.983   1.819  13.243  1.9805 -1.2929 -1.4711
 4247SOL     OW24373   1.886   1.747   5.913  0.3211 -0.0666 -0.6029
 4247SOL    HW124374   1.973   1.787   5.916  0.4451 -0.4304  0.5594
 4247SOL    HW224375   1.831   1.823   5.895 -1.5645 -1.7333 -1.9647
 4248SOL     OW24376   4.173   1.428   8.280  0.3376 -0.0311  0.2132
 4248SOL    HW124377   4.242   1.363   8.294  0.4185 -0.3643 -1.7927
 4248SOL    HW224378   4.150   1.421   8.188 -1.0874  1.6334  0.4404
 4249SOL     OW24379   3.815   3.096   3.374  0.3927 -0.3362 -0.7385
 4249SOL    HW124380   3.755   3.164   3.344 -0.8971 -0.5503  1.3234
 4249SOL    HW224381   3.832   3.065   3.285 -1.5230 -0.5301 -1.0550
 4250SOL     OW24382   3.376   1.389   6.182  0.9060  0.5194  0.4051
 4250SOL    HW124383   3.320   1.311   6.187  0.5949  0.7470  0.4399
 4250SOL    HW224384   3.366   1.416   6.091  2.1957  1.8767  0.6780
 4251SOL     OW24385   2.596   2.483   5.782 -0.4366 -0.1864  0.4427
 4251SOL    HW124386   2.535   2.434   5.727 -0.3182  0.8512 -0.6067
 4251SOL    HW224387   2.626   2.547   5.717 -2.0975 -1.3139 -1.4342
 4252SOL     OW24388   3.682   4.371   2.272 -0.1176 -0.2480 -0.4094
 4252SOL    HW124389   3.715   4.397   2.358 -1.0213 -0.7730  0.0955
 4252SOL    HW224390   3.761   4.393   2.224  0.5185  1.8049  1.5721
 4253SOL     OW24391   1.912   0.835  16.306  0.9100 -0.2543  0.5125
 4253SOL    HW124392   1.836   0.824  16.363 -0.5399 -0.4701 -1.4840
 4253SOL    HW224393   1.936   0.743  16.302  0.7552 -0.3009  0.6502
 4254SOL     OW24394   0.998   1.120   0.463 -0.4709 -0.4902  0.2871
 4254SOL    HW124395   0.958   1.201   0.496  2.5100  1.4862 -0.8729
 4254SOL    HW224396   1.090   1.142   0.445 -1.0718  1.8006 -0.0861
 4255SOL     OW24397   0.001   4.000   9.092  0.2954  0.5184  0.3429
 4255SOL    HW124398   0.046   3.917   9.074 -1.7566 -0.1541 -1.7546
 4255SOL    HW224399   0.019   4.017   9.184 -0.3285  0.2625  0.5127
 4256SOL     OW24400   0.263   1.053   4.939 -0.4151 -0.5084 -0.2478
 4256SOL    HW124401   0.318   0.982   4.905 -0.3228 -0.2861 -0.5608
 4256SOL    HW224402   0.271   1.117   4.868  1.4344  1.7127  1.9880
 4257SOL     OW24403   2.821   0.073  16.174  0.3438  0.1229 -0.0026
 4257SOL    HW124404   2.816   0.152  16.120  3.7682 -0.3126 -0.9790
 4257SOL    HW224405   2.916   0.056  16.171 -0.2820 -3.2915 -0.9122
 4258SOL     OW24406   2.445   1.256   8.854  0.4087  0.1276 -0.5138
 4258SOL    HW124407   2.439   1.338   8.804  1.0039  0.9583  0.7861
 4258SOL    HW224408   2.408   1.278   8.939 -0.3628 -0.1506 -0.7785
 4259SOL     OW24409   1.196   0.249   7.240 -0.2642  0.0765  0.0856
 4259SOL    HW124410   1.246   0.187   7.292 -0.5076  0.2363  0.5074
 4259SOL    HW224411   1.154   0.299   7.310 -1.9563 -1.3671  0.0872
 4260SOL     OW24412   3.007   4.114  13.183  0.0517 -1.0555  0.0949
 4260SOL    HW124413   3.021   4.184  13.246 -2.3987 -0.5569  0.0955
 4260SOL    HW224414   3.091   4.086  13.148  0.5425  1.7752 -0.9423
 4261SOL     OW24415   0.345   1.570  15.965  0.5491  0.2011 -0.2957
 4261SOL    HW124416   0.386   1.540  16.046 -1.2319  1.4248  1.0779
 4261SOL    HW224417   0.263   1.520  15.957  0.6150 -0.1448  1.1009
 4262SOL     OW24418   2.651   3.523  11.525 -0.2573  0.2305  0.3969
 4262SOL    HW124419   2.583   3.507  11.591 -0.4734  1.2483  0.4270
 4262SOL    HW224420   2.675   3.436  11.492 -0.8827 -0.3887  1.5870
 4263SOL     OW24421   3.995   4.355  10.175  0.7477 -0.5107 -0.0192
 4263SOL    HW124422   3.964   4.292  10.240 -1.2292  1.7341  1.2233
 4263SOL    HW224423   3.934   4.337  10.104  1.4460 -0.2372 -0.6848
 4264SOL     OW24424   1.698   2.792  11.185  0.1325 -0.0767  0.0559
 4264SOL    HW124425   1.757   2.744  11.243 -0.8316  0.1242  1.2048
 4264SOL    HW224426   1.631   2.723  11.178 -0.1715  0.2491 -0.2439
 4265SOL     OW24427   3.735   2.283   2.513 -0.0955 -0.3506  0.0332
 4265SOL    HW124428   3.779   2.198   2.503 -1.8717 -1.2557 -0.1630
 4265SOL    HW224429   3.772   2.328   2.589  0.9426 -1.4771  0.1987
 4266SOL     OW24430   4.463   2.922   1.649  0.1431 -0.2116 -0.0305
 4266SOL    HW124431   4.549   2.964   1.645 -0.4231  0.9107 -0.1793
 4266SOL    HW224432   4.462   2.872   1.730 -2.2375  1.4076  0.9217
 4267SOL     OW24433   1.120   3.389   7.909 -0.4657 -0.2197  0.1028
 4267SOL    HW124434   1.111   3.327   7.981 -0.8793  0.1080  0.3327
 4267SOL    HW224435   1.108   3.341   7.828  3.3244  0.5382 -0.9135
 4268SOL     OW24436   4.517   3.177  16.516 -0.6952 -0.1562  0.4087
 4268SOL    HW124437   4.559   3.092  16.505 -0.3659 -0.3390  3.0480
 4268SOL    HW224438   4.508   3.212  16.427 -0.6918 -2.0040 -0.3193
 4269SOL     OW24439   3.344   2.368   5.487 -0.0042 -0.0489  0.3148
 4269SOL    HW124440   3.277   2.301   5.474 -1.5078  1.7831 -1.4163
 4269SOL    HW224441   3.309   2.441   5.436 -0.3616 -0.2566  0.2593
 4270SOL     OW24442   4.671   4.525  17.034 -0.3471 -0.2047  0.2983
 4270SOL    HW124443   4.697   4.435  17.013 -2.7908 -0.7359 -0.4998
 4270SOL    HW224444   4.606   4.548  16.968  2.1770  1.0329 -1.7767
 4271SOL     OW24445   2.188   4.577   2.237 -0.1092  0.4881  0.1773
 4271SOL    HW124446   2.226   4.618   2.159 -0.2181  0.2869  0.0190
 4271SOL    HW224447   2.214   4.485   2.228  0.8753  0.7567  0.2283
 4272SOL     OW24448   3.751   4.700   3.406  0.0075 -0.2758 -0.2061
 4272SOL    HW124449   3.705   4.691   3.489  2.4052  0.9357  1.2396
 4272SOL    HW224450   3.719   4.626   3.355  1.8549  0.1364 -1.9475
 4273SOL     OW24451   3.527   4.685   2.087  0.1921 -0.3263 -0.7798
 4273SOL    HW124452   3.557   0.004   2.158 -1.1290  1.0853 -1.3397
 4273SOL    HW224453   3.450   4.725   2.047 -1.0369 -2.0904 -0.1739
 4274SOL     OW24454   2.899   4.392  13.353 -0.7785  0.1952  0.0578
 4274SOL    HW124455   2.806   4.398  13.376 -0.5713 -1.7116  1.3328
 4274SOL    HW224456   2.895   4.453  13.279  1.4772 -0.1939 -0.3695
 4275SOL     OW24457   1.970   3.116   8.215  0.5814 -0.4082  0.1092
 4275SOL    HW124458   2.055   3.160   8.223  1.3821 -1.4927 -2.3580
 4275SOL    HW224459   1.939   3.107   8.305 -1.2518 -1.0177 -0.5890
 4276SOL     OW24460   3.717   2.037   6.857 -0.2034  0.7656  0.3538
 4276SOL    HW124461   3.670   1.963   6.894  1.7271 -1.7210 -2.1973
 4276SOL    HW224462   3.766   2.000   6.783  2.9848 -0.0727  2.8997
 4277SOL     OW24463   2.532   1.668   1.981  0.4946  0.1904 -0.2243
 4277SOL    HW124464   2.584   1.693   1.904  0.8158 -1.6106 -0.5895
 4277SOL    HW224465   2.488   1.752   1.994 -1.3914 -0.8197 -0.2243
 4278SOL     OW24466   0.251   3.917   6.575 -0.0002 -0.1497  0.1106
 4278SOL    HW124467   0.331   3.888   6.531  0.1103  0.7325 -0.2714
 4278SOL    HW224468   0.250   4.006   6.539 -1.3989 -0.0520  0.4183
 4279SOL     OW24469   2.144   4.152   7.770 -0.2976 -0.6227 -0.4595
 4279SOL    HW124470   2.211   4.098   7.811  1.0766 -0.3091 -2.2872
 4279SOL    HW224471   2.189   4.236   7.761 -0.0722 -0.6317  0.5206
 4280SOL     OW24472   4.029   0.296   9.656 -0.2362 -0.4027 -0.4174
 4280SOL    HW124473   3.967   0.264   9.591 -1.8823 -1.1490  1.5460
 4280SOL    HW224474   4.110   0.286   9.606  0.0148  0.9089 -0.2771
 4281SOL     OW24475   0.424   1.488  14.911  0.9308 -0.0256 -0.0432
 4281SOL    HW124476   0.425   1.527  14.824 -0.4309  0.2022  0.0459
 4281SOL    HW224477   0.517   1.473  14.929  0.5418 -1.4403  0.7129
 4282SOL     OW24478   2.499   2.793   3.965  0.0399  0.0291 -0.1278
 4282SOL    HW124479   2.465   2.796   3.876 -1.9046 -0.3249  0.6106
 4282SOL    HW224480   2.513   2.886   3.982 -0.4578  0.1832 -0.5635
 4283SOL     OW24481   1.915   3.585   1.115  0.1481  0.3332  0.1378
 4283SOL    HW124482   1.850   3.655   1.109 -1.0549 -0.9399 -1.3411
 4283SOL    HW224483   1.871   3.502   1.132 -0.3726  0.6275  0.2238
 4284SOL     OW24484   1.744   4.700   6.746 -0.2114 -0.3701 -0.3794
 4284SOL    HW124485   1.680   4.722   6.679  0.3572  0.2757 -0.7063
 4284SOL    HW224486   1.739   0.025   6.818 -0.2889  1.7339 -2.2283
 4285SOL     OW24487   2.287   3.212  14.243 -0.6206  0.2801 -0.3762
 4285SOL    HW124488   2.356   3.162  14.287 -1.7599  0.7672  1.9684
 4285SOL    HW224489   2.216   3.233  14.304 -0.0922 -1.4584  0.8416
 4286SOL     OW24490   0.028   0.151   1.951 -0.1928 -0.1929  0.0263
 4286SOL    HW124491   0.007   0.119   2.039  0.0339 -0.8197 -0.1444
 4286SOL    HW224492   4.679   0.183   1.925 -0.0776  0.2593  0.2004
 4287SOL     OW24493   3.240   2.708  16.984  0.2867  0.1527 -0.8102
 4287SOL    HW124494   3.261   2.797  16.958 -1.3084  0.5639 -0.7076
 4287SOL    HW224495   3.324   2.681  17.020 -0.1887  0.8127  0.7950
 4288SOL     OW24496   2.664   2.987   5.651  0.0407 -0.5418 -0.1117
 4288SOL    HW124497   2.577   3.021   5.676  0.0387 -0.4063 -0.3070
 4288SOL    HW224498   2.715   3.056   5.693 -0.8714 -0.3839  0.7589
 4289SOL     OW24499   0.443   0.605   9.436 -0.0629  0.6252  0.0737
 4289SOL    HW124500   0.462   0.531   9.379 -0.8171  2.2926 -2.3309
 4289SOL    HW224501   0.528   0.647   9.453  0.2933 -0.2808  0.5108
 4290SOL     OW24502   0.818   4.444  15.182  0.3084  0.2781 -0.1406
 4290SOL    HW124503   0.876   4.444  15.106  1.5541  1.0722  0.7998
 4290SOL    HW224504   0.858   4.485  15.259 -1.2859 -0.0296  0.8539
 4291SOL     OW24505   0.623   0.283   3.410  0.4173  0.2749 -0.0263
 4291SOL    HW124506   0.707   0.238   3.400  1.7333  2.4886  0.9794
 4291SOL    HW224507   0.619   0.346   3.338  0.8310 -1.5325 -1.6240
 4292SOL     OW24508   4.557   1.584   2.200  0.0947 -0.1733  0.2576
 4292SOL    HW124509   4.570   1.674   2.169  0.5846  0.4086  2.1371
 4292SOL    HW224510   4.513   1.595   2.284 -1.5761 -1.1238 -0.5085
 4293SOL     OW24511   1.574   1.925   9.279  0.3839 -0.0708 -0.8217
 4293SOL    HW124512   1.563   2.010   9.322 -0.7275 -0.0424 -1.1555
 4293SOL    HW224513   1.624   1.880   9.347 -0.5056  0.1359 -0.0340
 4294SOL     OW24514   0.876   3.508   2.989 -0.2331  0.4105 -0.3392
 4294SOL    HW124515   0.937   3.473   2.924 -0.6521 -0.2222 -0.3873
 4294SOL    HW224516   0.841   3.423   3.016  0.3215 -0.2108 -1.5590
 4295SOL     OW24517   4.737   1.729   5.923  0.4445 -0.2874 -0.0834
 4295SOL    HW124518   0.044   1.653   5.959  0.8046 -0.2765 -0.5127
 4295SOL    HW224519   0.079   1.775   5.897 -0.1868 -0.9217 -3.0759
 4296SOL     OW24520   3.259   4.704   6.958 -0.1688  0.1998 -0.1333
 4296SOL    HW124521   3.217   0.010   7.032 -1.2357  0.0109 -0.6333
 4296SOL    HW224522   3.267   4.615   6.993 -0.7377  0.7902  1.5141
 4297SOL     OW24523   0.817   1.317   5.975 -0.5041 -0.0554 -1.1277
 4297SOL    HW124524   0.821   1.411   5.995  0.4057 -0.3650  0.1900
 4297SOL    HW224525   0.767   1.275   6.045 -1.3708  1.7229 -0.6683
 4298SOL     OW24526   2.730   3.608   1.683 -0.1670 -0.4569 -0.3520
 4298SOL    HW124527   2.770   3.690   1.656 -1.6765 -0.1076 -1.5571
 4298SOL    HW224528   2.663   3.592   1.617 -0.4513  1.7530 -0.5949
 4299SOL     OW24529   1.156   2.777   7.743  0.2122 -0.0865  0.1062
 4299SOL    HW124530   1.118   2.750   7.659 -0.5075 -1.2907  0.8123
 4299SOL    HW224531   1.079   2.784   7.800  0.6096  5.0420 -0.0426
 4300SOL     OW24532   1.975   1.714   0.903  0.1386 -0.4421  0.6771
 4300SOL    HW124533   1.945   1.623   0.900  1.3175 -0.8004 -0.4768
 4300SOL    HW224534   1.900   1.749   0.950  0.4123  2.2529 -0.8751
 4301SOL     OW24535   4.001   4.330  13.354 -0.1467  0.5308  0.1376
 4301SOL    HW124536   3.950   4.324  13.274  1.0517 -0.9990 -0.5060
 4301SOL    HW224537   4.090   4.311  13.324  0.3553  0.6248  1.5731
 4302SOL     OW24538   2.662   0.236  11.526 -0.7015 -0.1642 -0.3739
 4302SOL    HW124539   2.679   0.257  11.617  3.1898 -0.9553 -0.9193
 4302SOL    HW224540   2.738   0.267  11.477 -0.8674 -0.9427 -1.1212
 4303SOL     OW24541   0.047   2.658   9.449  0.4129  0.3083  0.1427
 4303SOL    HW124542   4.710   2.614   9.490 -1.2236  0.1086 -3.0880
 4303SOL    HW224543   0.040   2.745   9.488  0.5699  1.8026 -3.1896
 4304SOL     OW24544   2.749   3.003   4.687  0.5171 -0.4191 -0.0264
 4304SOL    HW124545   2.838   2.967   4.681  1.0690  0.7383  1.5668
 4304SOL    HW224546   2.765   3.097   4.695  0.6608 -0.4270 -0.2199
 4305SOL     OW24547   2.763   1.467  16.369  0.1207 -0.3303 -0.5321
 4305SOL    HW124548   2.823   1.397  16.396  1.9271  1.5261  0.3333
 4305SOL    HW224549   2.685   1.413  16.358 -0.3674  0.4209 -0.7787
 4306SOL     OW24550   4.055   3.581  13.467 -0.1030  0.3072 -0.1160
 4306SOL    HW124551   4.070   3.657  13.411  3.4363  0.1563  0.6618
 4306SOL    HW224552   3.959   3.584  13.464 -0.0599  0.7650 -1.0065
 4307SOL     OW24553   2.793   4.623   1.796  0.2102  0.1862 -0.0634
 4307SOL    HW124554   2.823   4.603   1.708  0.1622 -1.6889  0.3325
 4307SOL    HW224555   2.873   4.633   1.847  0.5537  1.1502 -0.8094
 4308SOL     OW24556   2.802   2.945  14.660  0.3568  0.3278 -0.2641
 4308SOL    HW124557   2.769   2.875  14.603 -1.6821 -0.2066  1.5914
 4308SOL    HW224558   2.896   2.941  14.638 -0.4466 -1.6371 -3.4032
 4309SOL     OW24559   1.146   1.431  16.360 -0.2542 -0.2198  0.3589
 4309SOL    HW124560   1.219   1.439  16.299  0.4345 -1.2900  1.0505
 4309SOL    HW224561   1.118   1.523  16.364  1.5624  0.3370  0.1304
 4310SOL     OW24562   3.370   3.476   2.991  1.0122 -0.1766 -0.2754
 4310SOL    HW124563   3.461   3.503   2.978  0.9026 -0.1558 -0.9949
 4310SOL    HW224564   3.326   3.558   3.014 -0.0400 -1.0388  0.8309
 4311SOL     OW24565   1.873   3.353  17.439 -0.0716 -0.1979  0.3329
 4311SOL    HW124566   1.899   3.428  17.385  1.7482 -1.5558 -0.6957
 4311SOL    HW224567   1.930   3.378  17.512 -0.4688  0.2229  0.4980
 4312SOL     OW24568   3.720   0.906   3.337  0.0733  0.0630 -0.0881
 4312SOL    HW124569   3.695   0.923   3.428 -0.8997 -1.0344 -0.1480
 4312SOL    HW224570   3.744   0.813   3.344 -0.4950 -0.1682 -1.1947
 4313SOL     OW24571   1.364   0.717  15.954 -0.7292  0.1545  0.1531
 4313SOL    HW124572   1.452   0.736  15.988  0.0078 -0.2710 -1.5023
 4313SOL    HW224573   1.311   0.732  16.032  0.5601  0.6438  0.9482
 4314SOL     OW24574   3.931   0.291   6.596 -0.7240 -0.4274  0.9323
 4314SOL    HW124575   3.856   0.256   6.645 -0.1858 -1.2292  1.1900
 4314SOL    HW224576   3.883   0.302   6.514 -0.0193 -0.1549  0.5512
 4315SOL     OW24577   1.027   3.527  12.109 -0.2876 -0.3812  0.2375
 4315SOL    HW124578   1.094   3.483  12.162 -2.7240 -0.9953  2.8121
 4315SOL    HW224579   1.025   3.473  12.030 -0.2681  1.4188 -0.9890
 4316SOL     OW24580   2.350   4.229  12.386  0.2342 -0.4341  0.4352
 4316SOL    HW124581   2.445   4.236  12.374  0.0448 -0.1624 -0.8710
 4316SOL    HW224582   2.341   4.134  12.398 -1.9174 -0.1741  0.9143
 4317SOL     OW24583   2.162   2.823   7.518  0.3667 -0.1456  0.4558
 4317SOL    HW124584   2.121   2.770   7.586 -2.2667 -0.8628 -1.6883
 4317SOL    HW224585   2.098   2.885   7.482 -1.2467 -0.9515  1.9423
 4318SOL     OW24586   0.309   0.569   8.380 -0.2150 -0.3646  0.0339
 4318SOL    HW124587   0.269   0.552   8.294 -1.5848 -0.9026  0.7851
 4318SOL    HW224588   0.357   0.648   8.356 -0.0536 -0.2991  0.5760
 4319SOL     OW24589   2.083   3.100   1.031  0.1180  0.0355 -0.3737
 4319SOL    HW124590   2.007   3.147   1.066 -0.5361 -2.3960  1.5164
 4319SOL    HW224591   2.060   3.089   0.939 -0.5285 -0.8278 -0.1099
 4320SOL     OW24592   2.579   2.800   9.543 -0.1298  0.0781 -0.4469
 4320SOL    HW124593   2.643   2.734   9.570  0.8373  0.9918 -0.5089
 4320SOL    HW224594   2.630   2.866   9.497 -0.3046  0.4154 -0.1536
 4321SOL     OW24595   4.420   4.369   5.577  0.2183 -0.2384 -0.2960
 4321SOL    HW124596   4.389   4.458   5.594  1.0469  0.0213 -0.1479
 4321SOL    HW224597   4.462   4.345   5.660  0.6927  3.9661  0.6598
 4322SOL     OW24598   1.639   2.882   1.507  0.2214 -0.1111 -0.1817
 4322SOL    HW124599   1.732   2.870   1.527 -0.1174 -0.1072  1.4692
 4322SOL    HW224600   1.601   2.861   1.593  2.4164 -0.9269  0.6006
 4323SOL     OW24601   3.928   1.231   8.023 -0.0648  0.6962 -0.4103
 4323SOL    HW124602   3.999   1.293   8.008  0.7990 -0.1424  0.2966
 4323SOL    HW224603   3.947   1.168   7.954  0.5786  0.6566 -0.1906
 4324SOL     OW24604   2.024   3.895   2.554 -0.0073 -0.1362 -0.3996
 4324SOL    HW124605   1.973   3.975   2.564  0.1931 -0.1067  0.4231
 4324SOL    HW224606   2.091   3.903   2.622 -0.1293  1.5235 -0.4769
 4325SOL     OW24607   3.614   2.731   6.039 -0.3020  0.6862 -0.5711
 4325SOL    HW124608   3.668   2.806   6.015  0.2547  0.8550  1.1882
 4325SOL    HW224609   3.546   2.727   5.972 -1.0717  2.6988  0.0981
 4326SOL     OW24610   2.215   4.343   8.366  0.4729 -0.4913 -0.0720
 4326SOL    HW124611   2.236   4.282   8.436 -1.2682 -0.1000  0.7707
 4326SOL    HW224612   2.133   4.382   8.394  0.8610  0.3350 -0.0632
 4327SOL     OW24613   1.345   1.803   9.705 -0.0598 -0.4232  0.1916
 4327SOL    HW124614   1.259   1.843   9.698 -0.4551 -1.3095 -0.0222
 4327SOL    HW224615   1.314   1.724   9.750 -0.9012  0.1624  0.6393
 4328SOL     OW24616   1.777   1.821   3.604 -0.4673 -0.3740 -0.7007
 4328SOL    HW124617   1.753   1.737   3.643  1.2124 -1.5547 -2.2186
 4328SOL    HW224618   1.811   1.793   3.519 -1.1625  0.0093 -1.1089
 4329SOL     OW24619   4.243   0.280   4.877 -0.6352 -0.4074 -0.4740
 4329SOL    HW124620   4.311   0.340   4.846 -0.8042 -0.2069 -0.4501
 4329SOL    HW224621   4.296   0.216   4.924  2.3804 -0.2724 -3.6747
 4330SOL     OW24622   4.213   2.678   4.316 -0.5264 -0.2814  0.1079
 4330SOL    HW124623   4.251   2.654   4.400  2.1506  4.9882  0.4274
 4330SOL    HW224624   4.149   2.746   4.335 -0.3167 -0.3720  1.1078
 4331SOL     OW24625   4.672   3.903  14.783 -0.6349  0.0923 -0.3836
 4331SOL    HW124626   4.673   3.989  14.824 -0.8207 -0.5689  0.9814
 4331SOL    HW224627   0.024   3.906  14.748 -0.9796 -0.9829 -1.3785
 4332SOL     OW24628   4.389   3.919   7.209 -0.0460 -0.5270 -0.2458
 4332SOL    HW124629   4.400   4.004   7.253  2.6730 -1.1181  0.2189
 4332SOL    HW224630   4.424   3.949   7.125 -0.2160 -1.9830 -0.8433
 4333SOL     OW24631   1.247   4.568   6.577  0.1274  0.7170 -0.2341
 4333SOL    HW124632   1.184   4.607   6.637  0.4323 -0.5847  0.9340
 4333SOL    HW224633   1.188   4.527   6.514 -0.2651  1.8584 -0.6000
 4334SOL     OW24634   0.665   1.691   1.770 -0.1877 -0.3481 -0.1431
 4334SOL    HW124635   0.594   1.647   1.816 -1.0134  0.7360 -0.3665
 4334SOL    HW224636   0.615   1.753   1.717  0.4921  1.5405  1.4044
 4335SOL     OW24637   3.824   0.507   2.980 -0.3983 -0.0484  0.0364
 4335SOL    HW124638   3.868   0.538   3.059 -0.5851 -1.9515  0.8782
 4335SOL    HW224639   3.750   0.457   3.015 -0.8635  0.3716 -0.3561
 4336SOL     OW24640   0.580   2.001  12.465 -0.4815  0.6687  0.2439
 4336SOL    HW124641   0.602   2.004  12.372 -2.6546 -1.3300 -0.3513
 4336SOL    HW224642   0.670   1.983  12.494  0.0796 -0.4162 -2.2259
 4337SOL     OW24643   0.823   1.751   0.812  0.2520  0.2603  0.2737
 4337SOL    HW124644   0.888   1.820   0.803 -0.6885  0.8037 -2.1408
 4337SOL    HW224645   0.872   1.683   0.766  1.7453  0.4794  1.5569
 4338SOL     OW24646   1.596   0.965  12.415  0.3398  0.1789 -0.0444
 4338SOL    HW124647   1.615   1.009  12.332 -0.1828 -0.8176 -0.7004
 4338SOL    HW224648   1.628   1.023  12.484  0.7987 -0.7207  0.5078
 4339SOL     OW24649   1.677   0.141   6.966  0.3867  0.7726 -0.4595
 4339SOL    HW124650   1.649   0.213   7.023 -2.7003 -0.6779 -0.1696
 4339SOL    HW224651   1.609   0.075   6.979 -0.4387  1.9117  1.0252
 4340SOL     OW24652   4.678   1.721   8.240 -0.1443  0.0722  0.0560
 4340SOL    HW124653   0.004   1.715   8.169 -2.0266 -1.4347 -1.5382
 4340SOL    HW224654   4.633   1.801   8.214 -0.4068 -0.3223 -0.7219
 4341SOL     OW24655   1.115   1.617   8.004  0.4337 -0.5672  0.4100
 4341SOL    HW124656   1.159   1.533   7.995 -0.2424 -1.1488  2.5540
 4341SOL    HW224657   1.080   1.613   8.093 -1.0432  0.7403 -0.1060
 4342SOL     OW24658   4.049   1.512   9.037 -0.1561  0.0033 -0.3639
 4342SOL    HW124659   4.078   1.427   9.069 -1.3613 -1.9064 -4.3269
 4342SOL    HW224660   3.953   1.504   9.040 -0.2453  0.9188 -0.8197
 4343SOL     OW24661   4.175   2.287   0.050 -0.2980  0.0916 -0.1413
 4343SOL    HW124662   4.184   2.354  17.732  0.9020 -1.2177 -1.3022
 4343SOL    HW224663   4.182   2.203   0.005  1.4131 -0.6601  1.5326
 4344SOL     OW24664   3.871   1.583   7.397  0.4934 -0.4290  0.0068
 4344SOL    HW124665   3.899   1.674   7.404 -0.0249 -0.0101 -3.0104
 4344SOL    HW224666   3.777   1.597   7.382  0.8712 -1.4491 -3.4264
 4345SOL     OW24667   4.081   1.992  11.419 -0.0371 -0.1092  0.2849
 4345SOL    HW124668   4.037   1.962  11.340 -0.0740  0.0939  0.2288
 4345SOL    HW224669   4.168   1.956  11.406 -0.0110  0.0187  0.1105
 4346SOL     OW24670   2.573   0.205   9.535  0.3412 -0.0260 -0.7095
 4346SOL    HW124671   2.523   0.138   9.488 -1.3066  3.7362 -4.2624
 4346SOL    HW224672   2.562   0.166   9.622  0.7222 -1.0464 -1.1100
 4347SOL     OW24673   1.612   1.388  11.812  0.4050  0.5023  0.3419
 4347SOL    HW124674   1.610   1.409  11.906 -0.7524  0.7691  0.2582
 4347SOL    HW224675   1.699   1.413  11.781 -0.4702  3.2197  0.0111
 4348SOL     OW24676   0.466   1.067  13.112  0.0117 -0.2821 -0.1175
 4348SOL    HW124677   0.500   1.051  13.024 -0.4622  1.1979 -0.5643
 4348SOL    HW224678   0.412   0.989  13.125  3.3077 -2.8221 -1.6509
 4349SOL     OW24679   3.519   0.524   5.871  0.0162  0.5151 -0.1378
 4349SOL    HW124680   3.612   0.545   5.879 -0.0533  0.5443  0.5994
 4349SOL    HW224681   3.486   0.612   5.854 -0.8044  0.1901 -0.2357
 4350SOL     OW24682   3.053   1.688   8.817  0.2023 -0.1965 -0.2352
 4350SOL    HW124683   2.964   1.708   8.847  0.1915 -1.3634  0.5094
 4350SOL    HW224684   3.095   1.665   8.899  0.8903  0.3821 -0.4349
 4351SOL     OW24685   1.074   1.515   5.620  0.1650  0.2648 -0.1477
 4351SOL    HW124686   1.067   1.608   5.642  0.3885  0.1178  0.5444
 4351SOL    HW224687   1.136   1.495   5.690 -1.3762  0.7377  1.3353
 4352SOL     OW24688   2.765   2.987   9.962  0.1758  0.0076 -0.7794
 4352SOL    HW124689   2.755   3.080   9.981 -1.5800 -0.5380  1.0192
 4352SOL    HW224690   2.716   2.950  10.035  0.4323  0.7376 -0.2417
 4353SOL     OW24691   3.785   3.700  17.153 -0.1307  0.2747  0.4992
 4353SOL    HW124692   3.789   3.667  17.243 -0.8165  3.3654  1.6383
 4353SOL    HW224693   3.856   3.764  17.161 -0.1808  0.3357  0.4536
 4354SOL     OW24694   3.973   2.511   6.086  0.5832 -0.4666 -0.8777
 4354SOL    HW124695   3.887   2.493   6.124  0.7417 -1.0462 -0.7898
 4354SOL    HW224696   3.961   2.596   6.043 -0.5426  0.0210  0.3879
 4355SOL     OW24697   3.076   0.590   1.400 -0.4484 -0.0126  0.2017
 4355SOL    HW124698   3.135   0.549   1.335 -0.8094 -1.9629  1.1099
 4355SOL    HW224699   3.078   0.516   1.460 -1.3166 -0.5595 -0.4431
 4356SOL     OW24700   1.336   3.100   4.778 -0.2022 -0.0727  0.2841
 4356SOL    HW124701   1.263   3.151   4.743  0.8206  0.6322 -0.7811
 4356SOL    HW224702   1.365   3.051   4.702  1.5652 -0.2171  1.0451
 4357SOL     OW24703   2.557   0.694  15.338 -0.0316  0.3405  0.4316
 4357SOL    HW124704   2.632   0.702  15.280 -0.9705  1.0824 -0.6881
 4357SOL    HW224705   2.502   0.643  15.278 -0.0395  0.1432  0.6058
 4358SOL     OW24706   2.006   0.696   4.676  0.3634 -0.2772  0.7426
 4358SOL    HW124707   2.074   0.629   4.677  1.3348  0.7308  1.6036
 4358SOL    HW224708   2.050   0.746   4.744 -0.0423  0.4841  0.4492
 4359SOL     OW24709   3.730   2.729   6.283  0.3872  0.0106  0.3911
 4359SOL    HW124710   3.640   2.756   6.302 -0.1436 -1.4885  0.0461
 4359SOL    HW224711   3.724   2.712   6.189  1.1135  0.5980  0.2371
 4360SOL     OW24712   0.723   0.330   9.301 -0.0473 -0.1363  0.4281
 4360SOL    HW124713   0.773   0.281   9.235 -0.9109 -0.2347 -0.1590
 4360SOL    HW224714   0.724   0.274   9.378 -0.5153 -1.6867 -0.6861
 4361SOL     OW24715   2.836   1.975   2.935 -0.5026 -0.4807  0.1978
 4361SOL    HW124716   2.844   1.954   2.842  1.3132  1.0378  0.0131
 4361SOL    HW224717   2.925   1.968   2.970 -0.1918 -0.0001 -0.4881
 4362SOL     OW24718   2.205   0.613   3.315  0.1400  0.1053  0.0504
 4362SOL    HW124719   2.123   0.602   3.267  0.5177 -0.2924 -0.4962
 4362SOL    HW224720   2.175   0.587   3.403 -0.5010  0.1623 -0.1517
 4363SOL     OW24721   0.488   0.249  14.122 -0.2716  0.0409  0.0651
 4363SOL    HW124722   0.583   0.251  14.134 -0.0936  1.3985 -1.5310
 4363SOL    HW224723   0.443   0.199  14.190  2.1782 -0.5755  1.2533
 4364SOL     OW24724   1.106   3.784   6.971 -0.5061  0.3496  0.4790
 4364SOL    HW124725   1.149   3.817   7.050 -1.2134 -2.8311  2.2341
 4364SOL    HW224726   1.175   3.731   6.931 -2.2940 -2.3771  0.9358
 4365SOL     OW24727   0.642   3.304   3.407  0.1827 -0.1081 -0.6307
 4365SOL    HW124728   0.726   3.343   3.380  0.4338 -1.6722 -2.1660
 4365SOL    HW224729   0.578   3.374   3.394 -0.8838 -1.0255 -0.1943
 4366SOL     OW24730   3.201   3.914   2.558  0.3843  0.1189  0.4503
 4366SOL    HW124731   3.134   3.857   2.594 -3.6139  3.2187 -2.1089
 4366SOL    HW224732   3.261   3.848   2.523  0.1111  0.5305 -0.8046
 4367SOL     OW24733   1.311   2.188   8.114 -0.4853 -0.0456  0.2352
 4367SOL    HW124734   1.336   2.147   8.197  1.2384  2.2732  0.8658
 4367SOL    HW224735   1.240   2.130   8.085  1.3120 -1.2291 -1.8532
 4368SOL     OW24736   4.480   4.339  14.900 -0.2303 -0.2849  0.4431
 4368SOL    HW124737   4.418   4.297  14.960 -1.2796 -0.4883 -0.7817
 4368SOL    HW224738   4.418   4.382  14.841  0.8968 -1.8085 -1.8150
 4369SOL     OW24739   2.202   1.308  13.476  0.3107 -0.1536  0.5982
 4369SOL    HW124740   2.163   1.233  13.520 -0.6019  0.6559  1.1664
 4369SOL    HW224741   2.266   1.272  13.415  0.4721 -1.4546  1.5365
 4370SOL     OW24742   2.996   3.637  17.264  0.0126 -0.1202 -0.2006
 4370SOL    HW124743   3.046   3.571  17.313  0.7710 -0.8997 -2.0003
 4370SOL    HW224744   2.918   3.593  17.229  1.2316 -1.1140 -1.6788
 4371SOL     OW24745   4.404   2.200   2.103  0.0975  0.4890  0.3096
 4371SOL    HW124746   4.414   2.132   2.170  0.0757  0.7715  0.6038
 4371SOL    HW224747   4.475   2.169   2.047  1.9699  2.8142  1.3636
 4372SOL     OW24748   0.664   0.725   9.194 -0.5173 -0.4037 -0.0926
 4372SOL    HW124749   0.607   0.649   9.188 -1.1371  0.0183  0.4382
 4372SOL    HW224750   0.646   0.746   9.286  1.1742  0.0358  0.1525
 4373SOL     OW24751   2.692   4.427   7.834  0.0781 -0.2124  0.1584
 4373SOL    HW124752   2.769   4.439   7.889 -0.8090  0.5227  1.2432
 4373SOL    HW224753   2.692   4.332   7.848  2.2808 -0.0483  1.2391
 4374SOL     OW24754   2.774   4.556   6.601 -0.1378 -0.5505 -0.1917
 4374SOL    HW124755   2.809   4.634   6.558  0.2982 -1.6850 -1.9117
 4374SOL    HW224756   2.848   4.517   6.648 -1.7772 -1.1881  1.8363
 4375SOL     OW24757   2.176   0.464   5.395 -0.2957  0.2925  0.5344
 4375SOL    HW124758   2.174   0.403   5.321 -1.8687  0.1220  0.7230
 4375SOL    HW224759   2.133   0.545   5.366  1.9650  1.3451  0.0937
 4376SOL     OW24760   1.092   1.644   9.722 -0.2817  0.1928 -0.5393
 4376SOL    HW124761   1.007   1.632   9.678 -2.1625  0.9131  2.9142
 4376SOL    HW224762   1.065   1.663   9.812  0.4365 -0.6916 -0.1481
 4377SOL     OW24763   3.096   3.645   9.221 -0.4963  0.0745 -0.0553
 4377SOL    HW124764   3.071   3.556   9.247  1.0938  0.1188  1.5902
 4377SOL    HW224765   3.014   3.689   9.243 -0.1095  0.0982  1.3160
 4378SOL     OW24766   2.805   0.640   2.776 -0.1134  0.5696 -0.1392
 4378SOL    HW124767   2.742   0.603   2.715 -2.6498  2.7875  1.1568
 4378SOL    HW224768   2.874   0.674   2.719  0.4225 -0.5951 -0.1998
 4379SOL     OW24769   4.255   1.199   5.217  0.7234 -0.0780  0.0984
 4379SOL    HW124770   4.322   1.251   5.173  0.3973  0.7536  0.5988
 4379SOL    HW224771   4.286   1.114   5.185  0.5767 -0.9034  2.1333
 4380SOL     OW24772   2.721   1.312  14.726 -0.1911 -0.0778 -0.2287
 4380SOL    HW124773   2.652   1.364  14.683 -0.9227 -1.2655 -0.4910
 4380SOL    HW224774   2.695   1.317  14.818  1.1999 -1.9448  0.2705
 4381SOL     OW24775   2.034   2.612  13.845  0.1510  0.0014  0.0375
 4381SOL    HW124776   2.036   2.522  13.811 -1.9659 -0.6042  1.5078
 4381SOL    HW224777   1.981   2.655  13.778  2.0778  0.4246 -1.2261
 4382SOL     OW24778   1.760   1.885  10.004 -0.2738  0.0393 -0.3408
 4382SOL    HW124779   1.832   1.881  10.067 -1.0603 -0.8685  0.4818
 4382SOL    HW224780   1.723   1.964  10.043  0.4766  0.1223  0.2038
 4383SOL     OW24781   3.603   3.516   9.283  0.3670 -0.4956 -0.1287
 4383SOL    HW124782   3.514   3.548   9.298 -0.9799 -2.5964 -3.5580
 4383SOL    HW224783   3.585   3.434   9.237 -1.7249 -1.3771  2.2575
 4384SOL     OW24784   3.648   1.835   8.721 -0.3615  0.8224 -0.1987
 4384SOL    HW124785   3.720   1.787   8.679 -0.3844  0.3419  0.3012
 4384SOL    HW224786   3.684   1.847   8.809  0.4463 -1.9333 -0.1552
 4385SOL     OW24787   4.073   2.268   5.539  0.1930 -0.5071 -0.2353
 4385SOL    HW124788   3.995   2.293   5.589  2.1490  0.1917  2.4636
 4385SOL    HW224789   4.122   2.349   5.526 -3.7540  2.1622  1.2784
 4386SOL     OW24790   2.919   3.327   0.185 -0.4467  0.3028  0.1472
 4386SOL    HW124791   2.901   3.300   0.095 -0.5104 -1.1271  0.5826
 4386SOL    HW224792   2.905   3.421   0.190  2.0513  0.7100 -0.3985
 4387SOL     OW24793   3.603   1.787   1.056  0.1570 -0.1156 -0.3113
 4387SOL    HW124794   3.649   1.865   1.089  0.1935 -0.6511  0.9016
 4387SOL    HW224795   3.605   1.730   1.133  1.3016 -1.8539 -1.6363
 4388SOL     OW24796   0.878   4.529   5.158  0.0158 -0.0914 -0.7232
 4388SOL    HW124797   0.834   4.444   5.161  2.5651 -1.2860  2.9495
 4388SOL    HW224798   0.797   4.576   5.139 -0.0043  0.1527 -0.0400
 4389SOL     OW24799   2.240   2.018  16.497 -0.1490 -0.1802  0.2340
 4389SOL    HW124800   2.172   2.041  16.559 -0.2920 -0.5710  0.2269
 4389SOL    HW224801   2.309   2.080  16.519 -0.2841  0.0556  0.0002
 4390SOL     OW24802   3.117   2.441  17.691 -0.0493  0.4022 -0.4099
 4390SOL    HW124803   3.042   2.465  17.636 -1.8138 -0.1976  1.7575
 4390SOL    HW224804   3.153   2.374  17.633  0.8618  1.1697 -0.7357
 4391SOL     OW24805   3.958   1.784  14.868 -0.1318  0.8777  0.3776
 4391SOL    HW124806   4.018   1.730  14.816 -1.2938 -1.3759  1.3782
 4391SOL    HW224807   3.973   1.871  14.831 -1.0502  0.0531 -1.9474
 4392SOL     OW24808   4.298   0.473   5.161  0.7819  0.0783  0.2089
 4392SOL    HW124809   4.216   0.423   5.156  0.3452  0.9479 -1.5551
 4392SOL    HW224810   4.285   0.493   5.254  0.7024 -0.8829  0.3978
 4393SOL     OW24811   1.816   4.366   7.150  0.5667 -0.2194 -0.4341
 4393SOL    HW124812   1.877   4.368   7.224 -1.0994 -0.9873  0.9490
 4393SOL    HW224813   1.730   4.379   7.189  0.5448 -2.5962  0.2890
 4394SOL     OW24814   2.672   4.204   8.353 -0.3219  0.3267  0.0935
 4394SOL    HW124815   2.651   4.295   8.335 -0.2333  0.3630  0.1737
 4394SOL    HW224816   2.630   4.186   8.438 -2.5440 -0.6223 -1.2159
 4395SOL     OW24817   0.741   3.122   6.403 -0.1338 -0.1094 -0.1140
 4395SOL    HW124818   0.687   3.050   6.433  1.9718 -2.3180 -1.6269
 4395SOL    HW224819   0.732   3.188   6.472  1.1737 -0.3085  0.2443
 4396SOL     OW24820   4.073   2.871  16.219 -0.2320 -0.1110 -0.1529
 4396SOL    HW124821   4.059   2.931  16.292  0.9880 -0.8259  0.6713
 4396SOL    HW224822   4.160   2.893  16.187 -0.2312 -1.6040 -1.1434
 4397SOL     OW24823   4.599   3.864   7.704  0.1641 -0.6110  0.1569
 4397SOL    HW124824   4.646   3.916   7.640  0.0903 -1.0693 -0.2749
 4397SOL    HW224825   4.649   3.879   7.784 -0.5377  2.1829  0.0684
 4398SOL     OW24826   0.268   0.556   5.341 -0.2092  0.1763  0.3937
 4398SOL    HW124827   0.220   0.579   5.262  0.7094 -0.5176 -0.3778
 4398SOL    HW224828   0.322   0.486   5.304 -0.5085  0.1645 -0.0203
 4399SOL     OW24829   4.478   3.591   6.639  0.1127 -0.2385  0.5177
 4399SOL    HW124830   4.432   3.623   6.717  1.8405  2.9179  0.2214
 4399SOL    HW224831   4.404   3.593   6.579  0.3542  0.1220  0.2329
 4400SOL     OW24832   4.545   2.310  13.317 -0.0784  0.0637  0.7506
 4400SOL    HW124833   4.622   2.329  13.372  0.8459  1.4800 -1.0168
 4400SOL    HW224834   4.475   2.350  13.368  1.2270 -0.0719  2.6601
 4401SOL     OW24835   2.430   1.621   3.776  0.6788 -0.1372  0.0705
 4401SOL    HW124836   2.433   1.639   3.870 -0.0435  0.1686  0.0338
 4401SOL    HW224837   2.508   1.570   3.755  0.8491 -0.1027  0.6076
 4402SOL     OW24838   3.770   2.989  11.209  0.4082  0.5361 -0.1611
 4402SOL    HW124839   3.742   2.968  11.298  1.2231 -1.2153 -0.3239
 4402SOL    HW224840   3.855   2.946  11.213 -0.0970 -0.3279  1.5219
 4403SOL     OW24841   3.223   2.543   8.063  0.3915  0.7334  0.9478
 4403SOL    HW124842   3.194   2.532   8.154 -1.2171  1.4584  0.5308
 4403SOL    HW224843   3.297   2.483   8.070 -0.5976 -0.6697 -0.6736
 4404SOL     OW24844   3.063   0.135   5.432 -0.9953 -0.1125 -0.7049
 4404SOL    HW124845   3.102   0.095   5.355 -1.3483 -0.7382 -0.5569
 4404SOL    HW224846   3.129   0.105   5.494 -1.3302  1.3648  0.3748
 4405SOL     OW24847   2.788   1.480   1.115  0.5522 -0.4172 -0.0713
 4405SOL    HW124848   2.827   1.406   1.069 -0.1671 -0.8308 -0.0173
 4405SOL    HW224849   2.829   1.561   1.087 -0.8935  1.0759  2.1183
 4406SOL     OW24850   1.804   4.605   5.666 -0.2505  0.7420  0.5011
 4406SOL    HW124851   1.750   4.588   5.744 -1.8977 -1.6409 -1.1693
 4406SOL    HW224852   1.807   4.701   5.663  0.4995  0.6327 -1.8994
 4407SOL     OW24853   4.335   4.346   2.039  1.0087 -0.0139  0.0774
 4407SOL    HW124854   4.326   4.329   2.133 -0.7296 -0.2851 -0.1260
 4407SOL    HW224855   4.250   4.312   2.010  0.3765  2.5489 -1.0950
 4408SOL     OW24856   1.792   0.743  10.956 -0.6835  0.5567 -0.4145
 4408SOL    HW124857   1.704   0.705  10.957 -0.4886  0.2074  3.4317
 4408SOL    HW224858   1.794   0.770  11.047  1.8420 -0.5100 -0.1544
 4409SOL     OW24859   1.446   2.991   6.933  0.3381  0.4151  0.2214
 4409SOL    HW124860   1.456   3.050   6.859  0.2152 -0.4295 -0.4706
 4409SOL    HW224861   1.396   2.920   6.892  2.8198 -2.3010  1.8343
 4410SOL     OW24862   4.358   2.584   1.747 -0.3625  0.1511  0.3056
 4410SOL    HW124863   4.294   2.550   1.684 -1.9545  0.0962  1.9592
 4410SOL    HW224864   4.416   2.510   1.728  1.4540  2.0604 -1.5735
 4411SOL     OW24865   4.554   1.801  10.193 -0.5245 -0.4376 -0.3111
 4411SOL    HW124866   4.533   1.773  10.282  0.7924  0.7962  0.3968
 4411SOL    HW224867   4.466   1.784  10.160  0.8202 -2.7153 -2.7856
 4412SOL     OW24868   3.661   0.122   5.143  0.0067 -0.1383  0.3184
 4412SOL    HW124869   3.709   0.064   5.202  2.1524  2.1690  0.8136
 4412SOL    HW224870   3.593   0.150   5.205  1.0172 -1.5732  2.0866
 4413SOL     OW24871   3.844   3.408  14.947  0.2918 -0.3998  0.1961
 4413SOL    HW124872   3.816   3.445  14.864  1.3081 -1.8183 -0.7800
 4413SOL    HW224873   3.794   3.327  14.959 -1.0189  0.2272 -1.0461
 4414SOL     OW24874   2.835   1.085   6.409 -0.0729  0.3593  0.2145
 4414SOL    HW124875   2.903   1.141   6.372 -0.1699 -2.0319 -3.5938
 4414SOL    HW224876   2.785   1.149   6.460  2.4086  1.7366  0.9362
 4415SOL     OW24877   0.841   3.374   6.505 -0.4705 -0.1223  0.4614
 4415SOL    HW124878   0.855   3.346   6.595  0.5278 -0.5528  0.1842
 4415SOL    HW224879   0.924   3.349   6.463  0.8844  0.4363  2.7901
 4416SOL     OW24880   3.419   0.477  16.029 -0.0511 -0.8153  0.0816
 4416SOL    HW124881   3.450   0.388  16.049  0.0279 -0.7666  0.1758
 4416SOL    HW224882   3.488   0.518  15.977  0.0269  0.3118  1.0696
 4417SOL     OW24883   0.749   0.605   4.936 -0.0343  0.0628 -0.2041
 4417SOL    HW124884   0.703   0.590   5.018 -0.7733  0.5230 -0.5343
 4417SOL    HW224885   0.764   0.512   4.916 -0.4279 -0.1389  0.4476
 4418SOL     OW24886   2.885   3.527   3.597  0.3164  0.6288  0.4975
 4418SOL    HW124887   2.838   3.491   3.522  0.5219  2.7954 -0.6849
 4418SOL    HW224888   2.942   3.593   3.558  1.6450  0.2775  1.8925
 4419SOL     OW24889   3.686   0.051   8.734  0.3344  0.0622 -0.1551
 4419SOL    HW124890   3.608   0.098   8.764 -1.5995 -2.3061 -1.4542
 4419SOL    HW224891   3.699   0.004   8.816 -0.8448 -2.4254 -1.3888
 4420SOL     OW24892   0.781   3.136   5.995  0.4632 -0.5398  0.0442
 4420SOL    HW124893   0.858   3.169   6.041  1.4484 -0.5702 -1.5839
 4420SOL    HW224894   0.821   3.104   5.914  0.9391  0.6183 -0.1755
 4421SOL     OW24895   4.431   2.788   8.058  0.1541 -0.2665  0.0242
 4421SOL    HW124896   4.406   2.871   8.099  0.4942 -0.8188  1.3560
 4421SOL    HW224897   4.513   2.822   8.021 -0.5944 -0.3045 -1.6597
 4422SOL     OW24898   4.436   3.150  17.280  0.1225  0.5117 -0.2951
 4422SOL    HW124899   4.512   3.162  17.223  1.0668 -0.9089  0.6528
 4422SOL    HW224900   4.464   3.067  17.320 -1.6509 -0.4889 -1.1223
 4423SOL     OW24901   1.712   0.263   0.046 -0.0369 -0.0644  0.1451
 4423SOL    HW124902   1.671   0.199   0.103 -0.9314 -1.4635 -2.0564
 4423SOL    HW224903   1.644   0.329   0.033  0.8545  0.8989  0.2717
 4424SOL     OW24904   4.563   0.813   6.158 -0.0474 -0.4106  0.7486
 4424SOL    HW124905   4.572   0.862   6.076 -1.5611 -1.5660 -0.1058
 4424SOL    HW224906   4.568   0.720   6.136  0.9756 -0.2296  0.2170
 4425SOL     OW24907   0.748   0.806   4.071 -0.1224  0.1288 -0.5907
 4425SOL    HW124908   0.724   0.804   4.164 -0.3239  1.7045 -0.5964
 4425SOL    HW224909   0.681   0.868   4.042 -2.6805 -2.1810  0.3231
 4426SOL     OW24910   3.954   3.653   8.873  0.3589 -0.0528 -0.3441
 4426SOL    HW124911   3.900   3.615   8.942  1.1421  1.4771  1.1054
 4426SOL    HW224912   4.024   3.588   8.877  0.7165  0.1993 -2.3478
 4427SOL     OW24913   0.919   3.420   4.906 -0.1713 -0.3946 -0.8266
 4427SOL    HW124914   0.886   3.507   4.885 -0.6714 -0.7266 -1.3886
 4427SOL    HW224915   0.832   3.380   4.913 -0.3593 -0.0028 -0.9532
 4428SOL     OW24916   1.713   1.988   2.282 -0.3008  0.3808 -0.0605
 4428SOL    HW124917   1.656   2.043   2.229 -0.7065  1.1704  1.1895
 4428SOL    HW224918   1.699   2.029   2.368 -0.3841 -2.0387  1.0729
 4429SOL     OW24919   3.140   2.096  17.073 -0.0143 -0.0330 -0.3087
 4429SOL    HW124920   3.202   2.055  17.012  1.7572 -1.1507  2.2561
 4429SOL    HW224921   3.118   2.181  17.036  1.5036  0.2726 -0.5363
 4430SOL     OW24922   3.457   0.383   1.592 -0.4096 -0.0947 -0.0272
 4430SOL    HW124923   3.432   0.314   1.531 -0.2101  0.4878 -0.7727
 4430SOL    HW224924   3.438   0.459   1.536 -2.6742 -0.3593  0.3702
 4431SOL     OW24925   3.217   4.196  11.324 -0.1252  0.0080 -0.0648
 4431SOL    HW124926   3.261   4.139  11.387  0.9814  0.3339 -0.5271
 4431SOL    HW224927   3.292   4.215  11.267  0.9198  0.7057  1.5173
 4432SOL     OW24928   4.502   0.340   4.127  0.0348  0.0217 -0.0132
 4432SOL    HW124929   4.413   0.369   4.105  0.0745  0.1423 -0.0154
 4432SOL    HW224930   4.553   0.356   4.048 -0.1578  0.0583 -0.1296
 4433SOL     OW24931   3.927   2.934   5.647 -0.7030  0.3390  0.1232
 4433SOL    HW124932   4.013   2.923   5.609 -0.9226  0.1299 -0.3109
 4433SOL    HW224933   3.950   2.973   5.732  1.2854 -0.8184  0.1198
 4434SOL     OW24934   0.436   3.664  15.398 -0.3511  0.2462 -0.1760
 4434SOL    HW124935   0.362   3.623  15.353  0.3765 -1.2031 -0.0561
 4434SOL    HW224936   0.419   3.756  15.379  0.3325  0.7689  1.6956
 4435SOL     OW24937   3.621   0.939   7.352 -0.4014 -0.1565  0.1875
 4435SOL    HW124938   3.536   0.944   7.397 -1.4130  0.3621 -1.8009
 4435SOL    HW224939   3.629   0.847   7.326  0.3840  0.1617 -0.6500
 4436SOL     OW24940   2.663   1.418  14.982  0.1239  0.3048 -0.3696
 4436SOL    HW124941   2.663   1.496  14.927  1.4674  1.7414  1.6884
 4436SOL    HW224942   2.705   1.442  15.064  1.0715  0.5721 -0.9398
 4437SOL     OW24943   1.349   2.404   3.006  0.6589 -0.3079 -0.2238
 4437SOL    HW124944   1.425   2.348   2.987  0.0744 -0.7894 -1.1262
 4437SOL    HW224945   1.351   2.400   3.101 -0.0019 -1.7076 -0.2657
 4438SOL     OW24946   2.105   2.148   2.183 -0.0204  0.0977  0.3449
 4438SOL    HW124947   2.075   2.203   2.111  2.5819 -1.2144 -1.7360
 4438SOL    HW224948   2.043   2.076   2.181 -1.1155  1.0186  0.9067
 4439SOL     OW24949   1.235   4.283  13.820  0.2062 -0.5283 -0.1772
 4439SOL    HW124950   1.301   4.300  13.752  0.4007 -0.0984  0.1176
 4439SOL    HW224951   1.172   4.352  13.799 -0.1041 -0.0565  2.3752
 4440SOL     OW24952   3.109   0.938  12.240 -0.3779  0.6269  0.4276
 4440SOL    HW124953   3.183   0.943  12.179 -0.9229 -2.2663 -0.4604
 4440SOL    HW224954   3.150   0.912  12.322  0.0406 -1.9942 -0.6357
 4441SOL     OW24955   3.518   2.398  10.255 -0.5911  0.5098 -0.1033
 4441SOL    HW124956   3.599   2.362  10.292 -0.4433 -0.4409 -1.3605
 4441SOL    HW224957   3.569   2.476  10.231  1.4745 -1.2677 -1.4526
 4442SOL     OW24958   0.066   0.485   8.487 -0.2051 -0.7776  0.0091
 4442SOL    HW124959   4.728   0.503   8.431 -0.6580  0.1006  0.8921
 4442SOL    HW224960   0.139   0.532   8.447 -0.2565 -1.1430 -0.4998
 4443SOL     OW24961   3.962   2.686   6.438  0.1754 -0.2487  0.5864
 4443SOL    HW124962   3.935   2.725   6.521 -1.5121 -0.6417  0.2240
 4443SOL    HW224963   3.890   2.691   6.375  0.0042  2.2445  0.9773
 4444SOL     OW24964   4.231   4.491   7.629  0.4408  0.0625 -0.3687
 4444SOL    HW124965   4.295   4.560   7.644  0.9994 -1.0404  2.1864
 4444SOL    HW224966   4.285   4.414   7.644 -1.1709 -0.8270  0.9183
 4445SOL     OW24967   1.121   2.716   9.227 -0.0517  0.0474 -0.3123
 4445SOL    HW124968   1.106   2.680   9.315 -0.7713  0.0140 -0.4429
 4445SOL    HW224969   1.044   2.680   9.183  0.7912  0.0503 -1.7752
 4446SOL     OW24970   0.185   0.116  11.239 -0.2456 -0.1615  0.0602
 4446SOL    HW124971   0.229   0.083  11.161 -0.2054  0.5608 -0.2238
 4446SOL    HW224972   0.152   0.205  11.224  0.9219  0.6458  2.2822
 4447SOL     OW24973   2.224   3.780   4.999  0.1991  0.1050  0.3381
 4447SOL    HW124974   2.252   3.837   5.071 -1.9689 -1.0503  2.1012
 4447SOL    HW224975   2.251   3.821   4.917  0.7846  0.5226  0.7459
 4448SOL     OW24976   1.683   4.619  10.347  0.1795 -0.0786  0.0349
 4448SOL    HW124977   1.635   4.555  10.294 -1.4498  1.3572 -0.1943
 4448SOL    HW224978   1.745   4.649  10.281 -0.4282 -2.4719 -1.6121
 4449SOL     OW24979   0.755   0.531   5.412 -0.0783  0.2843 -0.5219
 4449SOL    HW124980   0.776   0.617   5.449 -0.3127 -0.0449  0.3634
 4449SOL    HW224981   0.833   0.513   5.359  0.8454  0.9285  0.5935
 4450SOL     OW24982   3.195   3.462   5.347  0.3275  0.0691  0.1917
 4450SOL    HW124983   3.242   3.492   5.269  1.1807 -0.7094  0.4151
 4450SOL    HW224984   3.161   3.544   5.383 -0.7549 -0.1273 -0.3782
 4451SOL     OW24985   3.573   1.707   5.705 -0.0371 -0.0194 -0.3603
 4451SOL    HW124986   3.610   1.619   5.717 -2.2751 -1.1723 -1.8568
 4451SOL    HW224987   3.636   1.759   5.753 -0.4418 -0.0101  0.1585
 4452SOL     OW24988   0.611   3.232   7.981 -0.8357 -0.6667  0.3677
 4452SOL    HW124989   0.578   3.143   7.986  0.4517 -1.1312  0.5088
 4452SOL    HW224990   0.531   3.278   7.954 -1.2228 -1.0596  0.8392
 4453SOL     OW24991   0.174   3.459   8.776 -0.1718 -0.0279 -0.4093
 4453SOL    HW124992   0.246   3.481   8.717  0.8213 -2.4944 -0.1616
 4453SOL    HW224993   0.112   3.531   8.767  1.4897  1.5010  0.2510
 4454SOL     OW24994   2.452   1.912  15.110  0.0429 -0.1989 -0.8163
 4454SOL    HW124995   2.474   1.984  15.050 -0.1951  0.1553 -0.4809
 4454SOL    HW224996   2.394   1.850  15.065 -2.2368 -0.0347  1.8591
 4455SOL     OW24997   3.190   0.324  11.920  0.0930  0.2878 -0.5324
 4455SOL    HW124998   3.101   0.342  11.890 -0.7400 -0.3654  1.5749
 4455SOL    HW224999   3.222   0.292  11.836  0.3002 -0.4680 -0.1716
 4456SOL     OW25000   4.317   0.728   4.739 -0.7150 -0.1276 -0.1615
 4456SOL    HW125001   4.316   0.728   4.834 -3.9259 -2.3629 -0.2049
 4456SOL    HW225002   4.283   0.815   4.720 -1.0970 -0.2386  0.0353
 4457SOL     OW25003   1.276   2.069   2.272 -0.7229 -0.4068  0.2740
 4457SOL    HW125004   1.217   2.123   2.220 -0.2516 -1.9101 -1.8617
 4457SOL    HW225005   1.315   2.129   2.335  2.3068 -0.5666 -1.4075
 4458SOL     OW25006   4.575   4.526  11.687 -0.0324 -0.0590 -0.2649
 4458SOL    HW125007   4.597   4.513  11.779  1.5114 -1.4103 -0.8219
 4458SOL    HW225008   4.662   4.506  11.652  0.6393 -0.0179  1.3820
 4459SOL     OW25009   0.962   1.442  15.143  0.5305  0.5592 -0.0566
 4459SOL    HW125010   0.973   1.536  15.136 -0.2296  0.8089  2.0664
 4459SOL    HW225011   0.961   1.428  15.238  0.8004 -1.4489 -0.3460
 4460SOL     OW25012   0.353   1.599   7.626 -0.6326 -0.6849 -0.3635
 4460SOL    HW125013   0.364   1.504   7.630 -1.9159 -0.8669 -1.0725
 4460SOL    HW225014   0.413   1.624   7.696  0.9200  1.4802 -2.4512
 4461SOL     OW25015   4.225   1.339   2.438  0.4860  0.6675 -0.0816
 4461SOL    HW125016   4.243   1.245   2.447  0.5003  0.5371 -1.4652
 4461SOL    HW225017   4.308   1.369   2.401  0.9438 -0.5388 -0.0573
 4462SOL     OW25018   3.385   2.342   3.997 -0.0497 -0.1979 -0.1531
 4462SOL    HW125019   3.308   2.335   3.941 -0.4082  0.7490  0.2088
 4462SOL    HW225020   3.458   2.329   3.938  0.5597  1.0519  0.3207
 4463SOL     OW25021   0.554   1.267   8.262  0.3164 -0.4269 -0.0535
 4463SOL    HW125022   0.549   1.255   8.167  0.0520  3.5461 -0.5474
 4463SOL    HW225023   0.473   1.220   8.280  0.1966 -0.0315  0.4268
 4464SOL     OW25024   1.118   1.988   8.081  0.3796  0.2596 -0.0716
 4464SOL    HW125025   1.069   1.981   8.163  1.5828 -0.9788  0.5395
 4464SOL    HW225026   1.046   2.005   8.020  0.8072  1.0360 -0.3613
 4465SOL     OW25027   1.588   3.141   1.299 -0.1697  0.1352  0.3452
 4465SOL    HW125028   1.620   3.064   1.346  1.2267  0.5267  0.0067
 4465SOL    HW225029   1.511   3.149   1.356  0.6152 -2.7015  1.8222
 4466SOL     OW25030   4.028   4.005  16.532  0.1191 -0.0035  0.5654
 4466SOL    HW125031   4.005   4.096  16.548  0.3279 -0.1192  1.5297
 4466SOL    HW225032   4.086   3.978  16.603  0.3688  0.3592  0.4992
 4467SOL     OW25033   4.406   0.183  14.818  0.0354  0.0954  0.1197
 4467SOL    HW125034   4.450   0.190  14.903 -0.8879  0.0359  0.6055
 4467SOL    HW225035   4.450   0.248  14.763 -1.2189  1.0758  0.2671
 4468SOL     OW25036   0.320   3.614   6.313 -0.0331 -0.1698  0.0026
 4468SOL    HW125037   0.368   3.555   6.371 -0.1290  2.1536  2.4595
 4468SOL    HW225038   0.377   3.685   6.341  0.3794 -0.7351  0.5983
 4469SOL     OW25039   3.148   2.893   7.093  0.1273  0.2894  0.6356
 4469SOL    HW125040   3.142   2.862   7.183  1.9523 -1.6524  0.1019
 4469SOL    HW225041   3.238   2.925   7.099 -0.5586  2.1903  0.4867
 4470SOL     OW25042   3.874   3.256   9.274  0.2400 -0.0040  0.0731
 4470SOL    HW125043   3.959   3.214   9.263 -0.3255 -1.6499  1.8543
 4470SOL    HW225044   3.810   3.186   9.265 -0.9235  0.8096  1.8176
 4471SOL     OW25045   1.891   4.318   8.157  0.3732 -0.1690  0.1298
 4471SOL    HW125046   1.851   4.376   8.092 -0.1691  1.1985  1.6945
 4471SOL    HW225047   1.904   4.377   8.232  1.3582 -0.2147 -0.0088
 4472SOL     OW25048   0.474   1.625  17.055  0.6300  0.0621 -0.7164
 4472SOL    HW125049   0.387   1.586  17.045 -0.1262  1.2614  1.2594
 4472SOL    HW225050   0.452   1.712  17.089  1.6091 -0.7007  1.8229
 4473SOL     OW25051   0.777   3.713  10.255 -0.1717  0.2582 -0.3574
 4473SOL    HW125052   0.790   3.805  10.232  0.4004  0.5889  1.3089
 4473SOL    HW225053   0.682   3.703  10.252  0.0195 -1.4343 -0.6986
 4474SOL     OW25054   1.791   4.545  10.972  0.2060 -1.0326 -0.0384
 4474SOL    HW125055   1.837   4.462  10.957  1.1997 -0.2752 -1.1448
 4474SOL    HW225056   1.833   4.564  11.055  1.1465  1.0793 -1.0062
 4475SOL     OW25057   3.986   3.604  16.908  0.4727 -0.0132  0.2335
 4475SOL    HW125058   4.022   3.516  16.919 -1.6734 -0.7494  1.3262
 4475SOL    HW225059   4.060   3.663  16.923  1.5585 -0.8086 -1.9099
 4476SOL     OW25060   4.192   4.016   7.842  0.4833 -0.2929  0.3531
 4476SOL    HW125061   4.232   4.007   7.929  0.9064  1.2052  0.3058
 4476SOL    HW225062   4.118   4.075   7.854  1.0815  0.1908  1.6800
 4477SOL     OW25063   3.243   1.038   7.827  0.2237  0.2627  0.8917
 4477SOL    HW125064   3.308   0.973   7.801 -0.6192 -0.5386  0.8006
 4477SOL    HW225065   3.282   1.068   7.909  1.3292 -1.5065  1.0024
 4478SOL     OW25066   0.528   4.411   3.475 -0.0907 -0.0909  0.5308
 4478SOL    HW125067   0.623   4.406   3.479 -0.2713 -2.1509  2.1659
 4478SOL    HW225068   0.518   4.489   3.421  2.2954  0.6692  1.2256
 4479SOL     OW25069   3.915   4.182  11.123 -0.3779  0.4046  0.0438
 4479SOL    HW125070   3.981   4.159  11.188 -0.9891  0.3023  0.6387
 4479SOL    HW225071   3.971   4.239  11.070 -0.9100  0.7228 -0.1753
 4480SOL     OW25072   2.054   4.162   7.245  0.2936 -0.4363 -0.2497
 4480SOL    HW125073   2.065   4.103   7.320  0.6783 -1.3483 -1.0264
 4480SOL    HW225074   2.024   4.242   7.289 -0.9803 -0.9535 -0.1959
 4481SOL     OW25075   1.569   0.288   7.153 -0.1247  0.4012 -0.4346
 4481SOL    HW125076   1.542   0.292   7.245  1.3653 -3.4723  0.2094
 4481SOL    HW225077   1.614   0.371   7.140 -0.7690  0.7772 -0.2455
 4482SOL     OW25078   2.478   2.812   3.123 -0.0148 -0.2420  0.1214
 4482SOL    HW125079   2.545   2.746   3.111  1.6930  1.5995 -0.4626
 4482SOL    HW225080   2.397   2.761   3.113  0.3182 -0.4352 -1.6134
 4483SOL     OW25081   2.472   0.078   5.112 -0.3496  0.0088 -0.9794
 4483SOL    HW125082   2.450   0.095   5.021 -0.0688 -0.0758 -1.0633
 4483SOL    HW225083   2.553   0.128   5.114 -1.9370  2.4063  2.9314
 4484SOL     OW25084   3.415   1.349  17.102 -0.0789  0.0045  0.4303
 4484SOL    HW125085   3.386   1.335  17.192 -0.9492 -0.2366  0.1131
 4484SOL    HW225086   3.400   1.268  17.052  1.0564 -0.6681  1.1925
 4485SOL     OW25087   1.755   1.272   6.113  0.2103 -0.2039  0.0826
 4485SOL    HW125088   1.829   1.278   6.053 -0.7302 -0.0651 -1.0591
 4485SOL    HW225089   1.736   1.179   6.125 -1.3513  0.1389  0.2949
 4486SOL     OW25090   2.928   0.814   1.292 -0.4131  0.3059 -0.2384
 4486SOL    HW125091   2.995   0.880   1.275  2.1396 -2.2980 -0.0573
 4486SOL    HW225092   2.981   0.753   1.342 -0.3569  0.6155  0.0729
 4487SOL     OW25093   3.424   2.457   8.842 -0.2598  0.5596 -0.1501
 4487SOL    HW125094   3.394   2.426   8.756  0.6743  0.1039 -0.3090
 4487SOL    HW225095   3.354   2.448   8.906  0.4106  1.7438  0.7585
 4488SOL     OW25096   2.226   4.652  13.699 -0.6462  0.1013 -0.3904
 4488SOL    HW125097   2.146   4.705  13.695 -3.2266 -3.6735  0.9661
 4488SOL    HW225098   2.288   4.687  13.635 -1.3653  0.7136 -0.7586
 4489SOL     OW25099   1.793   0.126   7.964  0.1629 -0.2425  0.8686
 4489SOL    HW125100   1.793   0.178   7.884  0.0035  1.9648  2.3015
 4489SOL    HW225101   1.828   0.189   8.028  0.9159  2.6322 -2.3857
 4490SOL     OW25102   0.406   4.335  16.628 -0.3455 -0.1040  0.1909
 4490SOL    HW125103   0.324   4.373  16.597 -1.7316 -2.8471  0.3904
 4490SOL    HW225104   0.469   4.406  16.630  0.6083 -0.9479  0.0414
 4491SOL     OW25105   0.964   1.408  16.569 -0.4031 -0.0237  0.3821
 4491SOL    HW125106   0.885   1.442  16.526  0.1709 -0.2622 -0.8406
 4491SOL    HW225107   1.047   1.429  16.526 -1.2723  2.4580 -0.0886
 4492SOL     OW25108   2.952   2.604   6.686 -0.0481 -0.1331 -0.6474
 4492SOL    HW125109   2.978   2.671   6.749  2.5633 -1.8455  0.1178
 4492SOL    HW225110   2.947   2.530   6.746  0.2717  1.1314  0.9153
 4493SOL     OW25111   1.996   1.557  12.835  0.1495 -0.2484 -0.3370
 4493SOL    HW125112   1.994   1.461  12.828  0.5173 -0.3210  0.5530
 4493SOL    HW225113   1.912   1.593  12.864  0.3869  0.5829 -0.6892
 4494SOL     OW25114   4.463   0.469   4.859  0.8485  0.2962 -0.0852
 4494SOL    HW125115   4.427   0.550   4.826 -0.8966 -0.5382 -0.2052
 4494SOL    HW225116   4.512   0.494   4.937  1.3955 -1.3918  0.1223
 4495SOL     OW25117   1.855   3.049   3.664 -0.1649 -0.5179  0.0219
 4495SOL    HW125118   1.822   3.138   3.675  0.3732 -0.3771  0.5258
 4495SOL    HW225119   1.815   3.007   3.741 -0.8173 -0.1200 -0.1053
 4496SOL     OW25120   0.805   2.457  14.449 -0.4606  0.6386  0.5005
 4496SOL    HW125121   0.901   2.456  14.445 -0.4034  2.1203  1.4548
 4496SOL    HW225122   0.779   2.542  14.417 -1.1459  0.6318  1.0392
 4497SOL     OW25123   2.250   4.173   2.506  0.5760 -0.1776 -0.4029
 4497SOL    HW125124   2.194   4.232   2.456  1.0712  0.4546 -0.2087
 4497SOL    HW225125   2.332   4.222   2.507  2.3564 -3.1256  1.7822
 4498SOL     OW25126   3.937   4.632   6.767  0.0531 -0.1741  0.5337
 4498SOL    HW125127   3.877   4.705   6.781  0.3213 -0.0420  0.9754
 4498SOL    HW225128   3.897   4.571   6.829 -1.1273  2.2929  2.1903
 4499SOL     OW25129   1.879   0.781   5.075 -0.5748 -0.4405  0.1599
 4499SOL    HW125130   1.844   0.867   5.099 -0.4959 -0.4521  0.3223
 4499SOL    HW225131   1.889   0.741   5.162  0.3957 -2.2275 -0.7914
 4500SOL     OW25132   3.488   1.006   4.368  0.2586  0.5079 -0.2470
 4500SOL    HW125133   3.478   0.923   4.321  1.1031 -0.3802  1.1183
 4500SOL    HW225134   3.415   1.055   4.332  1.4577  2.1727 -0.4147
 4501SOL     OW25135   2.617   2.553   1.215 -0.2284  0.1457 -0.4200
 4501SOL    HW125136   2.677   2.492   1.259  1.3876  1.5195 -0.6977
 4501SOL    HW225137   2.664   2.580   1.135  2.3413  1.7533  1.6117
 4502SOL     OW25138   4.418   1.126   9.716 -0.0860 -0.4016  0.3192
 4502SOL    HW125139   4.452   1.127   9.626 -0.4028 -3.6098  0.1626
 4502SOL    HW225140   4.430   1.213   9.752  0.8980 -0.5354  0.3069
 4503SOL     OW25141   1.134   1.206   3.267  0.0323 -0.5288 -0.8278
 4503SOL    HW125142   1.160   1.292   3.301 -1.4602 -0.0797 -0.8401
 4503SOL    HW225143   1.049   1.198   3.311  1.1888 -1.5183  1.2262
 4504SOL     OW25144   4.134   3.694   5.761  0.1044  0.4570 -0.3295
 4504SOL    HW125145   4.091   3.715   5.678  0.6979  1.2615 -0.4348
 4504SOL    HW225146   4.198   3.629   5.732 -0.6013  0.5061 -2.0356
 4505SOL     OW25147   2.216   2.271   5.432 -0.1313  0.2448 -0.2424
 4505SOL    HW125148   2.141   2.213   5.421  1.9269 -1.7125 -3.8301
 4505SOL    HW225149   2.179   2.348   5.388 -1.9653 -0.5471 -0.0921
 4506SOL     OW25150   2.153   1.444   1.832  0.3474 -0.6847 -0.0574
 4506SOL    HW125151   2.128   1.353   1.848  2.3211 -0.8907  1.8186
 4506SOL    HW225152   2.164   1.482   1.919 -2.9849 -1.0921  0.5268
 4507SOL     OW25153   2.950   0.360   2.621 -0.1147 -0.0069 -0.4525
 4507SOL    HW125154   2.876   0.377   2.563 -0.7776 -1.1480  0.0589
 4507SOL    HW225155   2.908   0.338   2.704  1.2212 -0.2829  0.1493
 4508SOL     OW25156   3.823   1.696  10.564  0.7030 -0.3096 -0.4726
 4508SOL    HW125157   3.850   1.612  10.527 -1.6757 -0.9872 -0.6445
 4508SOL    HW225158   3.818   1.752  10.486  2.0113 -1.2652 -1.2576
 4509SOL     OW25159   2.008   0.511   0.661 -0.0069  0.0180 -0.1014
 4509SOL    HW125160   2.017   0.417   0.645 -0.5492 -0.1499  0.5256
 4509SOL    HW225161   1.950   0.515   0.738 -1.1709  0.6543 -1.0222
 4510SOL     OW25162   4.459   0.324   8.739 -0.7516 -0.4290 -0.0548
 4510SOL    HW125163   4.400   0.304   8.667 -1.0479 -0.4113  0.1822
 4510SOL    HW225164   4.478   0.238   8.778 -0.1048 -1.1045 -1.8902
 4511SOL     OW25165   0.557   3.066   0.239 -0.5203  0.5305  0.2592
 4511SOL    HW125166   0.561   3.139   0.301 -3.0385  0.3290  0.6769
 4511SOL    HW225167   0.643   3.070   0.197 -0.6406 -1.1630 -0.1633
 4512SOL     OW25168   0.057   0.976   5.339  0.4203 -0.3166  0.2083
 4512SOL    HW125169   0.061   0.897   5.285 -0.7496  1.5148 -2.5572
 4512SOL    HW225170   4.715   0.969   5.392  0.3968 -1.4799  0.0231
 4513SOL     OW25171   1.371   2.799   6.776 -0.3416  0.5314  0.0646
 4513SOL    HW125172   1.451   2.766   6.818 -0.4274 -2.4738 -2.1615
 4513SOL    HW225173   1.372   2.787   6.681 -2.3744 -2.2421  0.3997
 4514SOL     OW25174   2.121   3.403   5.842 -0.4128 -0.5511 -0.0617
 4514SOL    HW125175   2.070   3.368   5.915  0.8125 -3.0340 -0.4030
 4514SOL    HW225176   2.140   3.323   5.794  1.0829 -0.4250  0.3288
 4515SOL     OW25177   3.747   0.426  15.723  0.2109 -0.2791 -0.3842
 4515SOL    HW125178   3.671   0.464  15.678 -1.1335 -0.6356  1.5936
 4515SOL    HW225179   3.725   0.333  15.732  0.7054 -0.3292  0.2558
 4516SOL     OW25180   1.544   1.055   4.396 -0.0511 -0.5423 -0.1544
 4516SOL    HW125181   1.482   1.066   4.324 -1.7250 -0.0789  1.3609
 4516SOL    HW225182   1.625   1.072   4.348  0.3940 -3.0491 -0.3046
 4517SOL     OW25183   2.416   1.061   6.666  0.2944 -0.1459 -0.1178
 4517SOL    HW125184   2.499   1.027   6.635 -0.3830 -2.3002  0.4131
 4517SOL    HW225185   2.427   1.060   6.762 -1.6329  1.4050  0.1212
 4518SOL     OW25186   1.449   4.626   2.314  0.7626 -0.1039 -0.1051
 4518SOL    HW125187   1.417   4.710   2.282  1.9381 -0.1923 -1.4842
 4518SOL    HW225188   1.536   4.651   2.345 -0.2640  1.0466  1.8387
 4519SOL     OW25189   3.147   2.880  10.046  0.8244 -0.4150  0.2142
 4519SOL    HW125190   3.150   2.840  10.133 -2.0362  0.4414  0.7258
 4519SOL    HW225191   3.208   2.952  10.059 -2.1660  2.2342 -0.3908
 4520SOL     OW25192   1.254   2.870   5.254  0.5554 -0.0921  0.6719
 4520SOL    HW125193   1.291   2.959   5.257 -1.6684  0.9294 -1.8537
 4520SOL    HW225194   1.215   2.863   5.341 -0.9058  0.7188  0.0838
 4521SOL     OW25195   4.517   4.018   9.295  0.4016 -0.7139 -0.4629
 4521SOL    HW125196   4.431   3.989   9.325  0.5842  0.9683  1.6694
 4521SOL    HW225197   4.526   4.108   9.326  0.8377 -0.7837 -0.3868
 4522SOL     OW25198   3.783   0.687  16.700 -0.0274 -0.4349  0.2058
 4522SOL    HW125199   3.800   0.764  16.755  0.1457 -0.4533  0.1786
 4522SOL    HW225200   3.783   0.721  16.610  2.8159 -0.8936  0.0477
 4523SOL     OW25201   0.652   1.751   3.111 -0.0118 -0.1699  0.2184
 4523SOL    HW125202   0.621   1.713   3.029 -0.9239 -0.1395  0.5499
 4523SOL    HW225203   0.636   1.845   3.119 -1.5422 -0.4081 -0.1332
 4524SOL     OW25204   0.547   2.584   4.479  0.6003  0.3036  0.2068
 4524SOL    HW125205   0.521   2.494   4.499  0.4328  0.3286  0.1111
 4524SOL    HW225206   0.526   2.633   4.558  2.1663 -0.1300  0.8731
 4525SOL     OW25207   2.918   3.542  15.933  0.2733  0.3759  0.1072
 4525SOL    HW125208   2.980   3.614  15.944 -0.3994  0.7215  1.5394
 4525SOL    HW225209   2.979   3.470  15.950 -0.7922 -0.3379  0.8914
 4526SOL     OW25210   0.746   3.028   4.289  0.5139  0.0663  1.0677
 4526SOL    HW125211   0.822   2.992   4.334  0.4627 -0.0988  1.0206
 4526SOL    HW225212   0.677   2.963   4.307  1.1839 -1.1922 -0.9673
 4527SOL     OW25213   4.234   0.369   2.014 -0.3121 -0.3384  0.0940
 4527SOL    HW125214   4.286   0.289   2.004  0.4043  0.1966 -0.4313
 4527SOL    HW225215   4.296   0.431   1.976 -1.4597  0.1729 -0.9332
 4528SOL     OW25216   3.404   2.161   0.336  0.3192  0.4978  0.2064
 4528SOL    HW125217   3.415   2.190   0.245  1.3900 -1.6811 -0.3735
 4528SOL    HW225218   3.349   2.230   0.372 -1.0568  0.6910 -2.2415
 4529SOL     OW25219   0.960   1.652   7.557 -0.4042 -0.5464  0.3049
 4529SOL    HW125220   0.921   1.739   7.553 -0.0124 -0.4205 -0.6288
 4529SOL    HW225221   0.992   1.660   7.647  2.0481 -0.3008 -0.5952
 4530SOL     OW25222   0.955   3.613  16.786 -0.5999  0.2413  0.1393
 4530SOL    HW125223   0.874   3.637  16.743 -0.0629  0.2263 -0.8789
 4530SOL    HW225224   0.928   3.536  16.836  0.4819 -0.0963  0.2122
 4531SOL     OW25225   1.633   0.857   4.556 -0.2496 -0.2049 -0.4012
 4531SOL    HW125226   1.610   0.940   4.514 -1.6975  0.4680  1.7167
 4531SOL    HW225227   1.723   0.854   4.523  0.2071  0.8422  0.7180
 4532SOL     OW25228   0.878   2.073  14.223  0.7169  0.4865 -0.3889
 4532SOL    HW125229   0.960   2.121  14.209  1.1934 -0.3612 -0.4751
 4532SOL    HW225230   0.882   2.010  14.151  2.2307  2.3424 -1.9553
 4533SOL     OW25231   3.099   1.255   7.983 -0.2390 -0.2716  0.2976
 4533SOL    HW125232   3.134   1.323   7.926  0.0249  0.4729  1.3513
 4533SOL    HW225233   3.178   1.203   7.999  0.3240  0.8685  1.1632
 4534SOL     OW25234   3.988   3.767   7.811 -0.3463  0.2514  0.1374
 4534SOL    HW125235   3.898   3.735   7.819 -0.2353 -0.5777 -1.8970
 4534SOL    HW225236   4.004   3.796   7.901  0.7217  3.8263 -1.2243
 4535SOL     OW25237   2.359   1.484  17.570 -0.0968 -0.3673  0.0199
 4535SOL    HW125238   2.302   1.517  17.501  1.2319 -0.7114 -1.2342
 4535SOL    HW225239   2.428   1.550  17.576 -1.0301  0.4329  1.9984
 4536SOL     OW25240   1.542   3.473  13.831  0.0107  0.0608  0.8584
 4536SOL    HW125241   1.568   3.564  13.815 -1.2295 -0.1918 -2.5679
 4536SOL    HW225242   1.601   3.430  13.894  0.4003 -1.1788 -0.3417
 4537SOL     OW25243   0.595   4.097   4.872  0.3153  0.0058 -0.3859
 4537SOL    HW125244   0.510   4.053   4.877  0.5819 -0.5158 -0.3738
 4537SOL    HW225245   0.599   4.133   4.960 -0.3755 -3.1281  0.9225
 4538SOL     OW25246   3.479   4.275   4.419 -0.1135  0.1444  0.3183
 4538SOL    HW125247   3.514   4.298   4.506 -1.9079 -3.3248  1.9548
 4538SOL    HW225248   3.466   4.362   4.380  1.8148  0.8124  1.1473
 4539SOL     OW25249   4.717   1.371   9.560  0.2754 -0.0300  0.7373
 4539SOL    HW125250   4.688   1.340   9.646  1.1356 -0.1801  0.9779
 4539SOL    HW225251   4.639   1.393   9.511 -0.7161  3.0753  3.6909
 4540SOL     OW25252   3.688   2.880   9.005 -0.1266 -0.8419  0.3079
 4540SOL    HW125253   3.628   2.925   8.946  2.4513 -0.1358 -1.7743
 4540SOL    HW225254   3.638   2.798   9.002 -0.3028 -0.7000 -0.5552
 4541SOL     OW25255   1.336   4.570   0.535  0.3201  0.1495  0.0496
 4541SOL    HW125256   1.297   4.541   0.617 -1.0450 -0.2303 -0.7432
 4541SOL    HW225257   1.294   4.505   0.479 -1.9919  0.9663  0.8366
 4542SOL     OW25258   4.403   1.931   3.106  0.3128  0.2461  0.1045
 4542SOL    HW125259   4.421   1.859   3.046  0.7990  0.3886  0.0848
 4542SOL    HW225260   4.495   1.956   3.111 -0.0520  1.4827  0.5568
 4543SOL     OW25261   3.564   1.219   1.894  0.0279  0.0423  0.4669
 4543SOL    HW125262   3.514   1.286   1.941  1.2779  1.4574 -0.1961
 4543SOL    HW225263   3.567   1.269   1.813  2.4832  1.0639  1.1676
 4544SOL     OW25264   3.370   2.455  12.403  0.3288  0.2776 -0.2953
 4544SOL    HW125265   3.302   2.446  12.470 -0.1353  1.1712 -0.6515
 4544SOL    HW225266   3.443   2.452  12.465  1.0582 -0.3496 -1.1930
 4545SOL     OW25267   0.898   2.387   4.937 -0.0422 -0.2397 -0.3051
 4545SOL    HW125268   0.824   2.436   4.903  0.2336  0.5073  0.1663
 4545SOL    HW225269   0.962   2.381   4.867  0.1959  1.7747 -0.2728
 4546SOL     OW25270   1.715   0.476   5.397  0.4333  0.0740 -0.2482
 4546SOL    HW125271   1.755   0.396   5.365 -0.8277 -0.4507 -0.5052
 4546SOL    HW225272   1.786   0.522   5.442 -1.5811 -0.4721  3.5459
 4547SOL     OW25273   4.214   2.189   3.373 -0.1155  0.3199 -0.0085
 4547SOL    HW125274   4.270   2.265   3.389  0.1458  0.2773 -0.7388
 4547SOL    HW225275   4.141   2.210   3.432 -0.8627 -0.3961 -0.6787
 4548SOL     OW25276   4.572   1.591   3.435 -0.4363 -0.1715  0.2426
 4548SOL    HW125277   4.622   1.517   3.469 -0.4562 -0.0845  0.4613
 4548SOL    HW225278   4.641   1.651   3.406 -1.2627  0.9261  0.5327
 4549SOL     OW25279   1.984   0.536  16.546  0.4113 -0.3081 -0.0027
 4549SOL    HW125280   2.051   0.498  16.489  0.2178 -0.3665 -0.1928
 4549SOL    HW225281   1.924   0.564  16.476 -0.8278 -1.5720  0.5556
 4550SOL     OW25282   3.349   4.290   8.172 -0.2583 -0.4729 -0.1014
 4550SOL    HW125283   3.306   4.373   8.192 -1.8346 -1.3186  0.0345
 4550SOL    HW225284   3.370   4.297   8.079  0.9799 -1.6870  0.0770
 4551SOL     OW25285   2.926   1.016   7.942  0.3899 -0.0563 -0.0051
 4551SOL    HW125286   2.890   1.026   8.030 -1.6625  0.5029 -0.9094
 4551SOL    HW225287   2.997   1.080   7.953  1.0658 -0.9225  0.6444
 4552SOL     OW25288   1.013   2.714  12.581 -0.1437 -0.2374  0.8761
 4552SOL    HW125289   1.091   2.758  12.616 -0.2527 -0.9840  2.0894
 4552SOL    HW225290   1.003   2.645  12.647 -2.2788 -0.6759  0.0767
 4553SOL     OW25291   0.791   2.966   8.955 -0.0296  0.1430  0.1483
 4553SOL    HW125292   0.754   2.929   8.875 -2.9738  0.7772  1.2106
 4553SOL    HW225293   0.760   2.907   9.023  3.5641  0.5071  2.0729
 4554SOL     OW25294   2.560   3.725   0.605  0.1371 -0.0224  0.0029
 4554SOL    HW125295   2.591   3.773   0.528  0.6086 -1.3634 -0.6521
 4554SOL    HW225296   2.488   3.783   0.627  0.7396  1.4837 -1.9482
 4555SOL     OW25297   3.558   0.466   3.384  0.1315  0.1376  0.1463
 4555SOL    HW125298   3.547   0.453   3.290  0.1765 -1.0194  0.3027
 4555SOL    HW225299   3.572   0.373   3.400 -0.3860 -0.1542 -1.0901
 4556SOL     OW25300   2.591   2.506  17.145 -0.0702 -0.0516  0.5933
 4556SOL    HW125301   2.517   2.450  17.170 -0.9109  0.9913  0.4687
 4556SOL    HW225302   2.574   2.503  17.051  0.2768 -0.7305  0.5553
 4557SOL     OW25303   1.204   1.402  15.601  0.1433 -0.0890  0.4046
 4557SOL    HW125304   1.182   1.417  15.693 -1.7038  1.1088 -0.2307
 4557SOL    HW225305   1.168   1.485  15.569  0.0819 -0.2723 -0.0112
 4558SOL     OW25306   1.956   0.068   2.103 -0.2494 -0.1773 -0.4304
 4558SOL    HW125307   2.035   0.084   2.155  2.3005  1.6655 -4.8775
 4558SOL    HW225308   2.002   0.035   2.026 -0.8467  0.7959 -1.1948
 4559SOL     OW25309   0.683   2.362  11.978  0.2734  0.1769 -0.5238
 4559SOL    HW125310   0.751   2.390  11.917 -0.5353  1.2005 -0.9565
 4559SOL    HW225311   0.640   2.446  11.989  0.3297  0.3321 -1.4683
 4560SOL     OW25312   3.463   4.710   7.411  0.0859  0.0471  0.5265
 4560SOL    HW125313   3.472   4.622   7.448  0.4102  0.0248  0.3999
 4560SOL    HW225314   3.540   0.009   7.454 -0.3423  0.6492  0.7803
 4561SOL     OW25315   1.778   3.650  12.575 -0.1790  0.0874 -0.4170
 4561SOL    HW125316   1.842   3.618  12.513  3.3658  0.7079  2.9391
 4561SOL    HW225317   1.769   3.743  12.551  1.1385 -0.1083 -1.6035
 4562SOL     OW25318   2.308   1.824   7.002 -0.5705 -0.2341 -0.2519
 4562SOL    HW125319   2.278   1.890   6.939 -0.7032 -0.0566 -0.0028
 4562SOL    HW225320   2.292   1.739   6.961 -0.0084 -1.5714  2.3070
 4563SOL     OW25321   2.011   2.529   0.799  0.5664  0.2721  0.1801
 4563SOL    HW125322   1.973   2.597   0.855  1.7281 -0.2652  1.6402
 4563SOL    HW225323   1.934   2.473   0.812  2.8360 -2.7624  0.5835
 4564SOL     OW25324   4.626   2.657   9.695  0.0236 -0.0443  0.1787
 4564SOL    HW125325   4.635   2.742   9.651 -1.3692 -0.8513 -1.6343
 4564SOL    HW225326   4.554   2.618   9.647  2.0050 -2.8747 -0.4711
 4565SOL     OW25327   2.393   0.561   7.841  0.4139  0.6094 -0.1693
 4565SOL    HW125328   2.419   0.637   7.788 -0.6920  1.4375  0.4845
 4565SOL    HW225329   2.409   0.607   7.923  1.8383 -1.3933  0.6817
 4566SOL     OW25330   3.180   3.492   4.212  0.3669  0.5154  0.3367
 4566SOL    HW125331   3.251   3.472   4.152 -0.6050  1.7793 -1.2166
 4566SOL    HW225332   3.214   3.567   4.261 -1.2499  0.7498  1.1082
 4567SOL     OW25333   4.125   0.881   7.645 -0.2705  0.2994 -0.9760
 4567SOL    HW125334   4.202   0.917   7.602 -0.4945  1.8415 -0.0683
 4567SOL    HW225335   4.104   0.805   7.591  3.2942 -0.0090 -1.9200
 4568SOL     OW25336   1.598   3.574   7.764 -0.4145  0.4663  0.0384
 4568SOL    HW125337   1.574   3.587   7.856 -0.3961  2.1048 -0.1935
 4568SOL    HW225338   1.682   3.528   7.774 -1.3306 -1.5502 -1.6611
 4569SOL     OW25339   0.095   4.688   5.419 -0.2272  0.1619 -0.6062
 4569SOL    HW125340   0.188   4.708   5.431 -0.4776  0.0933  1.4625
 4569SOL    HW225341   0.090   4.629   5.494 -2.9631  2.0277  0.6510
 4570SOL     OW25342   4.239   1.961  12.240 -0.1644 -0.1638  0.0819
 4570SOL    HW125343   4.321   1.973  12.192 -1.2375  0.8981 -1.5341
 4570SOL    HW225344   4.229   1.871  12.208  0.5450  0.0660 -0.7965
 4571SOL     OW25345   1.353   2.535  14.434  0.7829 -0.2730  0.3057
 4571SOL    HW125346   1.407   2.456  14.427 -1.2311 -1.6203 -0.2997
 4571SOL    HW225347   1.413   2.608  14.443  0.2364  0.0181  1.6173
 4572SOL     OW25348   3.422   3.118  17.679 -0.0917  0.5755 -0.2981
 4572SOL    HW125349   3.379   3.103  17.595  2.6962 -2.7728 -1.1146
 4572SOL    HW225350   3.362   3.062  17.727  0.2628 -1.0300 -1.7253
 4573SOL     OW25351   4.427   4.430   7.306 -0.0549 -0.2815  0.3695
 4573SOL    HW125352   4.413   4.340   7.335 -2.5109 -0.3778 -1.1496
 4573SOL    HW225353   4.478   4.425   7.225 -0.2279  1.1802  0.1584
 4574SOL     OW25354   0.605   0.586   8.128 -0.2856 -0.4964 -0.5319
 4574SOL    HW125355   0.624   0.612   8.218 -1.4364 -0.0820 -0.4092
 4574SOL    HW225356   0.550   0.508   8.133 -0.4597 -0.4435 -1.5447
 4575SOL     OW25357   1.722   0.531  14.315 -0.2809  0.0400 -0.0673
 4575SOL    HW125358   1.650   0.567  14.367  0.7957  1.0718  0.7118
 4575SOL    HW225359   1.791   0.524  14.380 -1.5250  0.0455  1.2590
 4576SOL     OW25360   2.739   0.210   5.035  0.5129  0.1200  0.1015
 4576SOL    HW125361   2.792   0.177   4.963  1.7195 -0.3138  1.1864
 4576SOL    HW225362   2.784   0.167   5.108 -0.4518 -1.0633  0.0053
 4577SOL     OW25363   3.659   1.118  16.027  0.0230  0.4460  0.0285
 4577SOL    HW125364   3.706   1.149  16.104  0.5677 -0.5017  0.0718
 4577SOL    HW225365   3.639   1.028  16.052 -1.0571  0.8995  0.7599
 4578SOL     OW25366   1.571   0.569   3.920 -0.3488  0.5095  0.3109
 4578SOL    HW125367   1.542   0.533   3.836 -0.1036 -1.7818  1.2149
 4578SOL    HW225368   1.556   0.494   3.978 -1.9498  0.5793 -0.0073
 4579SOL     OW25369   1.871   2.394  11.420  0.0135 -0.6606 -0.2865
 4579SOL    HW125370   1.952   2.345  11.429 -0.7586 -1.6972  0.9810
 4579SOL    HW225371   1.841   2.399  11.511  2.6355 -3.2292  0.7124
 4580SOL     OW25372   0.319   0.262   4.883 -0.1747 -0.3286 -0.2555
 4580SOL    HW125373   0.405   0.254   4.841 -0.5835 -2.4261 -0.6603
 4580SOL    HW225374   0.297   0.352   4.858 -0.0214 -0.0522  0.5760
 4581SOL     OW25375   1.068   3.983  13.108 -0.6355  0.5783 -0.5150
 4581SOL    HW125376   1.093   3.969  13.017  2.3407  0.5227  0.3147
 4581SOL    HW225377   0.978   4.016  13.100 -0.7229  0.6131  0.5799
 4582SOL     OW25378   1.426   3.027   1.858 -0.1584  0.2767  0.0254
 4582SOL    HW125379   1.427   3.100   1.920 -0.9453  1.1372 -0.9833
 4582SOL    HW225380   1.484   3.052   1.786  1.6013  0.8776  1.6474
 4583SOL     OW25381   0.481   2.410   2.374 -0.1576  0.7181  0.6605
 4583SOL    HW125382   0.519   2.335   2.328 -2.5610 -0.2693  0.2782
 4583SOL    HW225383   0.403   2.429   2.322 -1.0995 -0.0537  1.7836
 4584SOL     OW25384   2.937   0.951   6.096 -0.0883  0.3217 -0.3576
 4584SOL    HW125385   3.029   0.970   6.080  0.3202  1.0451  2.9282
 4584SOL    HW225386   2.898   0.995   6.020  1.0089  0.9596 -0.5564
 4585SOL     OW25387   2.981   1.351   4.664 -0.6326  0.0615  0.4738
 4585SOL    HW125388   2.921   1.314   4.729  1.4590 -1.7953  1.3712
 4585SOL    HW225389   2.922   1.403   4.610 -1.4510 -1.0589  0.2892
 4586SOL     OW25390   4.506   0.655   8.037  0.5080 -0.0751 -0.1166
 4586SOL    HW125391   4.453   0.729   8.008  1.1155  0.6920  0.7406
 4586SOL    HW225392   4.457   0.614   8.108  0.9291  0.7334  0.6465
 4587SOL     OW25393   3.559   3.497   5.651  1.0096 -0.0854 -0.0634
 4587SOL    HW125394   3.555   3.592   5.650  0.3170 -0.1079  1.5396
 4587SOL    HW225395   3.524   3.483   5.739 -0.7576  1.6086 -0.5049
 4588SOL     OW25396   4.176   2.154  10.625 -0.1222  0.0164  0.3213
 4588SOL    HW125397   4.201   2.070  10.663  1.6681  0.8142  0.8938
 4588SOL    HW225398   4.257   2.204  10.614 -0.5565  0.3272 -1.5293
 4589SOL     OW25399   2.315   3.954   7.102  0.2869  0.3269 -0.3254
 4589SOL    HW125400   2.351   4.029   7.148 -0.4628 -0.8352  2.1722
 4589SOL    HW225401   2.253   3.919   7.166  1.1717 -2.2510 -0.8671
 4590SOL     OW25402   0.002   4.388   9.228 -0.5585  0.0621  0.4700
 4590SOL    HW125403   0.076   4.337   9.194 -0.3845  0.8670 -0.3494
 4590SOL    HW225404   0.038   4.444   9.297  1.7985  1.1275 -1.6304
 4591SOL     OW25405   0.901   4.005   8.744 -0.0563  0.1628 -0.1590
 4591SOL    HW125406   0.923   3.912   8.738  0.0546  0.2452 -1.1879
 4591SOL    HW225407   0.818   4.004   8.697  0.6790 -0.3904 -1.4705
 4592SOL     OW25408   0.797   3.098   2.375  0.2267 -0.4982  0.2141
 4592SOL    HW125409   0.801   3.193   2.376 -2.9401 -0.3335 -3.5977
 4592SOL    HW225410   0.840   3.085   2.460 -0.1444 -2.8482  0.0348
 4593SOL     OW25411   0.056   0.785   1.943  0.4757 -0.2594 -0.8886
 4593SOL    HW125412   0.065   0.880   1.951 -1.0717 -0.1138 -0.7983
 4593SOL    HW225413   4.718   0.773   2.001  2.0821 -1.9270  0.8415
 4594SOL     OW25414   4.683   2.818   7.313 -0.1764 -0.2545 -0.9340
 4594SOL    HW125415   4.658   2.830   7.405 -0.7463  1.0762 -1.2707
 4594SOL    HW225416   4.641   2.733   7.301  0.6482 -0.8241  0.1693
 4595SOL     OW25417   1.950   4.313   4.050  0.1560 -0.1593 -0.2220
 4595SOL    HW125418   1.970   4.320   4.143  0.3277  1.5771 -0.3743
 4595SOL    HW225419   1.978   4.225   4.028 -0.9733 -0.3152 -1.0595
 4596SOL     OW25420   1.753   3.484   2.294  0.5851 -0.7581  0.4129
 4596SOL    HW125421   1.774   3.547   2.364 -1.6898  0.6746 -0.1884
 4596SOL    HW225422   1.778   3.528   2.213  1.5793 -0.6373  0.7762
 4597SOL     OW25423   3.704   1.501   2.769  0.0773  0.0390 -0.8814
 4597SOL    HW125424   3.759   1.446   2.713 -0.5103  0.0101 -1.4173
 4597SOL    HW225425   3.714   1.453   2.852  0.9573 -1.6042 -1.9352
 4598SOL     OW25426   1.875   1.533   1.660 -0.2850  0.1006 -0.0640
 4598SOL    HW125427   1.925   1.614   1.668 -1.7461  0.7566  2.4763
 4598SOL    HW225428   1.853   1.526   1.753 -0.5096  0.3868 -0.0967
 4599SOL     OW25429   4.128   2.837   9.178  0.0083 -0.0328  0.4285
 4599SOL    HW125430   4.148   2.825   9.271 -0.5447  1.6557  0.7715
 4599SOL    HW225431   4.070   2.765   9.155 -1.7181  1.6291 -0.4332
 4600SOL     OW25432   1.174   1.670  16.090  0.2380 -0.2292 -0.4936
 4600SOL    HW125433   1.133   1.719  16.162 -4.3035 -1.3505 -2.3106
 4600SOL    HW225434   1.091   1.644  16.050  0.0447 -3.5940  2.0550
 4601SOL     OW25435   0.018   4.124   3.467 -0.1857 -0.6180  0.4313
 4601SOL    HW125436   0.054   4.210   3.442  0.7939 -0.6304  1.8608
 4601SOL    HW225437   4.664   4.149   3.449 -0.3476 -2.5613 -1.4378
 4602SOL     OW25438   2.702   2.749   0.388  0.2255 -0.8671 -0.8314
 4602SOL    HW125439   2.658   2.728   0.471  1.2570 -1.3118 -0.3941
 4602SOL    HW225440   2.752   2.668   0.376  0.6563 -0.9426  1.3387
 4603SOL     OW25441   4.336   2.464   5.154  0.5096  0.4777  0.0781
 4603SOL    HW125442   4.254   2.431   5.191  0.2107 -0.5026 -1.4443
 4603SOL    HW225443   4.295   2.534   5.104 -0.5015  0.5733  1.0284
 4604SOL     OW25444   4.467   4.248  16.130 -0.9098 -0.0798  0.1933
 4604SOL    HW125445   4.505   4.324  16.174 -1.2231  0.3160 -0.2199
 4604SOL    HW225446   4.437   4.199  16.207 -1.5781 -0.7261 -0.4819
 4605SOL     OW25447   1.633   1.799  14.345 -0.1583  0.0525  0.3760
 4605SOL    HW125448   1.654   1.719  14.298 -0.6544 -0.0095  0.2674
 4605SOL    HW225449   1.605   1.770  14.432  2.5428 -0.1635  1.1729
 4606SOL     OW25450   4.641   4.227  17.187 -0.2583 -0.0509 -0.4191
 4606SOL    HW125451   4.602   4.140  17.194  2.6310 -1.3187 -0.1790
 4606SOL    HW225452   4.671   4.228  17.096  0.2300 -3.2921 -0.3136
 4607SOL     OW25453   1.875   4.112   2.630  0.3806 -0.3148  0.3620
 4607SOL    HW125454   1.883   4.202   2.602  1.3343  0.2018  2.2558
 4607SOL    HW225455   1.782   4.090   2.642 -0.5583  2.2873 -2.3287
 4608SOL     OW25456   1.084   2.437   2.681 -0.2234  0.0779  0.3366
 4608SOL    HW125457   1.079   2.526   2.646  2.0488  0.0842  0.0446
 4608SOL    HW225458   1.164   2.440   2.734  0.3252 -3.2618 -0.3617
 4609SOL     OW25459   3.527   1.448   3.125 -0.1921  0.6815 -0.0968
 4609SOL    HW125460   3.466   1.512   3.088  1.4462  1.1403 -1.9824
 4609SOL    HW225461   3.595   1.512   3.146 -0.2766  0.9434 -0.6275
 4610SOL     OW25462   0.837   2.403   0.897  0.3032  0.1799  0.6550
 4610SOL    HW125463   0.743   2.387   0.905  0.1427  1.2208  0.9836
 4610SOL    HW225464   0.876   2.329   0.852 -0.7963 -0.3462  0.5708
 4611SOL     OW25465   4.328   1.604   6.672  0.4301  0.2085  0.0113
 4611SOL    HW125466   4.311   1.649   6.590  0.4508 -0.3052 -0.2773
 4611SOL    HW225467   4.419   1.629   6.689  0.8062  0.0275 -1.8185
 4612SOL     OW25468   3.042   2.359  15.088 -0.4777  0.4460  0.1263
 4612SOL    HW125469   3.049   2.445  15.129  1.5656  0.4535 -0.2543
 4612SOL    HW225470   3.086   2.304  15.152  0.7246  0.4311 -0.7237
 4613SOL     OW25471   2.843   1.861   4.555  0.4128 -0.1406  0.8779
 4613SOL    HW125472   2.931   1.826   4.550  0.9083  1.1367  0.6864
 4613SOL    HW225473   2.805   1.789   4.605  0.8334 -0.5814  0.5627
 4614SOL     OW25474   0.576   1.432   3.211 -0.1697 -0.4595 -0.7339
 4614SOL    HW125475   0.552   1.523   3.194  0.9528 -0.5985 -3.1135
 4614SOL    HW225476   0.620   1.413   3.128  0.0646 -1.8029 -0.2993
 4615SOL     OW25477   3.290   2.277  10.566 -0.1721  0.2614 -0.3255
 4615SOL    HW125478   3.266   2.239  10.650 -0.6274 -0.5523 -0.8279
 4615SOL    HW225479   3.345   2.205  10.533 -2.1012 -1.5705  0.4875
 4616SOL     OW25480   1.621   4.124   1.725  0.2593  0.3890  0.1157
 4616SOL    HW125481   1.584   4.095   1.642 -1.8797  1.6420  0.6128
 4616SOL    HW225482   1.706   4.080   1.723 -0.7458 -1.5190 -0.9729
 4617SOL     OW25483   0.676   4.063   1.646  0.3566 -0.3363 -0.2052
 4617SOL    HW125484   0.645   4.153   1.645 -0.0514 -0.4963 -1.4715
 4617SOL    HW225485   0.740   4.069   1.717  0.0331  1.7006 -0.1015
 4618SOL     OW25486   1.495   1.275   6.533  0.5814 -0.2191  0.0523
 4618SOL    HW125487   1.500   1.233   6.447  2.4176 -0.8084  0.4357
 4618SOL    HW225488   1.526   1.364   6.514 -1.5299  0.5587  0.3201
 4619SOL     OW25489   0.992   4.571  10.751  0.0013 -0.3372  0.5583
 4619SOL    HW125490   1.004   4.509  10.823 -0.9511 -1.4721 -0.2566
 4619SOL    HW225491   1.037   4.638  10.803  1.4918  1.5802 -3.1684
 4620SOL     OW25492   4.208   3.524   2.642  0.7468  0.1018  0.0129
 4620SOL    HW125493   4.146   3.517   2.714 -0.5834 -0.5258 -1.1928
 4620SOL    HW225494   4.150   3.531   2.567 -1.1015  0.8761  1.5186
 4621SOL     OW25495   3.330   1.640  11.702 -0.7294 -0.1879 -0.1171
 4621SOL    HW125496   3.340   1.684  11.786 -0.5055 -1.7208  0.6569
 4621SOL    HW225497   3.264   1.573  11.715 -1.5696  0.6251 -0.1771
 4622SOL     OW25498   4.696   0.932  10.564 -0.3595  0.3710  0.1610
 4622SOL    HW125499   4.720   0.903  10.651 -1.4754  0.3343  0.4641
 4622SOL    HW225500   0.034   0.912  10.509 -1.1114  1.6052 -1.3562
 4623SOL     OW25501   4.112   1.013   3.370  0.2482 -0.1726  0.1377
 4623SOL    HW125502   4.152   1.100   3.363  4.4619 -2.0348  1.4400
 4623SOL    HW225503   4.059   1.019   3.450 -1.6741  1.3864 -1.2528
 4624SOL     OW25504   3.119   1.323   6.502  0.3066 -0.1369  0.1167
 4624SOL    HW125505   3.054   1.325   6.432  0.6807  0.4065 -0.2151
 4624SOL    HW225506   3.185   1.387   6.474  0.4558  0.2260  1.3007
 4625SOL     OW25507   2.814   4.010   2.208 -0.7358  1.0069  0.6860
 4625SOL    HW125508   2.735   4.004   2.262 -1.7887 -0.8031 -1.0565
 4625SOL    HW225509   2.878   3.982   2.274  0.2221  0.9461 -0.2685
 4626SOL     OW25510   0.174   1.498  13.857 -0.5751 -0.0618 -0.1595
 4626SOL    HW125511   0.176   1.510  13.762  1.4172 -0.5950 -0.1801
 4626SOL    HW225512   0.115   1.569  13.883 -1.8214 -1.1412 -0.0543
 4627SOL     OW25513   1.783   1.812   1.089  0.4239 -0.2227 -0.0920
 4627SOL    HW125514   1.731   1.888   1.113  1.7580 -0.3009  3.1422
 4627SOL    HW225515   1.743   1.743   1.143  1.4580  0.0016  0.9628
 4628SOL     OW25516   4.673   2.916   9.547 -0.0533 -0.1902 -0.2982
 4628SOL    HW125517   4.711   3.000   9.521  0.1598 -0.3809 -0.6125
 4628SOL    HW225518   4.624   2.951   9.622  2.2399  2.7644 -0.1830
 4629SOL     OW25519   3.840   0.912   7.511  0.2254  0.3907  0.4448
 4629SOL    HW125520   3.771   0.926   7.447 -0.4306 -0.3782  0.9909
 4629SOL    HW225521   3.918   0.937   7.460 -0.7730 -1.5471 -2.0402
 4630SOL     OW25522   1.152   0.171   5.504 -0.2543  0.0140  0.5438
 4630SOL    HW125523   1.167   0.229   5.430  0.2854  1.0547  1.4665
 4630SOL    HW225524   1.102   0.215   5.573  0.8575  1.4341  0.4387
 4631SOL     OW25525   1.171   2.153   2.974 -0.5680 -0.0506 -0.0421
 4631SOL    HW125526   1.225   2.076   2.992 -2.1650 -1.4113 -1.0453
 4631SOL    HW225527   1.209   2.185   2.891 -0.7462  0.1978 -0.0262
 4632SOL     OW25528   4.460   4.309   8.870 -0.1693 -0.1653 -0.2610
 4632SOL    HW125529   4.368   4.333   8.884 -0.1406  0.2775 -0.8028
 4632SOL    HW225530   4.475   4.227   8.916  1.5603 -0.1378 -0.7881
 4633SOL     OW25531   2.136   1.479  17.392 -0.0248 -0.2579 -0.3187
 4633SOL    HW125532   2.098   1.564  17.414 -0.0951  0.2762 -2.5490
 4633SOL    HW225533   2.067   1.418  17.420 -0.3489  0.0468 -0.4620
 4634SOL     OW25534   3.199   2.659   6.524  0.3946  0.1490  0.5801
 4634SOL    HW125535   3.155   2.646   6.608  2.0029 -2.2687  1.0570
 4634SOL    HW225536   3.145   2.726   6.482 -0.7629  0.6765  2.8997
 4635SOL     OW25537   4.187   1.693   2.612  0.2331 -0.2609  0.0865
 4635SOL    HW125538   4.099   1.728   2.625  0.4908  0.9118 -1.2835
 4635SOL    HW225539   4.188   1.620   2.675  0.6567 -1.2474 -1.0622
 4636SOL     OW25540   3.582   0.672   2.689  0.6855 -0.2611 -0.4978
 4636SOL    HW125541   3.497   0.682   2.732 -0.0012 -1.5414 -1.5086
 4636SOL    HW225542   3.623   0.724   2.758  1.9729 -0.2818 -1.2475
 4637SOL     OW25543   0.479   0.054   6.211 -0.1540 -0.1085 -0.1998
 4637SOL    HW125544   0.498   0.043   6.304 -0.9280 -0.2510 -0.0633
 4637SOL    HW225545   0.467   4.700   6.188 -2.9671 -0.4334  2.4960
 4638SOL     OW25546   3.418   0.590   7.894  0.3433 -0.2440  0.2421
 4638SOL    HW125547   3.410   0.682   7.921  2.1755 -0.1530  0.4283
 4638SOL    HW225548   3.391   0.606   7.803  1.4469 -0.8087 -0.1806
 4639SOL     OW25549   3.764   1.204   5.595  0.0668 -0.1271 -0.2391
 4639SOL    HW125550   3.722   1.128   5.555  1.4654 -0.3080 -1.3806
 4639SOL    HW225551   3.787   1.270   5.530 -1.6259  0.3141 -0.3955
 4640SOL     OW25552   4.313   4.414   2.520 -0.2315  0.4071  0.4805
 4640SOL    HW125553   4.391   4.465   2.501 -0.5390  0.9983  0.7987
 4640SOL    HW225554   4.267   4.478   2.575  0.9113  2.5371 -1.0528
 4641SOL     OW25555   0.244   4.196   4.588 -0.9923 -0.2234 -0.2079
 4641SOL    HW125556   0.202   4.207   4.674  3.6963 -1.5273  2.2471
 4641SOL    HW225557   0.215   4.274   4.541  0.0785  1.1574  1.4385
 4642SOL     OW25558   2.402   1.650   3.096 -0.0284  0.2354 -0.2194
 4642SOL    HW125559   2.334   1.613   3.153  0.4397  0.4397  0.4767
 4642SOL    HW225560   2.361   1.681   3.015  1.9481  3.0198 -0.1567
 4643SOL     OW25561   3.174   2.413   0.208 -0.1043  0.9579 -0.7957
 4643SOL    HW125562   3.197   2.503   0.232  1.7788  0.8420 -2.1488
 4643SOL    HW225563   3.163   2.423   0.113 -0.8212 -1.2090 -0.9501
 4644SOL     OW25564   3.658   3.727   6.528  0.1276  0.0455 -0.2941
 4644SOL    HW125565   3.604   3.804   6.513 -1.4320 -0.4409  2.7218
 4644SOL    HW225566   3.587   3.666   6.549  0.4149 -0.5625 -1.0845
 4645SOL     OW25567   1.975   0.109   4.607  0.1448  0.1000 -0.0148
 4645SOL    HW125568   2.030   0.165   4.552 -1.3651  0.9681 -0.6157
 4645SOL    HW225569   1.940   0.182   4.657 -0.5401 -1.7676  2.1883
 4646SOL     OW25570   3.805   1.074   4.553 -0.3226  0.0289 -0.1463
 4646SOL    HW125571   3.791   1.087   4.459 -0.3775  1.5786  0.0797
 4646SOL    HW225572   3.854   0.993   4.568 -0.5518 -0.1892 -0.5920
 4647SOL     OW25573   0.159   3.968   7.707 -0.4981  0.3521  0.0596
 4647SOL    HW125574   0.111   3.999   7.630 -1.2069  0.2439  0.4664
 4647SOL    HW225575   0.209   4.048   7.726 -1.1136  0.3217  1.7902
 4648SOL     OW25576   4.382   1.419  11.876  0.1487  0.3412 -0.3359
 4648SOL    HW125577   4.374   1.512  11.857 -0.2913  1.0329  3.2588
 4648SOL    HW225578   4.314   1.390  11.815 -1.1559  3.4568 -0.3695
 4649SOL     OW25579   2.396   3.859   8.615  0.0637 -0.3295  0.3528
 4649SOL    HW125580   2.418   3.858   8.521  0.9910  0.7638  0.5547
 4649SOL    HW225581   2.330   3.790   8.621 -1.0710  0.7617  0.4675
 4650SOL     OW25582   1.598   0.153   4.833  0.0734 -0.6962 -0.2758
 4650SOL    HW125583   1.541   0.222   4.866  0.5970 -0.8307  0.9056
 4650SOL    HW225584   1.672   0.202   4.797  0.2100 -2.3628 -2.2432
 4651SOL     OW25585   0.512   0.922   6.003 -1.0367 -0.2000  1.4068
 4651SOL    HW125586   0.590   0.873   6.031 -0.4934 -0.6579 -0.9274
 4651SOL    HW225587   0.543   1.010   6.024 -0.0669  0.0888 -1.2142
 4652SOL     OW25588   2.754   2.476   8.115  0.2877  0.7323  0.3086
 4652SOL    HW125589   2.836   2.451   8.074 -0.0143  0.9641 -0.4363
 4652SOL    HW225590   2.763   2.569   8.136  0.4856  0.8681 -0.3844
 4653SOL     OW25591   1.502   3.996   8.959  0.3220 -0.0406  0.1318
 4653SOL    HW125592   1.561   3.939   9.009 -0.7296 -0.2483  1.1070
 4653SOL    HW225593   1.519   4.082   8.997 -1.9137 -0.5046  2.1513
 4654SOL     OW25594   0.798   1.141   7.036  0.2550 -0.0978  0.8600
 4654SOL    HW125595   0.779   1.220   7.088 -0.9731  0.6327 -0.7062
 4654SOL    HW225596   0.879   1.115   7.079  0.9297  1.1853  0.3646
 4655SOL     OW25597   4.433   1.256   6.387  0.2781 -0.1189 -0.2934
 4655SOL    HW125598   4.393   1.343   6.381  0.6076 -0.0560 -1.6323
 4655SOL    HW225599   4.368   1.211   6.332 -1.6289  0.3501  1.5858
 4656SOL     OW25600   2.614   0.795   2.405 -0.1237  0.1928 -0.1591
 4656SOL    HW125601   2.705   0.797   2.433  0.0072  1.1015 -0.6506
 4656SOL    HW225602   2.612   0.873   2.349  0.5842 -1.3631 -2.3482
 4657SOL     OW25603   3.800   3.629  11.997  0.5934  0.6123  0.2971
 4657SOL    HW125604   3.772   3.565  11.931  0.5672 -0.5600  1.4393
 4657SOL    HW225605   3.749   3.708  11.981 -2.9215 -1.5463  0.7441
 4658SOL     OW25606   4.424   1.637   1.859  0.6993 -0.0139  0.2292
 4658SOL    HW125607   4.404   1.559   1.911 -1.5273  0.6902  0.4223
 4658SOL    HW225608   4.336   1.653   1.823  0.2547 -3.0240 -0.0446
 4659SOL     OW25609   1.101   0.077  15.407 -0.0829  0.4401 -0.0597
 4659SOL    HW125610   1.077   0.153  15.353 -1.3331  1.0029  1.2774
 4659SOL    HW225611   1.172   0.103  15.466 -1.7865  0.0598  2.1653
 4660SOL     OW25612   0.763   0.825   5.351 -0.0380  0.2134  0.1722
 4660SOL    HW125613   0.852   0.858   5.360  0.3275 -0.0396 -2.3067
 4660SOL    HW225614   0.754   0.828   5.255  1.3141 -0.3055  0.0272
 4661SOL     OW25615   3.923   2.701   9.410 -0.1459 -0.1202 -0.5072
 4661SOL    HW125616   3.985   2.629   9.396 -1.7225 -0.9138 -3.3795
 4661SOL    HW225617   3.836   2.668   9.391  0.2283 -1.1612 -0.4372
 4662SOL     OW25618   1.794   2.226   2.886  0.1282  0.1597  0.2543
 4662SOL    HW125619   1.833   2.146   2.850  1.0761  0.4827  0.5448
 4662SOL    HW225620   1.822   2.303   2.835 -0.1327  0.6222  0.8117
 4663SOL     OW25621   1.335   4.432   2.455 -0.4358  0.5075  0.1387
 4663SOL    HW125622   1.378   4.352   2.425  0.3789  0.9840  0.0228
 4663SOL    HW225623   1.368   4.497   2.393 -2.0817  1.5861  0.4054
 4664SOL     OW25624   2.383   2.473  15.631 -0.4276  0.7504  0.7368
 4664SOL    HW125625   2.375   2.379  15.617 -0.7450  1.0975 -1.3309
 4664SOL    HW225626   2.460   2.465  15.687  0.5757 -0.5855 -0.8801
 4665SOL     OW25627   0.585   4.281   3.829  0.2927 -0.4103  0.1004
 4665SOL    HW125628   0.607   4.197   3.869  0.9202  0.5630  1.8026
 4665SOL    HW225629   0.490   4.276   3.821  0.4794 -2.9569 -0.5435
 4666SOL     OW25630   2.747   2.364   2.045 -0.0059  0.2299 -0.0645
 4666SOL    HW125631   2.793   2.434   2.000 -0.4256 -0.1212 -1.0602
 4666SOL    HW225632   2.759   2.395   2.134  1.4705  0.7110 -0.4333
 4667SOL     OW25633   2.891   0.446  16.459 -0.3881 -0.1092 -0.2236
 4667SOL    HW125634   2.864   0.370  16.509  0.5381 -0.0869  0.3184
 4667SOL    HW225635   2.957   0.489  16.513 -0.6505  0.6184 -0.4774
 4668SOL     OW25636   3.996   4.622   3.310  0.1685  0.0394 -0.6205
 4668SOL    HW125637   3.988   4.576   3.226 -1.8002 -1.7883  0.5708
 4668SOL    HW225638   3.909   4.640   3.345  0.7316  0.4718  0.5711
 4669SOL     OW25639   0.272   3.002   7.445 -0.0506  0.3012  0.0335
 4669SOL    HW125640   0.302   2.913   7.426 -1.1615  0.1653 -1.1371
 4669SOL    HW225641   0.266   3.005   7.540 -0.0200  0.3781  0.0335
 4670SOL     OW25642   1.222   4.349   0.385 -0.0588  0.2233 -0.4303
 4670SOL    HW125643   1.181   4.355   0.298 -0.1684  0.2208 -0.3784
 4670SOL    HW225644   1.245   4.256   0.396  2.2411  0.7344 -1.0441
 4671SOL     OW25645   4.263   3.895   6.709 -0.0666  0.1920  0.3961
 4671SOL    HW125646   4.351   3.926   6.685  1.2582 -2.5662  1.7063
 4671SOL    HW225647   4.286   3.833   6.778 -2.9709  0.1084  1.2705
 4672SOL     OW25648   2.702   2.229   2.941 -0.3927 -0.0935 -1.1211
 4672SOL    HW125649   2.749   2.145   2.939  3.5980  2.1818 -2.1772
 4672SOL    HW225650   2.737   2.264   3.023  1.4759 -1.7464 -1.2061
 4673SOL     OW25651   2.324   4.114   0.103 -0.1388  0.7505 -0.0839
 4673SOL    HW125652   2.408   4.134   0.060 -1.0550  1.9163 -1.3328
 4673SOL    HW225653   2.284   4.052   0.042  0.8411  1.0267 -1.0210
 4674SOL     OW25654   2.958   2.142  10.770 -0.3579 -0.5086  0.0037
 4674SOL    HW125655   2.983   2.143  10.862  1.6507  0.2818 -0.5363
 4674SOL    HW225656   3.039   2.108  10.731  0.3876  2.3894 -0.9965
 4675SOL     OW25657   4.590   3.074   9.041  0.1971  0.1731  0.3869
 4675SOL    HW125658   4.544   2.991   9.057  0.5047  0.3313  2.0717
 4675SOL    HW225659   4.544   3.110   8.965 -0.4933 -0.1953  0.6244
 4676SOL     OW25660   2.346   2.206  15.674  0.0592 -0.7634 -0.7914
 4676SOL    HW125661   2.315   2.239  15.758 -1.2498 -0.9870 -1.1856
 4676SOL    HW225662   2.285   2.133  15.661 -0.9107  0.1887 -1.5682
 4677SOL     OW25663   4.111   4.344   0.385  0.5249  0.4499 -0.2179
 4677SOL    HW125664   4.131   4.426   0.432  2.6099 -0.7714  1.0277
 4677SOL    HW225665   4.047   4.305   0.444  1.8002 -0.2045  0.7450
 4678SOL     OW25666   2.442   0.567  12.720  0.3059  0.1290 -0.4168
 4678SOL    HW125667   2.423   0.530  12.634  0.9294 -0.5517 -0.2617
 4678SOL    HW225668   2.525   0.521  12.733  0.8614  0.8836 -1.3742
 4679SOL     OW25669   0.719   4.432  12.689 -0.2186  0.0276 -0.5791
 4679SOL    HW125670   0.705   4.359  12.749  3.9689  0.5256  1.0155
 4679SOL    HW225671   0.799   4.406  12.643 -0.0647 -0.3582 -0.0923
 4680SOL     OW25672   4.495   2.489   7.535 -0.1036 -0.0727 -0.3381
 4680SOL    HW125673   4.464   2.549   7.468 -1.4197 -2.4002 -1.8372
 4680SOL    HW225674   4.487   2.549   7.609  0.2029  1.6023 -1.6727
 4681SOL     OW25675   2.143   1.202  12.015  0.0901  0.1168 -0.0710
 4681SOL    HW125676   2.210   1.262  12.049  0.4136 -1.2570  1.6819
 4681SOL    HW225677   2.172   1.116  12.045 -0.4008 -0.8077 -2.2735
 4682SOL     OW25678   3.238   2.114   0.824 -0.6482 -0.3648  0.6621
 4682SOL    HW125679   3.306   2.085   0.885  0.1742  1.5482  0.6795
 4682SOL    HW225680   3.277   2.192   0.784 -0.7876  1.3566  3.8162
 4683SOL     OW25681   0.914   1.799   1.853  0.9484 -0.6146  0.4156
 4683SOL    HW125682   0.941   1.743   1.780 -1.3180  0.2172 -1.0616
 4683SOL    HW225683   0.823   1.768   1.856  0.4864  0.5488 -1.3268
 4684SOL     OW25684   3.611   0.833   1.586 -0.2440  0.0055  0.0881
 4684SOL    HW125685   3.643   0.832   1.495 -0.0755 -1.1362  0.1597
 4684SOL    HW225686   3.680   0.886   1.626  0.3458  0.0915 -1.0276
 4685SOL     OW25687   2.354   0.192   3.857  0.9721  0.2202 -0.2060
 4685SOL    HW125688   2.385   0.247   3.929  1.0815 -2.8366  2.0838
 4685SOL    HW225689   2.385   0.106   3.887  0.1777 -0.4242 -1.2360
 4686SOL     OW25690   0.044   1.404   9.161 -0.0177  0.0159 -0.0770
 4686SOL    HW125691   0.107   1.430   9.093 -0.8523 -2.6121 -1.8415
 4686SOL    HW225692   4.727   1.482   9.172  0.7086  0.8563 -2.2481
 4687SOL     OW25693   4.396   1.611   5.327 -0.0858 -0.6308  0.2433
 4687SOL    HW125694   4.480   1.622   5.282  0.2949  1.1333  1.3555
 4687SOL    HW225695   4.416   1.548   5.397  2.8315 -0.8648 -0.7788
 4688SOL     OW25696   1.816   0.472  16.062 -0.2576 -0.3151 -0.3977
 4688SOL    HW125697   1.851   0.486  15.974  1.5880  1.8499  0.6931
 4688SOL    HW225698   1.796   0.378  16.056  1.6285 -0.7847  0.5701
 4689SOL     OW25699   3.806   2.440   2.753 -0.6195  0.1689  0.1243
 4689SOL    HW125700   3.746   2.414   2.823 -0.9127  0.3381 -0.0620
 4689SOL    HW225701   3.866   2.497   2.802 -2.4240  0.9055  1.4665
 4690SOL     OW25702   3.857   2.091   0.341 -0.2386  0.3607 -0.0871
 4690SOL    HW125703   3.765   2.086   0.369 -0.5190  2.1491 -0.6593
 4690SOL    HW225704   3.886   2.005   0.371  1.2667  0.5554 -0.9667
 4691SOL     OW25705   1.209   0.790   5.803 -0.0476  0.9683  0.1324
 4691SOL    HW125706   1.221   0.772   5.896  1.7157 -0.4409 -0.3774
 4691SOL    HW225707   1.139   0.856   5.804 -0.6977  0.2799  0.4512
 4692SOL     OW25708   0.922   3.827   4.384  0.2788 -0.7622  0.5706
 4692SOL    HW125709   0.851   3.874   4.340  0.4193  0.2632  1.4629
 4692SOL    HW225710   0.865   3.755   4.413 -1.2250  0.3152  0.2837
 4693SOL     OW25711   2.108   2.264   6.101 -0.2125 -0.1481  0.2320
 4693SOL    HW125712   2.114   2.298   6.190 -1.1606  0.3802  0.0893
 4693SOL    HW225713   2.127   2.173   6.125 -1.0291  0.1684  2.0447
 4694SOL     OW25714   4.332   4.489   1.795  0.5229 -0.1937  0.0381
 4694SOL    HW125715   4.352   4.397   1.782  2.8670  0.0052  2.2638
 4694SOL    HW225716   4.324   4.483   1.890  1.1262 -1.5154 -0.0075
 4695SOL     OW25717   3.972   3.814   4.567 -0.3440  0.5617  0.0060
 4695SOL    HW125718   3.931   3.898   4.587 -0.9292  0.2093  0.2808
 4695SOL    HW225719   3.965   3.763   4.648 -1.4888 -0.0969 -0.5033
 4696SOL     OW25720   2.174   3.505   2.273 -0.6882  0.1709  0.3773
 4696SOL    HW125721   2.250   3.493   2.330 -2.7789 -1.6999  2.7566
 4696SOL    HW225722   2.160   3.599   2.259 -0.1546  0.0903 -0.7321
 4697SOL     OW25723   1.329   2.952   9.538  0.0903  0.5711  0.3382
 4697SOL    HW125724   1.293   3.035   9.503  0.5879  0.2915 -0.8476
 4697SOL    HW225725   1.342   2.906   9.455  0.9203 -0.6033  1.1261
 4698SOL     OW25726   2.421   3.003   0.297  0.3081 -0.1941  0.1928
 4698SOL    HW125727   2.430   2.919   0.251 -2.1798 -0.0488 -0.5185
 4698SOL    HW225728   2.514   3.026   0.303 -0.4288  2.5794  0.8533
 4699SOL     OW25729   4.234   4.607   2.689  0.5657 -0.0961 -0.3891
 4699SOL    HW125730   4.140   4.604   2.706  0.5576 -0.1411 -0.4411
 4699SOL    HW225731   4.251   4.694   2.724 -0.9213 -0.5217  1.3745
 4700SOL     OW25732   0.287   2.362   2.617  0.3926  0.6447  0.0228
 4700SOL    HW125733   0.201   2.395   2.593 -0.7340 -1.0354  1.8069
 4700SOL    HW225734   0.331   2.447   2.612 -0.0488  0.7847 -1.6243
 4701SOL     OW25735   3.250   3.287   7.391  0.3380 -0.1210  0.1805
 4701SOL    HW125736   3.173   3.256   7.343 -0.5125  1.7918  0.3219
 4701SOL    HW225737   3.222   3.249   7.474  0.1007 -0.2553  0.0374
 4702SOL     OW25738   0.257   4.013   2.451  0.2077  0.0934 -0.0155
 4702SOL    HW125739   0.163   3.997   2.457 -0.1209  2.0467  0.1325
 4702SOL    HW225740   0.250   4.098   2.494 -1.6473 -0.6160  1.0923
 4703SOL     OW25741   4.370   2.867   8.987 -0.1389 -0.2917  0.1069
 4703SOL    HW125742   4.326   2.798   8.938 -0.1037  0.6138 -1.1802
 4703SOL    HW225743   4.343   2.848   9.077 -1.2400  0.6303 -0.0324
 4704SOL     OW25744   1.805   0.215   5.339 -0.6677  0.0466 -0.7804
 4704SOL    HW125745   1.764   0.149   5.396 -0.0369 -0.0905 -0.4899
 4704SOL    HW225746   1.893   0.179   5.341  0.0748  1.7711 -2.4085
 4705SOL     OW25747   1.116   4.644   5.508  0.1254 -0.0143  0.2189
 4705SOL    HW125748   1.203   4.648   5.468  0.5508  2.5612  1.4627
 4705SOL    HW225749   1.100   4.736   5.526 -1.4798 -0.4165  0.8646
 4706SOL     OW25750   1.011   1.606   8.314 -0.0427 -0.4120  0.2535
 4706SOL    HW125751   0.975   1.520   8.335 -2.7788  0.2959 -1.5970
 4706SOL    HW225752   1.090   1.602   8.369 -1.2219  1.5059  2.0974
 4707SOL     OW25753   1.960   0.828   5.717 -0.1115 -0.3993  0.0281
 4707SOL    HW125754   2.029   0.866   5.772  2.2043 -3.6719 -0.6419
 4707SOL    HW225755   1.876   0.855   5.754 -0.6960 -2.8080  0.4431
 4708SOL     OW25756   3.920   3.273  17.723 -0.2512 -0.1658 -0.3320
 4708SOL    HW125757   3.997   3.273  17.665  0.6692 -0.4285  0.9100
 4708SOL    HW225758   3.908   3.368  17.731 -1.5756 -0.4147  0.4778
 4709SOL     OW25759   3.064   3.764   2.879 -0.2884 -0.3971  0.1944
 4709SOL    HW125760   2.971   3.786   2.869 -0.6522 -1.9916  0.1763
 4709SOL    HW225761   3.099   3.850   2.904 -0.5916 -0.3867  0.5670
 4710SOL     OW25762   0.430   1.419   4.073 -0.3925 -0.8188 -0.3788
 4710SOL    HW125763   0.504   1.370   4.108 -0.0636 -0.0929 -0.0657
 4710SOL    HW225764   0.361   1.372   4.121  0.2446 -1.5083 -0.1353
 4711SOL     OW25765   2.086   1.219   2.957 -0.5529  0.2997 -0.7573
 4711SOL    HW125766   2.143   1.267   2.896  0.3034  2.6523  1.9138
 4711SOL    HW225767   2.015   1.198   2.897 -0.7682 -1.7308  0.2062
 4712SOL     OW25768   0.198   1.061   9.828  0.0941  0.6204 -0.1179
 4712SOL    HW125769   0.119   1.114   9.840 -0.6887 -0.7515  0.7723
 4712SOL    HW225770   0.186   0.995   9.896 -3.8489  0.7041 -0.7296
 4713SOL     OW25771   4.339   1.428   5.088 -0.0905  0.4684  0.6138
 4713SOL    HW125772   4.380   1.491   5.030  0.4810  0.1247  0.6384
 4713SOL    HW225773   4.290   1.478   5.153 -1.7441  0.0113 -0.2856
 4714SOL     OW25774   0.951   0.884  13.044  0.0749  0.1007 -0.5106
 4714SOL    HW125775   0.871   0.892  12.991  1.0369  0.1515 -1.9681
 4714SOL    HW225776   0.984   0.973  13.044 -2.4982  1.0598  2.0105
 4715SOL     OW25777   2.182   3.177   5.710 -0.4215 -0.0333  0.0984
 4715SOL    HW125778   2.143   3.150   5.627 -2.1753 -0.3899  1.0321
 4715SOL    HW225779   2.116   3.132   5.762 -1.9005  2.1116  0.0513
 4716SOL     OW25780   3.622   2.179   8.585  0.2605  0.3098 -0.3577
 4716SOL    HW125781   3.541   2.128   8.593  0.4546 -0.0816 -0.8939
 4716SOL    HW225782   3.627   2.225   8.669  1.2635  3.0083 -1.9306
 4717SOL     OW25783   4.535   2.830  14.296 -0.1695 -0.8894 -0.0612
 4717SOL    HW125784   4.488   2.872  14.369 -1.0340 -2.1723  0.1328
 4717SOL    HW225785   4.615   2.820  14.348  0.3657  1.7853 -0.3973
 4718SOL     OW25786   2.637   0.627   6.163 -0.2247 -0.1225 -0.1479
 4718SOL    HW125787   2.687   0.696   6.206  0.0121  0.5376 -1.4823
 4718SOL    HW225788   2.561   0.626   6.221  0.5637 -2.3724  0.8219
 4719SOL     OW25789   0.351   1.618  14.640 -0.0189 -0.3795 -0.7514
 4719SOL    HW125790   0.391   1.542  14.596  0.6132  0.2839 -1.3270
 4719SOL    HW225791   0.285   1.636  14.573  1.5911  2.1587 -1.6883
 4720SOL     OW25792   0.234   1.842   5.955 -0.7702 -0.3858  0.0102
 4720SOL    HW125793   0.261   1.802   6.037 -1.6726 -1.1978 -0.0815
 4720SOL    HW225794   0.296   1.915   5.954  1.1256 -1.9674  5.5573
 4721SOL     OW25795   2.710   3.334   5.618  0.1788 -0.1914 -0.5992
 4721SOL    HW125796   2.725   3.269   5.686 -1.3195  0.0113 -0.0680
 4721SOL    HW225797   2.801   3.359   5.600  0.6224 -0.5909  1.1144
 4722SOL     OW25798   1.300   0.248  10.976  0.4635 -0.2542 -0.1865
 4722SOL    HW125799   1.328   0.168  10.932  0.8199  0.3871 -1.1245
 4722SOL    HW225800   1.312   0.310  10.905 -0.8102  1.0167  0.7084
 4723SOL     OW25801   0.953   2.958   2.919 -0.5258 -0.6574 -0.3583
 4723SOL    HW125802   0.915   2.872   2.941  0.2868 -1.3611 -1.7101
 4723SOL    HW225803   0.873   3.010   2.920  1.3124  2.0420  2.7893
 4724SOL     OW25804   0.147   1.116  10.390  0.3827  0.2340  0.2850
 4724SOL    HW125805   0.224   1.093  10.337 -1.3068 -3.5661 -0.5303
 4724SOL    HW225806   0.191   1.149  10.468 -1.1363 -1.8836  2.0156
 4725SOL     OW25807   0.163   1.824   4.949  0.1890  0.1446  0.0583
 4725SOL    HW125808   0.157   1.842   5.042  1.5412 -0.6944  0.3033
 4725SOL    HW225809   0.078   1.861   4.924  0.8374  1.5730 -0.0043
 4726SOL     OW25810   4.401   4.306   7.695 -0.0372 -0.6626 -0.2597
 4726SOL    HW125811   4.392   4.224   7.646 -0.2878 -0.0054 -1.3181
 4726SOL    HW225812   4.456   4.296   7.773  2.3238  1.2610 -1.6818
 4727SOL     OW25813   0.088   2.129   4.554  0.2628  0.5378  0.4270
 4727SOL    HW125814   0.073   2.035   4.562  2.2312  0.2857  1.1507
 4727SOL    HW225815   4.735   2.155   4.538 -0.6148 -1.5942  1.8674
 4728SOL     OW25816   3.093   3.764   7.700  0.0069  0.3321  0.0367
 4728SOL    HW125817   3.187   3.747   7.702 -0.0061  0.3062  0.5292
 4728SOL    HW225818   3.081   3.783   7.793 -0.3309 -1.8842  0.4258
 4729SOL     OW25819   3.004   1.274   6.749  0.7991 -0.5024 -0.1174
 4729SOL    HW125820   3.056   1.291   6.671  0.1548 -0.3973 -0.5167
 4729SOL    HW225821   3.047   1.342   6.803  0.3207  0.7338 -1.2919
 4730SOL     OW25822   4.219   2.490   0.253  0.6107  0.3417  0.2815
 4730SOL    HW125823   4.159   2.471   0.325  0.3449  2.6887  0.6628
 4730SOL    HW225824   4.201   2.422   0.188 -0.3807  1.2231 -0.3600
 4731SOL     OW25825   0.685   4.635   3.629 -0.1542 -0.2674 -0.1071
 4731SOL    HW125826   0.696   4.572   3.558 -0.1668 -2.3488  1.7186
 4731SOL    HW225827   0.625   4.701   3.595  1.1460  2.3243  2.5994
 4732SOL     OW25828   2.341   2.851   0.725  0.3184 -0.0937 -0.5618
 4732SOL    HW125829   2.274   2.828   0.790  1.1853  0.6309  0.5898
 4732SOL    HW225830   2.350   2.946   0.735 -1.2715  0.2218 -2.2265
 4733SOL     OW25831   0.947   0.895   8.909 -0.5496 -0.4265  0.6267
 4733SOL    HW125832   0.902   0.942   8.979  0.4793 -0.8707  1.5803
 4733SOL    HW225833   0.919   0.805   8.926  2.3605 -1.2145  1.2740
 4734SOL     OW25834   3.501   3.984   3.581 -0.6571  0.4499 -0.2897
 4734SOL    HW125835   3.572   4.022   3.632 -0.4103  0.0339 -0.3198
 4734SOL    HW225836   3.466   4.059   3.534 -0.0851  0.8465 -0.0771
 4735SOL     OW25837   3.067   0.934   3.214 -0.1762  0.0023  0.7643
 4735SOL    HW125838   2.977   0.937   3.181 -0.0635 -0.5660  0.4078
 4735SOL    HW225839   3.105   0.991   3.147 -2.3710  1.1099  0.4340
 4736SOL     OW25840   0.473   0.386   8.498 -0.4849 -0.2207 -0.1713
 4736SOL    HW125841   0.427   0.452   8.446 -1.8045 -2.5690 -1.9806
 4736SOL    HW225842   0.468   0.415   8.589  1.5152 -1.0822  0.2024
 4737SOL     OW25843   0.591   1.387   5.551  0.3848 -0.1074 -0.0604
 4737SOL    HW125844   0.661   1.435   5.596  0.1576 -0.2431  0.4377
 4737SOL    HW225845   0.592   1.315   5.613 -2.8893  0.2417  0.3839
 4738SOL     OW25846   4.249   2.523   6.120  0.3346  0.3474  0.1856
 4738SOL    HW125847   4.284   2.525   6.031  2.8004  3.6906  1.1959
 4738SOL    HW225848   4.156   2.502   6.110 -0.2044  2.7510  0.1522
 4739SOL     OW25849   3.171   1.580   1.138 -0.0942  0.1670 -0.3271
 4739SOL    HW125850   3.141   1.499   1.179 -2.0316  1.8559  1.5742
 4739SOL    HW225851   3.100   1.595   1.075 -0.7162 -1.7995 -0.0969
 4740SOL     OW25852   0.661   2.563   8.965  0.1061  0.1925 -0.0391
 4740SOL    HW125853   0.712   2.608   9.033 -0.9756 -3.1069  2.9891
 4740SOL    HW225854   0.574   2.603   8.969  0.7925  1.5803  0.7171
 4741SOL     OW25855   2.724   3.621   0.809  0.2563 -0.0403 -0.2579
 4741SOL    HW125856   2.696   3.659   0.726 -1.8755 -0.4674  0.2735
 4741SOL    HW225857   2.668   3.677   0.862  2.1233  1.6956 -0.1269
 4742SOL     OW25858   1.803   2.111  17.034  0.1040 -0.7499  0.0808
 4742SOL    HW125859   1.810   2.142  17.125 -0.6019 -1.9390  0.5304
 4742SOL    HW225860   1.758   2.185  16.993  2.4341  0.4024 -0.3761
 4743SOL     OW25861   0.545   4.116   7.414 -1.0463 -0.5395 -0.2878
 4743SOL    HW125862   0.604   4.185   7.444 -1.4242 -0.2243 -0.2643
 4743SOL    HW225863   0.576   4.085   7.329 -2.0778 -0.5137 -0.6693
 4744SOL     OW25864   3.151   3.302  17.239  0.3692  0.1297 -0.5729
 4744SOL    HW125865   3.113   3.346  17.315  0.2618 -0.8355 -0.0720
 4744SOL    HW225866   3.078   3.304  17.177 -0.1118 -0.0067 -0.0095
 4745SOL     OW25867   1.169   2.872   4.599 -0.2083 -0.3472 -0.4721
 4745SOL    HW125868   1.187   2.820   4.678  1.3179  0.5681 -0.2217
 4745SOL    HW225869   1.257   2.898   4.571 -1.4318  1.4606 -2.5814
 4746SOL     OW25870   3.610   2.606   5.638  0.4150  0.6056 -0.0014
 4746SOL    HW125871   3.612   2.539   5.706  0.3189  1.7805  1.1560
 4746SOL    HW225872   3.693   2.644   5.666 -0.1763  0.9938  1.1935
 4747SOL     OW25873   0.064   0.936   6.319 -0.1989 -0.4377  0.1652
 4747SOL    HW125874   0.041   0.860   6.266 -0.5134 -1.2435  1.4575
 4747SOL    HW225875   0.154   0.952   6.292  0.1414 -2.2923  0.2326
 4748SOL     OW25876   2.347   0.930  13.080 -0.0325 -0.3994 -0.4559
 4748SOL    HW125877   2.286   0.945  13.153  1.9633  1.5303  0.8063
 4748SOL    HW225878   2.346   0.835  13.079 -1.2262 -0.3992  0.1480
 4749SOL     OW25879   2.586   2.441   0.125  0.6700 -0.0108 -0.0414
 4749SOL    HW125880   2.675   2.407   0.129  1.2382  1.3552 -0.9282
 4749SOL    HW225881   2.584   2.486   0.041 -1.2956 -0.7822 -0.4142
 4750SOL     OW25882   3.583   2.045   3.509 -0.3161 -0.0298  0.6163
 4750SOL    HW125883   3.606   2.123   3.458  0.8858 -1.2440 -0.7024
 4750SOL    HW225884   3.513   2.012   3.452 -1.2328  0.7787  1.2687
 4751SOL     OW25885   4.665   3.498   2.848 -0.8279  0.6611  0.4931
 4751SOL    HW125886   4.707   3.542   2.774  0.9873  0.0335  1.1421
 4751SOL    HW225887   4.572   3.493   2.828 -0.8949 -0.9617  1.1629
 4752SOL     OW25888   2.021   1.839   9.150 -0.2810 -0.2953 -0.2243
 4752SOL    HW125889   2.047   1.752   9.120  0.2285  0.0311 -0.7412
 4752SOL    HW225890   2.103   1.888   9.140 -0.1701 -0.3290  0.5400
 4753SOL     OW25891   2.367   2.792   6.737  0.3390  0.1283 -0.0597
 4753SOL    HW125892   2.286   2.795   6.687  0.5406 -0.4566 -0.4147
 4753SOL    HW225893   2.421   2.729   6.689  0.9937  1.9104 -1.6562
 4754SOL     OW25894   4.130   3.874   2.545  0.0851 -0.8579 -0.4030
 4754SOL    HW125895   4.080   3.816   2.602 -0.2333 -0.5223 -0.3384
 4754SOL    HW225896   4.067   3.933   2.503 -0.5088 -1.2320 -0.0307
 4755SOL     OW25897   3.229   4.471   7.082 -0.1274  0.1085 -0.7070
 4755SOL    HW125898   3.192   4.505   7.164  3.4843  1.2725  0.4501
 4755SOL    HW225899   3.152   4.437   7.036 -1.3754  0.0370  1.4252
 4756SOL     OW25900   2.111   3.720   8.956  0.0966  0.5167 -0.0625
 4756SOL    HW125901   2.144   3.783   8.891  1.2108 -0.3079 -0.3002
 4756SOL    HW225902   2.020   3.743   8.972 -0.2713  0.6560 -2.3186
 4757SOL     OW25903   1.902   0.270   6.802 -0.0572  0.7453  0.0652
 4757SOL    HW125904   1.902   0.226   6.717  0.7658 -1.5963  1.2886
 4757SOL    HW225905   1.810   0.288   6.822  0.0874  0.0038  1.3389
 4758SOL     OW25906   3.951   3.594   3.500 -0.2647  0.0489  0.2121
 4758SOL    HW125907   4.034   3.555   3.472  0.9618  2.9397 -0.1191
 4758SOL    HW225908   3.974   3.682   3.528  0.3040 -0.3730  1.0719
 4759SOL     OW25909   1.886   1.649   7.616 -0.2000  0.2424 -0.3635
 4759SOL    HW125910   1.854   1.562   7.593  0.0788  0.1390 -0.3633
 4759SOL    HW225911   1.914   1.646   7.707  1.5487  2.3205 -0.8279
 4760SOL     OW25912   1.574   1.263  14.838  0.5042  0.1231  0.1770
 4760SOL    HW125913   1.590   1.218  14.921 -1.2067  1.6066  1.2955
 4760SOL    HW225914   1.569   1.190  14.776 -2.9918 -0.8008  1.5422
 4761SOL     OW25915   2.601   2.903   5.390 -0.2454 -0.4874  0.6267
 4761SOL    HW125916   2.644   2.940   5.467  0.6832 -0.7411  0.2325
 4761SOL    HW225917   2.542   2.976   5.376  1.0291  0.3939 -0.1870
 4762SOL     OW25918   3.474   3.180   3.317 -0.7002 -0.6758  0.0292
 4762SOL    HW125919   3.554   3.227   3.336 -0.6671 -0.7205  0.0008
 4762SOL    HW225920   3.450   3.216   3.231 -1.7331  1.5902  1.2804
 4763SOL     OW25921   3.083   2.787   7.331  0.4027  0.1900 -1.0784
 4763SOL    HW125922   2.989   2.783   7.346  0.6925 -0.8245  0.4827
 4763SOL    HW225923   3.109   2.697   7.311 -0.9427 -0.9004  2.0877
 4764SOL     OW25924   0.821   1.072   8.225  0.2762  0.6202 -0.0420
 4764SOL    HW125925   0.851   1.160   8.245 -1.1506  1.5337 -1.9320
 4764SOL    HW225926   0.906   1.029   8.214  0.6449  0.5208  3.2253
 4765SOL     OW25927   4.140   3.955   8.594  0.1822  0.1304  0.0233
 4765SOL    HW125928   4.185   3.981   8.674 -1.2167 -0.2372  0.9309
 4765SOL    HW225929   4.136   3.860   8.607  1.5136  0.0706  0.0021
 4766SOL     OW25930   2.444   2.438  13.766 -0.2405 -0.4127  0.0340
 4766SOL    HW125931   2.462   2.344  13.769 -0.8292 -0.4984  0.8118
 4766SOL    HW225932   2.375   2.442  13.700 -1.3908 -2.9164  1.0901
 4767SOL     OW25933   2.245   0.736   6.761  0.1260 -0.0884 -0.3172
 4767SOL    HW125934   2.328   0.721   6.806 -1.8272 -2.8008  2.3973
 4767SOL    HW225935   2.198   0.698   6.835  0.4905 -0.1094 -0.0933
 4768SOL     OW25936   1.939   3.542  11.174 -0.6930  0.3967 -0.4067
 4768SOL    HW125937   2.022   3.498  11.154 -1.1078 -0.7677  0.4211
 4768SOL    HW225938   1.967   3.620  11.221  0.3482  0.5569 -1.2832
 4769SOL     OW25939   4.298   4.209   6.651  0.0650 -0.1041  0.0431
 4769SOL    HW125940   4.386   4.231   6.619  0.1414 -0.1213  0.2348
 4769SOL    HW225941   4.241   4.219   6.575 -2.0419  0.4360  1.6947
 4770SOL     OW25942   1.101   0.873  16.562  0.5075  0.4391 -0.7308
 4770SOL    HW125943   1.090   0.936  16.491 -3.3758  1.1069  0.4455
 4770SOL    HW225944   1.011   0.851  16.586  0.8268  1.6138  1.5336
 4771SOL     OW25945   2.854   0.289   5.287  0.4503 -0.6790  0.2015
 4771SOL    HW125946   2.942   0.312   5.258  0.6711  0.1164  1.4876
 4771SOL    HW225947   2.866   0.301   5.381  1.5060 -0.9901  0.1042
 4772SOL     OW25948   4.189   4.091   4.669  0.0213 -0.4233  0.1906
 4772SOL    HW125949   4.217   4.004   4.642  0.3450 -0.5630  0.9779
 4772SOL    HW225950   4.271   4.136   4.646 -1.1979  1.1890 -1.0132
 4773SOL     OW25951   4.028   1.348   5.158  0.0623  0.0322  0.0346
 4773SOL    HW125952   4.071   1.431   5.140 -0.1141 -0.1439 -1.1868
 4773SOL    HW225953   4.106   1.292   5.158 -0.7093 -1.0548  0.6099
 4774SOL     OW25954   0.178   3.265   9.638  0.0368  0.2224  0.0398
 4774SOL    HW125955   0.220   3.284   9.722  0.1030  1.2664 -0.2338
 4774SOL    HW225956   0.257   3.270   9.585 -0.9939  2.3540 -1.2909
 4775SOL     OW25957   1.760   3.995  16.178 -0.7964 -0.1013 -0.1307
 4775SOL    HW125958   1.806   4.034  16.253  2.2674  0.0849 -2.0975
 4775SOL    HW225959   1.681   4.049  16.178 -0.9849 -0.3776 -0.3799
 4776SOL     OW25960   2.914   4.316   9.458  0.2376 -0.1440 -0.2812
 4776SOL    HW125961   2.964   4.242   9.493  0.1407  0.0680  0.2992
 4776SOL    HW225962   2.979   4.331   9.389 -0.7367  2.4648 -0.6200
 4777SOL     OW25963   4.246   3.099   4.677  0.2690  0.7710  0.4737
 4777SOL    HW125964   4.161   3.085   4.636  0.4383 -1.3009  0.8165
 4777SOL    HW225965   4.215   3.162   4.742  1.0107  1.5641  0.0539
 4778SOL     OW25966   3.742   2.777   2.650 -0.4755 -0.3586  0.7021
 4778SOL    HW125967   3.737   2.690   2.610  2.6591  0.1247 -0.7764
 4778SOL    HW225968   3.654   2.787   2.686 -2.1226 -0.7280 -3.2783
 4779SOL     OW25969   0.601   2.686   5.031  0.1760  0.1899  0.1746
 4779SOL    HW125970   0.563   2.670   5.117 -1.3522  1.6759 -0.2199
 4779SOL    HW225971   0.601   2.781   5.023 -0.8455  0.0690 -1.3081
 4780SOL     OW25972   4.255   0.847   4.139 -0.2478 -0.1087 -0.0310
 4780SOL    HW125973   4.186   0.798   4.095 -1.2960  1.3361 -0.0067
 4780SOL    HW225974   4.308   0.782   4.185  1.3530  0.0348 -1.6851
 4781SOL     OW25975   4.103   3.305   4.806  0.4216 -0.6018  0.4134
 4781SOL    HW125976   4.016   3.265   4.807 -0.3691  1.0741 -0.5919
 4781SOL    HW225977   4.106   3.373   4.738 -0.4823  0.4644  1.4538
 4782SOL     OW25978   3.539   2.784   2.838  0.0307 -0.1214 -0.1088
 4782SOL    HW125979   3.556   2.875   2.860  2.5205 -0.2502 -1.4924
 4782SOL    HW225980   3.502   2.751   2.920 -0.1065  2.2811  0.7807
 4783SOL     OW25981   4.080   2.791   2.326  0.1270  0.2618 -0.1828
 4783SOL    HW125982   4.030   2.847   2.385 -1.0824 -2.5484  1.4613
 4783SOL    HW225983   4.044   2.706   2.352  0.9070 -0.8111 -2.6237
 4784SOL     OW25984   2.734   1.083   5.913  0.5851  0.0075  0.0956
 4784SOL    HW125985   2.666   1.113   5.974 -0.3088  0.4003 -1.1130
 4784SOL    HW225986   2.747   1.170   5.877  1.8806  0.1924  0.9870
 4785SOL     OW25987   0.413   0.559   4.154  0.5462 -0.1336  0.0491
 4785SOL    HW125988   0.457   0.615   4.218 -0.2488  1.2248 -0.6022
 4785SOL    HW225989   0.373   0.497   4.216 -2.0962  2.1493  0.6302
 4786SOL     OW25990   4.289   2.029   8.698  0.5438 -0.2217 -0.0958
 4786SOL    HW125991   4.260   1.954   8.750  1.1954  0.7544  1.6840
 4786SOL    HW225992   4.269   2.098   8.762  1.2473  1.7932 -2.0549
 4787SOL     OW25993   1.680   0.061   2.100 -0.0791 -0.1190 -0.4409
 4787SOL    HW125994   1.665   4.704   2.095  0.8523 -0.5226  4.0798
 4787SOL    HW225995   1.776   0.067   2.105 -0.2702  0.8873  2.0837
 4788SOL     OW25996   4.298   3.944   3.865 -0.9160  0.0579  0.4384
 4788SOL    HW125997   4.235   3.995   3.916 -2.8923 -0.5585 -1.4262
 4788SOL    HW225998   4.353   3.895   3.927  0.6421  0.2861 -0.7520
 4789SOL     OW25999   1.890   2.623   6.421  0.4959  0.6376 -0.1087
 4789SOL    HW126000   1.810   2.593   6.464  0.2725  2.2110  0.6150
 4789SOL    HW226001   1.903   2.554   6.357  3.1084 -1.0717  2.2263
 4790SOL     OW26002   4.099   3.915  16.788 -0.1337 -0.5152  0.5042
 4790SOL    HW126003   4.038   3.937  16.859 -0.8687  0.4732 -0.4378
 4790SOL    HW226004   4.154   3.846  16.826  1.5021  0.5849  0.1401
 4791SOL     OW26005   1.999   2.992   2.585 -0.4008 -0.6380  0.4443
 4791SOL    HW126006   1.941   2.963   2.655 -1.8258  2.5144  0.5751
 4791SOL    HW226007   2.050   3.056   2.633 -2.2657  2.2246 -1.3595
 4792SOL     OW26008   2.859   2.258   6.341  0.0954 -0.1488  0.0200
 4792SOL    HW126009   2.892   2.211   6.264  1.8151  0.0412  0.6588
 4792SOL    HW226010   2.924   2.229   6.405  2.0933  0.5626 -1.6808
 4793SOL     OW26011   1.912   4.269   8.681 -0.4073 -0.1497  0.0558
 4793SOL    HW126012   1.893   4.348   8.732 -1.2571 -1.2958  1.5231
 4793SOL    HW226013   1.961   4.216   8.743 -1.5929  2.9313  3.6543
 4794SOL     OW26014   1.650   0.777   3.283 -0.3752  0.3032  0.3404
 4794SOL    HW126015   1.563   0.739   3.295 -1.2331  2.4088  0.8760
 4794SOL    HW226016   1.657   0.828   3.364  0.1527  0.4912  0.1771
 4795SOL     OW26017   3.624   1.025   5.431 -0.3906  0.8532  0.2460
 4795SOL    HW126018   3.563   1.056   5.365 -1.9964 -2.5391  0.1270
 4795SOL    HW226019   3.680   0.968   5.379  0.3227  0.9938  0.8477
 4796SOL     OW26020   3.011   1.330   8.779 -0.1801  0.3281  0.1672
 4796SOL    HW126021   2.934   1.282   8.749  1.2574 -2.6061  1.0650
 4796SOL    HW226022   3.071   1.313   8.706 -2.2689 -1.0754 -1.2191
 4797SOL     OW26023   3.030   0.274  16.282 -0.3143 -1.0034  0.4355
 4797SOL    HW126024   3.012   0.310  16.369 -0.5129 -0.2246  0.0709
 4797SOL    HW226025   2.943   0.294  16.247 -0.2571 -2.2836 -0.4513
 4798SOL     OW26026   1.600   4.719   7.286  0.0984 -0.0736 -0.0073
 4798SOL    HW126027   1.620   0.045   7.217  3.5082  0.0894  1.1223
 4798SOL    HW226028   1.671   4.729   7.350  1.0892  0.2528 -1.1432
 4799SOL     OW26029   2.912   4.558  14.800 -0.1055 -0.8670  0.2151
 4799SOL    HW126030   2.843   4.590  14.742 -1.0647 -0.2972  1.6541
 4799SOL    HW226031   2.996   4.599  14.778 -0.7008 -0.9391 -2.1701
 4800SOL     OW26032   1.059   1.649   4.228  0.1249  0.1038  0.6747
 4800SOL    HW126033   1.066   1.654   4.133 -0.1983 -1.7062  0.5521
 4800SOL    HW226034   1.010   1.567   4.231 -1.2264  0.9622  2.0444
 4801SOL     OW26035   1.542   0.619   5.570  0.5313  0.1919  0.3065
 4801SOL    HW126036   1.586   0.572   5.498 -1.9775  1.7631 -2.2380
 4801SOL    HW226037   1.465   0.563   5.572  1.3092 -0.7671  2.9222
 4802SOL     OW26038   4.734   1.044  17.039 -0.2340  0.3219 -0.1675
 4802SOL    HW126039   4.691   1.114  16.991 -0.3977  0.7847  0.6589
 4802SOL    HW226040   4.667   1.028  17.105  0.5439  0.9383  0.7697
 4803SOL     OW26041   0.168   1.984   6.207 -0.4706  0.0922  0.3281
 4803SOL    HW126042   0.222   1.907   6.193 -1.0881  0.0773 -1.9281
 4803SOL    HW226043   0.182   2.036   6.128 -0.6991 -0.7800 -0.2882
 4804SOL     OW26044   2.516   0.581   4.868 -0.3319  0.1599  0.2519
 4804SOL    HW126045   2.451   0.581   4.937 -2.0887  0.7061 -1.4139
 4804SOL    HW226046   2.580   0.523   4.910  0.6937  1.5522  0.6212
 4805SOL     OW26047   4.352   0.011  10.746  0.8313 -0.1453  0.4801
 4805SOL    HW126048   4.287   4.707  10.804  0.1282 -0.2273 -0.3652
 4805SOL    HW226049   4.294   0.066  10.693  0.5369 -1.4959 -0.6028
 4806SOL     OW26050   0.678   1.230  11.920  0.0916  0.2110  0.0562
 4806SOL    HW126051   0.761   1.204  11.959  2.4763 -2.2301 -6.5700
 4806SOL    HW226052   0.683   1.323  11.941  3.7332 -0.1812  1.0202
 4807SOL     OW26053   2.348   0.239  16.050 -0.2886 -0.2880 -0.2639
 4807SOL    HW126054   2.361   0.218  15.957  1.7528  1.2759 -0.3475
 4807SOL    HW226055   2.414   0.309  16.050 -1.2836  0.6376  2.9014
 4808SOL     OW26056   4.124   0.990   8.134  0.6913  0.1667 -0.0406
 4808SOL    HW126057   4.205   0.940   8.126  0.4756 -0.5112  2.1029
 4808SOL    HW226058   4.055   0.930   8.105  1.8208 -0.8643 -0.5947
 4809SOL     OW26059   1.849   2.881   7.895 -0.0158  0.1430  0.3738
 4809SOL    HW126060   1.900   2.888   7.976  0.8540  1.4823 -0.2977
 4809SOL    HW226061   1.769   2.846   7.936 -2.0741  2.7160 -1.4364
 4810SOL     OW26062   0.094   1.804   8.963 -0.2214  0.0983  0.7311
 4810SOL    HW126063   0.006   1.768   8.963 -0.2418  0.1414  0.2787
 4810SOL    HW226064   0.115   1.823   9.054 -0.3521 -1.1366  1.0244
 4811SOL     OW26065   3.710   4.513   2.743  0.2845  0.0746 -0.3105
 4811SOL    HW126066   3.638   4.462   2.781  0.6773 -1.8672 -2.1542
 4811SOL    HW226067   3.719   4.587   2.803 -0.6480 -0.1640  0.1263
 4812SOL     OW26068   2.628   2.163  17.403 -0.2024  0.0152 -0.4622
 4812SOL    HW126069   2.607   2.119  17.321  0.1309  0.5635 -0.8352
 4812SOL    HW226070   2.700   2.213  17.365  1.4698  0.0301  2.7281
 4813SOL     OW26071   1.240   2.978  11.327 -0.0016 -0.5763 -0.6251
 4813SOL    HW126072   1.191   2.957  11.406  1.0455 -1.2918 -0.1595
 4813SOL    HW226073   1.252   2.886  11.300  1.2878 -0.5313 -0.2012
 4814SOL     OW26074   1.586   3.923   8.410  0.0111 -0.1467 -0.4583
 4814SOL    HW126075   1.645   3.951   8.481 -2.3313  0.2650  1.3248
 4814SOL    HW226076   1.611   3.986   8.342  3.1702  0.1473  0.9568
 4815SOL     OW26077   3.958   1.626   4.259  0.1883 -0.3868 -0.5565
 4815SOL    HW126078   3.957   1.597   4.167 -0.2272 -0.1708 -0.6175
 4815SOL    HW226079   3.883   1.684   4.260 -0.4766 -1.2490 -0.0481
 4816SOL     OW26080   4.264   0.602   8.223 -0.4715 -0.6429 -0.1355
 4816SOL    HW126081   4.266   0.638   8.312  1.4198  1.8436 -1.1849
 4816SOL    HW226082   4.195   0.655   8.183 -0.2484 -0.1522  0.1359
 4817SOL     OW26083   0.111   3.216   6.093 -0.4012  0.3349 -0.6542
 4817SOL    HW126084   0.197   3.187   6.124 -0.6129  0.4784  0.0667
 4817SOL    HW226085   0.068   3.139   6.129 -1.8834  2.1356  1.4239
 4818SOL     OW26086   2.488   1.792   0.749  0.5739 -0.1745 -0.3004
 4818SOL    HW126087   2.556   1.725   0.742 -1.6207 -2.4919  0.2711
 4818SOL    HW226088   2.410   1.740   0.727 -0.6434  1.1917  0.7329
 4819SOL     OW26089   0.132   2.036   6.619 -0.3263 -0.1614  0.6102
 4819SOL    HW126090   0.118   2.093   6.695  2.3412 -0.7765  1.5822
 4819SOL    HW226091   0.177   1.964   6.662 -0.3559 -0.0279  0.8664
 4820SOL     OW26092   1.957   3.486   3.762  0.2994 -0.2742  0.0713
 4820SOL    HW126093   2.015   3.415   3.737  0.8739 -0.0040  0.6147
 4820SOL    HW226094   1.895   3.450   3.826  1.8866  0.8794  2.2697
 4821SOL     OW26095   0.513   2.630   6.371  0.0999 -0.1229  0.5405
 4821SOL    HW126096   0.433   2.606   6.323 -0.6760 -0.3736  1.9771
 4821SOL    HW226097   0.499   2.590   6.456  2.4904 -0.9852  0.5476
 4822SOL     OW26098   1.897   1.535   2.318  0.2467  0.0265  0.7818
 4822SOL    HW126099   1.848   1.584   2.384 -0.8145 -2.8317  2.1382
 4822SOL    HW226100   1.858   1.450   2.339 -0.1220 -0.3434 -1.4554
 4823SOL     OW26101   4.658   0.308   8.158  0.2175  0.1554  0.0969
 4823SOL    HW126102   4.590   0.308   8.225  2.3193  0.6743  2.2569
 4823SOL    HW226103   4.692   0.397   8.150 -0.9337  0.3577 -2.4940
 4824SOL     OW26104   3.910   1.432   6.155  0.4594  0.5687 -0.0350
 4824SOL    HW126105   3.817   1.419   6.171  0.1640  1.1231 -1.3007
 4824SOL    HW226106   3.905   1.515   6.107 -1.3609 -0.6081 -1.9047
 4825SOL     OW26107   0.509   0.005   9.219 -0.4240  0.2835  0.0919
 4825SOL    HW126108   0.440   0.015   9.285 -0.9776 -0.0125 -0.4411
 4825SOL    HW226109   0.444   4.724   9.151 -0.3121  1.6698 -0.3761
 4826SOL     OW26110   2.369   2.080   1.478  0.0978  0.4020  0.3703
 4826SOL    HW126111   2.376   2.008   1.415  0.0718  0.7460 -0.0298
 4826SOL    HW226112   2.333   2.145   1.417 -1.4457  0.3771  1.2469
 4827SOL     OW26113   2.838   4.059   2.551  0.1244 -0.4641  0.0996
 4827SOL    HW126114   2.899   4.095   2.486  1.2057  0.7959  1.8212
 4827SOL    HW226115   2.851   3.965   2.546 -1.3932 -0.6732  0.0717
 4828SOL     OW26116   4.411   4.474   0.947 -0.0024 -0.5553  0.0137
 4828SOL    HW126117   4.439   4.412   1.015 -2.5024 -2.6255 -0.7950
 4828SOL    HW226118   4.454   4.430   0.874 -2.1158 -0.0809 -1.5294
 4829SOL     OW26119   4.170   4.350   8.888  0.3607  0.1631 -0.3951
 4829SOL    HW126120   4.183   4.427   8.833  0.5030  0.1858 -0.3290
 4829SOL    HW226121   4.094   4.303   8.854 -0.2718  1.3706 -0.6602
 4830SOL     OW26122   0.975   0.578   6.440  0.4727  0.4946  0.3311
 4830SOL    HW126123   0.964   0.602   6.348  0.4058  0.3919  0.3125
 4830SOL    HW226124   1.071   0.581   6.446  0.2980 -0.3689  3.4563
 4831SOL     OW26125   1.871   3.963   1.731 -0.3334  0.3845 -0.1752
 4831SOL    HW126126   1.925   3.965   1.653  0.4729 -0.6537  0.3560
 4831SOL    HW226127   1.939   3.959   1.798 -1.8299 -3.0221  1.1612
 4832SOL     OW26128   1.943   4.156   4.762 -0.1365 -0.0848  0.6134
 4832SOL    HW126129   1.865   4.168   4.708  0.2338  1.5943  0.4457
 4832SOL    HW226130   2.002   4.220   4.723 -2.5431  1.0002 -1.2397
 4833SOL     OW26131   3.341   3.254   8.989  0.5040 -0.9381  0.2800
 4833SOL    HW126132   3.430   3.286   9.003  0.4211 -1.3105  1.7101
 4833SOL    HW226133   3.295   3.338   9.000  2.4504  0.3872 -1.8067
 4834SOL     OW26134   3.181   4.468  13.275 -0.1431  0.2849  0.0894
 4834SOL    HW126135   3.101   4.417  13.287  0.4685 -1.4054 -3.1118
 4834SOL    HW226136   3.185   4.475  13.180 -1.0341 -2.3043 -0.1208
 4835SOL     OW26137   2.195   4.318   7.080 -0.5334 -0.0759  0.1429
 4835SOL    HW126138   2.163   4.319   6.990  0.0010  0.5024 -0.0299
 4835SOL    HW226139   2.127   4.258   7.112  0.7626 -0.8274  1.4974
 4836SOL     OW26140   0.322   3.378   9.832  0.0386 -0.3328  0.3678
 4836SOL    HW126141   0.294   3.465   9.858 -0.0825 -0.9600  2.3083
 4836SOL    HW226142   0.394   3.356   9.891  0.4563 -2.3077 -0.8691
 4837SOL     OW26143   3.235   3.336  10.289 -0.0673 -0.7109  0.6833
 4837SOL    HW126144   3.201   3.312  10.203 -2.9695  0.5011  1.4834
 4837SOL    HW226145   3.290   3.410  10.267 -2.5361  0.5387 -1.2882
 4838SOL     OW26146   0.219   1.313  11.931 -0.2338  0.5717  0.0224
 4838SOL    HW126147   0.229   1.358  11.847  0.5739 -0.2896 -0.3346
 4838SOL    HW226148   0.125   1.298  11.939  0.1436 -0.7815  1.8844
 4839SOL     OW26149   3.041   3.860   4.869  0.6428 -0.1926 -0.3972
 4839SOL    HW126150   2.970   3.802   4.842  1.1805 -1.8993  1.8784
 4839SOL    HW226151   2.999   3.945   4.853  3.3364  0.8845 -1.6222
 4840SOL     OW26152   3.807   1.673   6.847 -0.1433  0.2786 -0.0797
 4840SOL    HW126153   3.801   1.580   6.868 -0.2459  0.2207 -0.3734
 4840SOL    HW226154   3.899   1.696   6.834 -0.0213  0.3899  0.9497
 4841SOL     OW26155   3.705   0.721   2.171  0.2648 -0.3137 -0.1635
 4841SOL    HW126156   3.699   0.802   2.121  3.3711 -0.5114 -0.9089
 4841SOL    HW226157   3.662   0.655   2.116  1.7782 -1.9626  0.5955
 4842SOL     OW26158   3.971   2.343   3.105  0.0383 -0.2718 -0.0591
 4842SOL    HW126159   3.907   2.351   3.033 -0.9481 -0.6233  0.7787
 4842SOL    HW226160   4.054   2.363   3.063 -1.6463  0.9419 -2.8103
 4843SOL     OW26161   2.491   1.556   0.211  0.2665  0.4069 -0.0398
 4843SOL    HW126162   2.546   1.632   0.191 -0.6877  1.0726 -0.1384
 4843SOL    HW226163   2.431   1.602   0.268 -1.7142 -2.1886 -0.0508
 4844SOL     OW26164   0.235   1.008  15.889  0.1211 -0.4707 -0.0959
 4844SOL    HW126165   0.254   1.101  15.889 -0.9711 -0.2503  2.1867
 4844SOL    HW226166   0.316   0.988  15.937  0.3774  0.3000 -0.2205
 4845SOL     OW26167   3.403   3.059  15.991  0.0133 -0.3967  0.3040
 4845SOL    HW126168   3.374   3.035  16.079 -2.0843 -0.8027 -0.4753
 4845SOL    HW226169   3.430   2.973  15.959 -2.5106 -1.0838  0.0382
 4846SOL     OW26170   3.287   2.279   5.751  0.5069 -0.7105 -0.4087
 4846SOL    HW126171   3.351   2.296   5.682 -2.1488  0.3733 -2.5876
 4846SOL    HW226172   3.284   2.185   5.733  2.1018 -1.1816  1.8593
 4847SOL     OW26173   2.085   4.627   4.449 -0.6567  0.3217 -0.1290
 4847SOL    HW126174   2.161   4.615   4.506  0.8114  4.4342 -1.2271
 4847SOL    HW226175   2.041   4.695   4.500 -1.6407  0.4025 -1.0839
 4848SOL     OW26176   1.947   4.520   2.362 -0.0805 -0.4371  0.5168
 4848SOL    HW126177   1.873   4.574   2.334 -0.1331  0.5182  2.5132
 4848SOL    HW226178   2.018   4.551   2.306  0.1487  1.3209  1.7742
 4849SOL     OW26179   3.270   1.063   8.106 -0.2867  0.5179 -0.5012
 4849SOL    HW126180   3.252   0.971   8.087  0.4966  0.5036 -1.2167
 4849SOL    HW226181   3.282   1.065   8.201 -1.0070  2.9607 -0.4755
 4850SOL     OW26182   3.865   4.286   2.787 -0.5058 -0.0126 -0.2411
 4850SOL    HW126183   3.840   4.367   2.743  0.5141 -0.4819 -1.6544
 4850SOL    HW226184   3.958   4.301   2.802 -0.9827  1.5881  1.1969
 4851SOL     OW26185   3.781   1.265   6.761 -0.1205 -0.2553  0.2514
 4851SOL    HW126186   3.860   1.213   6.747 -0.5793 -0.5589 -1.2364
 4851SOL    HW226187   3.779   1.321   6.684 -0.8338 -1.3608 -0.5362
 4852SOL     OW26188   2.765   1.918   1.060 -0.1343 -0.1433  0.4273
 4852SOL    HW126189   2.775   1.875   0.975 -1.3937  0.2352  0.0995
 4852SOL    HW226190   2.814   2.000   1.050  0.5245 -0.8094 -1.6877
 4853SOL     OW26191   2.966   3.528   7.730 -0.0069  0.2040 -0.2184
 4853SOL    HW126192   3.027   3.597   7.702 -1.5312  1.4748 -0.3770
 4853SOL    HW226193   2.929   3.499   7.646 -0.9835 -0.1981  0.3528
 4854SOL     OW26194   1.437   1.069   6.716  0.2607 -0.6185 -0.1689
 4854SOL    HW126195   1.527   1.048   6.737  0.8307  3.1842  1.3188
 4854SOL    HW226196   1.450   1.143   6.656 -0.7362  0.3951  0.8555
 4855SOL     OW26197   2.349   2.708   4.380  0.1584  0.7752 -0.2308
 4855SOL    HW126198   2.265   2.730   4.422  0.5509  0.2419  0.8397
 4855SOL    HW226199   2.409   2.732   4.450  0.8034  0.0140 -0.5285
 4856SOL     OW26200   1.036   0.773   8.169  0.2005  0.2230 -0.0178
 4856SOL    HW126201   0.988   0.839   8.118 -0.7313  0.2811  0.9490
 4856SOL    HW226202   1.113   0.823   8.196  0.2514  0.4471 -0.5663
 4857SOL     OW26203   0.538   2.684   0.859 -0.8442 -0.1792  0.2293
 4857SOL    HW126204   0.462   2.742   0.863 -0.9434 -0.2594 -0.5052
 4857SOL    HW226205   0.583   2.730   0.788  0.5384  0.9207  1.8436
 4858SOL     OW26206   3.921   1.698   8.650 -0.2021 -0.1487 -0.6098
 4858SOL    HW126207   3.942   1.639   8.578  1.5040 -0.5404  0.2106
 4858SOL    HW226208   3.965   1.771   8.607 -1.6592  1.5530  0.7675
 4859SOL     OW26209   1.674   2.393  14.791  0.2466 -0.2755 -0.4693
 4859SOL    HW126210   1.638   2.461  14.734 -0.3397  0.3898  0.6908
 4859SOL    HW226211   1.673   2.447  14.870  0.0438 -0.3712 -0.4066
 4860SOL     OW26212   0.175   2.654   6.937  0.6412  0.1501 -0.3044
 4860SOL    HW126213   0.137   2.661   7.024  1.8227 -1.1303  0.3181
 4860SOL    HW226214   0.121   2.722   6.896  1.4657  0.9726  0.0045
 4861SOL     OW26215   1.316   2.688   3.319 -0.0827 -0.2040 -0.2725
 4861SOL    HW126216   1.326   2.774   3.361 -0.0561 -0.5206  0.3687
 4861SOL    HW226217   1.404   2.670   3.286  0.2373 -0.3960  0.6830
 4862SOL     OW26218   0.456   4.624   1.662 -0.8041  0.3371  0.3048
 4862SOL    HW126219   0.390   4.559   1.685 -0.1347 -0.3528  0.2536
 4862SOL    HW226220   0.416   4.629   1.575  0.4532 -2.9830 -0.4590
 4863SOL     OW26221   0.983   2.944   7.475  0.2302  0.0507  0.0098
 4863SOL    HW126222   0.944   2.917   7.392 -0.2550 -2.1212  0.9466
 4863SOL    HW226223   0.922   2.907   7.539  1.0328  1.2743  1.4796
 4864SOL     OW26224   3.072   0.003   9.863  0.3525  0.7699  0.3929
 4864SOL    HW126225   3.077   4.717   9.770 -2.2899 -1.9965  0.9883
 4864SOL    HW226226   3.096   0.096   9.872 -0.3277  0.7180  2.7632
 4865SOL     OW26227   2.726   4.017   3.291  0.3605 -0.2947  0.9125
 4865SOL    HW126228   2.708   3.930   3.255 -1.5287  1.5550 -2.6283
 4865SOL    HW226229   2.678   4.018   3.373 -1.9431  2.0018 -0.4625
 4866SOL     OW26230   3.151   2.007  13.956  0.2592  0.5862  0.2710
 4866SOL    HW126231   3.159   2.062  13.878  0.0324  0.7763  0.3831
 4866SOL    HW226232   3.222   1.942  13.961  1.0080  1.3007 -0.8070
 4867SOL     OW26233   1.511   0.419   9.122  0.0545  0.5499  0.1738
 4867SOL    HW126234   1.493   0.419   9.216 -1.0756  1.1239 -0.0449
 4867SOL    HW226235   1.447   0.484   9.094 -0.2552 -0.2304 -0.9098
 4868SOL     OW26236   3.096   3.902   9.354 -0.0128 -0.6913 -0.0369
 4868SOL    HW126237   3.111   3.946   9.271  0.2960 -0.1289  0.3178
 4868SOL    HW226238   3.016   3.859   9.324  0.2469 -0.9844 -0.2982
 4869SOL     OW26239   1.656   3.372   7.030 -0.1921 -0.1209  0.2831
 4869SOL    HW126240   1.612   3.296   7.069  0.4343 -0.8369 -0.4183
 4869SOL    HW226241   1.578   3.424   7.012  0.4171  0.4090 -0.7843
 4870SOL     OW26242   4.205   3.743   3.166 -0.3725 -0.9018  0.0596
 4870SOL    HW126243   4.202   3.736   3.262  0.8169 -1.7409  0.0358
 4870SOL    HW226244   4.140   3.813   3.166 -0.0588 -0.6152 -0.6787
 4871SOL     OW26245   1.289   1.472   6.869  0.1494  0.0387  0.0433
 4871SOL    HW126246   1.291   1.551   6.924  2.2798 -1.1109  1.6112
 4871SOL    HW226247   1.360   1.493   6.809  1.1803  0.6002  1.4639
 4872SOL     OW26248   2.704   2.153   8.752  0.1137 -0.9401  0.2604
 4872SOL    HW126249   2.636   2.115   8.808 -0.2488 -1.0324 -0.2468
 4872SOL    HW226250   2.655   2.222   8.707 -1.0209 -0.9023  1.5374
 4873SOL     OW26251   4.526   1.861   7.921  1.0690  0.0619 -0.0482
 4873SOL    HW126252   4.574   1.918   7.981 -0.0723  1.1124 -0.1397
 4873SOL    HW226253   4.598   1.859   7.858  0.0040 -0.8599 -1.2351
 4874SOL     OW26254   0.837   4.463  13.152 -0.0942  0.0512 -0.2429
 4874SOL    HW126255   0.871   4.509  13.075 -2.7500  0.3480 -1.2341
 4874SOL    HW226256   0.750   4.442  13.118  1.2292 -2.4626 -2.1229
 4875SOL     OW26257   3.378   2.993   8.930 -0.4311 -0.3422  0.0945
 4875SOL    HW126258   3.384   3.089   8.930  0.8051 -0.4242  0.0779
 4875SOL    HW226259   3.294   2.985   8.976 -1.4269  2.1095 -1.2845
 4876SOL     OW26260   2.521   0.095   9.790 -0.6164  0.2944  0.2530
 4876SOL    HW126261   2.473   0.119   9.869 -0.3427  0.7404  0.2833
 4876SOL    HW226262   2.535   0.001   9.799  2.1240  0.7220  0.3914
 4877SOL     OW26263   1.834   2.764   4.773  0.4503 -0.2860  0.6512
 4877SOL    HW126264   1.908   2.800   4.822  0.7256  1.8006 -1.3066
 4877SOL    HW226265   1.889   2.698   4.732 -0.1835 -0.1352 -0.4578
 4878SOL     OW26266   1.308   3.744   5.451  0.4814  0.6417  0.0092
 4878SOL    HW126267   1.320   3.816   5.388  1.9024  0.4553  0.0469
 4878SOL    HW226268   1.381   3.744   5.513 -0.8138 -2.2934  1.5265
 4879SOL     OW26269   4.526   0.245   1.876  0.5826  0.0705 -0.2386
 4879SOL    HW126270   4.487   0.329   1.903 -2.8275 -1.4654 -0.5222
 4879SOL    HW226271   4.518   0.253   1.781 -0.2603 -1.9322 -0.3296
 4880SOL     OW26272   1.563   3.452   1.925 -0.1504 -0.0881 -0.0174
 4880SOL    HW126273   1.478   3.496   1.914  0.3778  0.7352 -0.8417
 4880SOL    HW226274   1.593   3.447   1.834 -0.9476  2.3157 -0.4370
 4881SOL     OW26275   3.440   2.075   9.001 -0.5023  0.6971  0.6997
 4881SOL    HW126276   3.504   2.134   8.960 -2.6533  3.2669  1.0758
 4881SOL    HW226277   3.383   2.049   8.929 -0.0974 -1.0710  0.9982
 4882SOL     OW26278   1.873   3.522   7.821 -0.1195  0.0086  0.6085
 4882SOL    HW126279   1.896   3.456   7.755  1.3416  0.6943  0.4397
 4882SOL    HW226280   1.899   3.474   7.900  0.1494 -0.1711  0.4131
 4883SOL     OW26281   3.771   0.698   7.689  0.1030 -0.1083  0.1634
 4883SOL    HW126282   3.696   0.669   7.637  0.3555  0.8930 -0.7398
 4883SOL    HW226283   3.808   0.772   7.641  1.0220 -2.4482 -2.7917
 4884SOL     OW26284   2.212   0.757  16.630  0.0734  0.2311 -0.1951
 4884SOL    HW126285   2.153   0.721  16.696 -0.0124  0.4930 -0.1286
 4884SOL    HW226286   2.278   0.688  16.620 -0.8080 -0.6421  0.0079
 4885SOL     OW26287   4.342   1.779   8.205 -0.2116  0.0650 -0.0028
 4885SOL    HW126288   4.307   1.868   8.207 -3.0349 -1.0390 -0.3470
 4885SOL    HW226289   4.427   1.785   8.247 -0.9339 -1.2094  1.6329
 4886SOL     OW26290   1.835   1.149   7.024  0.0985 -0.6966  0.6479
 4886SOL    HW126291   1.904   1.096   7.064 -0.4187 -0.8983  1.2689
 4886SOL    HW226292   1.782   1.172   7.100 -0.5533  0.3714 -0.1203
 4887SOL     OW26293   0.614   0.358   5.578 -0.1066  0.4701 -0.0882
 4887SOL    HW126294   0.630   0.414   5.502 -0.4550 -0.2455 -0.6897
 4887SOL    HW226295   0.574   0.422   5.638  1.1086  0.5625  0.6117
 4888SOL     OW26296   4.536   2.695   3.481  0.2224 -0.0162 -0.2616
 4888SOL    HW126297   4.550   2.665   3.571 -3.1344  0.4104  0.4219
 4888SOL    HW226298   4.628   2.712   3.462  0.1544  1.8763  1.1026
 4889SOL     OW26299   4.550   1.796  12.815  0.1257 -0.3962 -0.2306
 4889SOL    HW126300   4.469   1.779  12.766 -0.1814  0.8908 -0.1871
 4889SOL    HW226301   4.513   1.822  12.899 -1.1670  1.0146 -1.2340
 4890SOL     OW26302   0.332   4.662  13.999 -0.3584  0.3012  1.3555
 4890SOL    HW126303   0.245   4.665  13.960  0.1108  0.8102  0.3664
 4890SOL    HW226304   0.366   4.573  14.008 -2.1861 -0.3919  1.4505
 4891SOL     OW26305   0.569   3.812   8.647 -0.1044  0.0647 -0.2321
 4891SOL    HW126306   0.655   3.837   8.615  0.0110  3.1376  2.5120
 4891SOL    HW226307   0.552   3.744   8.582  0.1958 -1.8216  1.6920
 4892SOL     OW26308   3.268   4.413   5.285 -0.6823 -0.3078  0.1921
 4892SOL    HW126309   3.361   4.437   5.281 -1.0777  1.4404  1.5001
 4892SOL    HW226310   3.241   4.420   5.377  0.6539 -0.6577  0.6139
 4893SOL     OW26311   1.221   0.419   6.041 -0.5217 -0.3902  0.1715
 4893SOL    HW126312   1.214   0.336   6.087 -0.6749 -0.0309  0.7917
 4893SOL    HW226313   1.271   0.388   5.966  0.0024 -0.0966  0.3985
 4894SOL     OW26314   1.280   3.895   5.228  0.3566 -0.6642 -0.2775
 4894SOL    HW126315   1.322   3.846   5.157  1.9326 -0.9177  0.8381
 4894SOL    HW226316   1.320   3.981   5.211  0.5492 -0.8188 -0.6120
 4895SOL     OW26317   1.731   3.301   3.717 -0.3634  0.1981 -0.2991
 4895SOL    HW126318   1.684   3.372   3.759  1.3958  0.9555  0.3872
 4895SOL    HW226319   1.712   3.320   3.626  1.3319  0.3421 -0.6250
 4896SOL     OW26320   0.337   3.953   6.979  0.3868 -0.4673 -0.0940
 4896SOL    HW126321   0.323   4.037   6.936  1.0452 -1.4240 -2.2130
 4896SOL    HW226322   0.370   3.906   6.902  1.6210  1.0918 -0.5168
 4897SOL     OW26323   0.486   1.791   8.228 -0.1370 -0.4676  0.0955
 4897SOL    HW126324   0.581   1.795   8.221 -0.2440  1.3698 -0.2358
 4897SOL    HW226325   0.463   1.716   8.173 -0.0162 -0.4445  0.0137
 4898SOL     OW26326   0.197   1.020   2.105  0.2497  0.2036  0.2005
 4898SOL    HW126327   0.131   1.064   2.053 -0.7672  1.5308  2.6145
 4898SOL    HW226328   0.170   1.032   2.196 -0.4625  1.8075 -0.2209
 4899SOL     OW26329   2.944   0.880   6.647 -0.5205  0.9772  0.3304
 4899SOL    HW126330   3.013   0.910   6.706 -0.9913 -2.0331  2.4244
 4899SOL    HW226331   2.934   0.945   6.578  0.6953 -0.0706 -0.8408
 4900SOL     OW26332   1.574   0.975   9.011 -0.3997 -0.3724 -0.3655
 4900SOL    HW126333   1.576   0.898   9.068 -1.0432 -0.5677 -0.6082
 4900SOL    HW226334   1.629   0.953   8.936  0.4171 -0.2978  0.2092
 4901SOL     OW26335   3.146   1.106   3.901  0.4679  0.3818  0.4379
 4901SOL    HW126336   3.123   1.068   3.816  2.6701  0.7993 -0.3523
 4901SOL    HW226337   3.230   1.148   3.881  0.2794  1.8003  2.6415
 4902SOL     OW26338   4.194   4.095   2.782 -0.0767 -0.0638 -0.3938
 4902SOL    HW126339   4.199   4.005   2.751 -0.9441 -0.7330  1.4362
 4902SOL    HW226340   4.251   4.089   2.858  1.3546 -2.7734 -1.6845
 4903SOL     OW26341   3.075   1.691  13.604  0.6414  0.7512 -0.3608
 4903SOL    HW126342   3.028   1.773  13.615  0.9330  0.6735  1.5325
 4903SOL    HW226343   3.039   1.661  13.521 -0.0791 -0.3294  0.3362
 4904SOL     OW26344   0.781   3.684   5.254 -0.1947 -0.1533 -0.1324
 4904SOL    HW126345   0.877   3.686   5.260 -0.2354 -0.5323  0.6925
 4904SOL    HW226346   0.765   3.593   5.232 -0.6831  0.0887 -0.7777
 4905SOL     OW26347   2.474   1.748   6.190 -0.2628  0.0916 -0.0790
 4905SOL    HW126348   2.508   1.837   6.200 -0.6773  0.1956  0.4159
 4905SOL    HW226349   2.390   1.751   6.237  0.4600  0.4199  1.2191
 4906SOL     OW26350   4.502   2.576   9.008  0.2780  0.1297  0.2501
 4906SOL    HW126351   4.588   2.594   9.048 -0.4058  2.3296  0.6844
 4906SOL    HW226352   4.536   2.541   8.926 -0.2258  0.3850 -0.0641
 4907SOL     OW26353   2.018   0.782  11.320 -0.1467 -0.0750  0.2778
 4907SOL    HW126354   2.030   0.877  11.324 -0.5838  0.1077 -2.5083
 4907SOL    HW226355   2.095   0.757  11.371 -0.7990 -3.2897 -0.3558
 4908SOL     OW26356   4.231   1.319   1.121 -0.3682 -0.2231 -0.7166
 4908SOL    HW126357   4.159   1.355   1.069  0.2735  0.3625 -1.2033
 4908SOL    HW226358   4.257   1.252   1.057 -0.2472  0.7957 -1.7432
 4909SOL     OW26359   1.345   2.195   5.077  0.4457 -0.2629 -0.1936
 4909SOL    HW126360   1.273   2.155   5.028 -0.8876  2.4509 -0.4826
 4909SOL    HW226361   1.371   2.128   5.140 -2.3996 -0.8813  0.3163
 4910SOL     OW26362   0.944   1.542   7.083 -0.1687  0.0504 -0.1376
 4910SOL    HW126363   0.999   1.477   7.039 -0.7473 -1.9628  2.1551
 4910SOL    HW226364   0.995   1.554   7.163 -0.8403 -0.3760  0.3592
 4911SOL     OW26365   2.010   0.838   9.845 -0.2420 -0.4044 -0.2467
 4911SOL    HW126366   1.993   0.925   9.881  3.1628  0.1687  0.0057
 4911SOL    HW226367   2.078   0.806   9.905  0.5381  0.7358 -0.5294
 4912SOL     OW26368   2.982   3.431   5.603 -0.1037  0.0075 -0.3384
 4912SOL    HW126369   3.057   3.405   5.656  0.0048  0.0328 -0.4802
 4912SOL    HW226370   2.998   3.380   5.523  2.2609  1.3370 -0.6992
 4913SOL     OW26371   0.496   2.867   9.273  0.1523  0.2958 -0.1353
 4913SOL    HW126372   0.446   2.910   9.203  0.4764 -0.9530 -1.1436
 4913SOL    HW226373   0.556   2.935   9.301  1.4849 -0.9201 -0.0470
 4914SOL     OW26374   3.533   1.555   8.810 -0.2384 -0.0123  0.1125
 4914SOL    HW126375   3.627   1.571   8.821 -0.0059 -1.6026  0.4661
 4914SOL    HW226376   3.500   1.642   8.787  1.5260  1.7028  3.8953
 4915SOL     OW26377   4.357   0.975   6.204  0.1053  0.6170 -0.0297
 4915SOL    HW126378   4.346   0.964   6.110  1.5928 -1.2564  0.0080
 4915SOL    HW226379   4.422   0.905   6.217 -0.8722 -0.3700 -0.4569
 4916SOL     OW26380   1.575   1.517   8.236  0.1419 -0.0298  0.1313
 4916SOL    HW126381   1.626   1.589   8.199  1.1120 -0.0519  1.4334
 4916SOL    HW226382   1.487   1.550   8.216  0.5253 -0.3599 -2.0759
 4917SOL     OW26383   4.244   2.953   8.637 -0.2292 -0.1997 -0.3230
 4917SOL    HW126384   4.189   2.877   8.656  0.7953 -0.7607  0.4041
 4917SOL    HW226385   4.182   2.998   8.580  1.0740 -1.1145 -2.4688
 4918SOL     OW26386   4.489   2.085   1.543 -0.2586 -0.3399  0.4982
 4918SOL    HW126387   4.541   2.077   1.463  0.9378  3.0654  0.9401
 4918SOL    HW226388   4.548   2.035   1.599 -0.1806 -0.1515  0.5827
 4919SOL     OW26389   3.248   1.206   7.300 -0.1877 -0.1636  0.0986
 4919SOL    HW126390   3.268   1.299   7.285 -1.3313  0.1490  0.4969
 4919SOL    HW226391   3.274   1.165   7.218  0.9192  1.3031 -0.2935
 4920SOL     OW26392   3.641   1.079  17.036 -0.3725  0.3246 -0.3357
 4920SOL    HW126393   3.564   1.075  16.979 -1.2375 -0.2900  0.8782
 4920SOL    HW226394   3.694   1.026  16.976  1.5293  0.9796  0.7861
 4921SOL     OW26395   2.476   4.737   7.031 -0.6115  0.1272  0.6791
 4921SOL    HW126396   2.494   4.699   6.945 -0.3459  0.7950  0.4337
 4921SOL    HW226397   2.404   4.682   7.061 -2.5412  0.6957 -2.8746
 4922SOL     OW26398   1.976   3.947   6.714  0.5568  0.5024  0.0468
 4922SOL    HW126399   1.974   3.956   6.619 -0.7950 -2.9816 -0.2577
 4922SOL    HW226400   1.882   3.950   6.726  0.5327 -4.2705  1.2634
 4923SOL     OW26401   4.525   2.667   2.821  0.2092 -0.7462 -0.3336
 4923SOL    HW126402   4.512   2.576   2.846  0.0019 -1.1391 -1.8268
 4923SOL    HW226403   4.437   2.705   2.824 -0.0809 -1.3577 -0.9280
 4924SOL     OW26404   0.370   1.195   6.383 -0.3983 -0.5187  0.0100
 4924SOL    HW126405   0.371   1.133   6.310  1.6193 -2.0506  1.3150
 4924SOL    HW226406   0.457   1.234   6.394 -0.0846 -1.1524 -0.2495
 4925SOL     OW26407   1.279   1.684   8.780 -0.2451  0.2502  0.0409
 4925SOL    HW126408   1.293   1.662   8.872  0.6011  1.0917  0.1105
 4925SOL    HW226409   1.185   1.698   8.790 -0.5823 -2.1404  0.1729
 4926SOL     OW26410   0.591   2.179  12.146 -0.5990 -0.0789  0.3045
 4926SOL    HW126411   0.620   2.251  12.090 -1.9005 -0.0696 -0.3439
 4926SOL    HW226412   0.573   2.231  12.225  1.6559 -0.9971  1.4305
 4927SOL     OW26413   1.045   4.211   4.352  0.1575  0.0076 -0.4086
 4927SOL    HW126414   0.959   4.170   4.344 -0.0212  0.4484 -0.7450
 4927SOL    HW226415   1.051   4.225   4.446  1.4292  2.0980 -0.8128
 4928SOL     OW26416   3.276   1.120   6.349  0.3151 -0.0008  0.3628
 4928SOL    HW126417   3.266   1.034   6.389  0.3649 -0.0142  0.3467
 4928SOL    HW226418   3.235   1.163   6.424 -0.1443 -1.3909  0.8985
 4929SOL     OW26419   3.828   1.672   9.238 -1.2738 -0.0162 -0.0139
 4929SOL    HW126420   3.817   1.626   9.321 -0.9989  0.2126  0.1463
 4929SOL    HW226421   3.796   1.759   9.260  0.3532  1.2522 -2.6842
 4930SOL     OW26422   0.577   3.883   5.964  0.3194 -0.0315 -0.5122
 4930SOL    HW126423   0.664   3.915   5.939  0.6028  0.4631  1.1073
 4930SOL    HW226424   0.523   3.907   5.888 -0.5485  1.8024  0.6987
 4931SOL     OW26425   2.368   3.922   2.572  0.2216 -0.4094  0.5076
 4931SOL    HW126426   2.319   4.004   2.570  0.1559 -0.4849 -1.5715
 4931SOL    HW226427   2.402   3.919   2.661  2.7853  1.9229 -0.3509
 4932SOL     OW26428   1.083   1.587   7.310  0.2946 -0.2527  0.2153
 4932SOL    HW126429   1.042   1.617   7.392  0.1772 -0.1524  0.1208
 4932SOL    HW226430   1.141   1.516   7.338 -0.6198 -1.8026 -1.8372
 4933SOL     OW26431   3.462   2.556  15.798 -0.0207 -0.6148 -0.0237
 4933SOL    HW126432   3.429   2.551  15.708  0.1185 -0.3183 -0.0910
 4933SOL    HW226433   3.393   2.507  15.843  0.8437 -1.4391  0.3896
 4934SOL     OW26434   3.725   2.433   6.178  0.2404 -0.0243  0.0786
 4934SOL    HW126435   3.686   2.354   6.141 -1.2608  1.2698 -1.1555
 4934SOL    HW226436   3.643   2.481   6.160  0.4891  0.9624  1.5175
 4935SOL     OW26437   2.104   0.606   7.285  0.3397  0.2671  0.2773
 4935SOL    HW126438   2.085   0.518   7.253 -1.5849  0.8336 -0.1559
 4935SOL    HW226439   2.156   0.635   7.210 -0.6274 -0.7538 -0.7776
 4936SOL     OW26440   2.601   0.286  10.083 -0.3543  0.3583 -0.1836
 4936SOL    HW126441   2.589   0.340  10.004 -0.9424  0.4899 -0.0045
 4936SOL    HW226442   2.679   0.239  10.054 -0.1929  1.2883 -1.2532
 4937SOL     OW26443   0.913   4.458   7.320 -0.3014 -0.3447 -0.0384
 4937SOL    HW126444   0.963   4.382   7.291 -1.2117 -1.4585  1.2823
 4937SOL    HW226445   0.862   4.417   7.390 -0.1386  0.1959  0.3897
 4938SOL     OW26446   3.900   2.281   0.635  0.1360 -0.1224  0.1074
 4938SOL    HW126447   3.827   2.267   0.574 -0.0333  4.3509 -0.7408
 4938SOL    HW226448   3.965   2.313   0.572  1.1279 -0.2320  1.0744
 4939SOL     OW26449   1.487   2.936   3.075  0.0230  0.3243 -0.1888
 4939SOL    HW126450   1.392   2.925   3.076  0.2457 -1.4954  0.0467
 4939SOL    HW226451   1.510   2.909   2.986  3.9039 -0.6081  1.0687
 4940SOL     OW26452   4.480   3.996   6.967 -0.2112 -0.2507 -0.0386
 4940SOL    HW126453   4.509   3.915   6.925 -0.4581 -0.5108  0.2833
 4940SOL    HW226454   4.525   4.067   6.922 -1.6204  0.3640 -0.4670
 4941SOL     OW26455   1.478   3.177   5.913 -0.2272  0.6223 -0.0402
 4941SOL    HW126456   1.413   3.110   5.933  0.3928 -0.7437 -2.5419
 4941SOL    HW226457   1.472   3.227   5.994 -2.1508  0.3803 -0.0361
 4942SOL     OW26458   3.773   0.306   6.375 -0.3942  0.2000  0.3938
 4942SOL    HW126459   3.762   0.301   6.280  2.3686 -0.9245  0.1165
 4942SOL    HW226460   3.731   0.392   6.386 -1.2649 -0.4627  2.2134
 4943SOL     OW26461   2.254   3.180   4.017 -0.6025 -0.3656  0.2744
 4943SOL    HW126462   2.206   3.257   4.047  2.0273  1.3768 -0.0678
 4943SOL    HW226463   2.181   3.118   4.006 -1.3764  0.4774  0.6607
 4944SOL     OW26464   2.933   3.394   2.965 -0.1919 -0.1191  0.1979
 4944SOL    HW126465   2.910   3.453   2.894 -0.2515  0.6089  0.8280
 4944SOL    HW226466   3.020   3.358   2.947 -1.2959 -1.7911 -1.7468
 4945SOL     OW26467   1.118   4.657   2.507 -1.0076  0.5740 -0.3524
 4945SOL    HW126468   1.110   4.660   2.411 -0.9285  1.0774 -0.3455
 4945SOL    HW226469   1.164   0.003   2.517 -0.5653  0.2233  0.4718
 4946SOL     OW26470   1.692   3.776   1.837 -0.5298 -0.5466 -0.2670
 4946SOL    HW126471   1.740   3.700   1.872 -1.2340 -0.5137  0.7779
 4946SOL    HW226472   1.755   3.821   1.781 -1.1499  0.4093 -0.1883
 4947SOL     OW26473   1.642   2.006  14.146 -0.6747 -0.1184  0.0471
 4947SOL    HW126474   1.681   2.079  14.194 -2.1373 -0.2530  1.4699
 4947SOL    HW226475   1.599   1.955  14.215 -0.8002 -0.4550 -0.2828
 4948SOL     OW26476   2.652   2.896   0.179  0.0300 -0.0911  0.3702
 4948SOL    HW126477   2.736   2.942   0.174 -0.0452  0.1324  1.1792
 4948SOL    HW226478   2.669   2.835   0.251  1.8578 -0.6198 -0.5336
 4949SOL     OW26479   1.485   0.570   5.251  0.0473 -0.5706 -0.0999
 4949SOL    HW126480   1.570   0.553   5.291 -0.1653 -1.3236  0.0360
 4949SOL    HW226481   1.468   0.489   5.202 -0.3365 -0.8478  0.4956
 4950SOL     OW26482   1.415   0.154   2.927 -0.6909  0.1819  0.7909
 4950SOL    HW126483   1.357   0.221   2.964  0.6992  1.0149  1.4635
 4950SOL    HW226484   1.482   0.145   2.995  1.8773  0.0139 -1.7887
 4951SOL     OW26485   3.363   3.708  11.706 -0.1173  0.6220  0.3265
 4951SOL    HW126486   3.408   3.680  11.627  0.9804  0.9225  0.8507
 4951SOL    HW226487   3.434   3.718  11.769 -0.7016  0.6519  0.9861
 4952SOL     OW26488   3.799   1.251   5.858  0.1370  0.4041  0.0123
 4952SOL    HW126489   3.867   1.189   5.884  0.7382 -0.0814 -2.7562
 4952SOL    HW226490   3.810   1.255   5.763  2.0850 -1.1669  0.1837
 4953SOL     OW26491   0.293   3.285   4.648 -0.7709 -0.6557  0.2720
 4953SOL    HW126492   0.203   3.259   4.669 -1.7259  2.3336 -0.1269
 4953SOL    HW226493   0.323   3.200   4.615 -0.3210 -0.8242  1.1240
 4954SOL     OW26494   2.336   3.849  13.677  0.4294 -0.0938 -0.4132
 4954SOL    HW126495   2.371   3.920  13.730  0.0723 -0.4688  0.3323
 4954SOL    HW226496   2.286   3.799  13.742 -1.2046  0.6706 -1.0637
 4955SOL     OW26497   0.529   1.417  16.824  0.3059 -0.8608  0.2802
 4955SOL    HW126498   0.592   1.347  16.811 -0.0148 -0.9443 -0.8144
 4955SOL    HW226499   0.517   1.425  16.918  2.1008  2.9784  0.1886
 4956SOL     OW26500   2.473   4.368   3.712 -0.5924  0.0567 -0.0868
 4956SOL    HW126501   2.496   4.283   3.750  1.5256  0.6642  0.0201
 4956SOL    HW226502   2.482   4.348   3.619  0.4727  0.8272 -0.1539
 4957SOL     OW26503   1.221   2.905   3.072 -0.7063  0.5666  0.0915
 4957SOL    HW126504   1.143   2.922   3.019 -0.1968  2.5618 -0.0138
 4957SOL    HW226505   1.185   2.825   3.111 -2.1188  1.2374  0.1480
 4958SOL     OW26506   0.157   2.003   3.646 -0.6658 -0.2827 -0.2126
 4958SOL    HW126507   0.078   2.039   3.603 -0.3328 -0.8735 -1.3211
 4958SOL    HW226508   0.138   1.910   3.631  1.0782 -0.4628 -1.2557
 4959SOL     OW26509   4.246   4.663   8.366 -0.0697  0.4099 -0.1516
 4959SOL    HW126510   4.207   4.720   8.432  1.3212 -0.1627  1.1837
 4959SOL    HW226511   4.258   4.735   8.304  0.1055  1.9404  1.6522
 4960SOL     OW26512   3.399   4.672   2.710  0.3968  0.8026 -0.0412
 4960SOL    HW126513   3.316   4.655   2.665 -0.0844 -0.2106  1.2318
 4960SOL    HW226514   3.428   4.584   2.736  2.1947  1.6290  0.7201
 4961SOL     OW26515   0.671   1.492   7.027  0.2923  0.0865  0.7519
 4961SOL    HW126516   0.764   1.511   7.046  0.6003  0.5184 -1.1732
 4961SOL    HW226517   0.669   1.519   6.935 -2.1237  0.6029  0.9663
 4962SOL     OW26518   0.846   4.613  11.772  0.2280 -0.0880 -0.1051
 4962SOL    HW126519   0.808   4.664  11.700 -0.0716  0.3859  0.3952
 4962SOL    HW226520   0.899   4.552  11.720 -0.7670 -0.9600 -0.0863
 4963SOL     OW26521   3.240   4.038   4.999 -0.0897  0.5350  0.2780
 4963SOL    HW126522   3.213   4.124   5.033  0.6046  0.8638  0.0137
 4963SOL    HW226523   3.168   3.984   5.030  0.4897  1.8657  3.9591
 4964SOL     OW26524   4.695   4.105   5.294  0.2928 -0.4142  0.2488
 4964SOL    HW126525   4.648   4.053   5.359 -1.9374  1.5898  0.2321
 4964SOL    HW226526   0.037   4.056   5.273 -0.5851 -2.0399  0.7458
 4965SOL     OW26527   2.907   3.802   2.484  0.1634  0.1008  0.4101
 4965SOL    HW126528   2.987   3.755   2.461 -1.3504 -2.5098  0.4958
 4965SOL    HW226529   2.839   3.752   2.438 -0.0830 -0.1679  1.0738
 4966SOL     OW26530   3.554   3.180   5.149 -0.1419  0.1502  0.1555
 4966SOL    HW126531   3.592   3.241   5.212 -0.4583  0.7119 -0.1994
 4966SOL    HW226532   3.472   3.152   5.191  0.0575 -3.9350 -2.1913
 4967SOL     OW26533   1.546   0.720  12.782 -0.3215 -0.0359 -0.0804
 4967SOL    HW126534   1.468   0.753  12.737 -0.2277 -0.0840 -0.2816
 4967SOL    HW226535   1.566   0.786  12.848 -0.6346  0.9707 -0.9960
 4968SOL     OW26536   0.741   0.955   4.998  0.3630  0.6396 -0.2037
 4968SOL    HW126537   0.835   0.968   4.993  0.7190 -1.7295  0.1841
 4968SOL    HW226538   0.710   0.978   4.911  0.3743  0.2981 -0.2991
 4969SOL     OW26539   2.699   1.381  11.445  0.5263 -0.4159  0.2609
 4969SOL    HW126540   2.648   1.324  11.501 -0.0760 -1.6594 -1.5537
 4969SOL    HW226541   2.720   1.451  11.508 -2.7138 -0.0893  0.9679
 4970SOL     OW26542   2.301   2.156   1.878  0.9039  0.3905 -0.1095
 4970SOL    HW126543   2.246   2.211   1.933 -0.0200 -0.0942 -0.5458
 4970SOL    HW226544   2.384   2.164   1.927  0.0947 -1.6813  1.6017
 4971SOL     OW26545   1.803   4.074   5.799  0.1870  0.2286  0.0328
 4971SOL    HW126546   1.892   4.086   5.831 -0.2238  1.0998  0.8532
 4971SOL    HW226547   1.755   4.120   5.868  0.0680  0.9472 -0.5242
 4972SOL     OW26548   2.462   1.466  16.344 -0.3427 -0.2767  0.1329
 4972SOL    HW126549   2.463   1.376  16.313 -1.8289 -0.7735  1.4829
 4972SOL    HW226550   2.447   1.510  16.260 -1.7777 -1.9691 -0.5035
 4973SOL     OW26551   0.307   4.235   3.841 -0.4903 -0.1850 -0.4826
 4973SOL    HW126552   0.245   4.198   3.778 -1.5932  1.0725 -0.1356
 4973SOL    HW226553   0.249   4.233   3.918 -1.4093 -4.8183 -1.2794
 4974SOL     OW26554   1.903   1.775   4.895  1.0047  0.4281 -0.2148
 4974SOL    HW126555   1.811   1.797   4.908  0.8777 -0.6777  0.8270
 4974SOL    HW226556   1.893   1.695   4.843 -1.0689  0.8589 -0.4951
 4975SOL     OW26557   0.558   2.262   2.683  0.4522  0.3264 -0.2022
 4975SOL    HW126558   0.502   2.292   2.611 -0.6043  1.4355  1.1042
 4975SOL    HW226559   0.557   2.338   2.741  1.5369 -0.2838  0.6137
 4976SOL     OW26560   0.492   3.050   3.417  0.0330  0.7770  0.0083
 4976SOL    HW126561   0.563   3.112   3.435  0.2634  0.2092  1.0510
 4976SOL    HW226562   0.514   2.990   3.345 -2.1604 -0.2960  0.2377
 4977SOL     OW26563   4.562   0.799   2.126 -0.7495  0.2221  0.1312
 4977SOL    HW126564   4.566   0.885   2.167  0.6770  0.7248 -1.0602
 4977SOL    HW226565   4.554   0.744   2.203 -2.5854  3.0066  1.9014
 4978SOL     OW26566   4.731   4.286   1.145 -0.8434 -0.1613 -0.4819
 4978SOL    HW126567   4.696   4.209   1.100 -2.0498  0.2806 -0.3128
 4978SOL    HW226568   0.085   4.282   1.118 -1.0974  1.2153 -1.5912
 4979SOL     OW26569   3.042   3.147  11.285 -0.3008 -0.5458 -0.4121
 4979SOL    HW126570   3.112   3.208  11.262  0.0782 -0.6070  0.5736
 4979SOL    HW226571   2.985   3.200  11.341 -2.4049 -0.2664 -2.8050
 4980SOL     OW26572   4.109   4.229  12.978  0.1785  0.2879  0.5390
 4980SOL    HW126573   4.183   4.226  13.038  0.2335 -1.3048  0.3767
 4980SOL    HW226574   4.057   4.297  13.022  2.5537  0.2273  3.4351
 4981SOL     OW26575   4.368   4.271  10.932  0.5656  0.4463 -0.2583
 4981SOL    HW126576   4.436   4.278  10.866  0.8007 -0.1983 -0.0915
 4981SOL    HW226577   4.417   4.229  11.003 -1.7018  0.9910  1.6121
 4982SOL     OW26578   3.102   2.500   2.817  0.1685 -0.4175  0.1032
 4982SOL    HW126579   3.067   2.586   2.794 -5.2241 -2.1408  1.8982
 4982SOL    HW226580   3.023   2.455   2.788  0.7518 -1.0268 -0.5291
 4983SOL     OW26581   2.657   0.704   3.274 -0.0792 -0.4514 -0.3510
 4983SOL    HW126582   2.570   0.730   3.307  0.4503  0.1532  0.5715
 4983SOL    HW226583   2.630   0.663   3.192  0.4750  0.8238 -1.1601
 4984SOL     OW26584   1.111   2.311   9.407 -0.3562  0.1228  0.2642
 4984SOL    HW126585   1.186   2.280   9.457 -0.3728 -1.2522 -0.5641
 4984SOL    HW226586   1.058   2.232   9.398 -2.8318  1.8522 -0.5958
 4985SOL     OW26587   2.252   2.356   2.719  0.2944  0.0698 -0.4145
 4985SOL    HW126588   2.282   2.270   2.750 -1.5561 -0.4710 -0.1437
 4985SOL    HW226589   2.173   2.334   2.671 -0.6688  1.0948  0.7032
 4986SOL     OW26590   3.226   0.501   1.827  0.1936  0.3627 -0.3207
 4986SOL    HW126591   3.321   0.506   1.822  0.1547  1.7146  0.4885
 4986SOL    HW226592   3.208   0.468   1.915 -0.5821 -1.6986 -1.2349
 4987SOL     OW26593   3.735   1.667  10.833  0.3920 -0.0187  0.2090
 4987SOL    HW126594   3.654   1.705  10.799  0.9202  1.5628  0.6941
 4987SOL    HW226595   3.776   1.685  10.749 -0.5382  0.0586 -0.2318
 4988SOL     OW26596   0.449   0.259   3.811 -0.5314  0.4486 -0.0275
 4988SOL    HW126597   0.500   0.258   3.892 -2.0141 -1.8531  0.8834
 4988SOL    HW226598   0.484   0.341   3.776  0.3162 -0.0436 -0.3290
 4989SOL     OW26599   1.173   1.933   1.661 -0.0997 -0.6352 -0.1072
 4989SOL    HW126600   1.110   1.913   1.730  0.3819  1.0721  0.8514
 4989SOL    HW226601   1.117   1.946   1.585  1.0129 -0.2139 -0.8607
 4990SOL     OW26602   4.453   0.844   4.445  0.8893  0.2062 -0.2881
 4990SOL    HW126603   4.359   0.838   4.463  1.0138  0.8623  0.5486
 4990SOL    HW226604   4.473   0.767   4.390  4.4693 -0.1194  1.4781
 4991SOL     OW26605   1.223   3.247  11.322 -0.0386  0.1229 -0.8405
 4991SOL    HW126606   1.272   3.167  11.307 -2.0926 -0.7899 -2.7515
 4991SOL    HW226607   1.295   3.309  11.327  1.6357 -1.9592  0.5643
 4992SOL     OW26608   2.795   0.445  14.271  0.2204  0.3088  0.1960
 4992SOL    HW126609   2.843   0.478  14.348  0.3830  2.5117 -0.8490
 4992SOL    HW226610   2.716   0.426  14.321  0.5536 -0.1882  0.5365
 4993SOL     OW26611   1.584   1.513   3.468 -0.0498 -0.4160 -0.1281
 4993SOL    HW126612   1.589   1.523   3.563  1.1968 -0.1706 -0.2252
 4993SOL    HW226613   1.498   1.552   3.450  0.6142  2.0306  2.0664
 4994SOL     OW26614   2.286   3.995   2.252  0.8259 -0.2494  0.6358
 4994SOL    HW126615   2.228   3.920   2.262 -0.4412  1.0870  3.2492
 4994SOL    HW226616   2.280   4.035   2.338 -0.9386 -1.8715  1.2699
 4995SOL     OW26617   3.080   1.592   9.257 -0.5110  0.1611 -0.5138
 4995SOL    HW126618   3.024   1.547   9.194 -1.1273  0.6137 -0.2867
 4995SOL    HW226619   3.119   1.659   9.200 -0.3105  0.0295 -0.5337
 4996SOL     OW26620   4.510   2.224   5.842 -0.0265  0.0760 -0.2423
 4996SOL    HW126621   4.525   2.302   5.789 -0.7533  0.4375  0.0820
 4996SOL    HW226622   4.498   2.260   5.930 -1.3030  2.7213 -1.5109
 4997SOL     OW26623   3.136   0.296   6.645  0.6449 -0.2435  0.7081
 4997SOL    HW126624   3.094   0.373   6.683 -0.0246  0.0668 -0.6825
 4997SOL    HW226625   3.135   0.230   6.715  0.0598 -0.1606  0.7766
 4998SOL     OW26626   1.806   2.530   0.231  0.1368 -0.0822  0.2330
 4998SOL    HW126627   1.766   2.595   0.172 -0.2226  1.0792  1.7487
 4998SOL    HW226628   1.728   2.495   0.273 -0.9797 -0.5500 -2.2003
 4999SOL     OW26629   2.547   3.979  10.695  0.3321 -0.4501 -0.2250
 4999SOL    HW126630   2.525   4.010  10.783 -2.6807 -1.8195 -0.5155
 4999SOL    HW226631   2.478   3.918  10.669 -1.2464  1.9973 -1.6578
 5000SOL     OW26632   1.567   4.401   3.461  0.0506 -0.0115 -0.1269
 5000SOL    HW126633   1.626   4.370   3.529 -2.2408  0.1775  1.9575
 5000SOL    HW226634   1.510   4.326   3.444 -0.5613  0.4214 -0.0185
 5001SOL     OW26635   0.233   3.973   0.464 -0.3869 -0.5264  0.8215
 5001SOL    HW126636   0.232   4.012   0.552 -1.5857  3.2484 -0.8768
 5001SOL    HW226637   0.163   4.025   0.424  0.0097  1.2508  2.4564
 5002SOL     OW26638   1.112   3.118  11.594 -0.1648 -0.0066  0.0401
 5002SOL    HW126639   1.019   3.095  11.581 -0.2201 -0.5716  1.5155
 5002SOL    HW226640   1.136   3.154  11.508  1.2609 -3.1076 -0.8333
 5003SOL     OW26641   4.553   4.334   3.883  0.1662  0.0465 -0.1112
 5003SOL    HW126642   4.624   4.382   3.841  0.8463 -1.3406 -0.5699
 5003SOL    HW226643   4.608   4.262   3.914  0.8547  0.5404 -0.2008
 5004SOL     OW26644   0.809   1.609   8.570  0.2992  0.6011  0.2764
 5004SOL    HW126645   0.774   1.571   8.489  1.6294 -1.1646  0.5125
 5004SOL    HW226646   0.764   1.564   8.642 -3.7667  1.3724 -1.8013
 5005SOL     OW26647   2.889   1.630  13.292  0.7369 -0.7900 -0.0871
 5005SOL    HW126648   2.966   1.687  13.283  0.9436 -1.1050 -0.2907
 5005SOL    HW226649   2.918   1.556  13.239 -1.2432 -1.6225  0.0091
 5006SOL     OW26650   3.756   4.357   7.469 -0.1969  0.0674 -0.3284
 5006SOL    HW126651   3.817   4.331   7.538 -1.3371  0.0756  0.6801
 5006SOL    HW226652   3.813   4.340   7.394  0.7721  3.6650 -0.3816
 5007SOL     OW26653   0.495   2.013  16.538  0.0506 -0.2562  0.0916
 5007SOL    HW126654   0.436   1.972  16.601  1.2434 -2.0130  0.0655
 5007SOL    HW226655   0.503   1.945  16.470 -0.4536  1.6525 -1.8823
 5008SOL     OW26656   0.477   2.187   1.797 -0.0378 -0.3560  0.7542
 5008SOL    HW126657   0.397   2.238   1.803  0.1719  0.0768 -0.1335
 5008SOL    HW226658   0.543   2.253   1.777  1.3542 -2.1716 -0.6423
 5009SOL     OW26659   4.638   2.003   8.132 -0.2804 -0.1618  0.1241
 5009SOL    HW126660   4.732   1.988   8.148 -0.9935  0.9178  5.2197
 5009SOL    HW226661   4.640   2.096   8.154  0.6279 -0.2220  0.3066
 5010SOL     OW26662   4.583   2.883   4.400  0.0950 -0.1452  0.2115
 5010SOL    HW126663   4.520   2.955   4.397  1.2829  0.8669 -0.5124
 5010SOL    HW226664   4.549   2.862   4.487  2.0922  1.3340  1.3368
 5011SOL     OW26665   3.798   3.140  13.736 -0.1055  0.2094  0.2190
 5011SOL    HW126666   3.780   3.211  13.797 -0.1901  1.6923 -1.5429
 5011SOL    HW226667   3.810   3.065  13.794 -1.1529  1.0746  1.5693
 5012SOL     OW26668   2.688   1.080   7.821  0.6061  0.1749  0.3226
 5012SOL    HW126669   2.775   1.046   7.839  0.5025 -0.0708  0.3606
 5012SOL    HW226670   2.681   1.154   7.881  1.8398  0.7427 -0.2385
 5013SOL     OW26671   3.478   2.517   4.212 -0.5529  0.3061  0.5706
 5013SOL    HW126672   3.569   2.489   4.211 -1.0306 -1.1483 -1.6659
 5013SOL    HW226673   3.440   2.471   4.137 -0.7420 -0.5132  1.1709
 5014SOL     OW26674   2.324   2.189   3.841 -0.1202 -0.0356  0.2531
 5014SOL    HW126675   2.279   2.254   3.895  0.7418  0.1979  0.6860
 5014SOL    HW226676   2.402   2.173   3.894  0.7311  2.4194 -0.2588
 5015SOL     OW26677   1.573   3.241   1.613  0.3583  0.2294 -0.1807
 5015SOL    HW126678   1.610   3.329   1.624  0.0688  0.3648 -0.2983
 5015SOL    HW226679   1.620   3.202   1.687 -1.6186 -0.0980  0.8893
 5016SOL     OW26680   0.137   3.410  16.608 -0.3571  0.0347  0.7488
 5016SOL    HW126681   0.158   3.360  16.687  2.6434  1.1174  0.6200
 5016SOL    HW226682   0.106   3.338  16.554 -0.9295 -1.4910  3.1025
 5017SOL     OW26683   0.817   3.981   9.844 -0.5783  0.5441 -0.3966
 5017SOL    HW126684   0.789   3.983   9.935 -0.5419  0.8187 -0.3911
 5017SOL    HW226685   0.912   3.982   9.852 -0.3692  0.9161 -2.9155
 5018SOL     OW26686   3.405   2.940   3.463 -0.0725  0.0650  0.2097
 5018SOL    HW126687   3.459   3.003   3.416 -0.5426  1.0329  0.9712
 5018SOL    HW226688   3.360   2.985   3.535  1.7163  1.3648  0.5029
 5019SOL     OW26689   2.908   3.312  17.129 -0.7651 -0.0722 -0.0462
 5019SOL    HW126690   2.889   3.256  17.204 -1.2898 -1.0392 -0.9031
 5019SOL    HW226691   2.817   3.321  17.099 -0.9156  2.3817  1.1382
 5020SOL     OW26692   1.782   2.492   1.500 -0.1297 -0.4926  0.1586
 5020SOL    HW126693   1.727   2.444   1.562 -0.4556 -0.0809  0.1896
 5020SOL    HW226694   1.867   2.448   1.511  0.5574  0.7568 -0.1270
 5021SOL     OW26695   0.578   1.621   9.055  0.7283  0.1168  0.6809
 5021SOL    HW126696   0.576   1.710   9.019 -0.8765 -0.1554  0.1140
 5021SOL    HW226697   0.551   1.648   9.144  0.9485 -0.5826  0.9570
 5022SOL     OW26698   0.790   0.050   5.731  0.1481  0.1425  0.2718
 5022SOL    HW126699   0.734   0.065   5.807  0.1772  3.6895 -0.4033
 5022SOL    HW226700   0.828   0.136   5.715 -1.3143  0.4242 -1.6757
 5023SOL     OW26701   0.819   0.584   7.446  0.4791  0.1140 -0.2038
 5023SOL    HW126702   0.795   0.532   7.523 -0.5695  1.1899  0.2151
 5023SOL    HW226703   0.749   0.555   7.387  1.1636 -0.8006 -0.5508
 5024SOL     OW26704   3.103   3.839   8.452 -1.1238 -0.7563 -0.2740
 5024SOL    HW126705   3.192   3.807   8.432 -0.2776  0.9105  0.8611
 5024SOL    HW226706   3.101   3.923   8.406 -0.3164 -0.5155  0.1316
 5025SOL     OW26707   2.194   0.720  15.458 -0.0157  0.5778  0.0619
 5025SOL    HW126708   2.268   0.688  15.509  0.7840  0.0543 -1.4270
 5025SOL    HW226709   2.198   0.813  15.480 -1.5545  0.8689 -0.9273
 5026SOL     OW26710   2.525   1.805  13.615 -0.3399  0.4227  0.0794
 5026SOL    HW126711   2.601   1.821  13.671 -2.0865  0.7772  2.3114
 5026SOL    HW226712   2.562   1.742  13.553 -1.9877  2.3686 -2.8919
 5027SOL     OW26713   0.164   0.810   2.703 -0.1768 -0.7911  0.5227
 5027SOL    HW126714   0.155   0.820   2.797  0.6182  0.7268  0.4334
 5027SOL    HW226715   0.138   0.719   2.689 -0.0496 -0.7530  0.0031
 5028SOL     OW26716   1.698   4.244   7.767  0.0868 -0.2319  0.2859
 5028SOL    HW126717   1.758   4.319   7.770 -0.1013 -0.1600  2.4795
 5028SOL    HW226718   1.732   4.181   7.831  0.7693  0.0674  0.2210
 5029SOL     OW26719   3.028   2.537   7.891  0.2484  0.0145  0.4664
 5029SOL    HW126720   3.096   2.531   7.957  0.2251  0.0648  0.4950
 5029SOL    HW226721   3.005   2.630   7.891 -0.5787 -0.1848 -0.3897
 5030SOL     OW26722   1.735   3.615  11.008  0.1313 -0.0777 -0.1594
 5030SOL    HW126723   1.806   3.579  11.061  2.0232  2.5309 -0.8549
 5030SOL    HW226724   1.713   3.699  11.049 -0.4387 -1.4332  2.2722
 5031SOL     OW26725   1.822   4.698   7.436  0.6871  0.8613 -0.0773
 5031SOL    HW126726   1.908   4.701   7.394 -0.3556  1.9280 -2.1598
 5031SOL    HW226727   1.852   4.724   7.523  1.9737  1.1098 -0.5918
 5032SOL     OW26728   0.249   3.010   3.142 -0.7119 -0.8443  0.3049
 5032SOL    HW126729   0.325   2.974   3.187 -1.1519 -1.4635  0.5459
 5032SOL    HW226730   0.179   3.014   3.207 -1.1460  3.3275 -0.3858
 5033SOL     OW26731   4.524   1.342  12.337  0.2101 -0.3121 -0.1932
 5033SOL    HW126732   4.455   1.397  12.299  0.2754  0.2191  0.4676
 5033SOL    HW226733   4.503   1.254  12.304  0.4144 -0.7493  0.8527
 5034SOL     OW26734   0.107   0.499   5.830 -0.1810 -0.3504  0.0191
 5034SOL    HW126735   0.078   0.408   5.830 -0.6252 -0.2083 -1.1898
 5034SOL    HW226736   0.138   0.516   5.742  0.3724  0.6832  0.4057
 5035SOL     OW26737   1.652   0.665   2.278 -0.0316  0.2806 -0.0582
 5035SOL    HW126738   1.645   0.613   2.198 -0.6072  0.2846 -0.0164
 5035SOL    HW226739   1.716   0.609   2.321 -0.7889 -1.1072 -0.7449
 5036SOL     OW26740   1.634   2.460   7.585 -0.3137  0.5609 -0.2185
 5036SOL    HW126741   1.676   2.376   7.569  0.3622  0.7785  0.3835
 5036SOL    HW226742   1.693   2.500   7.650  3.5818 -2.4138 -1.9238
 5037SOL     OW26743   2.618   1.240  13.593  0.0611  0.2101  0.0935
 5037SOL    HW126744   2.623   1.175  13.522  1.2199 -1.0310  1.3222
 5037SOL    HW226745   2.636   1.321  13.545 -2.2669  1.8992  2.0514
 5038SOL     OW26746   2.749   2.073  12.279 -0.0060  0.4129  0.1830
 5038SOL    HW126747   2.757   2.157  12.233  0.0847 -0.2423 -1.0051
 5038SOL    HW226748   2.808   2.015  12.231 -2.5750  0.2650 -2.7726
 5039SOL     OW26749   1.741   0.630   4.901  0.0546  0.0546 -0.1489
 5039SOL    HW126750   1.711   0.710   4.859 -0.3372  0.4393  0.8626
 5039SOL    HW226751   1.815   0.671   4.947 -0.9501  1.7116 -0.0299
 5040SOL     OW26752   3.601   1.850   7.806  0.1661 -0.0071 -0.0305
 5040SOL    HW126753   3.580   1.938   7.837  0.3255  0.4802 -1.2886
 5040SOL    HW226754   3.573   1.790   7.875  0.2915 -0.3953 -0.3165
 5041SOL     OW26755   2.974   2.588   0.559  0.4786  0.5251 -0.4119
 5041SOL    HW126756   2.895   2.572   0.611  2.2034 -0.5199  1.8743
 5041SOL    HW226757   2.956   2.537   0.480 -1.2579 -0.2675  0.5039
 5042SOL     OW26758   2.827   2.284   5.436  0.3062 -0.2656 -0.0922
 5042SOL    HW126759   2.736   2.255   5.437  0.3321 -0.3763 -0.5495
 5042SOL    HW226760   2.880   2.215   5.476  2.3659  1.3526  0.0060
 5043SOL     OW26761   2.397   1.586   4.604 -0.2850 -0.1749 -0.3977
 5043SOL    HW126762   2.411   1.660   4.663 -0.3351 -0.4788 -0.0070
 5043SOL    HW226763   2.307   1.607   4.580 -0.1002  1.1454  0.0293
 5044SOL     OW26764   0.812   1.282   7.270  0.9092  0.6491  0.5578
 5044SOL    HW126765   0.828   1.192   7.297 -0.3595  0.4719  0.7403
 5044SOL    HW226766   0.866   1.331   7.331  2.2326  0.4577 -0.4670
 5045SOL     OW26767   0.076   0.720  12.034  0.0623 -0.0744  0.3155
 5045SOL    HW126768   0.109   0.633  12.011  0.0790  0.1537 -0.5062
 5045SOL    HW226769   0.150   0.775  12.009 -0.4308  0.2519 -0.4257
 5046SOL     OW26770   4.648   4.230  11.405 -0.1279  0.2949  0.3951
 5046SOL    HW126771   4.713   4.264  11.343 -0.6710  0.0279 -0.3271
 5046SOL    HW226772   4.568   4.283  11.399  1.0161  2.0678  0.8332
 5047SOL     OW26773   0.260   4.349   5.906  0.9252  0.4190  0.0167
 5047SOL    HW126774   0.311   4.341   5.825 -0.4833 -2.1231 -0.6178
 5047SOL    HW226775   0.179   4.300   5.890  0.2879  1.3463  0.3960
 5048SOL     OW26776   1.690   1.758   8.063  0.3880  0.2395  0.4018
 5048SOL    HW126777   1.750   1.804   8.004 -2.5225  1.6431 -1.4618
 5048SOL    HW226778   1.623   1.827   8.058  0.8522  0.6164 -0.7084
 5049SOL     OW26779   4.475   3.028   3.798 -0.1579 -0.3719  0.3618
 5049SOL    HW126780   4.571   3.028   3.805 -0.0800  1.2271 -0.6960
 5049SOL    HW226781   4.456   3.050   3.707 -2.0169 -2.7867  0.1765
 5050SOL     OW26782   0.746   1.838  14.382  0.4512  0.3100  0.1683
 5050SOL    HW126783   0.822   1.796  14.422  1.9490  2.4839 -0.3657
 5050SOL    HW226784   0.791   1.907  14.333 -1.0382  1.8839  1.0275
 5051SOL     OW26785   2.701   2.101  17.697 -0.0574 -0.7752 -0.0729
 5051SOL    HW126786   2.747   2.047  17.633  1.0695 -0.4917  0.5024
 5051SOL    HW226787   2.648   2.150  17.635  3.7542  3.6532  0.1435
 5052SOL     OW26788   1.463   4.021   3.645  0.1064  0.1787 -1.0495
 5052SOL    HW126789   1.402   3.966   3.694  0.7949  0.5827  0.2501
 5052SOL    HW226790   1.544   4.021   3.695  0.2150 -0.1079 -1.2210
 5053SOL     OW26791   1.487   1.836   3.192 -0.3350  0.4472 -0.2888
 5053SOL    HW126792   1.440   1.807   3.269 -0.9688  1.9366 -0.1132
 5053SOL    HW226793   1.544   1.908   3.221  1.9792 -0.7923 -1.7151
 5054SOL     OW26794   0.583   3.676   0.511 -0.1241  0.1265  0.4974
 5054SOL    HW126795   0.648   3.685   0.441 -1.2498 -0.8591 -0.6758
 5054SOL    HW226796   0.587   3.581   0.526  0.9138  0.5422  2.8417
 5055SOL     OW26797   1.779   3.344   1.225 -0.1546  0.2887 -0.5350
 5055SOL    HW126798   1.752   3.254   1.241  1.6795 -0.1559  0.1444
 5055SOL    HW226799   1.703   3.402   1.222  0.5494  1.2518  0.1782
 5056SOL     OW26800   1.318   0.986  12.453 -0.2542 -0.5000  0.4895
 5056SOL    HW126801   1.413   0.978  12.443 -0.2546  1.1742 -0.7744
 5056SOL    HW226802   1.287   0.899  12.429 -0.6352  0.5609 -2.9108
 5057SOL     OW26803   2.269   3.688  12.889  0.2140  0.2379 -0.1513
 5057SOL    HW126804   2.330   3.629  12.932 -1.6619 -1.4097  0.2475
 5057SOL    HW226805   2.327   3.761  12.867  0.4714  0.0645 -0.0526
 5058SOL     OW26806   0.905   4.341   3.016  0.8266  0.0894  0.2506
 5058SOL    HW126807   0.815   4.310   3.023  0.0449  2.1020 -0.8989
 5058SOL    HW226808   0.901   4.391   3.097  4.3857  2.4635 -1.0105
 5059SOL     OW26809   0.924   3.327   4.121 -0.1741 -0.2802 -0.0080
 5059SOL    HW126810   0.835   3.349   4.094 -0.4483 -1.2700  0.0922
 5059SOL    HW226811   0.943   3.366   4.206 -1.6296  1.0668 -0.3040
 5060SOL     OW26812   2.029   2.633  12.752  0.8423 -0.4392 -0.1254
 5060SOL    HW126813   2.098   2.639  12.818 -0.1832 -2.5455  1.1238
 5060SOL    HW226814   2.067   2.570  12.691 -2.5535  0.3666 -3.1110
 5061SOL     OW26815   0.339   2.932   7.957 -0.2051  0.3127  0.5709
 5061SOL    HW126816   0.307   2.844   7.979  1.8325  0.1167  2.7004
 5061SOL    HW226817   0.382   2.962   8.037 -0.5124  0.3157  0.7344
 5062SOL     OW26818   4.305   2.233   4.004  0.5577 -0.0023  0.8142
 5062SOL    HW126819   4.269   2.150   3.972  0.8574 -0.2208  1.0409
 5062SOL    HW226820   4.223   2.283   4.008  0.5419  0.0876 -0.6567
 5063SOL     OW26821   0.606   3.436   7.300  0.3223  0.5223  0.0808
 5063SOL    HW126822   0.542   3.364   7.299 -0.7253  1.4608 -0.8758
 5063SOL    HW226823   0.685   3.383   7.289 -0.4665 -0.3245 -1.5069
 5064SOL     OW26824   3.055   3.782   3.938 -0.1082  0.3530  0.1735
 5064SOL    HW126825   3.002   3.704   3.927 -1.7570  1.4077  0.6790
 5064SOL    HW226826   3.002   3.832   4.000 -0.2810  1.4356 -0.8461
 5065SOL     OW26827   2.079   0.937   8.367  0.6252  0.2354  0.6123
 5065SOL    HW126828   2.013   0.918   8.434 -0.2846 -0.9011 -0.6117
 5065SOL    HW226829   2.092   0.849   8.333  1.6798 -0.1307  1.9574
 5066SOL     OW26830   3.138   2.478   7.395 -0.0179  0.2160 -0.1784
 5066SOL    HW126831   3.055   2.495   7.439  0.8809  1.0710  1.1740
 5066SOL    HW226832   3.184   2.417   7.453 -1.4877  0.1941  0.9688
 5067SOL     OW26833   3.843   3.662   3.902 -0.3072 -0.2422  0.0073
 5067SOL    HW126834   3.850   3.740   3.847 -2.1308  1.2249  1.8424
 5067SOL    HW226835   3.920   3.666   3.958  0.7262  0.0965 -1.4470
 5068SOL     OW26836   1.267   3.037   3.909 -0.1419 -0.2254 -0.0909
 5068SOL    HW126837   1.198   3.040   3.974 -1.6436  0.6228 -1.7116
 5068SOL    HW226838   1.237   3.076   3.826  0.8221  1.5328  0.3981
 5069SOL     OW26839   0.027   0.067   1.575 -0.2489  0.3468  0.7084
 5069SOL    HW126840   0.028   0.006   1.501  1.8111  1.1205  0.1146
 5069SOL    HW226841   4.735   0.002   1.638  2.2143 -0.2956  1.1910
 5070SOL     OW26842   1.510   0.153  11.972  0.0811  0.6675  0.1488
 5070SOL    HW126843   1.463   0.113  12.044 -1.4091  1.8256 -0.1832
 5070SOL    HW226844   1.600   0.137  12.002 -0.0388  0.5581  0.4413
 5071SOL     OW26845   3.106   1.349   1.269  0.1957  0.5998  0.3099
 5071SOL    HW126846   3.020   1.340   1.310  0.5526  0.4612  1.0395
 5071SOL    HW226847   3.171   1.343   1.339  1.3039  1.1177 -0.6758
 5072SOL     OW26848   2.614   1.413   4.046 -0.6280 -0.1709  0.3158
 5072SOL    HW126849   2.676   1.345   4.073 -1.0346  0.2658  2.3754
 5072SOL    HW226850   2.544   1.365   4.002 -0.8537  0.1822  0.2911
 5073SOL     OW26851   4.367   0.935   7.554 -0.2133  0.0444  0.0169
 5073SOL    HW126852   4.439   0.941   7.617 -0.4181  1.0239  0.1618
 5073SOL    HW226853   4.414   0.864   7.511  1.0161 -1.0676  3.2159
 5074SOL     OW26854   2.557   1.648   7.800  0.4467 -0.4163 -0.6699
 5074SOL    HW126855   2.538   1.604   7.717  0.2263  0.2729 -0.9805
 5074SOL    HW226856   2.622   1.710   7.767  0.0815  1.2541  1.7492
 5075SOL     OW26857   4.626   0.677   6.813 -0.2838 -0.2995  0.2167
 5075SOL    HW126858   4.536   0.659   6.788  0.3745 -0.4421 -2.0239
 5075SOL    HW226859   4.630   0.767   6.781 -0.5068  0.3695  2.0289
 5076SOL     OW26860   3.931   2.702  12.235 -0.6153 -0.3059  0.0655
 5076SOL    HW126861   3.956   2.754  12.311 -0.3243 -0.2005 -0.1023
 5076SOL    HW226862   4.020   2.698  12.200  0.9643  3.4762  3.6882
 5077SOL     OW26863   4.503   2.986  15.321 -0.1606 -0.4058  0.5866
 5077SOL    HW126864   4.541   2.958  15.405  0.8386 -1.8049 -0.3325
 5077SOL    HW226865   4.468   2.908  15.279 -0.6884 -0.4670  1.1418
 5078SOL     OW26866   4.140   0.436   6.003 -0.1747 -0.4685  0.2662
 5078SOL    HW126867   4.174   0.431   5.914  1.9962 -1.1550  1.1208
 5078SOL    HW226868   4.055   0.394   5.987  1.2000 -3.7337  1.5494
 5079SOL     OW26869   2.243   4.411  16.484  0.4175 -0.4835  0.1252
 5079SOL    HW126870   2.150   4.391  16.480 -0.0157  1.3451  0.9764
 5079SOL    HW226871   2.230   4.505  16.486  0.0591 -0.5107 -1.5748
 5080SOL     OW26872   2.733   2.213  15.164 -0.0551  0.0318 -0.5350
 5080SOL    HW126873   2.723   2.288  15.222 -1.0000 -2.6059  2.6951
 5080SOL    HW226874   2.800   2.162  15.210 -0.8307 -1.8452 -1.4805
 5081SOL     OW26875   2.595   4.351  12.156 -0.3535  0.5148  0.1170
 5081SOL    HW126876   2.629   4.313  12.237  3.5645  0.4619 -1.5372
 5081SOL    HW226877   2.612   4.279  12.096 -2.1075 -0.2488  0.5477
 5082SOL     OW26878   4.201   3.466  10.293  0.1109  0.7995  0.3164
 5082SOL    HW126879   4.187   3.443  10.385 -0.8350 -0.5944 -0.1851
 5082SOL    HW226880   4.287   3.425  10.280 -0.4916 -0.1281 -0.7420
 5083SOL     OW26881   2.596   4.445  14.661 -0.3484 -0.2567 -0.4666
 5083SOL    HW126882   2.585   4.516  14.725 -3.7133  0.9631 -2.4183
 5083SOL    HW226883   2.514   4.459  14.614  0.3458 -2.5045 -2.3293
 5084SOL     OW26884   3.109   3.346  15.957 -0.4056  0.8384 -0.3613
 5084SOL    HW126885   3.077   3.260  15.986 -0.1629  0.2870 -1.7072
 5084SOL    HW226886   3.192   3.342  16.003 -0.4642 -1.8563 -0.5125
 5085SOL     OW26887   0.264   1.276   3.387  0.1805  0.0620 -0.4488
 5085SOL    HW126888   0.252   1.181   3.391 -0.5970  0.1720 -0.2432
 5085SOL    HW226889   0.345   1.292   3.436  0.7391  0.4227 -1.4706
 5086SOL     OW26890   4.233   0.076   9.793  0.0821 -0.0073  1.1223
 5086SOL    HW126891   4.257   0.043   9.707  1.0881  0.9934  1.0166
 5086SOL    HW226892   4.278   0.161   9.788 -2.5401  1.2201 -1.2697
 5087SOL     OW26893   3.510   3.143   7.341  0.0973 -0.0190  0.6242
 5087SOL    HW126894   3.491   3.228   7.381  1.3253 -0.0955  1.3448
 5087SOL    HW226895   3.604   3.132   7.330 -0.2194  0.1581 -2.2680
 5088SOL     OW26896   1.711   1.835   5.439 -0.1743 -0.2686  0.0774
 5088SOL    HW126897   1.766   1.780   5.495 -1.5950 -1.4072  0.3547
 5088SOL    HW226898   1.662   1.870   5.514  1.3930 -1.7568  1.8022
 5089SOL     OW26899   2.990   1.786  10.396  0.3175  0.5402  0.4413
 5089SOL    HW126900   2.953   1.778  10.484 -0.8220 -2.1000 -0.2775
 5089SOL    HW226901   2.917   1.815  10.342  0.1610 -1.2294 -0.3003
 5090SOL     OW26902   2.745   0.147   4.071 -0.3819 -0.2032 -0.3508
 5090SOL    HW126903   2.772   0.227   4.026 -2.8393 -0.3263 -2.0402
 5090SOL    HW226904   2.771   0.078   4.011  0.6737 -2.2576  2.4829
 5091SOL     OW26905   3.332   4.271   8.975  0.3253  0.6042 -0.1036
 5091SOL    HW126906   3.315   4.197   8.918 -0.0411 -0.4726  1.4086
 5091SOL    HW226907   3.260   4.333   8.964  0.3013  0.9135  1.8458
 5092SOL     OW26908   1.747   4.142   6.708 -0.1479  0.1468  0.2297
 5092SOL    HW126909   1.652   4.153   6.718 -0.0953 -0.3021  1.1994
 5092SOL    HW226910   1.765   4.182   6.623  0.6816 -2.1915 -0.6790
 5093SOL     OW26911   4.515   0.865   8.945  0.4700  0.3046 -0.8703
 5093SOL    HW126912   4.544   0.778   8.972  0.5235 -0.2478 -2.7588
 5093SOL    HW226913   4.501   0.902   9.033  1.1103 -1.9997  0.2004
 5094SOL     OW26914   2.586   1.154  12.126 -0.0106 -0.4446  0.1022
 5094SOL    HW126915   2.520   1.211  12.166  0.2349  0.3938 -0.7173
 5094SOL    HW226916   2.555   1.068  12.155 -0.1439 -0.7609 -0.9890
 5095SOL     OW26917   3.539   3.646   5.317  0.2855  0.2972  0.1652
 5095SOL    HW126918   3.587   3.705   5.259  0.2908  0.5373  0.4148
 5095SOL    HW226919   3.462   3.632   5.262  1.0962 -0.4532 -0.7937
 5096SOL     OW26920   0.137   4.401   3.387  0.3771 -0.2583  0.0604
 5096SOL    HW126921   0.052   4.437   3.410  0.8028  1.2397 -0.6839
 5096SOL    HW226922   0.169   4.476   3.335 -0.9195  0.8487  0.8587
 5097SOL     OW26923   4.422   3.603   2.801  0.4002  0.5283  0.6905
 5097SOL    HW126924   4.353   3.560   2.750  2.4188 -1.8630 -0.0574
 5097SOL    HW226925   4.462   3.660   2.736  1.4576  1.2931  2.0254
 5098SOL     OW26926   2.012   2.983   4.605  0.2073  0.4257  0.1534
 5098SOL    HW126927   2.038   2.900   4.564 -1.1654  0.2741 -0.4145
 5098SOL    HW226928   2.061   2.986   4.686  0.4918 -0.9177  0.0310
 5099SOL     OW26929   1.139   1.618   1.905 -0.3142 -0.2953 -0.1827
 5099SOL    HW126930   1.111   1.547   1.963  0.6399  1.0004  1.8620
 5099SOL    HW226931   1.134   1.691   1.968  0.5652 -1.5948  1.3998
 5100SOL     OW26932   0.187   1.505   3.211 -0.1407 -0.5222  0.5452
 5100SOL    HW126933   0.140   1.553   3.279  1.5352  2.1520 -0.1525
 5100SOL    HW226934   0.221   1.431   3.261 -2.7960  0.5242  3.8525
 5101SOL     OW26935   1.246   4.008   7.663  0.0049 -0.1751 -0.2841
 5101SOL    HW126936   1.242   4.042   7.753  1.9800  1.0211 -0.6635
 5101SOL    HW226937   1.306   4.070   7.622 -0.8903  0.7110 -0.2463
 5102SOL     OW26938   2.507   3.303   3.740 -1.1797  0.0148  0.1322
 5102SOL    HW126939   2.518   3.265   3.653  1.5835 -1.2192  1.0430
 5102SOL    HW226940   2.480   3.226   3.790  0.3211 -1.6086 -1.5551
 5103SOL     OW26941   1.021   1.232   3.895 -0.0888  0.6733 -0.0955
 5103SOL    HW126942   0.932   1.198   3.902 -0.3565  1.0696 -1.4932
 5103SOL    HW226943   1.074   1.153   3.887 -0.7435  0.4597 -2.3049
 5104SOL     OW26944   3.271   0.088   7.784  0.1956  0.6508  0.2186
 5104SOL    HW126945   3.315   0.007   7.758 -2.1231 -0.5381  0.0916
 5104SOL    HW226946   3.181   0.060   7.773  1.0720 -1.4959 -1.4825
 5105SOL     OW26947   3.725   2.238   9.542  0.0012  0.2008  1.1649
 5105SOL    HW126948   3.640   2.284   9.541 -1.1397 -1.9162  0.6647
 5105SOL    HW226949   3.758   2.284   9.619  2.3771 -0.5508  0.5701
 5106SOL     OW26950   0.110   1.961  10.352 -0.5768 -0.0045  0.0883
 5106SOL    HW126951   0.174   1.974  10.422 -0.0205  2.6823 -0.9160
 5106SOL    HW226952   0.045   1.905  10.394 -4.0557  2.6645 -1.7521
 5107SOL     OW26953   0.067   3.227   8.681  0.4723  0.0341 -1.0510
 5107SOL    HW126954   0.097   3.180   8.759 -0.1722  0.5896 -0.4546
 5107SOL    HW226955   0.088   3.319   8.700 -1.1095  0.6338 -2.1548
 5108SOL     OW26956   1.793   0.427   4.406  0.4695  0.0256  0.0085
 5108SOL    HW126957   1.865   0.455   4.350 -0.2958  0.3279 -0.8376
 5108SOL    HW226958   1.822   0.473   4.484  1.4046 -0.7854  0.1321
 5109SOL     OW26959   2.757   3.817   0.106 -0.0535  0.0067 -0.2073
 5109SOL    HW126960   2.785   3.728   0.088  2.4682  0.4025  1.8108
 5109SOL    HW226961   2.836   3.867   0.084 -1.0402  0.8272 -1.9323
 5110SOL     OW26962   4.383   1.386  15.333 -0.5810  0.4423 -0.2422
 5110SOL    HW126963   4.418   1.457  15.387  0.6755  0.0418 -0.5229
 5110SOL    HW226964   4.301   1.363  15.377  0.1735  0.4131  1.1534
 5111SOL     OW26965   3.621   0.339   7.668 -0.0211 -0.0171 -0.4646
 5111SOL    HW126966   3.531   0.312   7.687 -0.2445  0.6381 -0.5997
 5111SOL    HW226967   3.610   0.421   7.619  1.6407  1.2015  1.1956
 5112SOL     OW26968   2.584   1.133   1.917  0.4884 -0.2463  0.6236
 5112SOL    HW126969   2.551   1.222   1.904 -1.1973 -0.7834  1.2374
 5112SOL    HW226970   2.513   1.105   1.975 -0.0859  0.2601  0.1617
 5113SOL     OW26971   0.895   4.310  10.427 -0.1021  0.5014 -0.4919
 5113SOL    HW126972   0.886   4.404  10.443 -3.2534 -0.0287  0.8211
 5113SOL    HW226973   0.989   4.297  10.412 -0.2635 -0.3102 -0.7552
 5114SOL     OW26974   0.240   1.936   2.162  0.1858  0.6713 -0.0696
 5114SOL    HW126975   0.327   1.935   2.123 -0.2453  0.1848 -1.0166
 5114SOL    HW226976   0.259   1.907   2.251  1.0978 -0.2702 -0.5770
 5115SOL     OW26977   0.103   2.253   7.921 -0.0601 -0.0368 -0.5316
 5115SOL    HW126978   0.132   2.317   7.855  0.6935 -0.9732 -1.1170
 5115SOL    HW226979   0.028   2.303   7.953 -0.6497 -1.4923  0.3222
 5116SOL     OW26980   2.439   3.175  16.937  0.5815 -0.6492 -0.4053
 5116SOL    HW126981   2.415   3.118  16.864  0.5088 -1.6477  0.4122
 5116SOL    HW226982   2.375   3.245  16.922 -0.0078 -1.7688 -3.1630
 5117SOL     OW26983   3.106   3.310   4.424  0.2828  0.2561 -0.1025
 5117SOL    HW126984   3.070   3.375   4.484 -3.2300  0.0102 -1.8997
 5117SOL    HW226985   3.136   3.366   4.353  0.7790 -0.0100 -0.0989
 5118SOL     OW26986   1.127   3.314   6.491  0.2040 -0.2518  0.0135
 5118SOL    HW126987   1.193   3.245   6.482  2.3446  1.7072  0.8445
 5118SOL    HW226988   1.142   3.362   6.572 -2.5587 -0.1331  0.4464
 5119SOL     OW26989   0.154   0.361  12.244 -0.2308 -0.0539 -0.1158
 5119SOL    HW126990   0.174   0.365  12.151 -1.9379 -1.2686 -0.5431
 5119SOL    HW226991   0.186   0.273  12.266  0.7441  0.9754  2.5332
 5120SOL     OW26992   3.264   4.148   7.483  0.6365  0.0816  0.5524
 5120SOL    HW126993   3.291   4.090   7.553  1.4712 -0.2675 -0.0584
 5120SOL    HW226994   3.339   4.137   7.425  0.5541 -0.5786  0.5734
 5121SOL     OW26995   2.585   2.342  15.867 -0.0163  0.4879  0.1811
 5121SOL    HW126996   2.537   2.403  15.922 -2.5315  0.2232 -1.7081
 5121SOL    HW226997   2.538   2.261  15.889 -0.1181  0.4071 -0.3171
 5122SOL     OW26998   0.559   4.163  12.893  0.4521  0.3362 -0.6018
 5122SOL    HW126999   0.626   4.120  12.840  1.5389 -0.2935  1.2681
 5122SOL    HW227000   0.496   4.175  12.822  0.6086 -0.5655 -0.8913
 5123SOL     OW27001   0.492   1.750   4.139 -0.2574  0.6247  0.0071
 5123SOL    HW127002   0.450   1.834   4.122 -0.4820  0.5064 -0.0158
 5123SOL    HW227003   0.414   1.694   4.146  1.4868 -1.7375  0.7958
 5124SOL     OW27004   1.830   2.631  10.908  0.0752 -0.2603 -0.0538
 5124SOL    HW127005   1.879   2.654  10.987  0.6405 -1.3301 -0.0886
 5124SOL    HW227006   1.790   2.547  10.932  0.4865 -0.4943 -0.1801
 5125SOL     OW27007   4.443   0.020  11.256  0.7588  0.6851  0.2883
 5125SOL    HW127008   4.399   4.700  11.319  0.2910  0.1805 -0.5012
 5125SOL    HW227009   4.427   0.105  11.299 -0.0929  0.0464  1.2346
 5126SOL     OW27010   0.662   2.612   5.289  0.7673  0.0850 -0.0422
 5126SOL    HW127011   0.677   2.699   5.329 -0.1273 -1.4695  3.7155
 5126SOL    HW227012   0.622   2.566   5.363 -0.1281 -1.5354 -1.5525
 5127SOL     OW27013   3.373   2.989   7.153 -0.1901 -0.4563  0.3536
 5127SOL    HW127014   3.371   3.083   7.131  0.0241 -0.5174  0.0683
 5127SOL    HW227015   3.402   3.002   7.244  0.1106  0.0718  0.1875
 5128SOL     OW27016   2.445   3.038   8.515 -0.2327 -0.5355  0.3553
 5128SOL    HW127017   2.436   3.018   8.421 -2.0043  2.7076 -0.1515
 5128SOL    HW227018   2.351   3.039   8.536 -0.7165  0.2612 -1.8512
 5129SOL     OW27019   0.776   3.156   0.078  0.6637 -0.3599  0.0724
 5129SOL    HW127020   0.760   3.248   0.056 -0.5491 -0.8641 -1.2268
 5129SOL    HW227021   0.868   3.174   0.094  0.0017  3.3544 -0.1788
 5130SOL     OW27022   2.229   0.772   7.957  0.2642 -0.4166 -0.5388
 5130SOL    HW127023   2.323   0.776   7.974  0.6819  0.2164 -3.0136
 5130SOL    HW227024   2.218   0.861   7.922 -1.0953 -1.0457 -1.7310
 5131SOL     OW27025   1.949   4.315  10.978  0.9364 -0.2415  0.5285
 5131SOL    HW127026   2.044   4.309  10.965  0.6288 -0.1874 -1.7042
 5131SOL    HW227027   1.935   4.276  11.064 -1.4638  2.3216  1.3094
 5132SOL     OW27028   2.371   1.035   9.057  0.1237  0.5337 -0.0046
 5132SOL    HW127029   2.305   1.011   8.991  0.4308  0.5662 -0.3234
 5132SOL    HW227030   2.314   1.050   9.132 -0.4517  2.8473 -0.9074
 5133SOL     OW27031   0.180   2.419   6.782  0.0210  0.0715  0.1570
 5133SOL    HW127032   0.179   2.494   6.842 -2.6898 -0.0102  0.1991
 5133SOL    HW227033   0.143   2.342   6.826  1.6945 -1.1650 -0.6075
 5134SOL     OW27034   4.241   0.125   3.569 -0.8126  0.1481  0.4404
 5134SOL    HW127035   4.297   0.085   3.635 -0.7454  1.9600  1.4754
 5134SOL    HW227036   4.152   0.100   3.592 -0.0546 -0.5894  2.5310
 5135SOL     OW27037   0.901   1.791  16.524  0.4232 -0.6090  0.4483
 5135SOL    HW127038   0.877   1.882  16.542  0.3034 -0.5293 -0.1160
 5135SOL    HW227039   0.822   1.761  16.480  1.7540 -1.1525 -1.5289
 5136SOL     OW27040   0.248   3.961  13.446 -0.6587  0.1004  0.5097
 5136SOL    HW127041   0.190   3.974  13.371 -1.7306  0.8996  1.4746
 5136SOL    HW227042   0.254   3.866  13.444  0.3340  0.2010 -1.5078
 5137SOL     OW27043   3.035   2.722   1.014  0.0719 -0.2622  0.0994
 5137SOL    HW127044   3.110   2.678   0.972 -0.3510  1.6118 -2.6377
 5137SOL    HW227045   3.022   2.785   0.943 -1.2647 -0.1793  0.4258
 5138SOL     OW27046   0.521   3.966   7.187 -0.3438 -0.1805 -0.0872
 5138SOL    HW127047   0.465   3.966   7.109  0.1327 -1.5003 -0.4195
 5138SOL    HW227048   0.593   3.914   7.152 -0.2725  1.0417 -1.7186
 5139SOL     OW27049   2.342   0.167   3.284  0.3261  0.2714  0.3662
 5139SOL    HW127050   2.258   0.139   3.320  0.6712 -0.3476  0.6891
 5139SOL    HW227051   2.403   0.175   3.357  1.0287  0.4392 -0.2423
 5140SOL     OW27052   3.024   1.900   4.057 -0.2593 -0.6600 -0.5402
 5140SOL    HW127053   3.117   1.880   4.054 -0.5325 -1.9165 -0.4944
 5140SOL    HW227054   3.028   1.990   4.089  1.1309 -0.0595 -2.4576
 5141SOL     OW27055   0.012   2.006   3.353 -0.1778 -0.1582  0.1580
 5141SOL    HW127056   0.057   2.090   3.341 -1.1349  0.4334  0.7330
 5141SOL    HW227057   4.670   2.035   3.397  1.6229  2.6750  1.5092
 5142SOL     OW27058   4.629   2.307   9.053  0.1862  0.5213  0.0944
 5142SOL    HW127059   4.568   2.343   8.989 -1.0216  1.5737  1.8461
 5142SOL    HW227060   4.623   2.212   9.042 -0.2403  0.4772  0.7040
 5143SOL     OW27061   0.857   0.251  16.573 -0.1234 -0.3459  0.0006
 5143SOL    HW127062   0.796   0.256  16.647  2.9494  0.5139  2.5140
 5143SOL    HW227063   0.838   0.169  16.529 -0.3925 -1.4565  2.1746
 5144SOL     OW27064   3.645   2.730  12.215  0.5570  0.3419  0.0772
 5144SOL    HW127065   3.645   2.662  12.148 -1.4846 -0.1545  0.5669
 5144SOL    HW227066   3.719   2.707  12.272  0.6710  0.9866  0.1915
 5145SOL     OW27067   3.245   2.837   5.170 -0.0556 -0.8298  0.2527
 5145SOL    HW127068   3.253   2.753   5.215  0.5770  0.5131  2.6488
 5145SOL    HW227069   3.203   2.807   5.090  2.1066 -0.5525 -0.9953
 5146SOL     OW27070   3.557   2.330  16.191  0.0170 -0.2385  0.0067
 5146SOL    HW127071   3.518   2.373  16.268 -1.1267  0.4644 -0.9581
 5146SOL    HW227072   3.648   2.357  16.206  0.2465  1.0981 -3.9521
 5147SOL     OW27073   2.862   3.670   4.909 -0.4144 -0.1813 -0.0311
 5147SOL    HW127074   2.866   3.610   4.983  0.4198  0.4797  0.4547
 5147SOL    HW227075   2.801   3.630   4.846 -0.0761 -0.3363 -0.2571
 5148SOL     OW27076   1.913   0.958  13.104  0.8065  0.0057 -0.9943
 5148SOL    HW127077   1.896   0.895  13.175 -1.5751  0.3136 -1.2799
 5148SOL    HW227078   2.001   0.988  13.127 -0.0610  1.7687  0.0399
 5149SOL     OW27079   1.237   1.243   4.763 -0.3276  0.2813  0.2156
 5149SOL    HW127080   1.311   1.239   4.703 -2.1328  1.1337 -2.0820
 5149SOL    HW227081   1.224   1.153   4.791 -2.2287 -0.0926 -1.7988
 5150SOL     OW27082   2.342   4.063   4.948  0.3243 -0.2527  0.7370
 5150SOL    HW127083   2.367   4.077   5.040 -1.1362 -0.1229  1.1072
 5150SOL    HW227084   2.350   4.153   4.915  1.1146 -1.5826 -2.7226
 5151SOL     OW27085   3.937   0.822   2.932 -0.2200  0.4388 -0.2494
 5151SOL    HW127086   3.919   0.793   3.022  2.8483  2.7003  1.0932
 5151SOL    HW227087   4.007   0.764   2.902 -0.6741  0.3732 -1.1830
 5152SOL     OW27088   4.250   2.515   6.961  0.1182 -0.6559 -0.0302
 5152SOL    HW127089   4.232   2.467   6.880 -0.4454  0.4680 -0.5761
 5152SOL    HW227090   4.255   2.606   6.933 -2.6661 -0.1576  1.0785
 5153SOL     OW27091   4.076   1.756   0.584 -0.2561  0.1665 -0.0827
 5153SOL    HW127092   3.999   1.762   0.527 -2.3395  0.9686  2.8029
 5153SOL    HW227093   4.068   1.839   0.631  0.7976 -0.5581  1.3853
 5154SOL     OW27094   1.954   0.847   2.178 -0.0514 -0.0334  0.6610
 5154SOL    HW127095   1.976   0.767   2.131 -1.0309 -0.4670  0.9318
 5154SOL    HW227096   1.863   0.863   2.154 -0.2549  0.2980  1.6603
 5155SOL     OW27097   4.592   4.650   6.158 -0.5424 -0.3251  0.5304
 5155SOL    HW127098   4.612   4.664   6.251  2.2857 -0.5444 -0.0680
 5155SOL    HW227099   4.580   0.004   6.133 -1.4331 -0.5087  0.2713
 5156SOL     OW27100   1.344   0.897   5.577  0.2677  0.6593 -0.3778
 5156SOL    HW127101   1.277   0.956   5.543 -0.2355  0.5928  0.5118
 5156SOL    HW227102   1.307   0.853   5.654 -2.7277  0.8659 -1.7247
 5157SOL     OW27103   2.688   1.279   7.999  0.0630  0.1834  0.4213
 5157SOL    HW127104   2.662   1.239   8.081 -1.4918 -1.3976 -0.8463
 5157SOL    HW227105   2.656   1.369   8.002 -1.7976 -0.4255 -0.8867
 5158SOL     OW27106   4.165   0.020   5.309 -0.2131 -0.0906 -0.3527
 5158SOL    HW127107   4.143   0.110   5.288  1.2301  0.5642  0.9898
 5158SOL    HW227108   4.213   4.725   5.232 -0.4457  0.7424 -0.8401
 5159SOL     OW27109   2.991   1.187  10.319  0.0876 -0.2224  0.4562
 5159SOL    HW127110   2.928   1.132  10.366 -1.1636  1.9401  1.3345
 5159SOL    HW227111   3.025   1.121  10.258  1.2526  0.3120  0.5178
 5160SOL     OW27112   3.377   4.381   7.920 -0.1923 -0.2089 -0.5589
 5160SOL    HW127113   3.314   4.433   7.969  1.7340  0.5567  1.0942
 5160SOL    HW227114   3.417   4.458   7.881  0.0253 -0.4159 -0.7456
 5161SOL     OW27115   3.727   1.993   1.185 -0.6806 -0.0578 -0.2092
 5161SOL    HW127116   3.762   2.019   1.270 -0.2149  0.7389 -0.6417
 5161SOL    HW227117   3.747   2.076   1.140  2.6161 -0.6441  0.2068
 5162SOL     OW27118   3.468   4.079   5.257 -0.1255  0.2465  0.2157
 5162SOL    HW127119   3.375   4.084   5.277 -0.1461  0.8468 -0.0129
 5162SOL    HW227120   3.480   4.132   5.178 -1.1890 -1.6346 -1.2059
 5163SOL     OW27121   3.391   0.992   7.120 -0.8081  0.0567  0.0440
 5163SOL    HW127122   3.479   0.961   7.098 -0.4513  0.2440  1.2181
 5163SOL    HW227123   3.335   0.928   7.075  1.6465 -1.9193 -0.1506
 5164SOL     OW27124   2.712   3.926   5.329 -0.2615  0.0498 -0.4413
 5164SOL    HW127125   2.755   3.924   5.243 -1.4061  1.8569 -1.0447
 5164SOL    HW227126   2.645   3.858   5.316  0.4647 -0.7423 -0.0685
 5165SOL     OW27127   4.111   3.105   9.155 -0.0155 -0.0815  0.4332
 5165SOL    HW127128   4.032   3.099   9.101 -0.0140  1.6780  0.2488
 5165SOL    HW227129   4.138   3.013   9.145  0.4631  0.2481 -1.4597
 5166SOL     OW27130   1.693   0.283   2.918  0.1691 -0.3825  0.0701
 5166SOL    HW127131   1.632   0.297   2.846  1.0976  1.1883 -0.4075
 5166SOL    HW227132   1.776   0.298   2.874 -1.4470  0.6037 -2.6298
 5167SOL     OW27133   0.216   0.219   4.565  0.0614 -0.3597  0.1131
 5167SOL    HW127134   0.290   0.160   4.577  1.1825  0.4631 -2.8746
 5167SOL    HW227135   0.157   0.168   4.621  0.6939 -0.5301  0.6189
 5168SOL     OW27136   0.484   4.296   1.002  0.5559  0.2039 -0.2813
 5168SOL    HW127137   0.536   4.224   0.966  1.0537  0.9577 -1.0934
 5168SOL    HW227138   0.437   4.332   0.927  1.2412  2.9125  0.5912
 5169SOL     OW27139   2.557   3.258  12.744 -0.2330 -0.4159 -0.2678
 5169SOL    HW127140   2.539   3.352  12.746 -0.5783 -0.4669 -0.9294
 5169SOL    HW227141   2.568   3.241  12.837 -2.3284 -1.6179 -0.2207
 5170SOL     OW27142   0.212   0.373  11.030 -0.1568 -0.1087  0.2393
 5170SOL    HW127143   0.154   0.303  11.000  2.0128 -0.3632 -3.3060
 5170SOL    HW227144   0.295   0.325  11.027 -0.4948 -0.7540  1.2833
 5171SOL     OW27145   0.802   4.257  11.620  0.0300 -0.1613  0.4033
 5171SOL    HW127146   0.887   4.298  11.634  0.5414 -0.4130 -2.1082
 5171SOL    HW227147   0.752   4.295  11.693 -0.1170 -1.5343  1.0374
 5172SOL     OW27148   0.464   0.353  15.264 -0.1703 -0.5459 -0.0211
 5172SOL    HW127149   0.469   0.277  15.206 -1.9437 -0.9184  0.3126
 5172SOL    HW227150   0.555   0.377  15.282 -0.3133  0.2012 -0.3112
 5173SOL     OW27151   4.053   0.770   9.746 -0.5444  0.1397 -0.4868
 5173SOL    HW127152   4.054   0.788   9.840  2.8738  1.1484 -0.7026
 5173SOL    HW227153   4.098   0.852   9.721 -0.4633  0.5146  0.9087
 5174SOL     OW27154   2.183   3.364  13.731  0.2922 -0.3052 -0.6290
 5174SOL    HW127155   2.112   3.420  13.760  0.7902  0.6191 -1.1941
 5174SOL    HW227156   2.243   3.367  13.806 -0.9166  0.2599  0.3106
 5175SOL     OW27157   3.262   4.219  13.527 -0.4898 -0.4414  0.1430
 5175SOL    HW127158   3.207   4.298  13.532 -0.0000 -0.2502  2.2761
 5175SOL    HW227159   3.337   4.249  13.475  0.6359 -0.8352  1.5565
 5176SOL     OW27160   0.490   2.763  17.609  0.0088  0.4191  0.1635
 5176SOL    HW127161   0.570   2.814  17.600  2.1944 -2.9879 -0.0264
 5176SOL    HW227162   0.498   2.744  17.703 -2.7983 -3.1074 -0.3183
 5177SOL     OW27163   3.869   2.430   9.346 -0.4842  0.1988 -0.7381
 5177SOL    HW127164   3.864   2.356   9.407  0.4272 -0.3020 -1.2703
 5177SOL    HW227165   3.964   2.443   9.353 -0.3315 -1.0253 -0.5106
 5178SOL     OW27166   2.527   3.370   6.825 -0.3588  0.2573 -0.6337
 5178SOL    HW127167   2.559   3.295   6.875 -0.0645  0.5973 -0.3165
 5178SOL    HW227168   2.450   3.329   6.786  0.4068 -2.7784  1.0202
 5179SOL     OW27169   2.581   4.107  12.038  0.5569 -0.3094  1.0029
 5179SOL    HW127170   2.518   4.051  12.082 -0.1395 -0.1755  0.1850
 5179SOL    HW227171   2.594   4.061  11.955 -0.7789 -1.7399  1.5973
 5180SOL     OW27172   0.907   2.277  17.655 -0.3287  0.6907  0.1870
 5180SOL    HW127173   0.993   2.291  17.695  0.2775 -1.2527 -0.4311
 5180SOL    HW227174   0.879   2.198  17.700  0.0032  0.1298 -0.5998
 5181SOL     OW27175   2.705   2.955   7.426  0.3826 -0.1842 -0.1975
 5181SOL    HW127176   2.639   2.925   7.364  0.9773 -1.1390 -0.3638
 5181SOL    HW227177   2.757   2.874   7.431 -0.2517 -0.4855  1.3738
 5182SOL     OW27178   0.821   0.349   4.297  0.4385  0.2527 -0.3896
 5182SOL    HW127179   0.848   0.380   4.383  2.6366  0.4384 -1.1559
 5182SOL    HW227180   0.777   0.264   4.308  0.4224  0.4177  0.8645
 5183SOL     OW27181   3.253   1.882   3.520 -0.3486 -0.3498  0.2953
 5183SOL    HW127182   3.312   1.915   3.452 -0.8032 -0.1614 -0.0105
 5183SOL    HW227183   3.169   1.894   3.476 -0.7076 -1.4405  0.6814
 5184SOL     OW27184   1.290   0.718  12.441 -0.6541 -0.4329  0.0991
 5184SOL    HW127185   1.386   0.711  12.443 -0.6511 -0.3229  0.2828
 5184SOL    HW227186   1.269   0.625  12.432  2.1551 -1.2357  1.5261
 5185SOL     OW27187   0.446   2.169   3.967 -0.3789  0.7414 -0.8799
 5185SOL    HW127188   0.459   2.180   3.872 -0.6642 -0.2315 -1.0258
 5185SOL    HW227189   0.358   2.132   3.965  0.7456 -1.8182 -2.6309
 5186SOL     OW27190   2.997   2.041   0.295  0.3647  0.0012  0.7224
 5186SOL    HW127191   2.907   2.010   0.288  0.0220  0.7141  2.0211
 5186SOL    HW227192   3.005   2.093   0.374 -1.7802  0.8506  0.3948
 5187SOL     OW27193   3.864   2.417  14.895 -0.4076 -0.3874 -0.2256
 5187SOL    HW127194   3.863   2.492  14.955  0.4683 -0.6541  0.1212
 5187SOL    HW227195   3.870   2.452  14.806 -0.9562  1.0153  0.2774
 5188SOL     OW27196   2.777   0.712  11.154  0.2707 -0.6107  0.1614
 5188SOL    HW127197   2.806   0.686  11.066 -0.9721  2.2527 -1.0648
 5188SOL    HW227198   2.756   0.804  11.142  1.6430 -0.5178 -1.5675
 5189SOL     OW27199   2.321   1.928  11.741  0.0501  0.7370 -0.1988
 5189SOL    HW127200   2.342   1.925  11.834  0.8691  1.3488 -0.3688
 5189SOL    HW227201   2.225   1.922  11.745  0.2372 -1.2293  1.2173
 5190SOL     OW27202   2.447   1.961   8.032 -0.0172  0.4325 -0.0720
 5190SOL    HW127203   2.460   2.014   7.954  1.0955  0.7433  0.3210
 5190SOL    HW227204   2.375   2.005   8.077 -0.1555  0.0498  0.0861
 5191SOL     OW27205   1.375   3.106   1.486  0.4454 -0.2841  0.3829
 5191SOL    HW127206   1.451   3.155   1.517  0.9511 -1.4756  1.0095
 5191SOL    HW227207   1.311   3.125   1.554 -0.9466 -0.8971 -0.7499
 5192SOL     OW27208   0.471   1.905   7.664  0.5748 -0.5218 -0.3282
 5192SOL    HW127209   0.390   1.875   7.704  1.5879 -1.4546  1.0565
 5192SOL    HW227210   0.531   1.845   7.709  0.1307 -0.0496  0.9055
 5193SOL     OW27211   3.732   2.320   5.381  0.7830  0.2734  0.0923
 5193SOL    HW127212   3.774   2.407   5.378  1.3055  0.0527  1.3380
 5193SOL    HW227213   3.804   2.260   5.397  0.2574 -0.1910  0.6971
 5194SOL     OW27214   0.179   0.186   8.380 -0.1275  0.2617  0.0526
 5194SOL    HW127215   0.261   0.204   8.334 -0.7204 -1.1275 -1.5558
 5194SOL    HW227216   0.102   0.216   8.331 -0.5028 -1.1448 -0.2234
 5195SOL     OW27217   0.264   1.474  11.705 -0.2426 -0.3034 -0.4827
 5195SOL    HW127218   0.360   1.475  11.702 -0.2831  0.7835 -1.4189
 5195SOL    HW227219   0.228   1.562  11.712  1.7401  0.6002 -1.8266
 5196SOL     OW27220   3.652   0.760   7.958 -0.4191  0.1431  0.4125
 5196SOL    HW127221   3.566   0.775   7.999  0.9956  2.0886  2.6011
 5196SOL    HW227222   3.630   0.742   7.866  1.8560  1.5619 -0.3837
 5197SOL     OW27223   2.373   2.410   1.150 -0.3822 -0.2490 -0.1264
 5197SOL    HW127224   2.450   2.462   1.169  0.4478 -0.9823 -1.4716
 5197SOL    HW227225   2.414   2.324   1.152  1.5265  0.6592 -0.6530
 5198SOL     OW27226   1.704   4.503  12.598 -0.0375  0.1188  0.1188
 5198SOL    HW127227   1.684   4.583  12.550  0.7969 -0.1836 -0.7464
 5198SOL    HW227228   1.764   4.541  12.663  0.9890 -0.2994 -0.5822
 5199SOL     OW27229   2.296   2.641   7.329 -0.2662  0.3462 -0.1377
 5199SOL    HW127230   2.289   2.705   7.400  1.5322 -2.0875  2.2337
 5199SOL    HW227231   2.276   2.701   7.257 -0.9956  0.2932  0.0193
 5200SOL     OW27232   3.171   1.596   3.490 -0.2917  0.0543  0.5915
 5200SOL    HW127233   3.181   1.501   3.493 -2.2591 -0.1714  0.5812
 5200SOL    HW227234   3.258   1.615   3.457 -0.5821  0.4127  0.0294
 5201SOL     OW27235   4.180   3.465  15.840  0.1574 -0.8488  0.1241
 5201SOL    HW127236   4.108   3.459  15.777 -0.0465  1.0872  0.1751
 5201SOL    HW227237   4.238   3.537  15.812 -0.9858  0.0461  0.0546
 5202SOL     OW27238   0.205   3.641   5.832  0.0942 -0.6253  0.2529
 5202SOL    HW127239   0.166   3.582   5.896 -2.7992  0.0034 -0.9381
 5202SOL    HW227240   0.300   3.642   5.845  0.2802 -3.8085 -0.8259
 5203SOL     OW27241   1.396   0.460   8.474 -0.1602 -0.6250 -0.3448
 5203SOL    HW127242   1.331   0.508   8.524 -0.1399  1.2565 -2.1097
 5203SOL    HW227243   1.417   0.528   8.410  1.2412 -1.4205 -0.7348
 5204SOL     OW27244   1.363   3.599   7.612 -0.1470 -0.4546 -0.1091
 5204SOL    HW127245   1.298   3.642   7.668  1.1725 -0.6119  1.5465
 5204SOL    HW227246   1.441   3.600   7.668  0.0711 -0.8784 -0.3997
 5205SOL     OW27247   3.871   1.788   2.120  0.4058  0.3002  0.3837
 5205SOL    HW127248   3.955   1.822   2.151  0.6434 -0.3965  0.4960
 5205SOL    HW227249   3.910   1.738   2.049  0.8518 -1.0162  1.5433
 5206SOL     OW27250   1.104   4.390  10.950  0.3878 -0.4524  0.3947
 5206SOL    HW127251   1.190   4.431  10.948 -0.0093  0.4379  1.7843
 5206SOL    HW227252   1.112   4.309  10.900  3.4103 -1.4016  2.4581
 5207SOL     OW27253   0.276   3.619   3.985 -0.3328 -0.6222  0.1113
 5207SOL    HW127254   0.336   3.546   3.994 -0.5838 -0.9424 -0.7756
 5207SOL    HW227255   0.216   3.574   3.926  0.4524  1.0552 -1.9443
 5208SOL     OW27256   0.831   2.032   5.234  0.0981 -0.7438  0.5444
 5208SOL    HW127257   0.792   1.951   5.267 -2.1448  0.3575  0.6000
 5208SOL    HW227258   0.829   2.025   5.139 -0.3820 -1.0427  0.5757
 5209SOL     OW27259   1.314   1.580   1.463 -0.4119 -0.8482 -0.4638
 5209SOL    HW127260   1.265   1.499   1.447  0.3748 -1.0949 -1.6393
 5209SOL    HW227261   1.399   1.540   1.480 -0.9682 -0.8247  2.3525
 5210SOL     OW27262   1.040   2.593  11.588 -0.0266  0.8360 -0.0208
 5210SOL    HW127263   0.963   2.537  11.582 -0.0561  0.8591  0.1399
 5210SOL    HW227264   1.030   2.637  11.673 -0.8903  0.5921  0.0065
 5211SOL     OW27265   4.381   1.336   1.852  0.3960 -0.1084 -0.2283
 5211SOL    HW127266   4.286   1.341   1.843  0.1508 -1.8054  1.3311
 5211SOL    HW227267   4.407   1.298   1.768  0.3532 -1.7962  0.5218
 5212SOL     OW27268   2.121   1.675   3.375  0.5604  0.0309  0.5319
 5212SOL    HW127269   2.156   1.587   3.393 -0.3230 -0.5871 -0.7578
 5212SOL    HW227270   2.027   1.659   3.382  0.5902 -1.1239 -1.4823
 5213SOL     OW27271   1.786   1.243   2.271 -0.0056 -0.2076 -0.4462
 5213SOL    HW127272   1.733   1.184   2.324 -0.4119 -0.8461 -1.5658
 5213SOL    HW227273   1.747   1.240   2.184  0.2349 -1.2831 -0.5230
 5214SOL     OW27274   1.482   0.086   8.768  0.8197  0.2435  0.4076
 5214SOL    HW127275   1.504   0.160   8.711 -2.0511  0.5224 -0.3083
 5214SOL    HW227276   1.492   0.110   8.860  0.6133 -0.8549  0.7142
 5215SOL     OW27277   3.177   2.246  11.321 -0.1565  0.2653 -0.3194
 5215SOL    HW127278   3.257   2.295  11.304 -0.7539  0.1033 -3.6112
 5215SOL    HW227279   3.200   2.153  11.323  0.4362  0.4313  0.3707
 5216SOL     OW27280   1.061   4.217   6.155  0.0540 -0.2394  0.4428
 5216SOL    HW127281   1.128   4.212   6.087 -2.3816 -2.4571 -1.7821
 5216SOL    HW227282   0.999   4.270   6.105 -0.2036 -0.3007  0.6924
 5217SOL     OW27283   1.038   1.931   7.677  0.5448  0.6458  0.0773
 5217SOL    HW127284   1.002   2.006   7.724  1.1692  0.3846  0.9849
 5217SOL    HW227285   0.972   1.924   7.609  1.2278 -0.9589 -0.4192
 5218SOL     OW27286   2.260   4.079   9.078 -0.2908  0.4445  0.1094
 5218SOL    HW127287   2.297   4.030   9.004  0.0459  1.6445 -0.5128
 5218SOL    HW227288   2.344   4.107   9.116 -0.5323 -0.6901  1.4754
 5219SOL     OW27289   4.362   0.100   9.056  0.0225 -0.1808  0.0287
 5219SOL    HW127290   4.405   0.049   8.987  0.2740  0.4830 -0.2941
 5219SOL    HW227291   4.438   0.142   9.095 -0.3862  0.5382  0.0423
 5220SOL     OW27292   2.560   4.663   1.905  0.4826  0.2913 -0.2676
 5220SOL    HW127293   2.497   4.652   1.834 -0.5622  1.3400  0.4791
 5220SOL    HW227294   2.644   4.640   1.866 -0.0833 -2.3177  0.0860
 5221SOL     OW27295   0.853   0.699   5.633  0.1513  0.5204  0.0485
 5221SOL    HW127296   0.911   0.714   5.707 -1.4403 -3.3774  2.0570
 5221SOL    HW227297   0.767   0.729   5.662 -0.2490 -0.6956  0.1359
 5222SOL     OW27298   3.736   4.378  10.389  0.6287 -0.0678  0.1690
 5222SOL    HW127299   3.765   4.454  10.440  1.2212  0.4626 -0.9843
 5222SOL    HW227300   3.801   4.311  10.413 -0.7204 -0.6527  2.2339
 5223SOL     OW27301   0.715   3.472   8.283  0.3345  0.5428 -0.9139
 5223SOL    HW127302   0.761   3.393   8.255 -0.6006 -1.3895  2.9708
 5223SOL    HW227303   0.680   3.495   8.197  0.4562  2.2446 -0.4962
 5224SOL     OW27304   3.899   4.635   1.581  0.1497  0.4935 -0.2095
 5224SOL    HW127305   3.879   4.725   1.604  0.4733  0.6142 -0.3962
 5224SOL    HW227306   3.822   4.584   1.606  0.1964  1.5355  2.1053
 5225SOL     OW27307   1.277   4.064   4.585  0.5066  0.6658 -0.7899
 5225SOL    HW127308   1.239   3.977   4.596 -1.0683  1.4547 -0.0823
 5225SOL    HW227309   1.224   4.113   4.648  2.3359  2.2335 -0.4881
 5226SOL     OW27310   1.760   3.086  12.720 -0.6572  0.1137 -0.4975
 5226SOL    HW127311   1.851   3.115  12.708 -0.0332 -1.7471 -0.2281
 5226SOL    HW227312   1.767   3.070  12.814  1.3745 -0.8706 -0.8278
 5227SOL     OW27313   0.547   1.119   9.230 -0.1513  0.6701 -0.0665
 5227SOL    HW127314   0.452   1.113   9.236 -0.1437 -0.1143 -0.7120
 5227SOL    HW227315   0.560   1.201   9.182 -2.5424  0.7455 -0.5768
 5228SOL     OW27316   2.490   3.035   8.880  0.6520  0.0315  0.1292
 5228SOL    HW127317   2.445   3.096   8.821  2.3829  0.7239 -0.4818
 5228SOL    HW227318   2.440   2.955   8.866  1.1852  0.0776 -2.0295
 5229SOL     OW27319   1.673   4.593   5.926  0.0972 -0.0881  0.2346
 5229SOL    HW127320   1.650   4.684   5.945 -1.3544 -0.5105  0.4934
 5229SOL    HW227321   1.701   4.572   6.015 -2.0367 -1.1715  0.6475
 5230SOL     OW27322   0.365   3.100   6.738  0.0476  0.1076  0.6815
 5230SOL    HW127323   0.326   3.187   6.731  0.7490  0.5534  2.4466
 5230SOL    HW227324   0.457   3.120   6.722 -0.1961 -0.7881 -1.9893
 5231SOL     OW27325   2.981   0.677   5.115  0.0453 -0.2591  0.6525
 5231SOL    HW127326   3.046   0.714   5.057 -0.2351 -1.2200 -0.2843
 5231SOL    HW227327   2.993   0.728   5.195  0.2716 -0.0113  0.4606
 5232SOL     OW27328   3.505   1.435   8.392  0.0116  0.4299 -0.2081
 5232SOL    HW127329   3.419   1.433   8.350 -1.4198 -1.4316  2.8045
 5232SOL    HW227330   3.522   1.529   8.387 -0.8735  0.6132  0.2086
 5233SOL     OW27331   3.456   0.216   2.629  0.5530 -0.3457  0.5411
 5233SOL    HW127332   3.455   0.243   2.537  0.6632 -0.4015  0.5241
 5233SOL    HW227333   3.413   0.130   2.627 -0.9570  0.3831  2.4355
 5234SOL     OW27334   0.012   4.177   8.546 -0.1943 -0.2585  0.1143
 5234SOL    HW127335   0.091   4.227   8.565 -1.5084  1.7638  0.2640
 5234SOL    HW227336   4.694   4.252   8.564 -0.0150 -0.4020  1.2365
 5235SOL     OW27337   3.554   0.914   3.109  0.0786 -0.0015  0.0304
 5235SOL    HW127338   3.600   0.927   3.192 -2.0766 -0.9610  1.3973
 5235SOL    HW227339   3.548   1.006   3.081 -2.5268 -0.7636 -1.9351
 5236SOL     OW27340   0.313   4.685   2.230  0.2584 -0.2713  0.5505
 5236SOL    HW127341   0.372   4.726   2.167  2.5205 -2.4131  1.2736
 5236SOL    HW227342   0.368   4.659   2.304  2.0430  2.2125  0.1133
 5237SOL     OW27343   0.495   0.105  15.436  0.2332 -0.0872 -0.5198
 5237SOL    HW127344   0.473   0.024  15.482  2.1280 -0.5066 -0.3517
 5237SOL    HW227345   0.429   0.121  15.368 -0.4103  0.3840  0.2217
 5238SOL     OW27346   0.254   4.137   5.617 -0.0474  0.2897 -0.5533
 5238SOL    HW127347   0.201   4.213   5.594 -0.0721  1.2381  2.6271
 5238SOL    HW227348   0.190   4.070   5.595 -1.9643  1.9783 -0.1015
 5239SOL     OW27349   1.541   1.251   3.454  0.1204 -0.5851 -0.7355
 5239SOL    HW127350   1.590   1.330   3.478  0.6645  0.0407 -3.8620
 5239SOL    HW227351   1.479   1.286   3.391  1.2939  0.8470 -1.1059
 5240SOL     OW27352   3.007   2.499   7.149  0.0135  0.6832  0.8235
 5240SOL    HW127353   2.954   2.419   7.152 -0.8269  1.1436 -1.4474
 5240SOL    HW227354   3.072   2.471   7.213 -0.4703 -0.0280  1.0083
 5241SOL     OW27355   1.856   0.521   3.636 -0.4882  0.1098  0.3544
 5241SOL    HW127356   1.818   0.474   3.562  1.1231 -1.5680  0.6257
 5241SOL    HW227357   1.890   0.456   3.697 -0.5763  1.2913  1.6838
 5242SOL     OW27358   0.759   0.211   7.557  0.4805  0.0129  0.0867
 5242SOL    HW127359   0.765   0.296   7.602 -2.4948 -0.4983  1.4692
 5242SOL    HW227360   0.763   0.236   7.464  0.6654 -0.8523 -0.1323
 5243SOL     OW27361   3.178   2.324   0.465  0.2595 -0.3437  0.7592
 5243SOL    HW127362   3.101   2.272   0.486  0.4076 -0.9194 -0.1056
 5243SOL    HW227363   3.155   2.345   0.375  0.2372  1.3701  1.1721
 5244SOL     OW27364   2.064   2.794   4.900 -0.8254  0.2456 -0.0491
 5244SOL    HW127365   2.062   2.815   4.993 -2.9214 -1.4285  0.2998
 5244SOL    HW227366   2.156   2.808   4.879 -0.2527 -1.0927  1.5702
 5245SOL     OW27367   1.224   4.450   5.779 -0.1927  0.0253  0.7144
 5245SOL    HW127368   1.206   4.526   5.723  2.2123 -0.4094 -0.6522
 5245SOL    HW227369   1.264   4.504   5.848 -0.4631 -1.5246  2.0715
 5246SOL     OW27370   1.419   1.421   9.267  0.2509 -0.1761 -0.8478
 5246SOL    HW127371   1.395   1.501   9.314 -1.1400 -1.3770  0.5205
 5246SOL    HW227372   1.332   1.387   9.244 -0.7579  0.6015  1.7507
 5247SOL     OW27373   1.354   0.003   1.185  0.0080 -0.0429 -0.0114
 5247SOL    HW127374   1.386   4.651   1.196 -2.0585 -0.8129 -0.4027
 5247SOL    HW227375   1.292   4.719   1.116 -0.6709  0.3235  0.4864
 5248SOL     OW27376   4.730   0.201   2.411 -0.0843  0.7462  0.2731
 5248SOL    HW127377   4.674   0.151   2.470 -1.0552  0.2699 -1.0619
 5248SOL    HW227378   4.732   0.146   2.334  0.5216  3.1648 -1.4343
 5249SOL     OW27379   0.661   3.440   4.119 -0.1298  0.1643  0.2259
 5249SOL    HW127380   0.635   3.435   4.211 -1.0631 -1.0964 -0.1137
 5249SOL    HW227381   0.722   3.514   4.120  0.1959 -0.1001 -0.7213
 5250SOL     OW27382   1.589   1.898  13.245  0.0357 -0.2712 -0.4033
 5250SOL    HW127383   1.670   1.920  13.200  0.0717 -0.3548 -0.3786
 5250SOL    HW227384   1.595   1.961  13.317  0.6659  0.7323 -1.3410
 5251SOL     OW27385   0.505   4.489   6.277 -0.5769  0.6011  0.0383
 5251SOL    HW127386   0.549   4.427   6.218 -0.5946  0.3890  0.2459
 5251SOL    HW227387   0.425   4.437   6.288 -0.9881  1.8271  2.7609
 5252SOL     OW27388   2.964   4.363   8.272  0.3182  0.5958 -0.5690
 5252SOL    HW127389   3.054   4.392   8.286 -0.3652  1.7042  1.5606
 5252SOL    HW227390   2.909   4.399   8.342  2.2678  1.3562  0.5656
 5253SOL     OW27391   3.533   3.550   3.282 -0.3268 -0.1261  0.1851
 5253SOL    HW127392   3.446   3.549   3.321  0.4322  0.4247  1.8955
 5253SOL    HW227393   3.569   3.633   3.313  0.3186 -0.7602  1.1039
 5254SOL     OW27394   3.892   3.809   1.663  0.0894 -0.2733 -0.1088
 5254SOL    HW127395   3.914   3.819   1.756 -2.4472 -0.1443  0.4568
 5254SOL    HW227396   3.960   3.747   1.634  0.6460  0.4108 -0.2788
 5255SOL     OW27397   4.320   1.605   4.755  0.2247  0.5952 -0.0924
 5255SOL    HW127398   4.327   1.685   4.702 -1.1609  0.1376 -0.9932
 5255SOL    HW227399   4.374   1.631   4.829  2.1381  1.4421 -1.7699
 5256SOL     OW27400   2.455   3.929   2.831  0.4024  0.5656  0.0912
 5256SOL    HW127401   2.545   3.903   2.851  0.0549 -0.3588  0.4877
 5256SOL    HW227402   2.440   4.016   2.868 -1.0796  0.5409 -0.4589
 5257SOL     OW27403   1.424   3.513   3.370 -0.2564 -0.3880 -0.1099
 5257SOL    HW127404   1.389   3.579   3.430  1.2878  0.6126 -0.3301
 5257SOL    HW227405   1.442   3.566   3.292 -1.5048  2.5752  1.6076
 5258SOL     OW27406   1.298   0.721  14.654 -0.0364  0.1885 -0.0247
 5258SOL    HW127407   1.379   0.756  14.690  0.1978 -0.8108  0.4410
 5258SOL    HW227408   1.286   0.779  14.579 -1.1021  0.2467  0.1809
 5259SOL     OW27409   3.759   2.319   7.106 -0.3492 -0.0239  0.1375
 5259SOL    HW127410   3.708   2.400   7.095  0.6054  0.3639 -1.4595
 5259SOL    HW227411   3.847   2.348   7.085 -1.0074  1.0018 -1.1816
 5260SOL     OW27412   4.442   4.022   4.430 -0.2517 -0.1023  0.3941
 5260SOL    HW127413   4.356   4.041   4.392  0.4599 -1.4703 -1.8972
 5260SOL    HW227414   4.462   3.935   4.396 -0.8410 -0.0241 -0.1555
 5261SOL     OW27415   4.724   2.552  12.973 -0.1069  0.3113 -0.0309
 5261SOL    HW127416   4.652   2.490  12.958  0.1698  0.4764 -1.9923
 5261SOL    HW227417   4.667   2.623  13.003 -1.1853 -1.4442  2.1162
 5262SOL     OW27418   3.485   2.167   4.681  0.2803  0.1444  0.2729
 5262SOL    HW127419   3.427   2.243   4.675  0.2745  0.2079  1.1164
 5262SOL    HW227420   3.468   2.118   4.762  0.5375 -1.8217 -0.8640
 5263SOL     OW27421   2.743   0.935   5.494 -0.0477  0.0045  0.4809
 5263SOL    HW127422   2.803   0.983   5.436  0.6444 -1.4567 -0.0039
 5263SOL    HW227423   2.768   0.969   5.580 -0.7655  1.4074  0.1303
 5264SOL     OW27424   3.737   1.438   1.190 -0.1497  0.2045  0.7152
 5264SOL    HW127425   3.760   1.349   1.218  0.3515 -0.1320 -0.7483
 5264SOL    HW227426   3.649   1.426   1.153 -0.0927 -0.4073  0.7790
 5265SOL     OW27427   0.773   0.498   8.551 -0.3985 -0.1765  0.6175
 5265SOL    HW127428   0.758   0.518   8.459  3.4385 -1.3192 -0.2708
 5265SOL    HW227429   0.706   0.549   8.596 -0.3311  0.4797 -0.0134
 5266SOL     OW27430   2.088   4.213  15.804  0.5661 -0.6876  0.0963
 5266SOL    HW127431   2.181   4.199  15.790  0.4270 -2.3548  0.9464
 5266SOL    HW227432   2.077   4.220  15.899  1.1932 -5.3170  0.4743
 5267SOL     OW27433   1.921   3.354   1.504 -0.1314  0.1115  0.7883
 5267SOL    HW127434   1.941   3.419   1.437 -0.0037  1.6106  2.2838
 5267SOL    HW227435   2.005   3.312   1.521  0.4136  0.1118 -1.9001
 5268SOL     OW27436   0.746   0.003  15.507 -0.2119 -0.5414  0.0765
 5268SOL    HW127437   0.792   4.727  15.424 -0.0055 -0.3396  0.1592
 5268SOL    HW227438   0.657   0.030  15.484  0.6973  1.7475 -0.7588
 5269SOL     OW27439   4.571   3.721   6.264  0.2698 -0.5249 -0.4988
 5269SOL    HW127440   4.570   3.633   6.226  2.3880 -1.7474  2.2637
 5269SOL    HW227441   4.634   3.700   6.333  0.0332 -2.5307 -0.8802
 5270SOL     OW27442   2.195   2.678   1.618 -0.8222 -0.0683  0.3905
 5270SOL    HW127443   2.265   2.614   1.631 -0.8042  0.0052  0.6533
 5270SOL    HW227444   2.133   2.642   1.682  1.2502 -1.6524  1.5414
 5271SOL     OW27445   1.536   4.526  13.467 -0.5289  0.1116  0.2342
 5271SOL    HW127446   1.450   4.516  13.509 -0.3716  0.3795  0.6218
 5271SOL    HW227447   1.575   4.443  13.494 -2.0025 -0.5989  0.2108
 5272SOL     OW27448   4.424   4.175  12.265  0.3514 -0.2443  0.3248
 5272SOL    HW127449   4.503   4.142  12.222  0.2384  0.7261 -0.6404
 5272SOL    HW227450   4.375   4.096  12.286 -1.3349  0.4873 -0.8684
 5273SOL     OW27451   3.875   3.872  13.653 -0.1042  0.1104 -0.1377
 5273SOL    HW127452   3.970   3.865  13.663  0.0012  1.3421 -0.2831
 5273SOL    HW227453   3.857   3.821  13.574  0.6020  0.8754 -0.7844
 5274SOL     OW27454   4.333   4.410   9.680 -0.3316  0.5657  0.5069
 5274SOL    HW127455   4.282   4.412   9.761 -2.0305  1.1502 -0.6051
 5274SOL    HW227456   4.271   4.372   9.619  0.9285 -1.0645  0.2128
 5275SOL     OW27457   3.394   1.988   4.858 -0.6972 -0.1939  0.3096
 5275SOL    HW127458   3.423   1.899   4.835 -1.7545 -0.0037 -1.6978
 5275SOL    HW227459   3.314   1.967   4.906 -1.2307 -2.3151 -1.5139
 5276SOL     OW27460   4.423   4.181   1.781 -0.0510  0.0727 -0.1906
 5276SOL    HW127461   4.423   4.110   1.845 -0.5185 -0.4434 -0.7642
 5276SOL    HW227462   4.359   4.144   1.719  0.1176 -1.3298  0.4605
 5277SOL     OW27463   4.323   0.157  16.220 -0.1313  0.3201  0.0624
 5277SOL    HW127464   4.240   0.118  16.193 -0.0821  1.3406 -1.5597
 5277SOL    HW227465   4.367   0.143  16.137 -0.5563  0.1966 -0.1405
 5278SOL     OW27466   4.593   0.044   6.399 -0.6166 -0.7191  0.7397
 5278SOL    HW127467   4.571   0.007   6.484 -1.6462 -1.4072  0.1703
 5278SOL    HW227468   4.506   0.070   6.367 -0.4864 -3.6239 -2.0059
 5279SOL     OW27469   2.353   2.609   3.678  0.2404 -0.3767  0.5934
 5279SOL    HW127470   2.428   2.667   3.688  1.2418 -1.4883 -0.4339
 5279SOL    HW227471   2.284   2.674   3.672  1.0504  0.4975  0.7222
 5280SOL     OW27472   2.412   1.310   7.302 -0.6336 -0.0616 -0.1498
 5280SOL    HW127473   2.440   1.362   7.227  0.3572  0.3217  0.4763
 5280SOL    HW227474   2.486   1.329   7.360  1.0727 -1.3854 -1.8806
 5281SOL     OW27475   0.263   2.692   3.862  0.5404 -0.5958 -0.2758
 5281SOL    HW127476   0.353   2.710   3.888 -0.7640  0.1136  3.7589
 5281SOL    HW227477   0.267   2.597   3.851  0.7872 -0.1193 -4.0944
 5282SOL     OW27478   1.255   4.323   7.268  0.0420  0.5499  0.8787
 5282SOL    HW127479   1.265   4.414   7.242 -1.9930  0.4193 -0.3305
 5282SOL    HW227480   1.277   4.287   7.182  1.6137 -0.1966  1.5789
 5283SOL     OW27481   4.626   1.133  11.608  0.2711 -0.3934  0.0725
 5283SOL    HW127482   4.689   1.188  11.561  0.1938  2.1871  2.9404
 5283SOL    HW227483   4.675   1.061  11.648  0.9866 -0.6934 -1.3347
 5284SOL     OW27484   3.954   1.502   2.392  0.4122  0.6613  0.0747
 5284SOL    HW127485   3.958   1.463   2.305 -0.6126 -1.9047  1.1685
 5284SOL    HW227486   4.042   1.531   2.412 -0.3356  1.9641  1.4347
 5285SOL     OW27487   0.476   3.873  12.952  0.1560  0.0117 -0.1329
 5285SOL    HW127488   0.572   3.868  12.956  0.0916 -1.4930 -0.6403
 5285SOL    HW227489   0.462   3.958  12.909 -1.4606 -0.2638 -0.1513
 5286SOL     OW27490   2.268   4.595   7.093 -0.1587 -0.2152 -0.2667
 5286SOL    HW127491   2.183   4.630   7.066  0.2079  1.5493  0.8787
 5286SOL    HW227492   2.255   4.501   7.077  0.5388  0.0161 -2.2600
 5287SOL     OW27493   4.159   0.039  14.837 -0.6515 -0.5328  0.3745
 5287SOL    HW127494   4.228   0.101  14.812 -0.6460 -0.8544 -0.4097
 5287SOL    HW227495   4.217   4.705  14.863 -0.0156  0.0572  0.5981
 5288SOL     OW27496   2.202   3.072   1.273 -0.0378  0.0962 -0.2375
 5288SOL    HW127497   2.159   3.064   1.187  2.0075 -2.3434 -1.0461
 5288SOL    HW227498   2.173   2.997   1.325  1.3797 -1.0509 -1.0784
 5289SOL     OW27499   4.244   3.386   7.813 -0.1324  0.1174 -0.0653
 5289SOL    HW127500   4.258   3.466   7.762 -3.3536  0.1956 -0.8423
 5289SOL    HW227501   4.217   3.429   7.894 -2.2871 -1.0043 -0.1783
 5290SOL     OW27502   0.063   0.701  17.336 -0.4563 -0.1597  0.3703
 5290SOL    HW127503   4.735   0.686  17.268  1.0335 -0.2779 -1.0266
 5290SOL    HW227504   0.101   0.785  17.309 -0.7053 -0.3639 -0.6051
 5291SOL     OW27505   4.003   1.138   2.252  0.4751  0.2033 -0.0111
 5291SOL    HW127506   4.003   1.158   2.346  0.1657 -0.9266  0.2301
 5291SOL    HW227507   3.917   1.099   2.238  0.3426  0.6742 -0.5181
 5292SOL     OW27508   0.035   2.093  17.406 -0.0452 -0.0736  0.4152
 5292SOL    HW127509   0.066   2.047  17.484 -0.9342  2.2241  2.1540
 5292SOL    HW227510   4.697   2.046  17.371  0.4153  0.2740 -1.0317
 5293SOL     OW27511   3.719   1.710   9.544 -0.2191  0.4570  0.1277
 5293SOL    HW127512   3.810   1.683   9.530  0.0126  1.1027  0.3727
 5293SOL    HW227513   3.701   1.683   9.634  1.2372  1.0409  0.5994
 5294SOL     OW27514   3.978   2.814   4.437  0.3184 -0.0673 -0.3491
 5294SOL    HW127515   4.039   2.876   4.478  0.4112 -0.6528  0.3954
 5294SOL    HW227516   3.896   2.859   4.455  0.9645  0.6317  0.8780
 5295SOL     OW27517   1.662   0.841  11.176 -0.0763  0.2583  0.1950
 5295SOL    HW127518   1.567   0.841  11.188  0.1104 -1.4989  1.5803
 5295SOL    HW227519   1.684   0.934  11.177 -1.3188  0.5776 -1.1184
 5296SOL     OW27520   0.053   0.029   3.045 -0.3561 -0.1381  0.0901
 5296SOL    HW127521   0.011   0.095   3.101  1.7744  2.2081 -1.0870
 5296SOL    HW227522   0.143   0.050   3.069 -0.3289 -0.3878  0.2121
 5297SOL     OW27523   4.136   2.484   8.660 -0.0667 -0.3157  0.0470
 5297SOL    HW127524   4.172   2.516   8.578  0.0772  0.6189  0.4773
 5297SOL    HW227525   4.042   2.502   8.648 -0.0730 -0.0054  0.5655
 5298SOL     OW27526   0.569   2.876  13.668  0.0134 -0.0592 -0.2569
 5298SOL    HW127527   0.617   2.795  13.652  0.5994  0.4151 -0.8862
 5298SOL    HW227528   0.509   2.878  13.593  0.3999  1.0644 -0.5337
 5299SOL     OW27529   0.495   1.472  14.248 -0.0281 -0.4630 -0.2364
 5299SOL    HW127530   0.405   1.467  14.214  0.1183  2.8033 -1.1211
 5299SOL    HW227531   0.537   1.502  14.167  3.4274  1.4323  2.3168
 5300SOL     OW27532   1.700   0.988   3.472 -0.6214 -0.1082 -0.2168
 5300SOL    HW127533   1.674   1.080   3.477 -2.4710 -0.7062  1.0518
 5300SOL    HW227534   1.785   0.993   3.514 -0.2344 -2.6646 -0.6766
 5301SOL     OW27535   2.661   3.371   8.930 -0.3013 -0.2347 -0.8177
 5301SOL    HW127536   2.653   3.446   8.871 -0.0110  0.0845 -0.4523
 5301SOL    HW227537   2.653   3.421   9.011 -2.5250  1.6021 -2.1537
 5302SOL     OW27538   1.431   3.919   7.417  0.3503  0.2892  0.6484
 5302SOL    HW127539   1.393   3.945   7.501  1.7749  1.1069  1.0494
 5302SOL    HW227540   1.479   3.997   7.390 -1.1505  0.2876 -1.9894
 5303SOL     OW27541   0.101   4.110   3.740  0.4464 -0.1821  0.4634
 5303SOL    HW127542   0.017   4.068   3.759 -0.8706  1.0758 -2.4689
 5303SOL    HW227543   0.092   4.127   3.646 -1.7532 -1.5575  0.4354
 5304SOL     OW27544   2.965   2.205   8.498  0.6383  0.0297 -0.2416
 5304SOL    HW127545   2.900   2.234   8.434 -0.5801  1.4782  1.6581
 5304SOL    HW227546   3.019   2.283   8.510  0.2484  0.0553  1.3257
 5305SOL     OW27547   2.261   1.744  16.526  0.0132  0.2827  0.0390
 5305SOL    HW127548   2.266   1.836  16.501  1.0189  0.7197  1.8256
 5305SOL    HW227549   2.208   1.702  16.459 -0.4916  0.1223  0.5382
 5306SOL     OW27550   1.000   3.288  11.937 -0.2505 -0.3779 -0.0974
 5306SOL    HW127551   1.069   3.290  11.870 -1.0372  0.6379 -0.8776
 5306SOL    HW227552   0.921   3.314  11.890 -1.2977 -2.0926  0.7231
 5307SOL     OW27553   0.061   2.083   7.129  0.0707  0.3617  0.4190
 5307SOL    HW127554   4.716   2.109   7.168 -0.5725  1.4336 -1.6730
 5307SOL    HW227555   0.051   1.994   7.094  2.2226  0.0933  0.4448
 5308SOL     OW27556   4.017   0.490   9.830 -0.6188  0.9547  0.4623
 5308SOL    HW127557   4.016   0.431   9.754 -0.6654  2.1826 -0.4926
 5308SOL    HW227558   4.051   0.573   9.796  0.9107  0.9897  2.0346
 5309SOL     OW27559   1.747   2.564   8.149  0.3742 -0.0792  0.0348
 5309SOL    HW127560   1.755   2.488   8.092 -0.8694  0.2648 -0.5945
 5309SOL    HW227561   1.719   2.638   8.097  1.3130  1.4107  1.6525
 5310SOL     OW27562   4.033   1.908  10.064  0.6835  0.2830  0.5346
 5310SOL    HW127563   4.011   1.940  10.151  0.3419 -0.1490  0.6014
 5310SOL    HW227564   4.110   1.965  10.061  0.7878  0.1539  0.7906
 5311SOL     OW27565   4.684   2.674   6.106 -0.1826  0.7208  0.2755
 5311SOL    HW127566   0.002   2.619   6.051  0.9234 -0.3124  2.3958
 5311SOL    HW227567   4.669   2.631   6.190 -1.1412  0.7428  0.1126
 5312SOL     OW27568   2.433   4.662   3.936  0.7339 -0.4456  0.2324
 5312SOL    HW127569   2.403   4.574   3.917  1.6261 -0.7593  0.2702
 5312SOL    HW227570   2.526   4.641   3.944  1.1759  0.6677 -1.8894
 5313SOL     OW27571   1.604   2.700   4.003 -0.2700  0.2017 -0.7004
 5313SOL    HW127572   1.598   2.658   4.089  0.3929 -1.2045 -1.3356
 5313SOL    HW227573   1.614   2.628   3.941  0.5069 -0.9667  0.7863
 5314SOL     OW27574   1.625   3.243   3.085 -0.0126 -0.0059 -0.3316
 5314SOL    HW127575   1.680   3.307   3.129  0.0176 -0.5821  0.4766
 5314SOL    HW227576   1.669   3.238   3.001 -0.4339  2.2736 -0.6711
 5315SOL     OW27577   2.831   2.537   4.251  0.0968  0.1518 -0.0025
 5315SOL    HW127578   2.799   2.571   4.334 -0.6992 -0.4618 -0.0600
 5315SOL    HW227579   2.825   2.614   4.194  2.5927 -0.6557 -1.3823
 5316SOL     OW27580   3.627   1.998   0.026  0.7441 -0.6086  0.0006
 5316SOL    HW127581   3.562   2.066   0.008  0.1639 -1.6128 -1.6302
 5316SOL    HW227582   3.657   2.011   0.116  0.6664 -2.6672  0.3208
 5317SOL     OW27583   3.795   4.586   6.129 -0.0356 -0.0315  0.0195
 5317SOL    HW127584   3.719   4.604   6.184 -1.1935  2.6585 -2.4536
 5317SOL    HW227585   3.753   4.520   6.075 -1.6899  1.1413 -0.1423
 5318SOL     OW27586   4.471   1.136   1.999  0.0368 -0.5291 -0.1149
 5318SOL    HW127587   4.425   1.206   1.954  2.8787  1.1704 -0.3628
 5318SOL    HW227588   4.429   1.132   2.085  1.1620  1.9310  0.5245
 5319SOL     OW27589   0.913   3.287   2.062  0.8743 -0.3269 -0.3745
 5319SOL    HW127590   0.947   3.311   2.148  0.4492  0.6305 -0.4667
 5319SOL    HW227591   0.996   3.264   2.021  1.0033  0.3576 -0.5066
 5320SOL     OW27592   4.549   0.035  10.536  0.0889  0.1034 -0.6570
 5320SOL    HW127593   4.492   0.030  10.613  1.4541  1.6360  0.4398
 5320SOL    HW227594   4.501   0.091  10.476 -0.8878  1.8308  1.7330
 5321SOL     OW27595   2.093   0.534   6.910  0.7701  0.7279  0.1453
 5321SOL    HW127596   2.005   0.553   6.879  0.2299  0.5445  1.5656
 5321SOL    HW227597   2.079   0.482   6.989 -0.7620 -2.3887 -2.1356
 5322SOL     OW27598   0.416   2.264  14.489 -0.1996 -0.4669  0.0801
 5322SOL    HW127599   0.487   2.237  14.430 -0.3918 -0.4406 -0.1681
 5322SOL    HW227600   0.446   2.354  14.497  0.0697 -0.5706  0.2421
 5323SOL     OW27601   4.350   2.877   2.250 -0.0401 -0.5128 -0.2262
 5323SOL    HW127602   4.373   2.821   2.323 -0.2748 -0.1205  0.1511
 5323SOL    HW227603   4.261   2.843   2.237 -0.6565  1.0591 -0.2295
 5324SOL     OW27604   1.467   2.104   0.257  0.6731 -0.0693 -0.3944
 5324SOL    HW127605   1.384   2.094   0.211  0.7394  0.0047 -0.5320
 5324SOL    HW227606   1.448   2.042   0.327  1.4238 -1.1319 -1.1227
 5325SOL     OW27607   4.158   1.053   7.001 -0.2068 -0.0521  0.4307
 5325SOL    HW127608   4.118   1.092   6.923 -1.8452 -0.3625  1.1206
 5325SOL    HW227609   4.222   1.121   7.023  0.6383 -0.9589  0.7566
 5326SOL     OW27610   2.824   0.787   7.506 -0.1386 -0.8021  0.2458
 5326SOL    HW127611   2.768   0.758   7.578 -1.0992 -2.5673 -1.2114
 5326SOL    HW227612   2.906   0.803   7.552 -1.3745  2.4231  1.3012
 5327SOL     OW27613   1.054   0.324   2.152 -0.0268  0.2081 -0.1830
 5327SOL    HW127614   1.026   0.400   2.203 -1.5071  0.9960 -2.1904
 5327SOL    HW227615   1.144   0.353   2.140  0.5354 -1.4745 -0.0059
 5328SOL     OW27616   1.856   0.373   1.909 -0.0889 -0.2606 -0.1087
 5328SOL    HW127617   1.765   0.347   1.893 -0.3940  0.0984  1.0494
 5328SOL    HW227618   1.882   0.430   1.836  0.7478  1.3210  1.4339
 5329SOL     OW27619   1.117   3.841   4.595 -0.1109 -0.1404  0.1157
 5329SOL    HW127620   1.137   3.748   4.591 -0.6952 -0.3206  1.1943
 5329SOL    HW227621   1.055   3.843   4.522 -0.5992  1.4487  0.5780
 5330SOL     OW27622   0.478   3.391   3.637 -0.2121 -0.4337 -0.5214
 5330SOL    HW127623   0.388   3.364   3.621 -0.2886 -1.2437  1.2819
 5330SOL    HW227624   0.474   3.385   3.732  0.3998 -0.8656 -0.5200
 5331SOL     OW27625   2.583   3.202   3.489 -0.3997 -0.1899 -0.3140
 5331SOL    HW127626   2.630   3.119   3.502  0.4749  0.5603  1.3102
 5331SOL    HW227627   2.547   3.174   3.404 -2.4601 -0.1102  0.5439
 5332SOL     OW27628   4.180   1.915  10.789  0.1103  0.1188  0.5709
 5332SOL    HW127629   4.199   1.824  10.766 -0.7151  0.1092 -0.1043
 5332SOL    HW227630   4.270   1.942  10.805 -0.5338  1.3641  2.0944
 5333SOL     OW27631   1.264   1.692   4.405  0.4033  0.0709 -0.4100
 5333SOL    HW127632   1.184   1.680   4.354 -0.1080 -1.5448  0.7736
 5333SOL    HW227633   1.268   1.602   4.438 -2.8307  0.7079  1.6765
 5334SOL     OW27634   2.187   1.446   2.823  0.5236  0.0057 -0.4419
 5334SOL    HW127635   2.142   1.525   2.855 -0.9470  0.2198 -3.0498
 5334SOL    HW227636   2.275   1.459   2.859  0.1633 -0.5606  0.6513
 5335SOL     OW27637   1.355   2.766   8.097  0.2352  0.5975  0.1867
 5335SOL    HW127638   1.292   2.748   8.167 -0.8714 -0.4851 -1.0927
 5335SOL    HW227639   1.344   2.694   8.035 -1.0921  1.0569 -0.1060
 5336SOL     OW27640   1.705   4.602   9.431 -0.6985  0.4883 -0.1243
 5336SOL    HW127641   1.755   4.683   9.437  2.2867 -1.3662 -0.2947
 5336SOL    HW227642   1.655   4.610   9.350  0.5728 -0.4341 -1.0042
 5337SOL     OW27643   2.191   0.794   0.403 -0.0461  0.3180 -0.4569
 5337SOL    HW127644   2.249   0.719   0.393  0.2779  0.4021  0.8502
 5337SOL    HW227645   2.126   0.759   0.342  0.3817  0.2612 -0.8788
 5338SOL     OW27646   3.325   1.841   2.826 -0.3086  0.2783 -0.1439
 5338SOL    HW127647   3.374   1.796   2.758  2.3468  3.6139 -0.4372
 5338SOL    HW227648   3.335   1.932   2.799 -2.7860  0.7546  0.5378
 5339SOL     OW27649   3.464   1.193  17.719  0.7975 -0.1840  0.3961
 5339SOL    HW127650   3.387   1.249  17.711 -0.0691 -1.5094 -0.4987
 5339SOL    HW227651   3.506   1.202  17.634 -0.7074 -0.4929 -0.3811
 5340SOL     OW27652   3.364   4.076   5.951 -0.0170 -0.0079  0.2618
 5340SOL    HW127653   3.293   4.141   5.944  0.6159  0.6626  0.0973
 5340SOL    HW227654   3.394   4.074   5.861 -1.7001  0.3504 -0.3096
 5341SOL     OW27655   4.130   0.593   2.448 -0.3290 -0.4752  0.6389
 5341SOL    HW127656   4.182   0.634   2.517 -1.6844 -0.8782  1.8929
 5341SOL    HW227657   4.054   0.650   2.440  1.8665  2.5105  1.0509
 5342SOL     OW27658   4.408   1.231   6.990 -0.3074 -0.2904  0.3608
 5342SOL    HW127659   4.379   1.294   6.924 -0.1514  0.3847  0.9453
 5342SOL    HW227660   4.498   1.212   6.966 -0.0830 -0.1141  1.0849
 5343SOL     OW27661   2.363   3.168   2.432  0.6067 -0.2172  0.0442
 5343SOL    HW127662   2.364   3.151   2.337  0.5035  2.6780 -0.4857
 5343SOL    HW227663   2.455   3.161   2.456  1.1217 -0.9734 -2.1280
 5344SOL     OW27664   1.120   1.062   8.202  0.3902 -0.1067 -0.3481
 5344SOL    HW127665   1.127   1.035   8.111  0.8736  0.4628 -0.4810
 5344SOL    HW227666   1.175   1.140   8.206  1.3825 -0.8143 -0.0694
 5345SOL     OW27667   1.897   0.603   5.550 -0.5685 -0.2448  0.1584
 5345SOL    HW127668   1.940   0.651   5.479 -0.7079 -2.4814 -1.4309
 5345SOL    HW227669   1.934   0.652   5.624 -1.0540  1.7097 -0.9075
 5346SOL     OW27670   3.271   3.356   6.318 -0.0730  0.1940 -0.0642
 5346SOL    HW127671   3.176   3.356   6.310 -0.1625 -1.3892  1.2286
 5346SOL    HW227672   3.278   3.448   6.289  1.8175 -0.1543 -0.7681
 5347SOL     OW27673   4.163   4.417   9.907 -0.0105  0.0105  0.1187
 5347SOL    HW127674   4.095   4.362   9.947 -1.4016  1.3198 -0.4302
 5347SOL    HW227675   4.115   4.498   9.890  0.3135 -0.3404 -2.4812
 5348SOL     OW27676   1.054   2.976   1.850  0.2635 -0.1854  0.0533
 5348SOL    HW127677   1.034   3.017   1.935 -2.1564  2.1436 -1.6281
 5348SOL    HW227678   1.074   3.052   1.795 -1.9076  0.4557  0.1035
 5349SOL     OW27679   2.933   4.683   5.680  0.3018 -0.3476 -0.2667
 5349SOL    HW127680   2.911   4.590   5.687  0.4364 -0.1757  2.3167
 5349SOL    HW227681   2.896   4.707   5.594  0.5471 -2.2658 -0.9116
 5350SOL     OW27682   4.327   1.607   8.408  0.4856 -0.0468  0.5514
 5350SOL    HW127683   4.288   1.527   8.374  2.9272 -0.2450 -1.8060
 5350SOL    HW227684   4.314   1.665   8.333 -0.8077  0.9265  1.5127
 5351SOL     OW27685   1.895   1.579   6.109  0.0888 -0.2358 -0.1163
 5351SOL    HW127686   1.871   1.617   6.024 -0.7698  0.4619  0.4360
 5351SOL    HW227687   1.976   1.534   6.087 -0.3074 -0.4270 -1.2110
 5352SOL     OW27688   3.660   1.852  13.283 -0.0609  0.2468 -0.7506
 5352SOL    HW127689   3.714   1.794  13.336 -1.3848 -0.6575 -0.3786
 5352SOL    HW227690   3.669   1.936  13.327  0.4847 -0.5319  0.6343
 5353SOL     OW27691   4.265   1.454   6.275 -0.3748  0.3299 -0.0832
 5353SOL    HW127692   4.297   1.544   6.273 -0.5613  0.4017  0.2232
 5353SOL    HW227693   4.199   1.459   6.206  1.0558 -0.6277 -1.5458
 5354SOL     OW27694   1.057   1.463   8.558 -0.7437 -0.3297  0.1586
 5354SOL    HW127695   1.009   1.540   8.588  0.5604  1.4497 -2.3466
 5354SOL    HW227696   1.066   1.414   8.640 -2.3592  1.8101  1.6184
 5355SOL     OW27697   3.037   2.099   3.433  0.2594  0.2228  0.7967
 5355SOL    HW127698   2.952   2.073   3.470 -0.0899  0.5272  0.2024
 5355SOL    HW227699   3.006   2.132   3.349  1.6163  2.6322  1.2408
 5356SOL     OW27700   3.313   1.466   8.158 -0.0657 -0.0729 -0.6776
 5356SOL    HW127701   3.252   1.524   8.203  0.2665 -0.1292 -0.1506
 5356SOL    HW227702   3.270   1.433   8.079 -0.2726 -2.9659  0.6493
 5357SOL     OW27703   1.745   4.653   8.506  0.1455 -0.5247  0.9105
 5357SOL    HW127704   1.777   4.705   8.580 -0.4576 -0.8681  1.4116
 5357SOL    HW227705   1.780   4.695   8.428 -2.0826  1.5514  1.0120
 5358SOL     OW27706   1.421   0.432   5.805 -0.3100  0.1742  0.6537
 5358SOL    HW127707   1.464   0.512   5.835  2.4191 -0.2969 -2.0676
 5358SOL    HW227708   1.345   0.463   5.756 -0.2040 -1.0568 -0.2898
 5359SOL     OW27709   4.314   1.694   7.946 -0.0142 -0.4440  0.2364
 5359SOL    HW127710   4.319   1.692   8.041 -1.7284  0.4699  0.3380
 5359SOL    HW227711   4.400   1.736   7.932 -0.6080  0.9516  0.7504
 5360SOL     OW27712   2.548   1.974   8.519  0.2189 -0.2350 -0.4196
 5360SOL    HW127713   2.522   2.029   8.446  0.2354  1.0474  0.5397
 5360SOL    HW227714   2.643   1.988   8.521  0.2812 -0.6784 -0.3758
 5361SOL     OW27715   0.640   1.830   5.244  0.0681 -0.4465  0.1206
 5361SOL    HW127716   0.569   1.873   5.197  2.2587  0.6731 -2.1474
 5361SOL    HW227717   0.658   1.754   5.188  1.5084 -0.7799  1.0449
 5362SOL     OW27718   2.130   1.370   2.560  0.0440 -0.0333 -0.0765
 5362SOL    HW127719   2.168   1.383   2.647  2.0554  0.0730 -0.9649
 5362SOL    HW227720   2.038   1.389   2.577  0.1474 -0.0083  0.4490
 5363SOL     OW27721   2.781   0.291   3.384 -0.2077 -0.6108  0.1938
 5363SOL    HW127722   2.863   0.245   3.367  0.3148  0.1926  0.5414
 5363SOL    HW227723   2.820   0.379   3.381 -1.6710  0.1709  4.0582
 5364SOL     OW27724   1.892   3.744  10.566  0.6527  0.3826 -0.2404
 5364SOL    HW127725   1.972   3.709  10.605  1.1581  0.4736 -1.2014
 5364SOL    HW227726   1.883   3.833  10.600 -0.8866  0.5093 -0.9566
 5365SOL     OW27727   2.311   4.408   3.919  0.5933 -0.1589 -0.7272
 5365SOL    HW127728   2.394   4.366   3.898  0.1849 -1.9308  1.1398
 5365SOL    HW227729   2.250   4.344   3.883 -0.0387 -0.8570  1.5743
 5366SOL     OW27730   0.161   0.089   9.221  0.0830 -0.2903  0.2156
 5366SOL    HW127731   0.155   0.054   9.132  1.3883  0.4143 -0.1504
 5366SOL    HW227732   0.074   0.061   9.248  0.2571 -3.2899 -2.3275
 5367SOL     OW27733   0.424   3.347   5.980  0.7925 -0.4960  0.0930
 5367SOL    HW127734   0.411   3.260   5.942 -1.2773  1.2284 -3.1744
 5367SOL    HW227735   0.422   3.315   6.070  0.1053  2.2482  1.0598
 5368SOL     OW27736   3.910   2.096   4.202  0.4580 -0.1113 -0.7257
 5368SOL    HW127737   3.902   2.051   4.286 -1.1720  0.5495 -0.5088
 5368SOL    HW227738   3.824   2.073   4.167  0.0462 -0.8451  0.7801
 5369SOL     OW27739   2.714   1.059  12.864 -0.5087 -0.1014 -0.0884
 5369SOL    HW127740   2.626   1.093  12.882 -0.7535 -1.3858  1.1341
 5369SOL    HW227741   2.702   0.964  12.862 -2.2506  0.2088 -3.4482
 5370SOL     OW27742   0.378   0.913   7.022  0.8208  0.5441 -0.1033
 5370SOL    HW127743   0.423   0.996   7.007  2.8555 -0.8575 -1.6502
 5370SOL    HW227744   0.457   0.858   7.021 -1.6071 -2.9313 -0.6628
 5371SOL     OW27745   0.936   0.363   8.991  0.1813 -0.0401  0.6690
 5371SOL    HW127746   0.873   0.356   8.919 -0.7260  0.2893  1.4350
 5371SOL    HW227747   0.966   0.274   9.013  0.0247 -0.1034  0.6211
 5372SOL     OW27748   3.297   1.380   1.466 -0.6193 -0.2663  0.3302
 5372SOL    HW127749   3.389   1.389   1.491 -0.9755  1.0203  1.1973
 5372SOL    HW227750   3.267   1.429   1.543  0.6045 -0.1221  0.7199
 5373SOL     OW27751   3.867   2.846   8.206  0.0364 -0.1954  0.2168
 5373SOL    HW127752   3.936   2.868   8.144 -1.9644  2.2740 -1.1902
 5373SOL    HW227753   3.906   2.876   8.288  1.2009 -0.3056 -0.3021
 5374SOL     OW27754   1.354   0.683   8.754  0.3239 -0.3709 -0.5763
 5374SOL    HW127755   1.345   0.682   8.849  1.3334 -0.3663 -0.4798
 5374SOL    HW227756   1.270   0.725   8.736  1.3873  2.3583  0.8447
 5375SOL     OW27757   4.116   2.544   9.348  0.7154 -0.2748  0.3448
 5375SOL    HW127758   4.198   2.576   9.313 -0.0872 -0.8426 -2.0316
 5375SOL    HW227759   4.121   2.450   9.335  1.9987 -0.4380  2.0439
 5376SOL     OW27760   4.584   0.619   2.330  0.3298 -0.7010  0.1807
 5376SOL    HW127761   4.653   0.581   2.385  1.3772  0.7412 -0.1436
 5376SOL    HW227762   4.520   0.548   2.332  1.2238 -1.4956  0.3320
 5377SOL     OW27763   2.594   3.364  12.302 -0.0752 -0.2547 -0.2980
 5377SOL    HW127764   2.562   3.310  12.230 -1.2577 -2.7421  2.1090
 5377SOL    HW227765   2.591   3.305  12.377  1.9487  0.3222  0.2473
 5378SOL     OW27766   3.353   0.687   4.763  0.3364 -0.4633 -0.3551
 5378SOL    HW127767   3.431   0.711   4.713  0.6789  1.1510  0.9415
 5378SOL    HW227768   3.399   0.654   4.840 -1.3143  0.8551  1.1901
 5379SOL     OW27769   2.818   1.022   8.179 -0.2972  0.5989 -0.0186
 5379SOL    HW127770   2.858   1.022   8.266  2.0170 -2.2400 -1.0936
 5379SOL    HW227771   2.747   1.080   8.207 -0.6863 -0.2586  0.7689
 5380SOL     OW27772   0.413   1.951  14.187 -0.3999  0.3483  0.2056
 5380SOL    HW127773   0.341   1.917  14.134  0.3517 -2.5404  1.0425
 5380SOL    HW227774   0.471   1.994  14.123  0.4977  0.0326  0.8048
 5381SOL     OW27775   2.226   1.441   3.388  0.1573 -0.7716  0.6730
 5381SOL    HW127776   2.206   1.390   3.310 -1.6832 -0.3424  0.8765
 5381SOL    HW227777   2.317   1.411   3.393  0.5676 -0.1521 -3.5320
 5382SOL     OW27778   1.226   0.935   9.832  0.3116  0.0250 -0.4699
 5382SOL    HW127779   1.213   0.879   9.909 -0.8251 -1.6443 -1.8688
 5382SOL    HW227780   1.319   0.927   9.813  0.2837 -1.5453  0.0499
 5383SOL     OW27781   0.470   3.235  11.340  0.4255 -0.1146 -0.2662
 5383SOL    HW127782   0.432   3.315  11.303  0.0533 -0.1717 -0.0056
 5383SOL    HW227783   0.561   3.235  11.311 -0.0674  2.6809 -1.7896
 5384SOL     OW27784   0.554   1.311   4.860 -0.2949 -0.0086 -0.1649
 5384SOL    HW127785   0.614   1.371   4.815 -1.1137  0.1216 -1.0805
 5384SOL    HW227786   0.584   1.225   4.832  2.6251  0.4137  1.6248
 5385SOL     OW27787   2.209   2.598   2.410  0.1330  0.7601 -0.1048
 5385SOL    HW127788   2.155   2.598   2.330 -0.8304 -1.6859  0.5715
 5385SOL    HW227789   2.228   2.692   2.404  1.2561  0.3731 -2.8381
 5386SOL     OW27790   0.693   1.411  17.088  0.1156  0.5611  0.1804
 5386SOL    HW127791   0.704   1.502  17.116 -0.1798  0.6408  0.0358
 5386SOL    HW227792   0.622   1.389  17.149  1.1246 -2.6189  0.1944
 5387SOL     OW27793   1.390   3.297   6.195 -0.0358 -0.0838 -0.2232
 5387SOL    HW127794   1.300   3.324   6.177  0.1445  1.1103  0.6190
 5387SOL    HW227795   1.404   3.342   6.278  4.4110 -0.4817 -0.7810
 5388SOL     OW27796   1.647   0.088  14.100  0.2832  0.0165  0.2601
 5388SOL    HW127797   1.650   0.088  14.196 -0.2973  1.4327  0.2699
 5388SOL    HW227798   1.607   0.174  14.090 -2.4913 -1.4398 -1.3831
 5389SOL     OW27799   0.039   3.692   8.772 -0.1512 -0.1921  0.1467
 5389SOL    HW127800   4.730   3.658   8.695 -2.9898 -0.7287  2.1381
 5389SOL    HW227801   0.023   3.787   8.763  0.6432 -0.1063 -0.3577
 5390SOL     OW27802   2.255   1.232   6.287  0.0730 -0.3098 -0.7907
 5390SOL    HW127803   2.230   1.264   6.374 -0.6985 -0.5236 -0.9403
 5390SOL    HW227804   2.303   1.156   6.320 -1.4456 -1.4586 -1.2410
 5391SOL     OW27805   2.545   0.160   4.401 -0.0668  0.0532  0.2907
 5391SOL    HW127806   2.478   0.208   4.449  1.1305  1.6852  0.3591
 5391SOL    HW227807   2.507   0.110   4.329  0.4569  0.0068  0.0443
 5392SOL     OW27808   0.380   2.896   0.736  0.2481 -0.0590  0.2595
 5392SOL    HW127809   0.409   2.956   0.668  1.2757 -3.2135 -2.1083
 5392SOL    HW227810   0.305   2.951   0.757 -0.5634 -0.7164 -0.8900
 5393SOL     OW27811   2.520   1.359   3.359  0.4459 -0.3034  0.3161
 5393SOL    HW127812   2.532   1.395   3.271 -1.7953 -2.1090 -0.7313
 5393SOL    HW227813   2.599   1.307   3.374  1.1013  0.7979  0.6783
 5394SOL     OW27814   3.315   1.077   8.400 -0.2850  0.0758  0.1354
 5394SOL    HW127815   3.264   1.138   8.454  0.2123  0.8125 -0.2121
 5394SOL    HW227816   3.407   1.079   8.430  0.0107  1.0989 -0.8333
 5395SOL     OW27817   3.082   3.099   6.805 -0.0121 -0.3366 -0.4467
 5395SOL    HW127818   3.158   3.124   6.858 -0.1102  0.6995 -0.7937
 5395SOL    HW227819   3.103   3.009   6.782 -2.0319 -0.7302 -0.7463
 5396SOL     OW27820   4.323   0.392   7.061  0.0285 -0.7571 -0.1440
 5396SOL    HW127821   4.244   0.344   7.086 -0.9049  1.1851  0.6395
 5396SOL    HW227822   4.335   0.376   6.967  1.4161  1.4432 -0.3454
 5397SOL     OW27823   1.747   2.442   2.668  0.7382  1.1536  0.2981
 5397SOL    HW127824   1.717   2.419   2.579  2.0588 -1.8362  0.6300
 5397SOL    HW227825   1.840   2.419   2.663  0.6182  1.0133 -1.5783
 5398SOL     OW27826   4.435   1.089  12.264 -0.1289  0.1316  0.0546
 5398SOL    HW127827   4.516   1.038  12.265 -1.0898 -1.4306 -1.2638
 5398SOL    HW227828   4.375   1.043  12.206  0.3864 -0.6607  0.1534
 5399SOL     OW27829   3.805   1.048   1.958 -0.1015  0.5910  0.5050
 5399SOL    HW127830   3.775   1.018   2.044  1.0642  0.1074  0.7356
 5399SOL    HW227831   3.740   1.115   1.934 -2.8570 -1.2605  2.7472
 5400SOL     OW27832   3.804   0.150   0.359 -0.6699 -0.1654 -0.2989
 5400SOL    HW127833   3.874   0.098   0.319  0.6083  3.0325 -2.1905
 5400SOL    HW227834   3.763   0.082   0.412  0.0964  0.6287  1.2879
 5401SOL     OW27835   2.717   0.406   7.542 -0.4766  0.2603  0.2359
 5401SOL    HW127836   2.767   0.471   7.591  0.8458 -1.0262  0.5937
 5401SOL    HW227837   2.713   0.334   7.606  2.6703  0.8917  1.1171
 5402SOL     OW27838   2.472   1.537   7.565  0.7353 -0.1146 -0.2036
 5402SOL    HW127839   2.463   1.598   7.492 -1.5673 -0.1604  0.0335
 5402SOL    HW227840   2.543   1.485   7.528  1.0257 -3.1947  4.7122
 5403SOL     OW27841   2.316   1.556   2.470  0.0296 -0.5476 -0.2709
 5403SOL    HW127842   2.247   1.588   2.411  2.2014  1.4393 -1.7111
 5403SOL    HW227843   2.265   1.484   2.507 -1.2853  0.9133  0.7928
 5404SOL     OW27844   4.309   0.646   6.713  0.2739 -0.1139  0.3064
 5404SOL    HW127845   4.312   0.594   6.632 -1.2042  1.1918 -0.5849
 5404SOL    HW227846   4.225   0.610   6.741 -0.2279  0.0865 -0.9103
 5405SOL     OW27847   1.840   0.508  16.787  0.3240  0.5862 -0.3471
 5405SOL    HW127848   1.903   0.523  16.717 -0.3128  2.2164 -0.5619
 5405SOL    HW227849   1.891   0.530  16.865 -1.5960 -0.6739  1.2726
 5406SOL     OW27850   3.149   1.353   4.057  0.0847  0.3035  0.6258
 5406SOL    HW127851   3.068   1.351   4.108 -0.8841 -4.5599 -1.0221
 5406SOL    HW227852   3.164   1.266   4.019  0.8825  0.0167  1.6160
 5407SOL     OW27853   1.767   1.200   5.775 -0.3969 -0.4429  0.7290
 5407SOL    HW127854   1.775   1.121   5.722  3.1344  1.0303 -0.9239
 5407SOL    HW227855   1.850   1.197   5.821 -0.3820 -0.2456  0.7155
 5408SOL     OW27856   3.193   2.360   3.155 -0.2866  0.3601 -0.4331
 5408SOL    HW127857   3.148   2.444   3.165 -1.5909 -0.5880  1.5175
 5408SOL    HW227858   3.274   2.394   3.115 -0.3735  1.7844  0.5879
 5409SOL     OW27859   0.195   2.093   8.501 -0.0604  0.3453 -0.3796
 5409SOL    HW127860   0.185   2.046   8.584 -1.8288  0.1042 -0.7109
 5409SOL    HW227861   0.211   2.020   8.441 -0.6746 -0.7366  0.7759
 5410SOL     OW27862   1.125   3.280   0.845 -0.6592 -0.0593 -0.0056
 5410SOL    HW127863   1.100   3.372   0.856 -0.3113  0.0653 -0.3014
 5410SOL    HW227864   1.139   3.259   0.937 -0.2622 -0.5788 -0.1921
 5411SOL     OW27865   1.335   3.259  16.897  0.1029 -0.0820 -0.3674
 5411SOL    HW127866   1.313   3.308  16.976 -0.0073 -1.1129  0.2295
 5411SOL    HW227867   1.418   3.216  16.916  1.2709  0.8393 -3.2488
 5412SOL     OW27868   4.307   3.925   8.141 -0.5304  0.7876 -0.0741
 5412SOL    HW127869   4.297   3.966   8.227  2.3850  2.5175 -0.5679
 5412SOL    HW227870   4.400   3.906   8.154 -0.8179  0.6136  1.8070
 5413SOL     OW27871   3.774   2.056   2.842 -0.2491 -0.0257  0.2068
 5413SOL    HW127872   3.830   2.123   2.883  0.3915 -0.2704 -0.2697
 5413SOL    HW227873   3.837   1.984   2.837 -0.6416 -0.3269 -0.3430
 5414SOL     OW27874   1.066   1.839   4.741  0.2750 -0.0550  0.1883
 5414SOL    HW127875   1.110   1.901   4.799  1.0097  1.0834 -1.6112
 5414SOL    HW227876   1.061   1.902   4.670 -0.7254 -1.8765 -1.3744
 5415SOL     OW27877   1.954   4.523   3.864  0.3740 -0.0321 -0.4938
 5415SOL    HW127878   2.034   4.573   3.880 -0.0717 -0.2218  2.3100
 5415SOL    HW227879   1.954   4.456   3.933  0.6998  2.0459  1.5272
 5416SOL     OW27880   3.114   1.380   3.025  0.4285 -0.3448 -0.2848
 5416SOL    HW127881   3.059   1.458   3.021  2.1448  0.9485  1.1947
 5416SOL    HW227882   3.196   1.428   3.016 -0.1912  0.7624  0.0221
 5417SOL     OW27883   0.060   2.590   5.747 -0.8493 -0.4134  0.0008
 5417SOL    HW127884   0.136   2.596   5.805 -1.7452 -1.1047  1.2395
 5417SOL    HW227885   0.073   2.672   5.699 -0.8919  0.5831  1.7146
 5418SOL     OW27886   1.682   2.746   0.575 -0.4749  0.0083  0.1607
 5418SOL    HW127887   1.680   2.818   0.512 -2.0773 -0.7458 -0.6331
 5418SOL    HW227888   1.743   2.781   0.640 -0.7639  2.0740 -0.6865
 5419SOL     OW27889   2.783   1.954  11.034 -0.3219 -0.0521 -0.4689
 5419SOL    HW127890   2.766   1.895  11.108  0.8585 -2.2862 -1.9945
 5419SOL    HW227891   2.762   2.037  11.077  0.3699  0.2175 -0.6520
 5420SOL     OW27892   4.492   4.475   5.274  0.0765  0.5156  0.4628
 5420SOL    HW127893   4.411   4.429   5.294 -0.0912  0.8953  0.6583
 5420SOL    HW227894   4.504   4.539   5.344 -0.7180 -1.0770  2.0598
 5421SOL     OW27895   1.111   1.534   0.465 -0.2837  0.1965 -0.1944
 5421SOL    HW127896   1.192   1.581   0.445 -0.2756  0.2411 -0.0526
 5421SOL    HW227897   1.055   1.563   0.393  0.7826 -1.1915 -1.6085
 5422SOL     OW27898   3.848   1.606  10.206  0.9433  0.0487  0.2284
 5422SOL    HW127899   3.830   1.674  10.271  0.5593  0.7621 -0.6159
 5422SOL    HW227900   3.840   1.654  10.123  2.7811 -0.9748 -0.5272
 5423SOL     OW27901   3.509   2.202   7.393  0.4909  0.6721 -0.5233
 5423SOL    HW127902   3.562   2.135   7.437 -1.0296 -0.9062 -1.1034
 5423SOL    HW227903   3.544   2.183   7.306  0.7960 -0.5345 -0.1505
 5424SOL     OW27904   0.520   3.377   5.643 -0.0752 -0.2171 -0.1394
 5424SOL    HW127905   0.580   3.313   5.681 -1.1030 -0.4582  1.1082
 5424SOL    HW227906   0.483   3.407   5.726  0.2096 -0.1313 -0.0427
 5425SOL     OW27907   1.364   0.049   7.354  0.6550  0.0603  0.1408
 5425SOL    HW127908   1.456   0.035   7.329  1.0604  1.2085  0.9514
 5425SOL    HW227909   1.376   0.022   7.445  0.0943  2.4910  0.9422
 5426SOL     OW27910   2.928   3.734   6.232 -0.3119  0.3751  0.2345
 5426SOL    HW127911   2.924   3.660   6.172 -0.4211 -0.4476  1.2724
 5426SOL    HW227912   2.955   3.684   6.309  1.0179 -1.0331 -1.1392
 5427SOL     OW27913   0.315   4.661   5.702  1.0947 -0.2528 -0.7755
 5427SOL    HW127914   0.349   4.735   5.653 -2.8543  1.4027 -1.0429
 5427SOL    HW227915   0.269   4.701   5.776  0.0660  0.6925 -1.9348
 5428SOL     OW27916   0.133   1.876   4.578 -0.1201  0.4405 -0.0148
 5428SOL    HW127917   0.215   1.891   4.625  0.0431  0.4291 -0.2975
 5428SOL    HW227918   0.141   1.780   4.576  1.0164  0.5462 -0.8535
 5429SOL     OW27919   1.961   0.216  16.895 -0.3540 -0.7101  0.0015
 5429SOL    HW127920   1.912   0.151  16.845  2.4801 -1.0051 -2.3890
 5429SOL    HW227921   1.886   0.265  16.929  0.3245  1.1598 -1.1848
 5430SOL     OW27922   3.142   4.265  12.870  0.4077  0.6098  0.2123
 5430SOL    HW127923   3.107   4.351  12.892 -1.5510  0.0048 -0.5413
 5430SOL    HW227924   3.144   4.271  12.775 -1.0636  0.3978  0.1749
 5431SOL     OW27925   3.205   1.743  10.698 -0.5157  0.2435 -0.1082
 5431SOL    HW127926   3.214   1.694  10.617 -1.0952 -0.8770  0.5151
 5431SOL    HW227927   3.194   1.680  10.769  1.4587  0.3443  0.2885
 5432SOL     OW27928   0.390   2.397  17.158 -0.1492 -0.4866 -0.0091
 5432SOL    HW127929   0.382   2.341  17.235  2.3723  0.5978  1.0357
 5432SOL    HW227930   0.313   2.365  17.111 -1.1502  2.0720 -0.1014
 5433SOL     OW27931   0.938   1.421   2.834 -0.3815 -0.1521  0.1530
 5433SOL    HW127932   0.944   1.504   2.788  1.4238 -0.3720  0.0100
 5433SOL    HW227933   0.865   1.431   2.896 -0.5346  0.7762 -0.1790
 5434SOL     OW27934   2.755   1.664   4.729 -0.0856  0.1813  0.0558
 5434SOL    HW127935   2.765   1.656   4.823  2.1499  1.0458 -0.1079
 5434SOL    HW227936   2.719   1.579   4.706  1.3241  0.1484 -2.0745
 5435SOL     OW27937   4.462   1.490   9.498 -0.3568 -0.1526  0.5112
 5435SOL    HW127938   4.388   1.517   9.443  1.0982  1.9268 -0.4124
 5435SOL    HW227939   4.416   1.457   9.576  0.2191  1.6407  1.6133
 5436SOL     OW27940   1.200   3.070   2.235  0.0138 -0.2055 -0.0702
 5436SOL    HW127941   1.197   3.087   2.329  0.5934  1.0623 -0.2798
 5436SOL    HW227942   1.151   2.989   2.226 -3.1085  1.9169 -2.3024
 5437SOL     OW27943   0.827   4.616   8.475 -0.1188 -0.0590 -0.0627
 5437SOL    HW127944   0.848   4.545   8.414 -2.6095 -1.9974  1.3722
 5437SOL    HW227945   0.762   4.588   8.538 -1.0400  0.7768 -0.6395
 5438SOL     OW27946   3.417   2.453  12.923  0.1117  0.0695 -0.2952
 5438SOL    HW127947   3.344   2.420  12.975 -1.8926  2.6213 -1.4448
 5438SOL    HW227948   3.468   2.492  12.994  2.8757 -0.4485 -1.9824
 5439SOL     OW27949   1.967   1.786   5.265  0.0489  0.2861  0.4016
 5439SOL    HW127950   1.941   1.784   5.173  0.1967  0.6486  0.3505
 5439SOL    HW227951   1.880   1.790   5.305  0.3015 -0.4470  1.0118
 5440SOL     OW27952   2.765   1.389   2.608 -0.0898  0.8874 -0.6276
 5440SOL    HW127953   2.757   1.466   2.664  0.4329  1.5540 -1.4860
 5440SOL    HW227954   2.774   1.427   2.521  4.0034  1.2834 -0.0202
 5441SOL     OW27955   2.020   1.247  15.740 -0.1390  0.1735 -0.0615
 5441SOL    HW127956   2.039   1.232  15.647  0.5415  2.6143 -0.2937
 5441SOL    HW227957   2.081   1.316  15.763  1.3728 -1.0240 -0.5171
 5442SOL     OW27958   1.634   1.279   6.851 -0.0939 -0.1191 -0.3663
 5442SOL    HW127959   1.722   1.251   6.872  0.3319  1.2123 -0.3776
 5442SOL    HW227960   1.650   1.338   6.777 -0.6586 -0.2872 -0.6224
 5443SOL     OW27961   0.798   4.446   4.731  0.1404 -0.1788  0.2975
 5443SOL    HW127962   0.761   4.475   4.815 -0.0168  0.6106 -0.0460
 5443SOL    HW227963   0.752   4.363   4.719  0.9984 -0.1422 -3.1759
 5444SOL     OW27964   1.002   2.792   7.004 -0.4857  0.0701 -0.3822
 5444SOL    HW127965   1.060   2.845   6.949  0.4807  0.0441  0.6152
 5444SOL    HW227966   0.991   2.711   6.955  0.5029 -0.1143 -0.2842
 5445SOL     OW27967   4.090   3.541   1.896 -0.3025 -0.0894  0.1101
 5445SOL    HW127968   4.086   3.525   1.802  1.7107 -1.4608  0.2777
 5445SOL    HW227969   4.031   3.480   1.940 -0.8954  2.5348  2.9546
 5446SOL     OW27970   2.330   0.414   6.528  0.1195 -0.3897 -0.4728
 5446SOL    HW127971   2.290   0.425   6.614  2.4297 -1.8906  0.7736
 5446SOL    HW227972   2.255   0.399   6.470 -2.3052  1.4922  2.2086
 5447SOL     OW27973   1.410   0.974  16.891 -0.4657  0.0673  0.5917
 5447SOL    HW127974   1.337   0.945  16.945  1.8009  2.0101  4.7582
 5447SOL    HW227975   1.384   1.065  16.879  0.9259  0.3797 -0.1183
 5448SOL     OW27976   3.672   4.226   9.564  0.2966 -0.0148  0.1830
 5448SOL    HW127977   3.763   4.200   9.549 -0.2559 -1.0234 -1.4470
 5448SOL    HW227978   3.691   4.316   9.592  0.0004  0.3600 -0.8269
 5449SOL     OW27979   0.651   2.711   4.242 -0.3394 -0.5894  0.0194
 5449SOL    HW127980   0.623   2.643   4.303 -1.0956 -0.4639 -0.1886
 5449SOL    HW227981   0.737   2.674   4.223  1.1645  1.9192  1.8698
 5450SOL     OW27982   4.686   3.309   0.494 -0.0072 -0.1456 -0.0430
 5450SOL    HW127983   4.696   3.401   0.470 -2.7915  0.6158  1.6881
 5450SOL    HW227984   4.597   3.288   0.467 -0.3485  0.7722  0.3763
 5451SOL     OW27985   0.345   2.292  17.413 -0.7514 -0.1852  0.2922
 5451SOL    HW127986   0.311   2.324  17.497  0.8742  0.1371  0.8164
 5451SOL    HW227987   0.416   2.242  17.453 -1.2776 -1.4046 -0.2943
 5452SOL     OW27988   0.002   1.950  10.026 -0.0536  0.4737  0.3126
 5452SOL    HW127989   4.666   1.921  10.080  0.9602 -0.7221  1.0542
 5452SOL    HW227990   0.022   1.879   9.966 -0.5799 -0.0892  0.8079
 5453SOL     OW27991   2.156   3.513   5.484 -0.6000 -0.4922 -0.1497
 5453SOL    HW127992   2.065   3.513   5.515 -0.4818  0.2475  0.2081
 5453SOL    HW227993   2.142   3.494   5.392 -0.9787  3.1425 -0.8630
 5454SOL     OW27994   3.175   0.031   5.197 -0.0225  0.2068 -0.5203
 5454SOL    HW127995   3.161   4.722   5.115  0.3216 -0.3831 -0.2462
 5454SOL    HW227996   3.266   0.007   5.215  0.4911  1.1093 -1.9435
 5455SOL     OW27997   1.143   0.525   5.699  0.4266 -0.3343  0.5915
 5455SOL    HW127998   1.102   0.608   5.722 -1.1218 -0.1913 -2.7047
 5455SOL    HW227999   1.193   0.547   5.621 -0.7261 -0.6515 -0.2289
 5456SOL     OW28000   0.866   1.420  15.747 -0.0357  0.0800 -0.3590
 5456SOL    HW128001   0.870   1.329  15.775  1.1647 -0.3322 -1.8563
 5456SOL    HW228002   0.771   1.436  15.739  0.0096 -0.0573 -1.2667
 5457SOL     OW28003   3.108   0.257   4.956 -0.3245  0.0647  0.2781
 5457SOL    HW128004   3.177   0.248   5.020  0.6056  1.2254 -0.5616
 5457SOL    HW228005   3.035   0.271   5.016 -0.6119  0.9958 -0.2903
 5458SOL     OW28006   3.242   2.819  14.767  0.0098  0.2288  0.2271
 5458SOL    HW128007   3.213   2.910  14.769 -0.1479  0.2220 -2.4607
 5458SOL    HW228008   3.161   2.768  14.772  0.1167 -0.0664 -1.2257
 5459SOL     OW28009   3.586   2.133   5.716  0.7505 -0.2574 -0.0214
 5459SOL    HW128010   3.560   2.141   5.624 -0.5500 -1.6485  0.2196
 5459SOL    HW228011   3.680   2.123   5.700  0.9534 -0.3954  1.2006
 5460SOL     OW28012   2.676   4.325  14.398  0.2614 -0.0499  0.8763
 5460SOL    HW128013   2.591   4.343  14.438 -0.4233  0.7397 -0.9384
 5460SOL    HW228014   2.712   4.281  14.475  2.4264 -1.0056 -0.6769
 5461SOL     OW28015   4.513   2.601   4.291  0.5550 -0.1714 -0.2762
 5461SOL    HW128016   4.432   2.652   4.297  0.0160 -0.8747 -1.6936
 5461SOL    HW228017   4.555   2.644   4.366 -0.0977 -0.7886  0.4507
 5462SOL     OW28018   3.661   2.630   2.043  0.0953  0.1478  0.1034
 5462SOL    HW128019   3.725   2.576   2.088  0.8459  0.6795 -0.3409
 5462SOL    HW228020   3.583   2.577   2.027  0.3320 -0.2005  0.1206
 5463SOL     OW28021   4.031   0.325   7.204  0.2223 -0.5871  0.1178
 5463SOL    HW128022   3.973   0.257   7.170  2.3452 -2.5695  0.4061
 5463SOL    HW228023   4.088   0.275   7.262  0.9692 -1.0868 -1.0416
 5464SOL     OW28024   0.835   2.991   3.452 -0.1351 -0.6331  0.1930
 5464SOL    HW128025   0.914   3.035   3.422  0.6441 -0.9140  1.8722
 5464SOL    HW228026   0.805   3.038   3.530  0.9799  1.4806 -0.6620
 5465SOL     OW28027   0.814   1.107  15.816 -0.5809  0.8695 -0.1979
 5465SOL    HW128028   0.849   1.020  15.796  1.9773  1.7627  0.3381
 5465SOL    HW228029   0.721   1.108  15.793 -0.2737  1.6031 -1.4522
 5466SOL     OW28030   2.295   0.492  12.500 -0.1857 -0.3378 -0.2425
 5466SOL    HW128031   2.238   0.567  12.485  0.1415 -0.0010  0.1982
 5466SOL    HW228032   2.279   0.445  12.419 -2.0735 -0.4502  0.1874
 5467SOL     OW28033   1.520   2.792   1.730 -0.7469  0.6012 -0.3616
 5467SOL    HW128034   1.469   2.840   1.795  1.3211  1.1921  0.8378
 5467SOL    HW228035   1.567   2.737   1.791 -2.3583  0.4135  0.7050
 5468SOL     OW28036   1.129   1.126   6.397  0.4408 -0.0506 -0.2142
 5468SOL    HW128037   1.107   1.034   6.390  2.0426 -0.5693  1.5417
 5468SOL    HW228038   1.168   1.125   6.484  0.7108  3.0796 -0.2900
 5469SOL     OW28039   0.696   0.004   8.257  0.6250 -0.3962  0.4946
 5469SOL    HW128040   0.739   0.090   8.258  0.3955 -0.2823  0.5328
 5469SOL    HW228041   0.714   4.713   8.346  2.1333 -0.6032  0.1282
 5470SOL     OW28042   0.265   4.081   7.358 -0.1254  0.0439 -0.0967
 5470SOL    HW128043   0.359   4.082   7.374 -0.1419 -0.3373  0.0299
 5470SOL    HW228044   0.259   4.161   7.305  2.7264 -0.1837 -0.7419
 5471SOL     OW28045   4.032   2.889   4.989 -0.7473 -0.1251  0.2875
 5471SOL    HW128046   3.966   2.953   4.961  0.2453  0.7912  0.0660
 5471SOL    HW228047   4.064   2.948   5.056 -0.9786 -0.2544  0.5134
 5472SOL     OW28048   0.050   0.617   8.893  0.0070 -0.1529 -0.5881
 5472SOL    HW128049   0.039   0.666   8.974 -1.3480 -0.1503 -0.7808
 5472SOL    HW228050   0.146   0.614   8.884  0.1832  0.0797  1.2309
 5473SOL     OW28051   2.603   4.264  16.283  0.0667  0.4958 -0.1018
 5473SOL    HW128052   2.663   4.190  16.286  1.7087  1.8182  0.3472
 5473SOL    HW228053   2.656   4.329  16.235  0.4774 -0.0314 -0.3589
 5474SOL     OW28054   0.989   3.913   9.453 -0.4286  0.0575  0.3530
 5474SOL    HW128055   1.049   3.954   9.515  0.0383  0.3120 -0.2742
 5474SOL    HW228056   1.057   3.882   9.394 -0.4363 -1.6233  1.2327
 5475SOL     OW28057   0.743   0.240   6.683 -0.2056  0.0969  0.5354
 5475SOL    HW128058   0.718   0.327   6.653  1.0046  0.2364 -0.0582
 5475SOL    HW228059   0.691   0.235   6.762 -1.0589  2.1921  0.1080
 5476SOL     OW28060   2.389   1.734   4.830  0.0334 -0.6640 -0.2765
 5476SOL    HW128061   2.426   1.818   4.805 -0.2420 -0.9043 -1.4662
 5476SOL    HW228062   2.312   1.758   4.882  1.4488 -1.0595  2.0220
 5477SOL     OW28063   3.823   1.542  16.556 -0.0976 -0.0268 -0.2622
 5477SOL    HW128064   3.873   1.621  16.579 -1.3381  0.4322  0.8558
 5477SOL    HW228065   3.806   1.504  16.642  1.5426  1.6688  0.8139
 5478SOL     OW28066   3.459   0.414   9.936  1.1693  0.2015  0.4230
 5478SOL    HW128067   3.405   0.407  10.015 -0.8491 -0.9045 -1.0271
 5478SOL    HW228068   3.476   0.321   9.922 -0.8290 -0.2955  1.2047
 5479SOL     OW28069   3.665   1.651  16.135 -0.1075 -0.5135  0.2421
 5479SOL    HW128070   3.616   1.733  16.131 -0.4063 -0.6169  1.7068
 5479SOL    HW228071   3.743   1.682  16.181  1.7031 -2.7168 -1.3425
 5480SOL     OW28072   0.662   4.411   5.432 -0.9176  0.2400 -0.1807
 5480SOL    HW128073   0.567   4.422   5.429 -0.6725  2.4123  0.0337
 5480SOL    HW228074   0.694   4.501   5.436  0.7828 -0.3110 -1.7240
 5481SOL     OW28075   2.520   3.706   2.493 -0.9648  0.2084 -0.5794
 5481SOL    HW128076   2.459   3.633   2.475  3.0290 -3.2782  0.0142
 5481SOL    HW228077   2.459   3.776   2.515  1.4937  1.9749  0.5083
 5482SOL     OW28078   3.538   1.661  12.402 -0.0566 -0.1979  0.0670
 5482SOL    HW128079   3.562   1.695  12.488  0.3266  2.5659 -1.1344
 5482SOL    HW228080   3.618   1.614  12.379  0.2685  0.3079  0.1678
 5483SOL     OW28081   1.931   0.150   6.025  0.0661  0.1140 -0.5896
 5483SOL    HW128082   1.988   0.221   5.997  0.2645 -0.5912 -1.9700
 5483SOL    HW228083   1.844   0.191   6.021  0.2134  0.3272 -1.4295
 5484SOL     OW28084   2.049   0.329   5.637  0.3163  0.2689  0.5572
 5484SOL    HW128085   2.095   0.315   5.554  1.7574 -0.7344  1.5097
 5484SOL    HW228086   1.995   0.406   5.626  0.5992  0.2640 -0.8218
 5485SOL     OW28087   2.784   1.181   1.740 -0.4025  0.9217 -0.4711
 5485SOL    HW128088   2.792   1.105   1.682  1.7371  2.1228 -1.7598
 5485SOL    HW228089   2.711   1.160   1.799  0.4247  1.1971  0.6682
 5486SOL     OW28090   3.116   1.692   6.671 -0.5827 -0.4091  0.3659
 5486SOL    HW128091   3.196   1.642   6.688 -0.4180  0.0543  0.9475
 5486SOL    HW228092   3.069   1.648   6.743 -1.9757  0.5716  0.0548
 5487SOL     OW28093   2.319   3.511   4.569  0.2843  0.2209  0.4218
 5487SOL    HW128094   2.234   3.524   4.526  0.1330  2.0294  1.2620
 5487SOL    HW228095   2.353   3.438   4.517 -1.1022  0.0223 -0.1974
 5488SOL     OW28096   3.540   4.412   7.011 -0.1184 -0.0538 -0.3271
 5488SOL    HW128097   3.554   4.427   6.918 -1.6674 -2.1770 -0.9030
 5488SOL    HW228098   3.492   4.488   7.043  0.3487  0.6316 -1.2782
 5489SOL     OW28099   3.189   0.356  14.688  0.0665  0.2227 -0.4311
 5489SOL    HW128100   3.106   0.333  14.646  0.8345 -0.6548 -1.4822
 5489SOL    HW228101   3.187   0.451  14.686  3.2164  0.3253  0.6015
 5490SOL     OW28102   1.643   0.934   8.734  0.1134 -0.0602  0.0220
 5490SOL    HW128103   1.584   0.995   8.690 -0.1469 -0.5690 -0.3306
 5490SOL    HW228104   1.599   0.853   8.708  1.1086 -0.8392  0.7381
 5491SOL     OW28105   0.529   1.312  17.269 -0.1215  0.1629 -0.0782
 5491SOL    HW128106   0.448   1.263  17.282 -0.8381  1.4235  0.1609
 5491SOL    HW228107   0.545   1.348  17.356  0.9486 -0.5471  0.0216
 5492SOL     OW28108   4.459   1.422   9.954 -0.1860  0.2076 -0.1254
 5492SOL    HW128109   4.547   1.443   9.922 -0.5588  2.1754  0.1447
 5492SOL    HW228110   4.467   1.442  10.047  0.7463  1.0495 -0.3870
 5493SOL     OW28111   1.474   1.084   2.276 -0.2113 -0.2641 -0.3236
 5493SOL    HW128112   1.485   1.158   2.216 -0.3937 -1.1790 -1.4914
 5493SOL    HW228113   1.402   1.036   2.235 -0.8968 -0.4860  1.1243
 5494SOL     OW28114   1.415   2.037   8.350  0.0276 -0.3105 -0.2990
 5494SOL    HW128115   1.368   1.967   8.395 -0.6299 -0.7337 -1.6616
 5494SOL    HW228116   1.499   1.992   8.339 -0.1990 -0.6893 -0.4709
 5495SOL     OW28117   0.841   0.086  10.636  0.4508 -0.5254 -0.5156
 5495SOL    HW128118   0.919   0.039  10.667  0.5787  0.1657  0.2120
 5495SOL    HW228119   0.871   0.131  10.558 -1.2690 -0.4705 -1.1489
 5496SOL     OW28120   3.884   2.783   3.789  0.2640 -0.3720  0.0418
 5496SOL    HW128121   3.879   2.830   3.872 -1.9427  0.8861 -0.8126
 5496SOL    HW228122   3.846   2.852   3.736 -0.9120 -1.6067 -0.7417
 5497SOL     OW28123   2.150   4.487   5.861 -0.2240 -0.1930  0.7287
 5497SOL    HW128124   2.139   4.581   5.843  0.7582 -0.2643 -0.2166
 5497SOL    HW228125   2.060   4.458   5.875 -0.3107 -0.4956 -0.4979
 5498SOL     OW28126   2.974   2.809  16.104  0.2921 -0.2182 -0.4054
 5498SOL    HW128127   2.909   2.754  16.147 -0.4291  1.5090  0.7511
 5498SOL    HW228128   2.925   2.884  16.070  0.9451 -0.3988 -1.7456
 5499SOL     OW28129   3.668   4.055   8.026 -0.0910  0.0225 -1.0544
 5499SOL    HW128130   3.680   4.133   7.972 -0.5200  1.3151  0.7109
 5499SOL    HW228131   3.596   4.010   7.981 -0.7965 -0.8191  0.9036
 5500SOL     OW28132   2.248   1.168   6.004  0.0542 -0.1553  0.4089
 5500SOL    HW128133   2.313   1.231   5.974  0.7411 -1.1631 -0.2255
 5500SOL    HW228134   2.275   1.164   6.096 -0.9447 -0.6885  0.6839
 5501SOL     OW28135   3.423   1.078   5.225 -0.3249 -0.1487 -0.6108
 5501SOL    HW128136   3.387   1.153   5.178  0.2931 -1.6232 -3.3893
 5501SOL    HW228137   3.513   1.080   5.193  0.0920  0.3725  0.5974
 5502SOL     OW28138   2.540   3.243   3.157 -0.2679 -0.0949 -0.0370
 5502SOL    HW128139   2.474   3.309   3.179 -0.2484  0.2486 -1.0286
 5502SOL    HW228140   2.477   3.187   3.111  0.2302 -1.3508  0.8004
 5503SOL     OW28141   4.302   2.003  17.608 -0.2670 -0.0377  0.2048
 5503SOL    HW128142   4.230   2.030  17.552 -0.4010 -0.2706  0.2658
 5503SOL    HW228143   4.378   2.022  17.552 -1.0896 -0.4655 -1.0517
 5504SOL     OW28144   0.763   2.377   3.962 -0.0803 -0.0710  0.1936
 5504SOL    HW128145   0.776   2.304   4.022 -1.8865 -0.1794  0.4694
 5504SOL    HW228146   0.713   2.323   3.901 -3.0566  1.5530  1.1722
 5505SOL     OW28147   4.317   0.416   6.528  0.5637  0.1702  0.0846
 5505SOL    HW128148   4.238   0.444   6.482 -0.6359 -0.3164  1.8404
 5505SOL    HW228149   4.294   0.327   6.554  2.9503 -0.8582 -1.4264
 5506SOL     OW28150   2.678   2.249   3.231 -0.6036 -0.6247 -0.0680
 5506SOL    HW128151   2.700   2.156   3.233  2.4115  0.0817 -0.7793
 5506SOL    HW228152   2.612   2.258   3.300 -1.7727  0.3375 -1.3121
 5507SOL     OW28153   1.998   3.647   1.665 -0.7618 -0.3862  0.2067
 5507SOL    HW128154   2.050   3.596   1.727  0.4974 -0.7519 -1.1456
 5507SOL    HW228155   2.055   3.644   1.588 -1.3849 -2.2573 -0.1855
 5508SOL     OW28156   2.999   1.661   8.529  0.4507 -0.0644 -0.3560
 5508SOL    HW128157   3.034   1.745   8.557 -0.4366 -0.1572  1.0550
 5508SOL    HW228158   2.943   1.634   8.602  0.1850 -0.6858 -0.7890
 5509SOL     OW28159   4.433   0.787   9.573 -0.2450 -0.7316  0.0468
 5509SOL    HW128160   4.381   0.711   9.547  0.3705 -1.0019 -0.4151
 5509SOL    HW228161   4.503   0.742   9.620  1.0096  1.8202  0.6486
 5510SOL     OW28162   3.965   1.407   3.364 -0.7890 -0.4079  0.0374
 5510SOL    HW128163   3.983   1.393   3.457 -0.3661  2.7644  0.4431
 5510SOL    HW228164   3.909   1.331   3.348 -0.5707 -0.4551 -0.5010
 5511SOL     OW28165   0.616   0.080   1.082 -0.0930 -0.0412  0.0115
 5511SOL    HW128166   0.567   0.006   1.116  1.4277 -0.6077  0.9559
 5511SOL    HW228167   0.634   0.122   1.166  0.8446  0.0518 -0.2322
 5512SOL     OW28168   1.081   3.292   8.768  0.1468  0.1462  0.1884
 5512SOL    HW128169   0.999   3.288   8.818 -0.4693 -0.7354 -0.8926
 5512SOL    HW228170   1.149   3.243   8.813 -0.1167  0.2046  0.6553
 5513SOL     OW28171   3.316   3.607  10.344 -0.0782  0.2950 -0.0200
 5513SOL    HW128172   3.237   3.659  10.360  1.1193  2.7145 -1.9691
 5513SOL    HW228173   3.383   3.676  10.343 -1.7140  1.9242  1.7186
 5514SOL     OW28174   2.896   3.048   0.257  0.0851  0.1288  0.1943
 5514SOL    HW128175   2.908   3.138   0.226  0.2636  0.1593  0.3525
 5514SOL    HW228176   2.940   3.040   0.342  0.1467 -1.0746  0.0421
 5515SOL     OW28177   0.060   4.112  10.905  0.7718  0.2646  0.1209
 5515SOL    HW128178   4.734   4.123  10.834 -0.3517 -0.7990  0.9625
 5515SOL    HW228179   4.731   4.099  10.972  1.0560  0.8259  0.5073
 5516SOL     OW28180   2.567   2.271   8.092 -0.0426  0.0185 -0.2444
 5516SOL    HW128181   2.626   2.336   8.130  0.0569  0.3685 -1.0004
 5516SOL    HW228182   2.608   2.251   8.007 -2.1700 -1.4761 -0.9186
 5517SOL     OW28183   1.408   0.375  10.491  0.0691 -0.0849 -0.1176
 5517SOL    HW128184   1.333   0.405  10.439 -0.2360 -0.1551  0.2781
 5517SOL    HW228185   1.479   0.406  10.436 -1.1624  1.3885 -0.8946
 5518SOL     OW28186   2.704   1.409   9.969  0.0549  0.3239 -0.2856
 5518SOL    HW128187   2.722   1.316   9.955  0.6794  0.3560  0.2653
 5518SOL    HW228188   2.644   1.418  10.043  1.0088  1.9720  0.2986
 5519SOL     OW28189   1.788   3.672   4.989  0.1671  0.0973  0.5909
 5519SOL    HW128190   1.883   3.664   4.984  0.0206  0.4744 -2.4820
 5519SOL    HW228191   1.758   3.621   4.913 -0.0520 -2.0644  2.1100
 5520SOL     OW28192   2.451   3.288   6.024  0.4762  0.6295 -0.3651
 5520SOL    HW128193   2.524   3.265   6.080 -1.3085 -2.3402  0.7581
 5520SOL    HW228194   2.464   3.227   5.951  1.0547  0.6441 -0.2722
 5521SOL     OW28195   3.664   1.230  11.350  0.5387 -0.5641 -0.1800
 5521SOL    HW128196   3.714   1.279  11.415  0.4603 -1.4294  0.5216
 5521SOL    HW228197   3.710   1.252  11.269 -0.9829  1.0172 -0.6303
 5522SOL     OW28198   4.379   1.054   5.888 -0.0970 -0.2117 -0.3612
 5522SOL    HW128199   4.409   1.129   5.938 -0.0166 -0.1489 -0.5039
 5522SOL    HW228200   4.468   1.026   5.865  0.9812  2.3510  0.7173
 5523SOL     OW28201   0.111   3.662   8.375  0.0016 -0.0884  0.1281
 5523SOL    HW128202   0.114   3.739   8.431  0.3114 -1.2848  1.7761
 5523SOL    HW228203   0.172   3.689   8.306  1.5657 -0.0155  1.5160
 5524SOL     OW28204   3.520   3.231   4.886 -0.3397  0.2210  0.3783
 5524SOL    HW128205   3.541   3.228   4.979 -0.8985  1.2998  0.5395
 5524SOL    HW228206   3.451   3.296   4.875 -0.1127  0.4709  0.4271
 5525SOL     OW28207   2.872   4.615   8.861  0.5178  0.1824 -0.4738
 5525SOL    HW128208   2.891   4.706   8.885 -1.6734  0.2191  1.0466
 5525SOL    HW228209   2.826   4.625   8.778  1.3783  2.4782 -0.6809
 5526SOL     OW28210   1.839   2.532   2.055 -0.0839  0.0232 -0.4794
 5526SOL    HW128211   1.789   2.451   2.068 -1.9769  0.9167 -2.2300
 5526SOL    HW228212   1.930   2.512   2.074  0.1209  1.9717  0.5963
 5527SOL     OW28213   2.024   3.263   6.124 -0.6591 -0.0514 -0.1887
 5527SOL    HW128214   1.999   3.256   6.216 -2.9496  1.9574 -0.6614
 5527SOL    HW228215   1.939   3.276   6.082  1.0764 -1.4149 -4.2048
 5528SOL     OW28216   3.466   2.715   7.203 -0.3072  1.0162 -0.4020
 5528SOL    HW128217   3.496   2.653   7.271 -0.4721  0.8179 -0.5090
 5528SOL    HW228218   3.410   2.770   7.257 -0.0577  0.2507  0.6530
 5529SOL     OW28219   0.803   1.196   7.877  0.2316 -0.5052  0.0006
 5529SOL    HW128220   0.777   1.288   7.872  0.7513 -0.2212  2.4652
 5529SOL    HW228221   0.843   1.187   7.791  0.5135  1.0340 -0.0220
 5530SOL     OW28222   2.981   4.475   2.458 -0.5349 -0.0011 -0.6805
 5530SOL    HW128223   2.997   4.509   2.370  2.1994 -1.5952 -0.8132
 5530SOL    HW228224   2.888   4.455   2.455 -0.5471 -0.5229  3.1707
 5531SOL     OW28225   3.136   2.728   4.926  0.3065 -0.3903  0.3422
 5531SOL    HW128226   3.052   2.687   4.903 -0.6893  0.8451  1.8127
 5531SOL    HW228227   3.182   2.703   4.846  1.2799 -0.8426  1.0514
 5532SOL     OW28228   2.352   0.311   6.057  0.3770 -0.1639  0.2524
 5532SOL    HW128229   2.263   0.339   6.037 -0.5285 -1.7206  2.1248
 5532SOL    HW228230   2.397   0.383   6.011 -0.1194  0.7991  1.2664
 5533SOL     OW28231   3.002   4.134   7.848  0.3334  0.5827  0.5315
 5533SOL    HW128232   3.001   4.191   7.771 -0.5034 -1.7191 -1.1732
 5533SOL    HW228233   3.096   4.126   7.863  0.4131 -1.8935 -1.1898
 5534SOL     OW28234   3.021   3.063  17.560  0.2017 -0.1898  0.3840
 5534SOL    HW128235   3.032   2.971  17.582 -2.2423 -0.6677 -0.3112
 5534SOL    HW228236   3.108   3.095  17.538 -0.0013 -0.2528 -0.5446
 5535SOL     OW28237   2.676   1.394   6.312  0.1424 -0.0213 -0.1422
 5535SOL    HW128238   2.669   1.447   6.233  2.8782 -2.0631 -1.7716
 5535SOL    HW228239   2.695   1.458   6.380  0.5114  0.1625 -0.4160
 5536SOL     OW28240   1.703   0.806   7.985  0.0484 -0.1591 -0.1533
 5536SOL    HW128241   1.759   0.828   8.060 -1.3695  2.4387  0.1205
 5536SOL    HW228242   1.684   0.716   8.013  0.5984  0.2959  1.7386
 5537SOL     OW28243   1.332   0.438   3.792 -0.3122  0.9513  0.2093
 5537SOL    HW128244   1.262   0.498   3.817 -2.6253 -0.9562 -1.7684
 5537SOL    HW228245   1.354   0.404   3.879 -2.4188 -4.0217 -1.1841
 5538SOL     OW28246   0.130   2.524   9.688 -0.6742  0.2403 -0.6574
 5538SOL    HW128247   0.162   2.582   9.619 -1.7356  1.2305 -0.3258
 5538SOL    HW228248   0.041   2.557   9.701 -0.7627 -0.6780  1.1235
 5539SOL     OW28249   3.908   0.235   4.518  0.3755  0.6568 -0.3467
 5539SOL    HW128250   3.833   0.181   4.492  1.4667 -0.7852 -0.5209
 5539SOL    HW228251   3.970   0.169   4.549  0.0254  0.3068 -0.3854
 5540SOL     OW28252   4.541   3.628   1.249  0.3512  0.1525 -0.2736
 5540SOL    HW128253   4.593   3.556   1.285 -0.2077  0.9174  2.0533
 5540SOL    HW228254   4.589   3.639   1.167  1.1453 -2.3491 -0.1338
 5541SOL     OW28255   0.774   1.747   4.659  0.4214 -0.0112 -0.0894
 5541SOL    HW128256   0.835   1.786   4.597 -0.3746 -3.6199 -3.1700
 5541SOL    HW228257   0.836   1.755   4.731 -1.4209  0.3691  1.4396
 5542SOL     OW28258   1.779   3.239  17.116  0.0276  0.4098  0.3082
 5542SOL    HW128259   1.721   3.200  17.051  1.9486  0.6769 -1.5383
 5542SOL    HW228260   1.727   3.246  17.197 -0.2661  0.3357  0.1281
 5543SOL     OW28261   1.300   0.956   2.116  0.1741 -0.0826  0.8751
 5543SOL    HW128262   1.265   0.993   2.035 -1.3279 -0.7493  1.2294
 5543SOL    HW228263   1.255   0.873   2.109 -0.7483  0.6377 -1.9016
 5544SOL     OW28264   3.785   3.247   4.728  0.0043  0.7397 -0.2103
 5544SOL    HW128265   3.719   3.312   4.702 -0.7552 -0.1777 -0.5637
 5544SOL    HW228266   3.738   3.209   4.802 -0.8915 -1.5783 -1.9779
 5545SOL     OW28267   3.080   2.539   8.810 -0.2791  0.7671  0.0826
 5545SOL    HW128268   3.136   2.576   8.741 -1.0651  2.8626  0.5713
 5545SOL    HW228269   3.104   2.593   8.885 -0.7841  0.9016  0.1480
 5546SOL     OW28270   2.703   0.219   8.001  0.0220  0.2689 -0.4235
 5546SOL    HW128271   2.721   0.149   7.937  0.2207 -1.9540  2.0569
 5546SOL    HW228272   2.622   0.249   7.960 -0.1927  1.8379  1.1840
 5547SOL     OW28273   0.082   3.873   6.807  0.0962 -0.3792 -0.6107
 5547SOL    HW128274   0.112   3.917   6.887 -0.8244  4.0558 -2.6917
 5547SOL    HW228275   0.156   3.896   6.751  0.1851  3.2531  0.9582
 5548SOL     OW28276   0.341   4.463   4.930 -0.1596 -0.1602  0.4853
 5548SOL    HW128277   0.302   4.376   4.942  0.1012 -0.1376  1.4646
 5548SOL    HW228278   0.282   4.515   4.985 -0.3655  0.1014  0.0199
 5549SOL     OW28279   2.595   1.052   1.170  0.1933  0.0721  0.3377
 5549SOL    HW128280   2.554   1.112   1.232 -0.1579 -0.1509  0.3195
 5549SOL    HW228281   2.689   1.070   1.183  0.0383  0.2850  1.2033
 5550SOL     OW28282   0.770   2.146   9.082 -0.2110 -0.1878 -0.4643
 5550SOL    HW128283   0.824   2.198   9.022 -1.1594  0.8633 -0.4122
 5550SOL    HW228284   0.682   2.160   9.047  0.0310  1.1684 -0.5453
 5551SOL     OW28285   1.530   3.986   7.898 -0.4899 -0.2143  0.1079
 5551SOL    HW128286   1.576   3.905   7.875 -1.0171 -0.4376 -0.1708
 5551SOL    HW228287   1.494   4.004   7.811 -0.4887  1.4215  0.4452
 5552SOL     OW28288   2.836   2.549  10.526 -0.1390 -0.3134 -0.1473
 5552SOL    HW128289   2.749   2.510  10.527 -0.4795  0.4003 -1.3584
 5552SOL    HW228290   2.890   2.476  10.496 -1.7546 -0.6959 -2.0990
 5553SOL     OW28291   4.707   0.575   3.730 -0.2676  0.0636  0.9650
 5553SOL    HW128292   4.660   0.619   3.659  1.0273 -1.6547 -0.9785
 5553SOL    HW228293   4.725   0.642   3.795  1.8252  1.1628 -0.7785
 5554SOL     OW28294   2.725   1.606   0.643 -0.3277 -0.0439 -0.2223
 5554SOL    HW128295   2.707   1.650   0.560  0.9289  0.3536 -0.2866
 5554SOL    HW228296   2.743   1.515   0.623 -1.4900 -0.9513  2.8474
 5555SOL     OW28297   0.087   0.967   2.368 -0.3571  0.1595  0.1737
 5555SOL    HW128298   0.018   0.999   2.426 -1.5057 -3.4698  0.8181
 5555SOL    HW228299   0.057   0.876   2.365 -0.8860  0.4441 -3.1989
 5556SOL     OW28300   1.347   2.093   3.723  0.0292 -0.5323  0.1883
 5556SOL    HW128301   1.263   2.053   3.746 -0.2920  0.4177  0.7035
 5556SOL    HW228302   1.322   2.146   3.647  0.5509 -0.4639  0.0637
 5557SOL     OW28303   1.864   4.531  11.238 -0.6183 -0.5377 -0.4361
 5557SOL    HW128304   1.852   4.452  11.291 -0.6270 -0.9469 -1.0430
 5557SOL    HW228305   1.784   4.583  11.237 -0.8217 -0.7903  3.7211
 5558SOL     OW28306   2.341   3.113   0.687 -0.4846 -0.7314 -0.2560
 5558SOL    HW128307   2.307   3.182   0.744 -0.7336 -0.3392 -0.8819
 5558SOL    HW228308   2.432   3.137   0.669 -0.6324 -0.6312 -0.8464
 5559SOL     OW28309   0.901   4.429   8.291  0.2409 -0.2840 -0.4104
 5559SOL    HW128310   0.909   4.493   8.220  4.0680  1.5850  1.6937
 5559SOL    HW228311   0.930   4.346   8.253 -0.8090  0.6995 -3.3477
 5560SOL     OW28312   3.273   0.602   9.129  0.0545 -0.4696 -0.2601
 5560SOL    HW128313   3.359   0.623   9.165 -0.9982 -0.4406  2.2395
 5560SOL    HW228314   3.230   0.574   9.210  0.3345 -0.9649 -0.2834
 5561SOL     OW28315   0.170   3.713  13.323  0.5782 -0.5356 -0.5983
 5561SOL    HW128316   0.130   3.751  13.245 -0.2517 -0.7185 -0.2592
 5561SOL    HW228317   0.171   3.623  13.292  1.8608 -0.9288  0.5713
 5562SOL     OW28318   3.570   4.265  13.686 -0.2549  0.3268 -0.0647
 5562SOL    HW128319   3.594   4.358  13.690 -1.7523  0.8460 -3.0603
 5562SOL    HW228320   3.549   4.251  13.778  0.7655 -1.5538 -0.1335
 5563SOL     OW28321   2.725   0.368   8.874  0.2464  0.0235  0.2688
 5563SOL    HW128322   2.691   0.451   8.841  0.0194  0.4899  1.6611
 5563SOL    HW228323   2.741   0.393   8.965  1.4312  0.4119 -0.0475
 5564SOL     OW28324   3.854   2.358   7.912  0.1467  1.0914 -0.1591
 5564SOL    HW128325   3.826   2.364   7.821 -0.2689 -1.3672 -0.1742
 5564SOL    HW228326   3.870   2.264   7.917  3.0280  1.5771 -0.3738
 5565SOL     OW28327   1.493   3.484   6.700 -0.5200 -0.1162  0.0271
 5565SOL    HW128328   1.582   3.493   6.733 -0.5779 -1.4621  0.5781
 5565SOL    HW228329   1.453   3.474   6.786  0.4817  0.6996  0.5897
 5566SOL     OW28330   3.675   3.009   1.306  0.1361 -0.0677  0.1111
 5566SOL    HW128331   3.632   3.069   1.245  0.9678  0.0466 -0.3761
 5566SOL    HW228332   3.594   2.992   1.353 -0.0758  0.2086 -0.1531
 5567SOL     OW28333   2.231   2.978   5.236 -0.2583 -0.3565  0.0750
 5567SOL    HW128334   2.295   3.045   5.261 -1.3854  1.5261 -2.0637
 5567SOL    HW228335   2.285   2.900   5.251  0.3463  0.4035  1.9087
 5568SOL     OW28336   1.464   0.787  10.900  0.5055  0.1302  0.0493
 5568SOL    HW128337   1.434   0.827  10.982 -2.0581  1.5580 -1.5658
 5568SOL    HW228338   1.377   0.790  10.860  0.7408  2.7977 -0.2091
 5569SOL     OW28339   3.233   0.548   8.396 -0.2769 -0.4652 -0.2086
 5569SOL    HW128340   3.316   0.595   8.399 -2.2416  2.8888  1.2438
 5569SOL    HW228341   3.184   0.598   8.461  1.3527 -0.4542  1.0057
 5570SOL     OW28342   4.200   2.699   5.754  0.7486 -0.5621  0.3093
 5570SOL    HW128343   4.129   2.724   5.813  1.4895  4.4046 -0.8589
 5570SOL    HW228344   4.184   2.769   5.690 -1.0067  0.6131  2.0235
 5571SOL     OW28345   2.857   0.984   9.130  0.0858  0.3249  0.2718
 5571SOL    HW128346   2.792   1.019   9.069  0.8160 -1.1285 -1.3308
 5571SOL    HW228347   2.922   1.054   9.122  0.8269 -0.7593 -3.0822
 5572SOL     OW28348   0.309   0.500   1.707  0.4496  0.2392 -0.1864
 5572SOL    HW128349   0.245   0.437   1.674  0.4877 -0.0049  0.2146
 5572SOL    HW228350   0.268   0.583   1.684 -1.5031 -1.1513 -1.6748
 5573SOL     OW28351   3.924   3.887   9.755 -0.5951  0.1381 -0.7756
 5573SOL    HW128352   3.941   3.793   9.762  2.6009  0.9574  2.4773
 5573SOL    HW228353   3.925   3.884   9.659  1.8244 -3.3666 -0.6424
 5574SOL     OW28354   4.495   1.601  15.456 -0.2869 -0.0302  0.1517
 5574SOL    HW128355   4.548   1.644  15.389 -0.7471  0.1926 -0.0761
 5574SOL    HW228356   4.486   1.671  15.521  0.4185 -0.2462  0.4786
 5575SOL     OW28357   0.820   1.545  14.768  0.2004 -0.1395  0.2869
 5575SOL    HW128358   0.784   1.550  14.856  0.0535  0.1865  0.2098
 5575SOL    HW228359   0.753   1.582  14.709  0.1054  1.2005  1.2549
 5576SOL     OW28360   2.408   4.402   4.561  0.0761 -0.3406 -0.0363
 5576SOL    HW128361   2.409   4.359   4.646  0.9510  2.0967  1.2030
 5576SOL    HW228362   2.432   4.491   4.588  2.9378 -1.1056 -0.1220
 5577SOL     OW28363   1.599   3.619   4.222  0.2228 -0.6817  0.0375
 5577SOL    HW128364   1.580   3.536   4.264 -0.0355 -1.5243 -1.7636
 5577SOL    HW228365   1.561   3.679   4.286  3.0747 -0.1620  1.2547
 5578SOL     OW28366   3.281   4.559  13.557  0.3846  0.0092 -0.2473
 5578SOL    HW128367   3.258   4.533  13.468 -1.0600 -2.2085  0.7798
 5578SOL    HW228368   3.201   4.609  13.573 -0.2618 -1.5059  1.3399
 5579SOL     OW28369   0.110   1.061   7.495  0.1329  0.3054  0.3049
 5579SOL    HW128370   0.068   1.140   7.461 -3.4343 -0.3633  3.0671
 5579SOL    HW228371   0.030   1.008   7.491  1.0880 -1.2081  1.0759
 5580SOL     OW28372   1.064   1.384   2.023 -0.4740  0.6067 -0.3654
 5580SOL    HW128373   1.060   1.380   2.119 -1.6502 -0.3740 -0.4491
 5580SOL    HW228374   1.004   1.314   1.996 -2.6894  2.0761  0.7326
 5581SOL     OW28375   4.137   2.320  12.612 -0.1976 -0.1630  0.1182
 5581SOL    HW128376   4.066   2.259  12.632  0.2942 -1.0796 -0.9281
 5581SOL    HW228377   4.215   2.266  12.622  0.0114  0.5875  2.4347
 5582SOL     OW28378   2.782   1.734  17.278 -0.0124 -0.1326 -0.2342
 5582SOL    HW128379   2.703   1.786  17.261 -0.6253 -0.9259  0.2300
 5582SOL    HW228380   2.856   1.792  17.259 -0.1088  0.7535  2.1328
 5583SOL     OW28381   4.195   1.209   3.091  0.1218  0.6864 -0.0618
 5583SOL    HW128382   4.225   1.219   3.182 -0.5812  0.6500  0.1750
 5583SOL    HW228383   4.101   1.222   3.101  0.1399  1.0554 -0.3734
 5584SOL     OW28384   3.993   2.241   1.714 -0.0870 -0.1547 -0.2866
 5584SOL    HW128385   3.976   2.221   1.622  0.1069 -1.0912 -0.1156
 5584SOL    HW228386   3.947   2.168   1.757 -1.1390  1.6529  1.6922
 5585SOL     OW28387   3.020   2.771  17.610 -0.0457  0.4632 -0.3725
 5585SOL    HW128388   2.929   2.778  17.638  1.0680  2.1349  2.7763
 5585SOL    HW228389   3.071   2.764  17.691  1.7404 -1.8838 -1.6822
 5586SOL     OW28390   4.062   3.427  10.058  0.1509  0.1037 -0.0221
 5586SOL    HW128391   4.094   3.512  10.027 -2.2423  1.8350  2.3123
 5586SOL    HW228392   4.111   3.423  10.140  1.0166 -0.7492 -0.5703
 5587SOL     OW28393   4.235   2.604  16.069  0.1760 -0.3514 -0.1991
 5587SOL    HW128394   4.158   2.660  16.083 -1.0228 -1.3282 -3.0354
 5587SOL    HW228395   4.272   2.602  16.157 -0.9299 -2.7655  0.2018
 5588SOL     OW28396   0.898   3.078   4.776  0.4369  0.0954 -0.1668
 5588SOL    HW128397   0.809   3.096   4.747 -0.0435 -2.1674 -0.1389
 5588SOL    HW228398   0.904   2.982   4.775  1.3063  0.1552 -0.9511
 5589SOL     OW28399   4.639   3.570   7.618 -0.1653 -0.0248  0.0055
 5589SOL    HW128400   4.680   3.655   7.633  1.3015 -0.3187 -2.3945
 5589SOL    HW228401   4.720   3.521   7.634 -0.7608 -1.0905 -0.2738
 5590SOL     OW28402   3.023   2.558  17.025 -0.5689 -0.3270 -0.5360
 5590SOL    HW128403   3.097   2.607  16.989 -0.4038  0.0122  0.2615
 5590SOL    HW228404   2.988   2.614  17.095 -0.7862 -0.9764 -0.1228
 5591SOL     OW28405   2.986   4.575   3.669 -0.0838 -0.0258  0.1210
 5591SOL    HW128406   2.973   4.481   3.656 -0.6059  0.2413 -1.2480
 5591SOL    HW228407   3.003   4.575   3.763  1.2907 -0.6747 -0.1270
 5592SOL     OW28408   4.209   1.995   3.922  0.0186 -0.0508  0.1332
 5592SOL    HW128409   4.146   1.977   3.853  1.3809  1.7580 -1.5663
 5592SOL    HW228410   4.264   1.918   3.904  0.5751  0.4506 -0.2985
 5593SOL     OW28411   0.158   1.267   5.268 -0.0073  0.0729 -0.3710
 5593SOL    HW128412   0.157   1.354   5.230  2.3118 -0.1052 -0.8475
 5593SOL    HW228413   0.210   1.295   5.344 -1.5308 -0.9112  1.0457
 5594SOL     OW28414   3.746   1.380   9.050 -0.4548  0.6725  0.2975
 5594SOL    HW128415   3.766   1.304   8.995 -0.9069  1.5951 -1.1435
 5594SOL    HW228416   3.719   1.443   8.983  1.4857  0.7264 -0.4094
 5595SOL     OW28417   0.840   1.755   5.389  0.0337  0.0030 -0.3812
 5595SOL    HW128418   0.911   1.730   5.330  0.5797 -0.3283  0.4177
 5595SOL    HW228419   0.772   1.743   5.323  0.8281  1.3447 -1.4398
 5596SOL     OW28420   4.725   1.505  12.136  0.8202 -0.1219 -0.2614
 5596SOL    HW128421   0.055   1.486  12.202  1.1962 -0.4962 -0.7583
 5596SOL    HW228422   4.639   1.488  12.175  1.9398 -3.5642  0.7553
 5597SOL     OW28423   2.295   1.241  10.700 -0.1447  0.9981 -0.3430
 5597SOL    HW128424   2.233   1.269  10.633 -1.2520  0.0748  0.2755
 5597SOL    HW228425   2.274   1.294  10.777 -1.4831 -1.6149  1.0706
 5598SOL     OW28426   1.952   2.329   1.216 -0.0129  0.2930  0.2648
 5598SOL    HW128427   1.927   2.421   1.203  0.2610  0.4490  0.8669
 5598SOL    HW228428   1.974   2.296   1.128  0.5609 -0.0737  0.5426
 5599SOL     OW28429   3.624   4.082  13.472 -0.2098 -0.5704 -0.6458
 5599SOL    HW128430   3.646   4.153  13.532 -1.9906 -0.7255  0.1944
 5599SOL    HW228431   3.550   4.119  13.424  0.7804  2.5459  0.2320
 5600SOL     OW28432   3.864   2.357   5.688 -0.5758 -0.1656  0.2811
 5600SOL    HW128433   3.782   2.362   5.737  0.2291  1.0893  1.5081
 5600SOL    HW228434   3.893   2.447   5.675  2.6956 -1.3447 -0.6867
 5601SOL     OW28435   1.655   1.363   1.680  0.2578  0.1932  0.0479
 5601SOL    HW128436   1.728   1.422   1.699 -1.6944  2.5016  0.3758
 5601SOL    HW228437   1.694   1.276   1.671 -2.1994 -1.1883  2.7044
 5602SOL     OW28438   3.390   4.542   1.214 -0.1852 -0.2537  0.3344
 5602SOL    HW128439   3.373   4.593   1.134 -1.6767  0.3110  1.0026
 5602SOL    HW228440   3.329   4.581   1.277  1.2123  0.5785  1.1832
 5603SOL     OW28441   2.473   0.029   2.186  0.0274 -0.5762  0.1896
 5603SOL    HW128442   2.546   0.089   2.194 -0.2062 -0.5043  1.8970
 5603SOL    HW228443   2.521   4.685   2.172 -1.6361 -1.2854 -1.4622
 5604SOL     OW28444   1.015   2.259  11.006 -0.1621  0.3469 -0.5235
 5604SOL    HW128445   1.089   2.199  11.002 -0.9294 -0.5809 -0.8666
 5604SOL    HW228446   1.037   2.306  11.087 -0.1032  0.1286 -0.4134
 5605SOL     OW28447   1.434   3.041   9.759 -0.1783  0.3227  0.6214
 5605SOL    HW128448   1.367   3.006   9.700  0.5659  0.5812 -0.3628
 5605SOL    HW228449   1.509   3.056   9.702 -1.1086  0.0710 -0.6670
 5606SOL     OW28450   0.337   3.732   2.435  0.0182 -0.0673  0.3388
 5606SOL    HW128451   0.343   3.821   2.470 -0.9827  0.7230 -1.4595
 5606SOL    HW228452   0.409   3.692   2.484  0.8204  0.0463 -0.7316
 5607SOL     OW28453   3.901   4.386   3.513 -0.2248 -0.8262  0.1863
 5607SOL    HW128454   3.824   4.362   3.460  0.0965  0.0351 -0.6649
 5607SOL    HW228455   3.971   4.415   3.455  0.8131 -1.9219  0.9046
 5608SOL     OW28456   1.162   3.217   2.000 -0.5641 -0.1367  0.1498
 5608SOL    HW128457   1.238   3.261   1.963 -1.2401  0.6309 -0.3076
 5608SOL    HW228458   1.201   3.173   2.076 -1.0327  0.2541  0.6095
 5609SOL     OW28459   3.231   1.977   1.563  0.4837 -0.2741 -0.2368
 5609SOL    HW128460   3.216   1.986   1.469  3.0811 -0.4354 -0.6627
 5609SOL    HW228461   3.149   1.942   1.597 -0.1032 -0.8287 -2.2594
 5610SOL     OW28462   4.582   0.392   6.481 -0.8593 -0.0523  0.0366
 5610SOL    HW128463   4.487   0.408   6.483 -0.5540  1.8255 -0.6236
 5610SOL    HW228464   4.614   0.428   6.564  1.9966 -1.7894 -0.3279
 5611SOL     OW28465   0.655   1.140   3.284  0.2959 -0.1358  0.2044
 5611SOL    HW128466   0.611   1.056   3.269 -2.3002  1.0042  1.5505
 5611SOL    HW228467   0.633   1.194   3.208  1.5378  1.5410  1.0420
 5612SOL     OW28468   3.313   3.765  15.815 -0.1984  0.2600 -0.4690
 5612SOL    HW128469   3.304   3.670  15.808  1.6967  0.1333 -1.3040
 5612SOL    HW228470   3.373   3.789  15.744  0.2292  3.5100  1.0193
 5613SOL     OW28471   0.035   1.821   2.709 -0.9725  0.4149  0.3469
 5613SOL    HW128472   0.128   1.797   2.700 -1.2340 -0.9680  1.3695
 5613SOL    HW228473   0.032   1.916   2.717  0.5200  0.3978  1.2298
 5614SOL     OW28474   0.669   3.927  12.028 -0.1224  0.2692 -0.2796
 5614SOL    HW128475   0.664   3.996  12.094 -3.3232  2.2389 -2.5905
 5614SOL    HW228476   0.603   3.864  12.055 -0.3967  0.6716 -0.0047
 5615SOL     OW28477   2.716   3.007   8.586  0.4992  0.3862  0.1571
 5615SOL    HW128478   2.692   3.094   8.617 -0.6202  1.2794 -3.1671
 5615SOL    HW228479   2.633   2.981   8.547  0.8162 -3.3685  2.0572
 5616SOL     OW28480   4.665   3.424   3.622 -0.2359 -0.4478 -0.7447
 5616SOL    HW128481   4.585   3.372   3.612  0.6405 -1.7040 -1.2849
 5616SOL    HW228482   4.666   3.482   3.545  1.7394 -1.5883 -1.5871
 5617SOL     OW28483   2.003   2.081  16.795 -0.7465  0.0134 -0.2770
 5617SOL    HW128484   2.069   2.069  16.863  1.1119  0.7591 -1.9568
 5617SOL    HW228485   1.922   2.074  16.845 -1.6966  0.3130 -1.7582
 5618SOL     OW28486   0.899   0.183   1.777  0.4304  0.7320  0.8217
 5618SOL    HW128487   0.826   0.122   1.769  0.4644  0.8712 -0.5607
 5618SOL    HW228488   0.951   0.133   1.839  0.2672 -0.3486  0.0771
 5619SOL     OW28489   0.207   0.593  11.446 -0.1057  0.3868  0.2713
 5619SOL    HW128490   0.161   0.563  11.367  1.3785 -0.8066 -0.1315
 5619SOL    HW228491   0.213   0.686  11.424 -0.3285  0.2809 -0.2449
 5620SOL     OW28492   3.959   3.381   8.540  0.2113  0.0192  0.0558
 5620SOL    HW128493   3.889   3.407   8.600  0.8277 -1.3094  1.3392
 5620SOL    HW228494   3.911   3.359   8.460 -2.1142  2.4117  0.7673
 5621SOL     OW28495   4.227   2.694   5.048  0.0050 -0.0854 -0.2913
 5621SOL    HW128496   4.158   2.758   5.029 -0.7916 -1.4572 -2.0186
 5621SOL    HW228497   4.300   2.729   4.998 -1.7955  0.2694 -2.7066
 5622SOL     OW28498   1.637   1.589  12.382  0.4746  0.2655  0.0063
 5622SOL    HW128499   1.699   1.608  12.452 -2.1337 -0.0919  2.4297
 5622SOL    HW228500   1.673   1.635  12.306  0.9821  0.9095  0.6357
 5623SOL     OW28501   2.049   1.862   6.190  0.3478 -0.1667 -0.3685
 5623SOL    HW128502   2.053   1.767   6.184  2.1600 -0.0668 -0.7539
 5623SOL    HW228503   2.059   1.889   6.099 -1.0986  0.6445 -0.2822
 5624SOL     OW28504   3.244   4.051   5.464  0.1534  0.2163 -0.2223
 5624SOL    HW128505   3.308   4.098   5.517 -0.9030 -0.5305  1.7430
 5624SOL    HW228506   3.179   4.030   5.531  1.9419  1.0943  1.7890
 5625SOL     OW28507   1.368   2.979  17.623 -0.3723 -0.4035 -0.1983
 5625SOL    HW128508   1.425   2.938  17.689  2.1701  0.7922 -1.6834
 5625SOL    HW228509   1.303   3.008  17.687 -1.2582 -1.5893 -0.5522
 5626SOL     OW28510   0.113   1.756  17.035 -0.7106 -0.9830  0.2397
 5626SOL    HW128511   0.149   1.741  17.123  0.5989 -1.2406 -0.3396
 5626SOL    HW228512   0.177   1.724  16.971 -0.2395 -0.9083  0.6646
 5627SOL     OW28513   1.321   0.905   2.686  0.2003 -0.1122 -0.1935
 5627SOL    HW128514   1.347   0.954   2.764  0.2203 -0.1846 -0.1547
 5627SOL    HW228515   1.380   0.955   2.628 -2.0109  1.4122 -1.1146
 5628SOL     OW28516   0.335   2.260   2.904  0.6501  0.1952  0.3068
 5628SOL    HW128517   0.320   2.282   2.812  0.5147  0.4357  0.3849
 5628SOL    HW228518   0.371   2.171   2.905 -1.7596 -0.7798  2.4644
 5629SOL     OW28519   4.246   4.680   1.511  0.6026 -0.2814 -0.8755
 5629SOL    HW128520   4.176   4.704   1.571  1.5764  1.9526 -0.6036
 5629SOL    HW228521   4.221   4.592   1.484  3.1980 -2.0165  2.3356
 5630SOL     OW28522   1.951   1.642  16.586 -0.0548 -0.0391  0.3307
 5630SOL    HW128523   1.946   1.692  16.505 -1.8805 -0.2586  0.2935
 5630SOL    HW228524   2.002   1.568  16.553 -1.9228 -0.8997 -0.6302
 5631SOL     OW28525   4.360   2.509   5.878 -0.4216  0.1421  0.2493
 5631SOL    HW128526   4.300   2.546   5.813 -2.0631  1.0010  2.2493
 5631SOL    HW228527   4.432   2.503   5.816 -2.1988 -0.0481 -1.8029
 5632SOL     OW28528   2.714   0.704   1.731  0.2269 -0.3945 -0.5215
 5632SOL    HW128529   2.716   0.752   1.814  1.7800 -0.5297 -0.4654
 5632SOL    HW228530   2.803   0.722   1.701  0.2177 -1.9423 -1.4469
 5633SOL     OW28531   3.972   0.702   7.290  0.5157 -0.4893 -0.2667
 5633SOL    HW128532   4.024   0.781   7.276 -0.2448 -0.3198 -2.1487
 5633SOL    HW228533   4.025   0.660   7.358 -0.0755 -0.9949 -0.1122
 5634SOL     OW28534   3.478   4.451   3.662 -0.4532 -0.0650  0.0736
 5634SOL    HW128535   3.397   4.439   3.711 -0.4272  2.3999  0.7050
 5634SOL    HW228536   3.466   4.528   3.607  1.7336  0.2120 -0.0376
 5635SOL     OW28537   4.728   3.065   0.261  0.3212 -0.3590 -0.1153
 5635SOL    HW128538   0.073   3.041   0.303  1.5031  3.1163 -0.4757
 5635SOL    HW228539   4.660   3.051   0.326 -0.2946 -0.6780 -0.8215
 5636SOL     OW28540   0.000   4.128   0.449  0.4438  0.2760  0.5706
 5636SOL    HW128541   4.704   4.189   0.383  1.0655 -2.0623 -1.8898
 5636SOL    HW228542   4.731   4.165   0.537 -0.6307 -1.5062  1.2218
 5637SOL     OW28543   3.495   2.670   5.385 -0.6165  0.1873  0.1541
 5637SOL    HW128544   3.526   2.627   5.464  0.9481  2.0812  0.5477
 5637SOL    HW228545   3.407   2.638   5.361 -0.5433  1.2616 -1.5824
 5638SOL     OW28546   1.614   4.712   2.555  0.6981 -0.7143  1.0172
 5638SOL    HW128547   1.690   0.011   2.601  0.6713  1.7121 -0.8283
 5638SOL    HW228548   1.560   0.053   2.570 -0.3175 -1.3242  0.5607
 5639SOL     OW28549   0.544   0.576   5.720  0.1785 -0.1583 -0.0201
 5639SOL    HW128550   0.621   0.589   5.776 -2.7483  0.4870  3.9259
 5639SOL    HW228551   0.486   0.646   5.750  0.0053 -0.5628  0.6007
 5640SOL     OW28552   3.193   4.719   3.574  0.7825 -0.0849  0.3554
 5640SOL    HW128553   3.111   4.674   3.593  0.5298  1.0256  1.9507
 5640SOL    HW228554   3.160   0.039   3.506 -0.3146 -1.1220  0.0210
 5641SOL     OW28555   1.299   2.590   2.342 -0.3012  0.2576 -0.3769
 5641SOL    HW128556   1.234   2.542   2.291  0.1685  0.0032 -0.7359
 5641SOL    HW228557   1.374   2.595   2.283  1.4317  1.3929  1.9216
 5642SOL     OW28558   2.313   1.127   4.813  0.1998  0.0067  0.0698
 5642SOL    HW128559   2.370   1.152   4.885  2.5081 -2.1419 -1.0198
 5642SOL    HW228560   2.345   1.175   4.736  1.8937  1.2668  1.5589
 5643SOL     OW28561   3.429   1.034   2.593 -0.4633  0.0942  0.0285
 5643SOL    HW128562   3.457   1.108   2.539  1.6858  0.1708  1.2739
 5643SOL    HW228563   3.366   0.990   2.535 -1.0141 -0.8173  1.3302
 5644SOL     OW28564   2.517   1.374  14.407  0.3691  0.0248  0.3394
 5644SOL    HW128565   2.454   1.413  14.467 -0.2069  1.7615 -1.3608
 5644SOL    HW228566   2.458   1.313  14.363  1.4850 -1.9305  1.5854
 5645SOL     OW28567   4.192   3.252   6.806 -0.3049  0.0288  0.0987
 5645SOL    HW128568   4.269   3.254   6.863 -0.6915  0.5081  0.5994
 5645SOL    HW228569   4.224   3.273   6.719  0.7438  0.0978  0.5065
 5646SOL     OW28570   3.476   1.935  13.086  0.2362 -0.3161  0.5911
 5646SOL    HW128571   3.554   1.924  13.141  1.0542 -2.1799 -0.9519
 5646SOL    HW228572   3.428   2.015  13.105  0.3614  0.1705 -1.1132
 5647SOL     OW28573   1.483   4.242   3.151 -0.2340  0.5749 -0.1594
 5647SOL    HW128574   1.459   4.210   3.238 -0.7750  1.0672 -0.1277
 5647SOL    HW228575   1.507   4.331   3.180  1.8838 -0.0203 -0.0391
 5648SOL     OW28576   0.154   2.825   7.154 -0.1318  0.0126  0.0709
 5648SOL    HW128577   0.164   2.919   7.145 -0.9501  0.1798  0.9548
 5648SOL    HW228578   0.102   2.822   7.234 -1.4396  1.2077 -0.7481
 5649SOL     OW28579   1.286   0.432   8.162 -0.8212 -0.0535  0.0117
 5649SOL    HW128580   1.287   0.351   8.110 -0.5910  0.7836 -1.2878
 5649SOL    HW228581   1.354   0.407   8.224 -1.4741 -0.4417  0.5810
 5650SOL     OW28582   2.775   2.511  11.490  0.4797 -0.1550  0.2829
 5650SOL    HW128583   2.716   2.563  11.435  1.6176  0.8259 -0.0308
 5650SOL    HW228584   2.745   2.545  11.575 -0.6159 -1.1260  0.2783
 5651SOL     OW28585   1.804   2.234  16.067  0.0692  0.3086 -0.2221
 5651SOL    HW128586   1.856   2.254  16.145 -0.2355 -3.2721  0.8985
 5651SOL    HW228587   1.745   2.309  16.056 -0.7799 -0.3284  0.0117
 5652SOL     OW28588   3.585   4.445   1.997  0.6957 -0.1354  0.1488
 5652SOL    HW128589   3.620   4.441   2.086  4.8735  0.9081 -1.4252
 5652SOL    HW228590   3.572   4.540   1.988  0.1763 -0.5282 -3.2048
 5653SOL     OW28591   2.523   4.679   2.678 -0.5475 -0.5971  0.1235
 5653SOL    HW128592   2.439   4.712   2.648  0.4640  1.9433  0.0583
 5653SOL    HW228593   2.582   0.003   2.635  0.3262 -1.3996  0.1717
 5654SOL     OW28594   0.023   3.399   7.987 -0.2576 -0.5480  0.6473
 5654SOL    HW128595   4.720   3.415   8.072 -1.6372  1.7611 -0.4610
 5654SOL    HW228596   0.059   3.481   7.952  2.1157 -2.7730 -2.1585
 5655SOL     OW28597   3.337   2.061   4.356  0.0906  0.2552  0.2467
 5655SOL    HW128598   3.398   2.045   4.429  1.4664 -4.3330 -1.9143
 5655SOL    HW228599   3.250   2.071   4.396 -0.2913 -2.5125  0.1186
 5656SOL     OW28600   3.669   2.625   8.187  0.1652  0.2201  0.0702
 5656SOL    HW128601   3.743   2.683   8.205 -0.3388  0.6133  0.9181
 5656SOL    HW228602   3.684   2.552   8.248 -1.5283 -1.5331 -1.6004
 5657SOL     OW28603   0.275   1.701  16.827 -0.9822  0.4344 -0.6840
 5657SOL    HW128604   0.339   1.771  16.819  0.2441 -0.4856  1.1560
 5657SOL    HW228605   0.295   1.647  16.750 -0.8311 -1.4619  0.6786
 5658SOL     OW28606   2.888   2.856   6.587  0.4918 -0.3870 -0.0517
 5658SOL    HW128607   2.904   2.762   6.601 -0.0234 -0.4065  0.4269
 5658SOL    HW228608   2.948   2.871   6.514 -0.4112 -1.1207 -0.9495
 5659SOL     OW28609   2.736   3.385  17.448  0.0065  0.5772  0.2892
 5659SOL    HW128610   2.784   3.306  17.421 -2.6103 -0.9188 -0.0339
 5659SOL    HW228611   2.644   3.359  17.452  0.2758 -0.2272  1.1276
 5660SOL     OW28612   2.491   1.953  12.327 -0.8670 -0.3013 -0.2322
 5660SOL    HW128613   2.456   1.988  12.409  1.5253 -1.5432  1.3306
 5660SOL    HW228614   2.576   1.994  12.312 -0.5746 -0.0543  2.1263
 5661SOL     OW28615   1.825   3.634   5.979 -0.3286  0.4800 -0.4663
 5661SOL    HW128616   1.916   3.634   6.010  0.2129 -0.8233 -2.0276
 5661SOL    HW228617   1.781   3.708   6.020 -1.1212 -0.5284  0.4911
 5662SOL     OW28618   2.910   2.720  11.727  0.0167 -0.1204  0.2493
 5662SOL    HW128619   2.930   2.800  11.679  0.3592 -0.8074 -0.7446
 5662SOL    HW228620   2.843   2.759  11.784 -1.0222  0.4716 -1.3887
 5663SOL     OW28621   3.819   0.875  16.875  0.4204  0.3715  0.0177
 5663SOL    HW128622   3.902   0.912  16.848  1.0898 -0.2024  1.2761
 5663SOL    HW228623   3.839   0.820  16.951  1.6651  0.3588 -0.3327
 5664SOL     OW28624   1.736   0.817   7.476  0.1825 -0.0658  0.0034
 5664SOL    HW128625   1.709   0.824   7.567 -1.5127 -0.3319 -0.4690
 5664SOL    HW228626   1.831   0.817   7.487  0.0257  1.6584  1.2221
 5665SOL     OW28627   2.895   2.971   2.759  1.0314  0.8401 -0.5358
 5665SOL    HW128628   2.854   3.052   2.790 -1.6485  0.1231 -2.2303
 5665SOL    HW228629   2.923   2.938   2.845 -1.4757  1.6924  0.6138
 5666SOL     OW28630   0.026   4.600   1.800  1.3079  0.2627  0.0418
 5666SOL    HW128631   4.699   4.543   1.758  2.0510 -2.0550  2.0472
 5666SOL    HW228632   4.710   4.640   1.868  0.9412  0.2002 -0.2086
 5667SOL     OW28633   2.592   0.581   2.616 -0.0889  0.2510  0.2423
 5667SOL    HW128634   2.598   0.654   2.555 -1.4182 -0.9070 -1.2903
 5667SOL    HW228635   2.501   0.596   2.642 -0.1847  0.9986 -0.5165
 5668SOL     OW28636   3.193   1.160   5.726  0.7380 -0.5576 -0.0616
 5668SOL    HW128637   3.160   1.243   5.758  0.4423 -0.6146 -0.2211
 5668SOL    HW228638   3.272   1.189   5.680  0.9702 -1.5807 -0.3147
 5669SOL     OW28639   2.869   2.321   6.862  0.3944 -0.3388 -0.3636
 5669SOL    HW128640   2.817   2.335   6.783  1.1365  1.9060 -0.4283
 5669SOL    HW228641   2.955   2.303   6.824  0.0080  0.4604 -1.6259
 5670SOL     OW28642   1.556   0.679  13.317 -0.0417  0.7035  0.0761
 5670SOL    HW128643   1.542   0.752  13.258  0.6790 -0.0104 -0.9789
 5670SOL    HW228644   1.575   0.732  13.395  0.0472 -0.3152  0.7563
 5671SOL     OW28645   1.392   0.334   6.759 -0.1437  0.9161 -0.6106
 5671SOL    HW128646   1.476   0.368   6.789  1.8125 -2.2783 -2.4464
 5671SOL    HW228647   1.335   0.411   6.764 -0.4699  0.5325  1.7632
 5672SOL     OW28648   0.034   0.019   2.193 -0.3779  0.0740  0.0409
 5672SOL    HW128649   0.019   4.680   2.137 -2.0907  0.7173 -0.3792
 5672SOL    HW228650   0.122   0.005   2.228  0.1600  2.5593 -0.2927
 5673SOL     OW28651   3.406   2.914  17.286  0.5656 -0.2163 -0.3832
 5673SOL    HW128652   3.332   2.854  17.296  1.1031 -0.6508  0.9020
 5673SOL    HW228653   3.454   2.866  17.218 -0.3010  0.9140 -1.7855
 5674SOL     OW28654   2.074   3.455   0.926 -0.4514  0.0323 -0.4102
 5674SOL    HW128655   1.980   3.446   0.918 -0.2674 -0.3298 -2.1941
 5674SOL    HW228656   2.074   3.509   1.005 -2.1064  0.6678 -0.8404
 5675SOL     OW28657   2.310   3.077   2.099  0.4830 -0.1563 -0.4505
 5675SOL    HW128658   2.361   3.037   2.028  1.2932  1.5638 -0.8422
 5675SOL    HW228659   2.327   3.170   2.084  0.9089 -0.0221  0.8708
 5676SOL     OW28660   3.245   2.422  16.162  0.0535 -0.1367 -0.4731
 5676SOL    HW128661   3.200   2.506  16.170  0.1038 -0.0428 -1.1872
 5676SOL    HW228662   3.281   2.415  16.251 -0.4721  0.7163 -0.1949
 5677SOL     OW28663   2.596   2.047   7.627 -0.1976 -0.4841  0.0990
 5677SOL    HW128664   2.589   1.961   7.586  2.8468  0.7654 -3.0818
 5677SOL    HW228665   2.506   2.074   7.611  0.0928  0.1299 -0.5108
 5678SOL     OW28666   3.917   0.196   2.553 -0.0723  0.0203  0.6278
 5678SOL    HW128667   3.963   0.234   2.628 -0.1400  0.3926  0.4833
 5678SOL    HW228668   3.967   0.239   2.483  0.3736 -0.4247  0.6750
 5679SOL     OW28669   1.282   3.341   2.297  0.3957  0.4440 -0.2300
 5679SOL    HW128670   1.361   3.386   2.267  0.2216  0.1689 -1.0982
 5679SOL    HW228671   1.295   3.363   2.390 -1.4314  0.3624  0.0582
 5680SOL     OW28672   3.293   0.336   4.507 -0.1216 -0.1139 -0.8804
 5680SOL    HW128673   3.247   0.411   4.545 -0.2986 -0.7338  0.1294
 5680SOL    HW228674   3.380   0.361   4.536 -2.0776  0.4019  4.6176
 5681SOL     OW28675   2.018   1.797   7.429 -0.1804  0.4688 -0.1064
 5681SOL    HW128676   1.987   1.744   7.503 -1.9363  0.2244 -1.0098
 5681SOL    HW228677   2.061   1.735   7.370  0.1776 -0.1238  0.7771
 5682SOL     OW28678   4.576   1.011   9.174 -0.8886  0.4545 -0.3251
 5682SOL    HW128679   4.651   1.063   9.205  0.7544 -2.1178  0.0054
 5682SOL    HW228680   4.532   1.081   9.126 -2.8791 -2.3939 -2.6213
 5683SOL     OW28681   1.239   2.213  11.191  0.1544  0.6182  0.0464
 5683SOL    HW128682   1.167   2.253  11.240 -0.2260  0.4538 -0.3654
 5683SOL    HW228683   1.315   2.214  11.249  1.3241  3.4714 -1.4881
 5684SOL     OW28684   1.506   2.106  10.494 -0.5982 -0.0539  0.0295
 5684SOL    HW128685   1.579   2.167  10.493  1.5525 -2.5956  0.9894
 5684SOL    HW228686   1.439   2.175  10.491  0.6088  1.0925 -0.3345
 5685SOL     OW28687   0.544   2.868   3.201  0.5319  0.0285  0.5355
 5685SOL    HW128688   0.576   2.779   3.215  0.3891 -0.1903 -0.5365
 5685SOL    HW228689   0.566   2.875   3.108 -1.5807 -0.0365  0.0189
 5686SOL     OW28690   0.834   2.734   9.483 -0.0072  0.1907  0.1726
 5686SOL    HW128691   0.897   2.664   9.469 -1.8113 -0.8326 -2.8679
 5686SOL    HW228692   0.900   2.804   9.481  1.5693 -1.3098 -0.5736
 5687SOL     OW28693   0.336   0.775   2.128  0.1358  0.2001  0.3506
 5687SOL    HW128694   0.300   0.734   2.207 -0.2089 -1.9347 -0.9042
 5687SOL    HW228695   0.276   0.849   2.120 -1.6960 -1.5071 -1.6041
 5688SOL     OW28696   3.834   2.221  15.921  0.0422  0.6157 -0.1930
 5688SOL    HW128697   3.743   2.233  15.894 -0.3178 -1.5488  0.0567
 5688SOL    HW228698   3.828   2.190  16.012  0.3704  4.6481  1.2104
 5689SOL     OW28699   3.673   3.882   0.453 -0.2832 -0.2600  0.4018
 5689SOL    HW128700   3.742   3.948   0.441  0.1780 -0.8828 -0.3450
 5689SOL    HW228701   3.697   3.856   0.542 -3.9044  0.1519  1.5005
 5690SOL     OW28702   3.825   4.578  10.562  0.3725 -0.2119 -0.1140
 5690SOL    HW128703   3.746   4.610  10.606  0.4250  0.6103 -0.6173
 5690SOL    HW228704   3.859   4.644  10.502 -1.5543  1.9427  1.2040
 5691SOL     OW28705   3.565   0.096   7.987 -0.0509 -0.0956  0.5328
 5691SOL    HW128706   3.478   0.134   7.981  0.3973  0.8918  0.2004
 5691SOL    HW228707   3.624   0.169   7.966  0.6056 -0.5202  0.8800
 5692SOL     OW28708   1.093   3.565   4.597  0.0132 -0.1328 -0.4068
 5692SOL    HW128709   1.049   3.488   4.562  2.0719 -1.0423 -1.0203
 5692SOL    HW228710   1.185   3.548   4.573 -0.0180 -0.8915  0.0082
 5693SOL     OW28711   3.777   1.354   9.791  0.0892  0.5317 -0.3435
 5693SOL    HW128712   3.857   1.303   9.804 -0.3127  0.4000  1.5819
 5693SOL    HW228713   3.760   1.330   9.700  0.0074  1.5638 -0.5972
 5694SOL     OW28714   4.045   1.952  13.437 -0.4869 -0.4502  0.5902
 5694SOL    HW128715   4.099   1.901  13.498 -1.0508 -1.3810  0.3078
 5694SOL    HW228716   3.969   1.895  13.424 -1.0173  0.0605  1.4545
 5695SOL     OW28717   0.717   4.349   4.418 -0.3116  0.0694  0.1872
 5695SOL    HW128718   0.726   4.257   4.393  1.4061  0.5733 -1.1009
 5695SOL    HW228719   0.650   4.344   4.486 -0.3437 -1.0681  0.0759
 5696SOL     OW28720   3.924   1.097   8.935 -0.1104  0.1018  0.3931
 5696SOL    HW128721   3.831   1.104   8.911 -0.2129  2.2103  1.4385
 5696SOL    HW228722   3.956   1.035   8.869 -3.6510  0.4453 -1.6680
 5697SOL     OW28723   4.546   2.130   4.321 -0.0297  0.1052  0.2197
 5697SOL    HW128724   4.497   2.188   4.263 -2.5571 -0.9650  1.3135
 5697SOL    HW228725   4.526   2.039   4.299  0.1028  0.0416  0.3634
 5698SOL     OW28726   1.733   0.247   7.485  0.4055 -0.2326 -0.4064
 5698SOL    HW128727   1.754   0.153   7.485  2.8473  0.3176 -0.0033
 5698SOL    HW228728   1.821   0.283   7.479 -0.3789  1.8711  0.6478
 5699SOL     OW28729   3.916   4.671  15.473 -0.4882 -0.5925 -0.3778
 5699SOL    HW128730   3.910   4.602  15.407 -0.1230 -0.1483 -0.8754
 5699SOL    HW228731   3.859   0.001  15.436  1.9754  1.7628  0.1117
 5700SOL     OW28732   1.225   2.405   4.927 -0.1137  0.2560 -0.3503
 5700SOL    HW128733   1.292   2.347   4.963 -0.9960 -0.0585  0.8103
 5700SOL    HW228734   1.186   2.440   5.007 -1.3045 -2.1080  0.0850
 5701SOL     OW28735   3.632   2.562   8.570 -0.2450 -0.0292  0.2992
 5701SOL    HW128736   3.642   2.604   8.485 -0.2319 -1.8872 -0.6023
 5701SOL    HW228737   3.543   2.528   8.580  0.1113 -1.1216 -0.2600
 5702SOL     OW28738   3.132   0.865   8.443 -0.4067 -0.7735 -0.6163
 5702SOL    HW128739   3.176   0.876   8.527 -2.2465  3.0989 -0.1946
 5702SOL    HW228740   3.155   0.947   8.400 -1.8315 -0.5745 -1.0092
 5703SOL     OW28741   3.737   0.299   6.927 -0.3142  0.4479 -0.5252
 5703SOL    HW128742   3.658   0.354   6.933 -0.0271  0.9692 -1.4214
 5703SOL    HW228743   3.721   0.251   6.845 -0.8333 -0.0629 -0.1199
 5704SOL     OW28744   2.973   2.696   1.302  0.3110  0.1153  0.0526
 5704SOL    HW128745   2.911   2.624   1.301  0.8719 -0.3948  2.2388
 5704SOL    HW228746   2.992   2.700   1.209  0.6329  1.2630  0.1693
 5705SOL     OW28747   1.045   0.565   1.974 -0.3175  0.1767  0.5787
 5705SOL    HW128748   1.040   0.470   1.971  3.7329  0.0354 -1.6913
 5705SOL    HW228749   0.954   0.591   1.958 -0.7620 -0.7603  1.6225
 5706SOL     OW28750   0.237   2.599  16.010  0.0703  0.4951  0.5091
 5706SOL    HW128751   0.229   2.546  15.931  0.2644  1.0730  0.1110
 5706SOL    HW228752   0.181   2.673  15.987  0.5756  0.5364 -0.5920
 5707SOL     OW28753   0.901   3.778  12.277  0.1086  0.3360 -0.0553
 5707SOL    HW128754   0.887   3.694  12.321  2.1104  0.1660  0.2668
 5707SOL    HW228755   0.996   3.783  12.278  0.0580  1.3692 -0.1189
 5708SOL     OW28756   3.264   0.864   5.188 -1.0463 -0.2916  0.4043
 5708SOL    HW128757   3.229   0.866   5.100  0.3323  1.6404 -0.0929
 5708SOL    HW228758   3.314   0.945   5.197  1.3599 -1.5810 -1.2823
 5709SOL     OW28759   2.515   2.646   6.538 -0.0178 -0.1121 -0.1153
 5709SOL    HW128760   2.495   2.601   6.456  0.1661 -0.8362  0.2337
 5709SOL    HW228761   2.558   2.720   6.496  0.4407  0.9476  2.2682
 5710SOL     OW28762   1.250   1.432   6.435  0.3537 -0.0033  0.2299
 5710SOL    HW128763   1.337   1.394   6.441  1.0377  1.5307  0.0441
 5710SOL    HW228764   1.264   1.492   6.362 -1.8519 -0.0910 -0.2788
 5711SOL     OW28765   0.578   1.221   2.150  0.3224  0.4912  0.2838
 5711SOL    HW128766   0.540   1.144   2.109  1.2040 -0.5523  1.4119
 5711SOL    HW228767   0.504   1.251   2.202  1.4799  3.0632  0.4545
 5712SOL     OW28768   1.549   2.206   4.482 -0.0909  0.4116 -0.2318
 5712SOL    HW128769   1.518   2.116   4.480 -1.5829  0.9053  0.8848
 5712SOL    HW228770   1.505   2.228   4.400 -0.2629 -0.3137 -0.3355
 5713SOL     OW28771   1.127   0.277  16.491  0.6813  0.3353 -0.1142
 5713SOL    HW128772   1.129   0.367  16.458 -1.1893 -0.2555 -1.8067
 5713SOL    HW228773   1.035   0.277  16.517  1.0784 -2.9798  1.2745
 5714SOL     OW28774   2.017   2.509   8.729 -0.0617 -0.1146 -0.4811
 5714SOL    HW128775   1.965   2.589   8.722  2.0855  1.3562  0.5305
 5714SOL    HW228776   1.999   2.487   8.820  0.8074  2.3958  0.2905
 5715SOL     OW28777   0.479   2.675   1.732 -0.2031  0.4172 -0.5555
 5715SOL    HW128778   0.426   2.672   1.812 -0.0515 -0.7805 -0.4960
 5715SOL    HW228779   0.535   2.743   1.769 -0.0785  0.7154 -1.3052
 5716SOL     OW28780   1.038   3.337   5.330 -0.2624 -0.4618  0.0853
 5716SOL    HW128781   0.997   3.422   5.346  0.8427  0.2144 -0.6618
 5716SOL    HW228782   1.133   3.346   5.339 -0.0561 -0.4491 -1.9159
 5717SOL     OW28783   0.826   4.334   8.755 -0.6773  0.3245 -0.0419
 5717SOL    HW128784   0.765   4.387   8.805 -2.2265 -2.1000  0.6646
 5717SOL    HW228785   0.771   4.283   8.695 -0.6871 -1.3115  1.3799
 5718SOL     OW28786   3.996   2.432   6.946  0.4198  0.0828  0.0708
 5718SOL    HW128787   3.954   2.510   6.909  1.8311  0.5692 -0.5166
 5718SOL    HW228788   4.074   2.475   6.981 -0.1871 -0.0828  1.6710
 5719SOL     OW28789   0.252   4.478   3.735  0.6264  0.0255  0.1069
 5719SOL    HW128790   0.293   4.394   3.756  1.1127  0.0865 -0.6117
 5719SOL    HW228791   0.326   4.526   3.698  1.7424 -1.6061  0.2109
 5720SOL     OW28792   2.861   1.377   1.370  0.0716 -0.2008 -0.2422
 5720SOL    HW128793   2.811   1.402   1.449  0.6080 -0.4404  0.1746
 5720SOL    HW228794   2.820   1.430   1.302  0.2098  1.0310  0.6324
 5721SOL     OW28795   1.079   4.656  13.384 -0.0062  0.5229  0.4997
 5721SOL    HW128796   1.083   0.005  13.424  0.0862  0.3036  0.9638
 5721SOL    HW228797   1.107   4.696  13.302 -0.8308 -0.6438 -0.3500
 5722SOL     OW28798   3.014   2.504   5.581  0.1983  0.2774 -0.6687
 5722SOL    HW128799   3.055   2.580   5.540  1.0185 -0.3016 -0.9179
 5722SOL    HW228800   2.924   2.521   5.552 -0.4747  0.4624  1.5093
 5723SOL     OW28801   0.530   1.527  16.574  0.0842 -0.2873 -0.3235
 5723SOL    HW128802   0.442   1.566  16.572  0.3074  0.2690  0.6684
 5723SOL    HW228803   0.516   1.476  16.654 -0.7786 -0.4843 -0.5975
 5724SOL     OW28804   3.868   3.166   3.121  0.0465  0.4327 -0.1680
 5724SOL    HW128805   3.824   3.102   3.065 -1.6525  1.1588  0.3584
 5724SOL    HW228806   3.954   3.167   3.079  0.3967 -0.9404  0.5137
 5725SOL     OW28807   3.465   4.142   9.399  0.0483 -0.1860  0.1455
 5725SOL    HW128808   3.488   4.078   9.331 -2.1507  1.6992 -2.3977
 5725SOL    HW228809   3.540   4.162   9.455 -0.2488  0.1265  0.4320
 5726SOL     OW28810   4.049   4.220  15.302  0.2848 -0.8586 -0.4998
 5726SOL    HW128811   4.138   4.245  15.329 -0.0479  1.5248 -1.5998
 5726SOL    HW228812   4.013   4.238  15.389  0.3120  1.8336 -1.0379
 5727SOL     OW28813   3.038   2.198   6.568  0.4295  0.1884  0.1930
 5727SOL    HW128814   3.070   2.206   6.658  0.7742  1.2864 -0.0305
 5727SOL    HW228815   2.971   2.131   6.578  1.6550 -0.9808  0.6254
 5728SOL     OW28816   0.521   2.740   4.705 -0.1924  0.2744  0.0976
 5728SOL    HW128817   0.467   2.818   4.700 -0.9754 -0.3295 -0.9625
 5728SOL    HW228818   0.546   2.721   4.795 -2.1203 -2.2620  0.1240
 5729SOL     OW28819   1.845   4.295  10.710 -0.1793 -0.2552 -0.0687
 5729SOL    HW128820   1.830   4.386  10.685 -1.2579  0.1547  2.1103
 5729SOL    HW228821   1.869   4.299  10.803 -3.1409  0.0031  0.6780
 5730SOL     OW28822   3.223   1.322   7.553 -0.2475 -0.1797 -0.2086
 5730SOL    HW128823   3.309   1.323   7.595  0.4871  0.2512 -1.7176
 5730SOL    HW228824   3.242   1.286   7.466 -0.4353  0.1419 -0.3817
 5731SOL     OW28825   3.246   4.043   8.802  0.5167  0.3433 -0.2884
 5731SOL    HW128826   3.291   3.991   8.735 -0.5970 -0.2697 -0.5651
 5731SOL    HW228827   3.157   4.043   8.766  0.7020  0.4328 -0.7406
 5732SOL     OW28828   2.609   1.221  16.344  0.3120  0.9614 -0.2136
 5732SOL    HW128829   2.567   1.156  16.400 -0.6887  0.5748 -1.4157
 5732SOL    HW228830   2.675   1.165  16.304 -1.1347 -1.0323  0.1681
 5733SOL     OW28831   4.582   3.859   6.680  0.5292 -0.2993 -0.4141
 5733SOL    HW128832   4.664   3.894   6.712  0.0056  0.0449  0.5320
 5733SOL    HW228833   4.588   3.766   6.702  1.2346 -0.4147 -1.0854
 5734SOL     OW28834   1.398   1.946   1.413 -0.2606  0.4291  0.5141
 5734SOL    HW128835   1.302   1.941   1.417 -0.1135 -1.2824  2.1319
 5734SOL    HW228836   1.418   1.931   1.506  1.5266  0.3220  0.1063
 5735SOL     OW28837   2.417   4.071  16.322  0.4589  0.0228 -0.8652
 5735SOL    HW128838   2.477   4.138  16.290 -0.4231  0.6329 -1.2358
 5735SOL    HW228839   2.423   4.088  16.416 -0.3942 -0.9436 -0.6421
 5736SOL     OW28840   4.363   1.194  10.022  0.4281  0.3439 -0.2319
 5736SOL    HW128841   4.388   1.281   9.991  0.9330  0.0555 -0.6270
 5736SOL    HW228842   4.270   1.177  10.006 -0.0984  1.8811  1.1242
 5737SOL     OW28843   1.929   3.621   6.279 -0.0572 -0.4022  0.0562
 5737SOL    HW128844   1.929   3.531   6.310  2.6290 -0.1584  0.7681
 5737SOL    HW228845   1.994   3.611   6.210  0.3423 -0.6846  0.4696
 5738SOL     OW28846   0.612   0.243   5.175  0.0974  0.1421  0.2784
 5738SOL    HW128847   0.609   0.337   5.190  0.9032  0.1976  0.0942
 5738SOL    HW228848   0.520   0.237   5.147 -0.4917  0.1958  2.2256
 5739SOL     OW28849   0.006   0.001   3.431  0.7234 -0.1013 -0.0658
 5739SOL    HW128850   0.069   0.060   3.391 -0.6889  1.8456  0.5989
 5739SOL    HW228851   0.012   0.030   3.522 -0.0246 -1.3906  0.4046
 5740SOL     OW28852   0.785   2.202   7.037 -0.1035 -0.6350 -0.1045
 5740SOL    HW128853   0.863   2.151   7.016  0.9332  0.8858 -0.0257
 5740SOL    HW228854   0.837   2.278   7.064  1.8401 -2.0019 -0.0374
 5741SOL     OW28855   4.558   2.468   5.707  0.0323 -0.1763 -0.3688
 5741SOL    HW128856   4.638   2.522   5.707  0.5751 -0.9857  2.2571
 5741SOL    HW228857   4.547   2.448   5.614 -0.3963 -0.0564 -0.3416
 5742SOL     OW28858   3.972   0.649   3.192 -0.3613  0.1570 -0.3088
 5742SOL    HW128859   4.033   0.581   3.220  0.5451  1.6024  1.1859
 5742SOL    HW228860   3.913   0.646   3.267 -0.4447 -2.2916 -0.4638
 5743SOL     OW28861   4.540   2.218  16.540 -0.8627 -0.0647 -0.6225
 5743SOL    HW128862   4.564   2.160  16.612 -0.9367 -0.3176 -0.8028
 5743SOL    HW228863   4.456   2.185  16.507 -0.6948 -0.0847 -1.0392
 5744SOL     OW28864   1.175   2.769  14.284  0.2287  0.3043 -0.5761
 5744SOL    HW128865   1.141   2.771  14.373 -1.1580 -0.0031 -1.0881
 5744SOL    HW228866   1.266   2.748  14.303 -0.3723  0.4594  2.4050
 5745SOL     OW28867   4.326   0.991   2.974  0.5257  0.0356  0.1887
 5745SOL    HW128868   4.297   1.081   2.988 -2.1679 -0.4630 -2.2435
 5745SOL    HW228869   4.251   0.939   3.000  0.6025 -0.6839 -1.0222
 5746SOL     OW28870   1.609   3.743  11.418 -0.3410  0.0621 -0.0712
 5746SOL    HW128871   1.625   3.650  11.401  1.2219  0.3713 -0.2152
 5746SOL    HW228872   1.515   3.761  11.415 -0.1817  0.7235 -1.1101
 5747SOL     OW28873   4.056   0.513   6.762 -0.5757 -0.1099  0.2292
 5747SOL    HW128874   4.009   0.430   6.753 -0.4218 -0.1110 -0.5934
 5747SOL    HW228875   4.026   0.541   6.848  1.1028 -0.2933  0.8894
 5748SOL     OW28876   0.075   4.606   9.387  0.2917 -0.7345  0.2216
 5748SOL    HW128877   0.137   4.657   9.335  2.3010 -2.2717  1.1184
 5748SOL    HW228878   0.100   4.632   9.475 -1.6598  0.5285  0.3914
 5749SOL     OW28879   3.513   1.927  13.944  0.2138  0.0019 -0.0641
 5749SOL    HW128880   3.515   2.010  13.897 -0.0447  0.6249  1.0201
 5749SOL    HW228881   3.519   1.856  13.881  0.1101  1.1998 -1.4097
 5750SOL     OW28882   1.526   4.161   7.360  0.0361 -0.0165 -0.0622
 5750SOL    HW128883   1.520   4.248   7.321  1.2778  0.3799  0.6239
 5750SOL    HW228884   1.586   4.115   7.301  2.5423 -1.9410  3.9142
 5751SOL     OW28885   0.474   4.055  13.575  0.7161  0.2090  0.2437
 5751SOL    HW128886   0.537   3.988  13.548  0.8527  1.0108 -1.4275
 5751SOL    HW228887   0.397   4.024  13.529 -0.1901  0.1218  1.8351
 5752SOL     OW28888   1.415   3.686   7.037  0.1222 -0.5205 -0.3035
 5752SOL    HW128889   1.438   3.676   7.129 -0.4284 -0.3747 -0.1481
 5752SOL    HW228890   1.486   3.747   7.017 -2.3452  2.0128 -1.3308
 5753SOL     OW28891   0.134   4.189   8.952 -0.1720  0.3722  0.0697
 5753SOL    HW128892   0.058   4.131   8.957  0.4421 -0.5707 -1.7632
 5753SOL    HW228893   0.153   4.190   9.046 -1.6763 -1.3600  0.3860
 5754SOL     OW28894   3.853   1.905  12.676 -0.0451  0.1373 -0.0636
 5754SOL    HW128895   3.887   1.930  12.590 -0.7974 -1.6054 -0.8781
 5754SOL    HW228896   3.765   1.875  12.653  0.6867 -1.3313 -0.9091
 5755SOL     OW28897   2.772   3.800   9.540 -0.6431 -0.1449 -0.4787
 5755SOL    HW128898   2.760   3.845   9.624  0.0816  1.3510 -1.1660
 5755SOL    HW228899   2.844   3.743   9.567 -0.6574  0.1413  0.1596
 5756SOL     OW28900   2.153   2.892   2.959  0.3763  0.2928  0.6586
 5756SOL    HW128901   2.070   2.935   2.938  1.0059  0.2886 -1.8537
 5756SOL    HW228902   2.128   2.831   3.029 -0.9559  1.4554  1.1822
 5757SOL     OW28903   1.245   1.854   0.589 -0.1504  0.6419  0.3273
 5757SOL    HW128904   1.295   1.924   0.630  1.2576 -0.6452  0.8150
 5757SOL    HW228905   1.178   1.840   0.657 -1.8133  1.9386 -1.0602
 5758SOL     OW28906   2.254   0.045  14.352  0.1241  0.5244 -0.2125
 5758SOL    HW128907   2.284   0.017  14.265 -1.6712 -0.9694 -0.3479
 5758SOL    HW228908   2.168   0.005  14.364  1.2692 -1.7533  0.5029
 5759SOL     OW28909   2.974   0.467   7.440 -0.4291  0.5106  0.5991
 5759SOL    HW128910   2.890   0.423   7.453  0.5156 -1.0108  1.5483
 5759SOL    HW228911   2.983   0.501   7.528 -0.7662 -1.6014  1.4593
 5760SOL     OW28912   0.754   4.680   7.273 -0.3666  0.4626 -0.1565
 5760SOL    HW128913   0.825   4.730   7.233  1.3407 -1.1828  0.8201
 5760SOL    HW228914   0.791   4.594   7.254 -0.2125  0.9650 -2.0662
 5761SOL     OW28915   0.015   0.064   8.070 -0.3343  0.2382 -0.4667
 5761SOL    HW128916   4.711   0.146   8.096  0.4616  0.4505  0.1353
 5761SOL    HW228917   0.107   0.081   8.089 -0.0210 -1.5343 -0.4104
 5762SOL     OW28918   3.171   1.273   3.491 -0.0197 -0.2659  0.2996
 5762SOL    HW128919   3.130   1.276   3.405  3.2841  0.8880 -1.2618
 5762SOL    HW228920   3.223   1.193   3.496  1.1329  0.5227  1.2604
 5763SOL     OW28921   1.013   2.399   5.928  0.4612 -0.3623  0.1794
 5763SOL    HW128922   1.080   2.460   5.959 -0.4293  0.6828  0.0016
 5763SOL    HW228923   0.981   2.441   5.849 -1.7132 -1.9009  0.2511
 5764SOL     OW28924   0.978   0.794   4.924  0.8187  0.0149 -0.4547
 5764SOL    HW128925   1.034   0.754   4.857  0.3407 -0.7858 -0.3656
 5764SOL    HW228926   0.903   0.736   4.927  0.7789  0.0875  0.0079
 5765SOL     OW28927   0.239   3.371   5.532 -0.0196 -0.0629  0.4882
 5765SOL    HW128928   0.264   3.325   5.613  1.2704 -1.7428 -0.8564
 5765SOL    HW228929   0.182   3.442   5.563  2.2041  2.1369 -0.4450
 5766SOL     OW28930   4.641   4.562   4.545 -0.5451 -0.0675 -0.5495
 5766SOL    HW128931   4.561   4.513   4.524  0.1360 -1.6084  0.5075
 5766SOL    HW228932   4.658   4.522   4.630 -1.5305 -0.9647 -0.7702
 5767SOL     OW28933   0.048   1.389   2.508  0.0903 -0.1229  0.4249
 5767SOL    HW128934   0.007   1.452   2.567  0.5960  0.9989 -0.4233
 5767SOL    HW228935   0.141   1.391   2.532  0.5289  0.5942 -1.3955
 5768SOL     OW28936   4.658   0.344   5.197 -0.1968  0.1311  0.4660
 5768SOL    HW128937   4.666   0.255   5.161  1.6715 -0.6150  2.7147
 5768SOL    HW228938   4.709   0.324   5.275  0.5162  0.0955 -0.0051
 5769SOL     OW28939   3.777   0.576   8.338  0.2105  0.6177 -0.1059
 5769SOL    HW128940   3.775   0.651   8.278 -3.1462  0.8723  0.2857
 5769SOL    HW228941   3.771   0.503   8.276  1.5193  0.5039 -0.0846
 5770SOL     OW28942   4.429   2.638   7.315  0.4433 -0.3022 -0.4682
 5770SOL    HW128943   4.444   2.707   7.250 -0.5888 -0.6214 -1.0525
 5770SOL    HW228944   4.341   2.669   7.338  1.3343  1.7849  0.1583
 5771SOL     OW28945   1.553   1.455   1.441  0.0420 -0.0920 -0.1437
 5771SOL    HW128946   1.559   1.361   1.424 -0.6912  0.0380 -1.0819
 5771SOL    HW228947   1.607   1.441   1.518 -0.9826 -1.5819  0.3065
 5772SOL     OW28948   2.059   1.239   8.484  0.4016 -0.0645  0.5928
 5772SOL    HW128949   2.107   1.281   8.412  0.1381 -0.2808  0.2936
 5772SOL    HW228950   1.977   1.213   8.443  1.9101 -0.7217 -1.9841
 5773SOL     OW28951   1.195   0.587   1.162 -0.4386  0.6577  0.3930
 5773SOL    HW128952   1.099   0.588   1.158 -0.3799 -1.5137 -1.8244
 5773SOL    HW228953   1.215   0.584   1.255  2.6440 -0.2232 -0.3081
 5774SOL     OW28954   0.770   0.488  16.488  0.0260 -0.3570 -0.5667
 5774SOL    HW128955   0.694   0.430  16.482  0.0342 -0.3084 -1.0836
 5774SOL    HW228956   0.839   0.429  16.518 -2.2222 -0.9613  3.4206
 5775SOL     OW28957   2.911   2.490   7.541 -0.1314  0.1185  0.1381
 5775SOL    HW128958   2.882   2.400   7.550  1.1055 -0.4101 -1.1031
 5775SOL    HW228959   2.867   2.518   7.621 -1.3268  1.0439 -0.8342
 5776SOL     OW28960   4.253   3.579   6.189 -0.8183  0.5055  0.4360
 5776SOL    HW128961   4.284   3.649   6.132 -0.8413 -0.6202 -0.9682
 5776SOL    HW228962   4.258   3.499   6.136 -0.5488  1.1828 -0.5421
 5777SOL     OW28963   4.122   1.420   8.012 -0.6609 -0.2657  0.0822
 5777SOL    HW128964   4.088   1.509   8.021  0.1224  0.0682 -0.2429
 5777SOL    HW228965   4.182   1.442   7.940 -2.2883 -1.9015 -1.7783
 5778SOL     OW28966   2.902   2.982  11.584 -0.1278 -0.0264 -0.4623
 5778SOL    HW128967   2.947   3.011  11.664 -0.2212 -0.1113 -0.3805
 5778SOL    HW228968   2.850   3.062  11.576  2.2605  1.7103  1.0616
 5779SOL     OW28969   2.379   2.836   4.874 -0.7797  0.1558  0.3322
 5779SOL    HW128970   2.381   2.745   4.903 -0.7128 -1.0357 -3.3821
 5779SOL    HW228971   2.455   2.872   4.918 -1.5342  0.9346  0.9949
 5780SOL     OW28972   3.788   1.967  17.538 -0.5770 -0.0621  0.3411
 5780SOL    HW128973   3.740   1.966  17.620 -2.1062  1.0146 -0.5411
 5780SOL    HW228974   3.781   2.054  17.498  0.3534  0.1269  0.5789
 5781SOL     OW28975   1.953   1.402  12.163 -0.2486  0.0116 -0.0693
 5781SOL    HW128976   1.959   1.310  12.136  1.6214 -0.3200  1.5123
 5781SOL    HW228977   1.940   1.394  12.258 -0.7820 -0.1996 -0.1574
 5782SOL     OW28978   4.376   1.680   3.613  0.3598 -0.6978 -0.0392
 5782SOL    HW128979   4.457   1.651   3.571  0.9151  0.9978 -0.1562
 5782SOL    HW228980   4.342   1.745   3.551  2.4903  1.0912  0.6469
 5783SOL     OW28981   1.878   0.785  13.306  0.5413  0.2858  0.0616
 5783SOL    HW128982   1.834   0.782  13.390 -0.2891 -1.3243 -0.4241
 5783SOL    HW228983   1.856   0.699  13.270 -2.8504  1.0845  0.2737
 5784SOL     OW28984   3.747   4.534   9.907 -0.0434  0.2044 -0.0756
 5784SOL    HW128985   3.780   4.546   9.996 -0.7697  1.9517 -0.0437
 5784SOL    HW228986   3.654   4.549   9.927 -0.6607  0.0049 -2.7352
 5785SOL     OW28987   3.426   3.131   0.900 -0.1781 -0.6746 -0.1266
 5785SOL    HW128988   3.387   3.218   0.903  2.5708  0.5998 -1.1870
 5785SOL    HW228989   3.350   3.075   0.883 -0.1112 -1.1873  1.2705
 5786SOL     OW28990   1.178   4.367   2.896 -0.0990  0.0171  0.0044
 5786SOL    HW128991   1.209   4.430   2.831  1.5902 -4.9310 -4.0392
 5786SOL    HW228992   1.084   4.385   2.902  0.1179  0.6160  1.5182
 5787SOL     OW28993   4.618   4.293   2.059 -0.1082 -0.1728 -0.1241
 5787SOL    HW128994   4.648   4.224   2.000 -2.5469  1.3932 -3.1814
 5787SOL    HW228995   4.524   4.303   2.051 -0.1429 -0.6092 -0.2535
 5788SOL     OW28996   0.816   3.396   0.268  0.4246  0.8071  0.0658
 5788SOL    HW128997   0.879   3.326   0.251 -0.9779 -0.3347 -0.3999
 5788SOL    HW228998   0.875   3.471   0.266  2.4168 -0.7195  2.3400
 5789SOL     OW28999   2.024   1.636  12.051  0.1289 -0.2815 -0.2412
 5789SOL    HW129000   1.991   1.552  12.084  2.2603 -0.9443  0.2617
 5789SOL    HW229001   2.035   1.683  12.134 -0.1481 -0.1917 -0.2586
 5790SOL     OW29002   3.644   4.029   5.475  0.0950 -0.4587  0.0066
 5790SOL    HW129003   3.577   4.013   5.541  0.0800 -1.1888 -0.1860
 5790SOL    HW229004   3.588   4.044   5.398  2.7849  1.5979 -1.5242
 5791SOL     OW29005   3.233   2.639   1.773  0.3401 -0.2827  0.0934
 5791SOL    HW129006   3.178   2.675   1.703  1.3263  1.8797  0.4345
 5791SOL    HW229007   3.214   2.546   1.755  1.5206 -0.7031  1.0739
 5792SOL     OW29008   2.387   2.471   1.939  0.3453 -0.4235 -0.3597
 5792SOL    HW129009   2.350   2.456   2.026  0.9251  0.4543  0.0386
 5792SOL    HW229010   2.449   2.401   1.919  2.2989  0.8834  1.1774
 5793SOL     OW29011   4.564   3.320  12.598  0.0498  0.5074  0.1114
 5793SOL    HW129012   4.555   3.415  12.599 -1.5558  0.3309  1.7373
 5793SOL    HW229013   4.539   3.296  12.509  1.7183  0.7166 -0.4113
 5794SOL     OW29014   1.483   1.455   9.598  0.3854 -0.1264  0.3350
 5794SOL    HW129015   1.424   1.464   9.674 -0.2394  0.9365 -0.2836
 5794SOL    HW229016   1.468   1.363   9.577 -3.2134  0.3741  0.6473
 5795SOL     OW29017   0.256   3.059   1.962  0.4822  0.6563  0.9740
 5795SOL    HW129018   0.229   3.042   1.872 -0.1212 -0.2293  1.3234
 5795SOL    HW229019   0.180   3.109   1.990 -1.5811 -1.8689 -0.1696
 5796SOL     OW29020   4.244   1.594   2.182 -0.7449 -0.3890  0.0858
 5796SOL    HW129021   4.195   1.673   2.160  0.2708  0.2760  0.2228
 5796SOL    HW229022   4.270   1.615   2.272  0.1347  0.9023 -0.4700
 5797SOL     OW29023   0.740   4.472   9.862 -0.1646  0.4865  0.3044
 5797SOL    HW129024   0.817   4.431   9.822 -0.7945 -1.4724  1.1104
 5797SOL    HW229025   0.781   4.555   9.888 -0.8476  0.6231  0.9406
 5798SOL     OW29026   3.035   0.256   3.120  0.2368  0.0350  0.3835
 5798SOL    HW129027   3.071   0.169   3.132  2.9366  1.0472 -0.4012
 5798SOL    HW229028   3.105   0.308   3.159  2.1134 -1.6597 -0.7265
 5799SOL     OW29029   1.449   2.445  12.098 -0.2125 -0.1585 -0.5189
 5799SOL    HW129030   1.503   2.501  12.043  0.5225  0.5063  0.8703
 5799SOL    HW229031   1.359   2.470  12.074 -0.1235 -1.2267 -1.9292
 5800SOL     OW29032   3.890   4.492   6.520  0.1851 -0.3351 -0.0032
 5800SOL    HW129033   3.873   4.398   6.522  0.1119 -0.2938  1.2952
 5800SOL    HW229034   3.931   4.510   6.604 -0.4175 -1.3022  0.4963
 5801SOL     OW29035   0.187   0.586   3.959 -0.3006  0.4838 -0.5915
 5801SOL    HW129036   0.204   0.492   3.960 -0.8886  0.3840  0.1930
 5801SOL    HW229037   0.239   0.607   4.037  1.3190  1.1796 -1.8736
 5802SOL     OW29038   1.338   1.280   2.554  0.5251 -0.0382 -0.4510
 5802SOL    HW129039   1.383   1.203   2.589  1.5982  0.4921 -0.6507
 5802SOL    HW229040   1.305   1.329   2.630 -0.7260  1.2644 -1.8327
 5803SOL     OW29041   3.115   3.940   3.276 -0.1559 -0.6208  0.0028
 5803SOL    HW129042   3.159   3.898   3.350 -1.6098 -0.9863  0.6804
 5803SOL    HW229043   3.183   4.000   3.247  0.6337 -0.5493  2.0193
 5804SOL     OW29044   0.747   2.836   8.696 -0.0621 -0.1734 -0.9326
 5804SOL    HW129045   0.708   2.751   8.678  1.2148  0.0247 -4.6031
 5804SOL    HW229046   0.730   2.891   8.619 -1.9768  0.8931  0.2518
 5805SOL     OW29047   3.121   1.233   2.539 -0.0346 -0.1904  0.5022
 5805SOL    HW129048   3.194   1.269   2.590 -1.2973  1.7721  0.9031
 5805SOL    HW229049   3.107   1.152   2.588 -2.9916 -0.1349 -0.2533
 5806SOL     OW29050   0.178   0.299   8.660 -0.5011 -0.2239 -0.3145
 5806SOL    HW129051   0.190   0.268   8.571 -0.3892  0.4793 -0.5376
 5806SOL    HW229052   0.131   0.379   8.638  2.0148  1.5671  0.8692
 5807SOL     OW29053   3.783   0.441   9.555 -0.2948 -0.0344  0.2555
 5807SOL    HW129054   3.853   0.504   9.540  0.6678 -1.0184  0.6356
 5807SOL    HW229055   3.782   0.405   9.466  0.9739 -0.6471  0.4961
 5808SOL     OW29056   1.778   2.823   5.515  0.1109  0.0333  0.0571
 5808SOL    HW129057   1.736   2.743   5.486  0.5738 -0.2863  0.2647
 5808SOL    HW229058   1.748   2.880   5.445 -1.1731 -1.7707 -0.8358
 5809SOL     OW29059   2.149   2.214  10.371 -0.2222  0.3389  0.5652
 5809SOL    HW129060   2.159   2.119  10.375  1.4792  0.3998 -2.3769
 5809SOL    HW229061   2.069   2.211  10.318  0.8760  2.4566 -1.2022
 5810SOL     OW29062   4.199   4.578   7.359 -0.0021 -0.6915 -0.2296
 5810SOL    HW129063   4.199   4.544   7.448 -1.2306  2.8086  1.0753
 5810SOL    HW229064   4.270   4.529   7.316  1.8444  0.2279  1.8178
 5811SOL     OW29065   0.720   1.171   8.926  0.1700  0.2234 -0.2581
 5811SOL    HW129066   0.659   1.229   8.972  1.3450 -0.5193  2.2487
 5811SOL    HW229067   0.738   1.095   8.982  0.4022 -0.2272 -0.9546
 5812SOL     OW29068   3.072   1.204  16.886  0.1895  0.2325 -0.1335
 5812SOL    HW129069   3.080   1.186  16.980 -1.3662 -1.6736 -0.3733
 5812SOL    HW229070   2.977   1.217  16.875 -0.0109 -1.6660 -0.5651
 5813SOL     OW29071   2.098   2.871   6.234  0.0612  0.0725 -0.0017
 5813SOL    HW129072   2.005   2.892   6.234  0.8414  3.6305 -2.0412
 5813SOL    HW229073   2.128   2.925   6.160  2.0662  0.7712  1.3290
 5814SOL     OW29074   0.713   4.727   1.707 -0.1684 -0.3051 -0.0848
 5814SOL    HW129075   0.723   4.732   1.802 -0.2701  0.5797 -0.1213
 5814SOL    HW229076   0.645   4.661   1.693  1.4253 -2.0617  0.4885
 5815SOL     OW29077   1.750   2.207   7.493 -0.3630 -0.3017 -0.1471
 5815SOL    HW129078   1.780   2.231   7.406  0.3675 -0.2347  0.1207
 5815SOL    HW229079   1.702   2.129   7.465  0.3134 -0.3492 -1.1659
 5816SOL     OW29080   0.192   1.059   0.396 -0.0246 -0.0990  0.2973
 5816SOL    HW129081   0.130   1.057   0.323  0.3394  3.1195 -0.1009
 5816SOL    HW229082   0.131   1.074   0.467 -1.7669  0.3099 -1.2936
 5817SOL     OW29083   0.243   4.370  15.966 -0.3804  0.0635  0.0375
 5817SOL    HW129084   0.315   4.356  16.028  0.3154  1.7091 -0.3850
 5817SOL    HW229085   0.225   4.464  15.969 -0.6987 -0.0121  0.4603
 5818SOL     OW29086   0.683   1.505  15.033 -0.4274  0.0120 -0.1696
 5818SOL    HW129087   0.767   1.491  15.076 -0.4477 -2.4447 -0.8951
 5818SOL    HW229088   0.664   1.598  15.046 -0.0130 -0.0715  0.9936
 5819SOL     OW29089   0.365   3.356  13.708  0.5980 -0.4152 -0.4796
 5819SOL    HW129090   0.450   3.365  13.664  1.2829  1.0290  1.1055
 5819SOL    HW229091   0.318   3.425  13.661  1.0960 -0.3186 -0.8487
 5820SOL     OW29092   0.914   1.917   2.261 -0.2755 -0.0783  0.4748
 5820SOL    HW129093   0.939   1.955   2.177 -2.2684 -0.4471 -0.3024
 5820SOL    HW229094   0.874   1.835   2.233  0.4121  1.0762 -3.9048
 5821SOL     OW29095   3.444   3.085   5.803  0.7046 -0.3434 -0.5205
 5821SOL    HW129096   3.447   2.991   5.818  1.2475 -0.3388 -0.5936
 5821SOL    HW229097   3.364   3.114   5.846  0.6482 -3.1246  1.2307
 5822SOL     OW29098   4.474   2.081   4.746 -0.2457  0.6231 -0.1354
 5822SOL    HW129099   4.408   2.128   4.797 -0.8621 -0.4041  0.0201
 5822SOL    HW229100   4.512   2.154   4.697  0.2735  0.1054 -0.4978
 5823SOL     OW29101   0.971   3.577   6.683  0.1693 -0.0134  0.2249
 5823SOL    HW129102   0.905   3.637   6.719  0.2543 -1.3659  2.6665
 5823SOL    HW229103   1.056   3.597   6.723 -1.0751  1.8477  1.9899
 5824SOL     OW29104   3.680   1.378  10.938  0.5301 -0.3955  0.0902
 5824SOL    HW129105   3.707   1.462  10.899  0.7868 -0.7036 -0.4008
 5824SOL    HW229106   3.726   1.387  11.021 -0.4296  0.2658  0.5419
 5825SOL     OW29107   3.855   0.872  14.716  0.1844 -0.2540  0.1494
 5825SOL    HW129108   3.787   0.851  14.780 -0.3442  1.1399  0.0494
 5825SOL    HW229109   3.805   0.854  14.636  1.7360 -1.2791 -0.5939
 5826SOL     OW29110   0.027   4.245  16.955  0.0689  0.3526 -0.0567
 5826SOL    HW129111   0.122   4.234  16.952  0.2991  2.6974 -1.4444
 5826SOL    HW229112   0.021   4.297  16.875  0.3033 -0.6103 -0.6983
 5827SOL     OW29113   1.816   3.545   4.698  0.0816  0.1040 -0.0655
 5827SOL    HW129114   1.889   3.607   4.698 -0.8935  1.2560  0.1622
 5827SOL    HW229115   1.742   3.576   4.646  0.5542 -0.9951 -1.3797
 5828SOL     OW29116   1.790   0.448   7.120  0.1086  0.2401  0.2995
 5828SOL    HW129117   1.865   0.405   7.161  0.9760  3.4302  2.0518
 5828SOL    HW229118   1.795   0.536   7.157 -1.2400 -0.2604  1.7023
 5829SOL     OW29119   1.198   1.077  12.202  0.3375  0.1767 -0.1288
 5829SOL    HW129120   1.238   1.072  12.288 -2.2746 -2.1119  0.9531
 5829SOL    HW229121   1.262   1.133  12.159 -0.9828 -0.7271 -3.2843
 5830SOL     OW29122   3.919   0.438   4.175 -0.0929  0.2470 -0.4559
 5830SOL    HW129123   3.864   0.499   4.125  0.6042  1.2503  0.0039
 5830SOL    HW229124   3.846   0.379   4.193  0.5204  0.9359  4.2627
 5831SOL     OW29125   4.304   4.606   5.617 -0.3192 -0.3224 -0.3733
 5831SOL    HW129126   4.344   4.626   5.701 -0.1604 -0.0816 -0.5057
 5831SOL    HW229127   4.357   4.664   5.562 -1.5530  1.1606  0.0099
 5832SOL     OW29128   1.238   2.249   1.385 -0.3681 -0.1917  0.2605
 5832SOL    HW129129   1.230   2.332   1.432  3.0169 -1.0107  2.2549
 5832SOL    HW229130   1.221   2.277   1.295  1.0618  1.0124  0.3608
 5833SOL     OW29131   2.234   1.685   6.307  0.0396  0.5010 -0.7143
 5833SOL    HW129132   2.237   1.603   6.259  0.3003  0.5375 -0.7638
 5833SOL    HW229133   2.169   1.678   6.376  0.7748 -1.3623 -0.2082
 5834SOL     OW29134   0.987   0.143   6.909  0.5575  0.2830 -0.3297
 5834SOL    HW129135   0.999   0.073   6.845 -0.9638  0.2648 -0.6070
 5834SOL    HW229136   0.961   0.089   6.984  1.3429  1.3606  0.7175
 5835SOL     OW29137   4.145   4.555   9.270  0.5427  0.2025 -0.2224
 5835SOL    HW129138   4.235   4.526   9.263  0.2688 -0.2281 -1.7800
 5835SOL    HW229139   4.094   4.474   9.271 -0.0865  0.5878 -0.7945
 5836SOL     OW29140   2.403   0.213   2.583 -0.3423  0.8333  0.1922
 5836SOL    HW129141   2.312   0.229   2.607  0.0801  0.9703  1.6627
 5836SOL    HW229142   2.391   0.142   2.519  0.9584  0.2536  0.5698
 5837SOL     OW29143   0.185   2.697   8.036 -0.4299  0.1480 -0.4469
 5837SOL    HW129144   0.111   2.720   8.092  0.5594 -0.0143  0.9391
 5837SOL    HW229145   0.244   2.668   8.106 -1.5767  1.9359  1.2654
 5838SOL     OW29146   4.594   0.853  15.507  0.5279 -0.2328 -0.1046
 5838SOL    HW129147   4.579   0.945  15.485 -2.2642 -0.3680  1.2181
 5838SOL    HW229148   4.574   0.808  15.425 -0.1158 -1.4475  0.7129
 5839SOL     OW29149   2.743   2.743  11.094 -0.1365 -0.1925  0.1028
 5839SOL    HW129150   2.818   2.770  11.148  0.2687  1.6579 -1.4113
 5839SOL    HW229151   2.695   2.825  11.088 -0.1550 -0.3701 -2.1200
 5840SOL     OW29152   2.728   4.164   7.867 -0.1205 -0.4899 -0.2166
 5840SOL    HW129153   2.821   4.150   7.850 -0.0790 -1.0180  0.4458
 5840SOL    HW229154   2.729   4.111   7.947  0.2213 -0.0683  0.0579
 5841SOL     OW29155   4.325   0.380   1.513  0.2478 -0.2342  0.1683
 5841SOL    HW129156   4.266   0.317   1.555  1.6871 -0.9012  1.2133
 5841SOL    HW229157   4.352   0.430   1.590  2.0840 -1.4652  0.3372
 5842SOL     OW29158   2.683   1.373   1.566  0.1889  0.1034 -0.2686
 5842SOL    HW129159   2.725   1.317   1.632  2.4663  0.8202 -1.0918
 5842SOL    HW229160   2.647   1.435   1.630  2.1558  0.9408  0.0369
 5843SOL     OW29161   0.735   3.646   0.901 -0.5141  0.2520  1.0336
 5843SOL    HW129162   0.725   3.609   0.988 -1.6960 -0.2428  0.6872
 5843SOL    HW229163   0.767   3.567   0.857 -0.5324  0.6531  0.2874
 5844SOL     OW29164   0.991   4.157   7.780  0.6223 -0.1579 -0.2162
 5844SOL    HW129165   1.060   4.126   7.838 -1.0336 -2.1725  0.6675
 5844SOL    HW229166   1.033   4.233   7.741 -0.2023 -0.5205 -1.8134
 5845SOL     OW29167   2.997   4.428   0.328 -0.1770  0.1162  0.1668
 5845SOL    HW129168   2.914   4.461   0.363 -1.1713 -2.4779  0.2601
 5845SOL    HW229169   3.008   4.487   0.254 -1.4312  1.6062  1.1577
 5846SOL     OW29170   1.754   3.820   1.422  0.2314  0.3820 -0.1244
 5846SOL    HW129171   1.759   3.744   1.480 -1.0035  0.6598  0.3398
 5846SOL    HW229172   1.831   3.804   1.367  0.8515 -0.2682  0.9333
 5847SOL     OW29173   4.202   3.489   3.880  0.2748  0.5391 -0.2366
 5847SOL    HW129174   4.171   3.577   3.900  0.3800  0.6559 -0.5815
 5847SOL    HW229175   4.187   3.438   3.960 -0.2836 -0.5715 -1.0473
 5848SOL     OW29176   1.405   2.881   2.577 -0.6043 -0.0833 -0.3096
 5848SOL    HW129177   1.328   2.938   2.586  0.3004  0.8914  1.3367
 5848SOL    HW229178   1.438   2.916   2.494 -1.7541  1.1411 -0.2552
 5849SOL     OW29179   4.549   3.655   5.892 -0.4420  0.1809  0.1030
 5849SOL    HW129180   4.455   3.665   5.907 -0.3312  2.3588 -0.7416
 5849SOL    HW229181   4.566   3.593   5.963 -0.9876  0.2599  0.3041
 5850SOL     OW29182   2.162   0.736   8.229  0.3517  0.5664 -0.2779
 5850SOL    HW129183   2.236   0.692   8.272  0.1951  0.3486 -0.2361
 5850SOL    HW229184   2.185   0.742   8.136 -2.3361  0.2892 -0.9426
 5851SOL     OW29185   0.057   1.434   7.883  0.0801 -0.2053 -0.0671
 5851SOL    HW129186   0.133   1.406   7.832 -1.4584 -2.7747 -0.9646
 5851SOL    HW229187   4.722   1.398   7.832 -2.4204  1.1404  2.5483
 5852SOL     OW29188   3.567   1.346  15.932 -0.1424  0.3083  0.1303
 5852SOL    HW129189   3.515   1.332  16.011 -1.4509  0.8671 -0.6322
 5852SOL    HW229190   3.625   1.271  15.936  0.6279  0.8207 -1.8054
 5853SOL     OW29191   3.632   0.983   3.610 -0.3002  0.1325  0.0032
 5853SOL    HW129192   3.681   1.066   3.608 -1.8928  1.0533 -0.9054
 5853SOL    HW229193   3.649   0.942   3.694  1.3827  1.5749  0.3810
 5854SOL     OW29194   2.962   4.391   7.042  0.0459 -0.1326 -0.0019
 5854SOL    HW129195   2.928   4.464   6.991 -0.3832 -1.9624 -2.3348
 5854SOL    HW229196   2.892   4.378   7.107 -0.0243  1.0759  0.1485
 5855SOL     OW29197   0.908   0.886   2.772  0.0858  0.2880 -0.6395
 5855SOL    HW129198   0.817   0.856   2.764 -0.0063 -0.4034  3.3266
 5855SOL    HW229199   0.919   0.919   2.683  0.9954 -3.6569 -2.0044
 5856SOL     OW29200   3.712   0.148   6.674 -0.3116 -0.3034 -0.0947
 5856SOL    HW129201   3.714   0.061   6.634  0.0279 -0.4216  0.1805
 5856SOL    HW229202   3.662   0.194   6.606 -2.2118 -1.5820  0.4250
 5857SOL     OW29203   2.884   1.816   7.761 -0.3040  0.2688  0.2260
 5857SOL    HW129204   2.853   1.884   7.820  2.8293 -0.9293  3.2299
 5857SOL    HW229205   2.975   1.841   7.775 -0.5883 -0.4986  3.4236
 5858SOL     OW29206   1.328   1.572   3.428  0.8749  0.4253  0.1080
 5858SOL    HW129207   1.274   1.535   3.358  2.4215 -0.8711 -0.3825
 5858SOL    HW229208   1.314   1.667   3.420 -0.6063  0.1653 -0.3229
 5859SOL     OW29209   3.156   0.435   4.753  0.3213 -0.0953  0.5082
 5859SOL    HW129210   3.212   0.504   4.789  0.0548  1.0752 -1.2764
 5859SOL    HW229211   3.172   0.360   4.810  0.9874 -0.5278 -0.2388
 5860SOL     OW29212   3.844   2.979   4.827 -0.1063 -0.5224 -0.1956
 5860SOL    HW129213   3.856   3.011   4.737  1.4121 -0.2288  0.1010
 5860SOL    HW229214   3.758   2.939   4.818 -0.6396 -0.0115  2.6643
 5861SOL     OW29215   3.255   2.241   3.496 -0.4271 -0.1760  0.3760
 5861SOL    HW129216   3.206   2.160   3.483 -0.0697 -0.4204  0.5625
 5861SOL    HW229217   3.236   2.288   3.415 -0.3953 -0.2754  0.3128
 5862SOL     OW29218   2.129   2.463   9.123  0.2627 -0.4271 -0.4753
 5862SOL    HW129219   2.212   2.506   9.102 -0.5305  1.3094 -0.0104
 5862SOL    HW229220   2.161   2.376   9.147  1.0333  0.7813  2.8997
 5863SOL     OW29221   3.181   4.721   1.305 -0.1417 -0.1385  0.4774
 5863SOL    HW129222   3.135   0.021   1.230 -1.4183 -2.5741  0.0210
 5863SOL    HW229223   3.168   0.042   1.380  1.1229  1.8861 -0.8826
 5864SOL     OW29224   2.888   1.529   3.122  0.2893  0.0167 -0.5251
 5864SOL    HW129225   2.918   1.576   3.199 -0.2001  0.0162 -0.3347
 5864SOL    HW229226   2.917   1.587   3.051  1.9702 -1.3115 -0.9383
 5865SOL     OW29227   4.677   1.271  11.910  0.3449 -0.0768 -0.2960
 5865SOL    HW129228   4.606   1.336  11.908 -0.5859 -1.0375  1.9905
 5865SOL    HW229229   4.682   1.252  11.816  0.6900 -0.6485 -0.1578
 5866SOL     OW29230   0.732   3.302  11.225 -0.6340  0.0352  0.1958
 5866SOL    HW129231   0.826   3.287  11.214 -0.4641  1.4392 -0.1886
 5866SOL    HW229232   0.739   3.388  11.267  0.4028 -0.1350  0.3790
 5867SOL     OW29233   1.912   0.896   4.511  0.7029  0.2252  0.3594
 5867SOL    HW129234   1.940   0.843   4.585 -0.4742 -0.8254  0.0597
 5867SOL    HW229235   1.967   0.845   4.452 -0.4901 -1.3775  0.6223
 5868SOL     OW29236   3.951   3.463   6.143  0.4119  0.4098  0.3413
 5868SOL    HW129237   4.020   3.474   6.208  1.9776  0.2974 -1.3005
 5868SOL    HW229238   3.991   3.502   6.066  1.0366  0.7900  0.8618
 5869SOL     OW29239   3.571   4.675   3.052  0.5941 -0.3858  0.3719
 5869SOL    HW129240   3.633   0.001   3.088  1.3661 -1.3016  0.6649
 5869SOL    HW229241   3.518   4.717   2.984  0.7161 -1.6244 -0.4824
 5870SOL     OW29242   4.025   3.857   8.081  0.1620  0.2778 -0.2042
 5870SOL    HW129243   4.111   3.893   8.101  0.1496 -1.2982  2.6256
 5870SOL    HW229244   3.966   3.890   8.147  2.0074  0.1835  1.4812
 5871SOL     OW29245   2.917   0.931   2.385  0.2987 -0.5691  0.2424
 5871SOL    HW129246   2.937   1.025   2.383  0.8494 -0.7873 -4.0126
 5871SOL    HW229247   2.980   0.895   2.322  0.2291  0.8818 -0.6628
 5872SOL     OW29248   0.143   3.303  13.432  0.5770 -0.4549 -0.1691
 5872SOL    HW129249   0.117   3.332  13.345  1.1556  1.1831  0.1988
 5872SOL    HW229250   0.197   3.379  13.454 -1.6300  1.2218 -0.4789
 5873SOL     OW29251   1.055   0.396   6.838 -0.4374  0.0549  0.7734
 5873SOL    HW129252   1.017   0.313   6.866 -0.3119 -0.3008 -0.1231
 5873SOL    HW229253   1.115   0.410   6.911  1.3857  2.3018 -1.1746
 5874SOL     OW29254   3.905   1.523  15.662  0.3248  0.1116  0.1595
 5874SOL    HW129255   3.817   1.536  15.698  1.0235  0.1138  1.8596
 5874SOL    HW229256   3.903   1.427  15.665 -1.1416  0.0835 -1.5121
 5875SOL     OW29257   0.836   0.059   3.816 -0.0346  1.0134  0.0375
 5875SOL    HW129258   0.774   0.109   3.869  0.4627  0.3386  1.2544
 5875SOL    HW229259   0.781   0.014   3.752  0.3609 -0.6510  0.8669
 5876SOL     OW29260   2.480   1.224   5.019 -0.4631  0.1033  0.1372
 5876SOL    HW129261   2.434   1.198   5.099 -0.8029  1.1664  0.2809
 5876SOL    HW229262   2.541   1.289   5.055 -0.5056  0.0735  0.2658
 5877SOL     OW29263   2.628   4.333   4.900 -0.3531  0.4644  0.0095
 5877SOL    HW129264   2.694   4.348   4.968  1.1915 -1.3762 -1.0570
 5877SOL    HW229265   2.547   4.360   4.943 -1.1905 -2.1789  0.0833
 5878SOL     OW29266   0.945   2.857   6.434  0.8093  0.2451  0.3297
 5878SOL    HW129267   0.932   2.861   6.529 -1.3854  0.8863  0.0044
 5878SOL    HW229268   0.981   2.769   6.425 -0.2995 -0.2058  0.3422
 5879SOL     OW29269   4.627   0.120   8.533  0.2536 -0.0936  0.3284
 5879SOL    HW129270   4.594   0.188   8.474  0.3015 -0.3221  0.0379
 5879SOL    HW229271   4.708   0.165   8.558  0.2625  0.3651 -0.4979
 5880SOL     OW29272   2.472   1.114   3.505  0.0970  0.5073 -0.0262
 5880SOL    HW129273   2.486   1.187   3.444  0.2749  0.1033 -0.4676
 5880SOL    HW229274   2.430   1.056   3.442  0.6451 -1.8979  1.8573
 5881SOL     OW29275   4.092   4.208   7.455  0.2423 -0.3374  0.1673
 5881SOL    HW129276   4.052   4.251   7.380  1.0652 -0.0378 -0.1027
 5881SOL    HW229277   4.048   4.251   7.528 -1.8471 -1.9563 -0.1317
 5882SOL     OW29278   4.064   2.664   3.114 -0.1779  0.4287  0.3280
 5882SOL    HW129279   3.989   2.627   3.160  0.5445 -0.5198  0.7554
 5882SOL    HW229280   4.054   2.753   3.146  1.0150  0.8625 -0.5176
 5883SOL     OW29281   3.629   0.278   2.826  0.0865 -0.2611 -0.3083
 5883SOL    HW129282   3.584   0.232   2.755 -0.6201  0.0613 -0.0768
 5883SOL    HW229283   3.653   0.355   2.775  1.1920 -0.2475  0.2258
 5884SOL     OW29284   0.782   1.531   3.511  0.1709  0.1064  0.0292
 5884SOL    HW129285   0.744   1.611   3.548 -0.0143 -0.3081  0.7287
 5884SOL    HW229286   0.836   1.506   3.586 -0.6874  3.0054  1.6310
 5885SOL     OW29287   1.178   2.685   2.562 -0.0543 -0.6287 -0.1660
 5885SOL    HW129288   1.219   2.626   2.498 -1.8124 -0.7950 -1.1504
 5885SOL    HW229289   1.248   2.719   2.617 -0.7203 -2.4992  1.8619
 5886SOL     OW29290   0.841   1.361   2.248 -0.4665 -0.1791 -0.0278
 5886SOL    HW129291   0.800   1.306   2.181 -0.2195  3.0756 -2.8521
 5886SOL    HW229292   0.915   1.302   2.266 -1.5977 -1.6258 -0.1219
 5887SOL     OW29293   2.238   0.540   4.624  0.2274  0.3686  0.3966
 5887SOL    HW129294   2.300   0.584   4.566 -1.9361  3.7057  0.6357
 5887SOL    HW229295   2.292   0.472   4.664  0.2722  0.9870  1.3978
 5888SOL     OW29296   1.498   0.471   2.816 -0.4845  0.5930 -0.2353
 5888SOL    HW129297   1.404   0.468   2.798  0.2422 -0.2032 -3.9169
 5888SOL    HW229298   1.502   0.467   2.911  0.5745  1.0960 -0.2613
 5889SOL     OW29299   1.340   1.320  15.386  0.4192  0.0006 -0.2391
 5889SOL    HW129300   1.274   1.327  15.456  1.0419  2.7158  0.0835
 5889SOL    HW229301   1.291   1.276  15.317 -0.4848  0.4406  0.1211
 5890SOL     OW29302   0.050   4.457  10.189  0.2777 -0.3010 -0.1399
 5890SOL    HW129303   4.711   4.487  10.237  0.8074  1.5624 -0.4687
 5890SOL    HW229304   0.020   4.462  10.098  2.4656  0.4955 -0.8091
 5891SOL     OW29305   0.749   2.313  12.555  0.1505  0.0858  0.1387
 5891SOL    HW129306   0.794   2.245  12.505 -0.1675  0.3088 -0.4486
 5891SOL    HW229307   0.683   2.261  12.602  0.0958  0.7506  0.8048
 5892SOL     OW29308   4.649   1.215   6.893  0.0437 -0.1410 -0.3994
 5892SOL    HW129309   4.706   1.252   6.826  1.7547 -0.1147  1.0854
 5892SOL    HW229310   4.715   1.205   6.961  0.6364 -2.4998 -1.3355
 5893SOL     OW29311   0.587   2.420  17.623 -0.1911  0.3693  0.0618
 5893SOL    HW129312   0.569   2.497  17.569  1.6542  0.2852 -0.6812
 5893SOL    HW229313   0.630   2.364  17.558  0.3967  0.1413  0.6503
 5894SOL     OW29314   4.280   0.522   9.507 -0.1146  0.4600 -0.7681
 5894SOL    HW129315   4.288   0.457   9.576 -0.3432 -0.2670 -1.4213
 5894SOL    HW229316   4.335   0.477   9.442 -1.7361 -0.7788 -1.2796
 5895SOL     OW29317   1.382   1.096   8.757 -0.0453  0.2532 -0.0370
 5895SOL    HW129318   1.433   1.143   8.823 -1.7046 -0.2135  1.5724
 5895SOL    HW229319   1.292   1.099   8.789 -0.1819  0.4117 -0.4294
 5896SOL     OW29320   3.070   2.276  17.440 -0.2612 -0.2425 -0.5950
 5896SOL    HW129321   3.127   2.325  17.381 -1.3178  0.1295 -1.3223
 5896SOL    HW229322   2.995   2.335  17.446 -1.1455 -1.2417 -1.7894
 5897SOL     OW29323   3.318   1.934  14.519 -0.4792 -0.1887 -0.2569
 5897SOL    HW129324   3.301   1.923  14.425 -0.1618  1.4108 -0.5098
 5897SOL    HW229325   3.284   1.854  14.558  0.2789  0.1982  1.1927
 5898SOL     OW29326   1.680   0.917  12.985 -0.3636 -0.1915  0.0169
 5898SOL    HW129327   1.690   0.990  12.925 -1.0972 -0.0668  0.0548
 5898SOL    HW229328   1.770   0.899  13.015 -0.5577  0.0712  0.7531
 5899SOL     OW29329   4.617   2.982   6.998  0.1459 -0.7452  0.2236
 5899SOL    HW129330   4.683   2.980   7.068  0.2231  1.1102  0.2235
 5899SOL    HW229331   4.675   2.951   6.929  0.8501 -0.2794  0.5998
 5900SOL     OW29332   3.417   2.418   5.977  0.1455  0.1223 -0.0925
 5900SOL    HW129333   3.333   2.423   5.932 -0.1211  2.1309  0.6357
 5900SOL    HW229334   3.385   2.472   6.049  0.2726  1.0143 -0.7079
 5901SOL     OW29335   3.510   0.574  12.173  0.5112 -0.4760 -0.0962
 5901SOL    HW129336   3.493   0.592  12.081  0.8820 -2.3576 -0.5501
 5901SOL    HW229337   3.496   0.479  12.182  0.4924 -0.4797 -0.1626
 5902SOL     OW29338   3.815   1.331   2.538 -0.4480  0.0146 -0.2402
 5902SOL    HW129339   3.878   1.260   2.549  0.1320  0.5446 -0.1617
 5902SOL    HW229340   3.865   1.401   2.495  0.5853  0.2388  1.3361
 5903SOL     OW29341   3.495   2.473   7.402  0.8689  0.5559 -0.3426
 5903SOL    HW129342   3.556   2.507   7.467  0.0630 -0.9282  1.2143
 5903SOL    HW229343   3.501   2.378   7.413 -3.6937  0.1391 -1.4414
 5904SOL     OW29344   1.324   3.380   7.463  0.3006 -0.0510 -0.0793
 5904SOL    HW129345   1.334   3.453   7.524 -4.5277  1.1994 -0.8112
 5904SOL    HW229346   1.229   3.382   7.458  0.3030 -1.9906 -0.8491
 5905SOL     OW29347   2.672   2.183  12.692  0.1464  0.0846 -0.2670
 5905SOL    HW129348   2.646   2.091  12.701  1.8033 -0.4102 -0.6229
 5905SOL    HW229349   2.590   2.218  12.657 -0.6045  0.4914  1.8402
 5906SOL     OW29350   1.249   4.202   0.837  0.3627  0.3694 -0.1410
 5906SOL    HW129351   1.172   4.159   0.801  0.7448  1.1603 -1.8910
 5906SOL    HW229352   1.249   4.172   0.928 -0.1726  0.5019 -0.0985
 5907SOL     OW29353   3.605   2.089  10.183 -0.1728  0.5736 -0.6301
 5907SOL    HW129354   3.518   2.051  10.168  0.0880 -0.3067  0.1238
 5907SOL    HW229355   3.626   2.096  10.090  1.5164  1.6349 -0.1613
 5908SOL     OW29356   1.167   1.321   7.101 -0.8054 -0.0076 -0.0615
 5908SOL    HW129357   1.243   1.337   7.156 -1.7655  3.5460  0.2545
 5908SOL    HW229358   1.199   1.333   7.012  2.1058 -1.1849  0.8207
 5909SOL     OW29359   2.115   1.886   5.891 -0.5495 -0.0285  0.2703
 5909SOL    HW129360   2.204   1.851   5.879  0.2581  2.0517  0.1259
 5909SOL    HW229361   2.114   1.958   5.829  0.5046 -2.3280 -2.4222
 5910SOL     OW29362   3.257   4.440   3.783  0.4004 -0.1467  0.7909
 5910SOL    HW129363   3.192   4.371   3.797  0.6835 -0.0078  2.7609
 5910SOL    HW229364   3.242   4.502   3.855  0.2186  1.9578 -1.0652
 5911SOL     OW29365   1.833   3.844  11.577  0.9399 -0.0553  0.4241
 5911SOL    HW129366   1.756   3.846  11.520  0.2485 -0.1904  1.3482
 5911SOL    HW229367   1.790   3.833  11.662  0.4138  0.8383  0.2683
 5912SOL     OW29368   3.899   4.556   5.141 -0.6330 -0.2499  0.0706
 5912SOL    HW129369   3.920   4.591   5.055 -3.0879  1.9858  0.3770
 5912SOL    HW229370   3.902   4.627   5.205  2.7298 -0.0873 -0.3005
 5913SOL     OW29371   0.889   0.311   5.573  0.5562 -0.4313  1.1125
 5913SOL    HW129372   0.934   0.389   5.608 -1.5651  1.1753  0.2702
 5913SOL    HW229373   0.805   0.357   5.566  0.1208 -1.3516  0.3383
 5914SOL     OW29374   1.259   3.449   1.825 -0.2414  0.4791  0.0215
 5914SOL    HW129375   1.188   3.465   1.888 -1.1225  0.3095 -0.9219
 5914SOL    HW229376   1.274   3.528   1.772  1.4768  0.3028  0.2583
 5915SOL     OW29377   3.136   3.098  13.801 -0.3786  0.0141 -0.0544
 5915SOL    HW129378   3.143   3.061  13.713  1.4925 -1.0629  0.5575
 5915SOL    HW229379   3.226   3.122  13.823 -0.1002  0.0933 -1.3180
 5916SOL     OW29380   3.633   2.143   9.274 -0.3113  0.2793 -0.2249
 5916SOL    HW129381   3.612   2.055   9.306 -0.7191  0.3818 -0.2188
 5916SOL    HW229382   3.672   2.191   9.348 -0.2453  0.0531 -0.1144
 5917SOL     OW29383   0.186   4.714   6.445 -0.3328  0.6360 -0.1565
 5917SOL    HW129384   0.156   0.064   6.421  0.9960  1.5011  1.3927
 5917SOL    HW229385   0.277   4.725   6.470  0.6893 -3.8854 -1.7956
 5918SOL     OW29386   1.141   0.618   3.880  0.1039  0.2913 -0.3478
 5918SOL    HW129387   1.161   0.597   3.971  1.3975  1.5510 -0.3288
 5918SOL    HW229388   1.054   0.656   3.880 -0.0740 -0.1344  0.6159
 5919SOL     OW29389   2.227   1.980   1.680 -0.2662 -0.4895  0.6126
 5919SOL    HW129390   2.280   2.025   1.614  1.7108 -0.8963  1.8919
 5919SOL    HW229391   2.257   2.027   1.758 -0.0373 -1.2006  0.9519
 5920SOL     OW29392   3.712   1.025  13.945  0.6786 -0.0996  0.4919
 5920SOL    HW129393   3.756   1.104  13.978 -0.4279  0.1181  1.4393
 5920SOL    HW229394   3.625   1.057  13.967  1.7910  1.4057  2.6980
 5921SOL     OW29395   4.516   1.778   4.423 -0.3003 -0.1271  0.0728
 5921SOL    HW129396   4.466   1.818   4.352 -0.6245 -0.8902 -0.1326
 5921SOL    HW229397   4.460   1.784   4.500 -0.0649  2.2607  0.0424
 5922SOL     OW29398   3.786   2.095   1.866 -0.1275  0.1928 -0.4679
 5922SOL    HW129399   3.738   2.152   1.926  0.0804 -1.4455  1.2256
 5922SOL    HW229400   3.737   2.014   1.855  1.0406  0.1060 -5.1054
 5923SOL     OW29401   4.102   1.242   9.076 -0.4967 -0.0815 -0.2923
 5923SOL    HW129402   4.173   1.200   9.027  0.9908  1.3168  0.6660
 5923SOL    HW229403   4.034   1.206   9.019 -0.9412  3.2771 -1.9379
 5924SOL     OW29404   2.916   0.391   4.654  0.2488 -0.3750  0.5663
 5924SOL    HW129405   2.992   0.414   4.707 -0.0811  0.1878  0.7989
 5924SOL    HW229406   2.847   0.452   4.680  2.0925  2.4580 -1.1441
 5925SOL     OW29407   2.607   0.974   5.243  0.3162  0.1296 -0.0406
 5925SOL    HW129408   2.690   0.985   5.287  1.0167  0.9047 -1.5690
 5925SOL    HW229409   2.569   0.894   5.280  0.7140  0.2979  0.7170
 5926SOL     OW29410   4.708   0.910  16.195 -0.0331 -0.3507  0.5558
 5926SOL    HW129411   0.011   0.965  16.261 -1.5964 -1.1848  2.2037
 5926SOL    HW229412   4.666   0.969  16.133 -0.8676 -1.6691 -0.1413
 5927SOL     OW29413   1.573   3.805  16.033 -0.2305  0.0574  0.5220
 5927SOL    HW129414   1.639   3.778  16.097  0.1475  1.5195  0.7573
 5927SOL    HW229415   1.600   3.890  15.999 -1.0198  0.0528 -0.1168
 5928SOL     OW29416   0.842   0.252   6.297 -0.3089  0.1688  0.0070
 5928SOL    HW129417   0.764   0.300   6.323 -0.6967  0.0676 -0.9774
 5928SOL    HW229418   0.803   0.166   6.283  0.1144  0.1129 -0.8493
 5929SOL     OW29419   2.855   2.445   1.655  0.8080 -0.1922  0.3935
 5929SOL    HW129420   2.817   2.358   1.659  1.0693 -0.3059  0.4471
 5929SOL    HW229421   2.889   2.461   1.744 -0.4841 -0.4163  0.9264
 5930SOL     OW29422   0.866   1.570   3.172  0.3573 -0.2144 -0.0404
 5930SOL    HW129423   0.838   1.655   3.139  1.2189  0.3711  0.7375
 5930SOL    HW229424   0.783   1.524   3.185  0.4961 -0.2637  0.6322
 5931SOL     OW29425   3.489   0.561   4.966  0.2092 -0.1157 -0.3786
 5931SOL    HW129426   3.535   0.504   4.904 -0.2628  0.5214 -1.3130
 5931SOL    HW229427   3.546   0.586   5.039  0.1250 -3.1915  0.7135
 5932SOL     OW29428   0.899   2.012   4.963 -0.2572  0.1551 -0.7821
 5932SOL    HW129429   0.977   2.067   4.956 -0.0089 -0.1169 -0.1714
 5932SOL    HW229430   0.844   2.030   4.887  0.5969 -1.4173 -1.7765
 5933SOL     OW29431   4.708   1.684   7.247 -0.0610  0.1726 -1.0244
 5933SOL    HW129432   0.051   1.736   7.249  1.7640 -2.6393 -1.9938
 5933SOL    HW229433   4.705   1.623   7.320  1.7414  0.1521 -0.9813
 5934SOL     OW29434   3.263   4.391   9.761  0.2217  0.6726  0.5808
 5934SOL    HW129435   3.323   4.437   9.703 -0.8987  0.5235 -0.6915
 5934SOL    HW229436   3.263   4.297   9.740  0.8316  0.3127  2.1783
 5935SOL     OW29437   3.995   4.385  10.658 -0.1176  0.2925 -0.2752
 5935SOL    HW129438   3.940   4.450  10.615  1.0629 -0.2340 -2.5661
 5935SOL    HW229439   4.044   4.344  10.587 -0.5395  2.4197 -1.7989
 5936SOL     OW29440   2.619   0.134  16.389  0.4436  0.6158  0.6658
 5936SOL    HW129441   2.708   0.155  16.416  0.7517  0.7512 -0.4675
 5936SOL    HW229442   2.623   0.097  16.301 -0.9669  0.1218  0.8016
 5937SOL     OW29443   0.884   4.258   9.360 -0.0324  0.4773 -0.0710
 5937SOL    HW129444   0.843   4.172   9.371  0.9297 -0.0178 -0.3641
 5937SOL    HW229445   0.816   4.318   9.391 -0.0828  0.2016  0.3532
 5938SOL     OW29446   1.552   0.898   6.410  0.0647  0.2221 -0.0277
 5938SOL    HW129447   1.581   0.986   6.437 -1.9460  0.9803 -0.3229
 5938SOL    HW229448   1.565   0.848   6.491  0.4919 -1.0710 -0.9105
 5939SOL     OW29449   3.767   0.134  15.378 -0.3767  0.2206 -0.2614
 5939SOL    HW129450   3.694   0.172  15.329 -0.5976  1.4299  1.0291
 5939SOL    HW229451   3.812   0.217  15.392  0.8987 -0.5180 -0.0367
 5940SOL     OW29452   3.697   4.197   5.752 -0.2177 -0.0559  0.2497
 5940SOL    HW129453   3.664   4.107   5.746 -0.3122 -0.0369  0.4572
 5940SOL    HW229454   3.779   4.188   5.802  0.2380 -0.2557 -0.5248
 5941SOL     OW29455   2.677   0.062   5.712 -0.1255 -0.1665 -0.2242
 5941SOL    HW129456   2.766   0.046   5.744 -0.3821  1.0804  1.1070
 5941SOL    HW229457   2.636   0.103   5.789  0.2826 -0.2909  0.0590
 5942SOL     OW29458   0.369   3.175   2.699  0.3727 -1.0938  0.7230
 5942SOL    HW129459   0.336   3.104   2.753 -2.5302  0.4292  0.9980
 5942SOL    HW229460   0.306   3.248   2.702  0.4767 -0.9768  0.0452
 5943SOL     OW29461   2.537   1.349   0.048  0.3889 -0.3049  0.3246
 5943SOL    HW129462   2.588   1.353  17.716  0.7861  0.6710  0.6209
 5943SOL    HW229463   2.562   1.430   0.093 -1.0381 -0.1271  0.7806
 5944SOL     OW29464   2.016   2.774   3.963 -0.3462  0.2136  0.2831
 5944SOL    HW129465   1.977   2.687   3.949  0.3197  0.1403 -1.0712
 5944SOL    HW229466   2.078   2.748   4.032 -0.8870  0.4709  0.8684
 5945SOL     OW29467   4.566   1.455  15.693  0.6953  0.5254 -0.1574
 5945SOL    HW129468   4.484   1.408  15.703  0.5141  1.0796  0.9939
 5945SOL    HW229469   4.561   1.477  15.600  1.2554 -1.4795 -0.6756
 5946SOL     OW29470   4.137   3.785   7.174 -0.6534  0.9363 -0.2666
 5946SOL    HW129471   4.218   3.834   7.179  0.0599 -0.3425  0.7598
 5946SOL    HW229472   4.082   3.839   7.117 -0.8805 -0.6466 -1.5414
 5947SOL     OW29473   0.116   1.744  11.394 -0.1058  0.1294  0.4146
 5947SOL    HW129474   0.054   1.693  11.447 -0.4040  0.6758  0.5894
 5947SOL    HW229475   0.188   1.683  11.378 -0.7586 -1.0984  2.1060
 5948SOL     OW29476   1.373   3.756  10.316 -0.3253  0.5440  0.6013
 5948SOL    HW129477   1.385   3.821  10.246 -0.0063 -0.4532 -0.2706
 5948SOL    HW229478   1.309   3.798  10.374  0.8438  2.0886  0.7842
 5949SOL     OW29479   0.896   0.679   1.652 -0.7441 -0.5301  0.1917
 5949SOL    HW129480   0.850   0.663   1.570  1.4325 -1.0571 -0.9087
 5949SOL    HW229481   0.981   0.714   1.625 -0.9658 -0.2549 -0.1415
 5950SOL     OW29482   1.622   1.212   9.246  0.1810 -0.7417  0.2096
 5950SOL    HW129483   1.555   1.280   9.248  2.0948  1.1452 -0.0365
 5950SOL    HW229484   1.567   1.135   9.236 -1.1475  0.3408 -0.6924
 5951SOL     OW29485   0.912   2.518   3.775  0.8149  0.5083  0.2052
 5951SOL    HW129486   0.870   2.443   3.818  1.6265  1.3462  2.4577
 5951SOL    HW229487   0.856   2.594   3.791 -0.1249  0.0563 -0.8864
 5952SOL     OW29488   0.437   2.473   6.601 -0.0865  0.1332  0.2362
 5952SOL    HW129489   0.397   2.509   6.681 -2.0583  0.9529 -1.1218
 5952SOL    HW229490   0.366   2.422   6.562  0.1993 -3.3499  4.2522
 5953SOL     OW29491   4.332   3.112   8.870 -0.1323  0.3916  0.2307
 5953SOL    HW129492   4.334   3.104   8.775 -1.3756 -2.5140  0.4439
 5953SOL    HW229493   4.324   3.022   8.903  1.6853  0.3310  0.4857
 5954SOL     OW29494   0.613   3.822   0.762  0.0973  0.7659  0.1601
 5954SOL    HW129495   0.593   3.761   0.691 -0.2235 -1.3151  2.0440
 5954SOL    HW229496   0.668   3.771   0.822  0.1270  0.3542 -0.2245
 5955SOL     OW29497   3.866   1.993   2.530  0.4462  0.2438  0.0983
 5955SOL    HW129498   3.959   1.988   2.508  0.5976  2.5148  0.2252
 5955SOL    HW229499   3.852   1.910   2.575 -0.5758  1.5283  2.1375
 5956SOL     OW29500   1.617   1.747   2.302 -0.0815  0.4109  0.2113
 5956SOL    HW129501   1.523   1.767   2.296 -0.0761 -0.5851 -2.8435
 5956SOL    HW229502   1.652   1.833   2.280  1.0364 -0.3078 -0.8181
 5957SOL     OW29503   1.068   4.014   9.917 -0.1779 -0.3663 -0.4979
 5957SOL    HW129504   1.127   3.953   9.962  1.3539  0.2641 -1.7167
 5957SOL    HW229505   1.098   4.100   9.945 -0.2431 -0.3778 -0.3888
 5958SOL     OW29506   1.605   1.810   6.403  0.3009 -0.4129  0.0098
 5958SOL    HW129507   1.561   1.725   6.405 -2.0914  0.8682  2.1988
 5958SOL    HW229508   1.690   1.773   6.378  0.9312  1.4468 -0.5771
 5959SOL     OW29509   1.537   2.484   6.130  0.1742  0.7679  0.2832
 5959SOL    HW129510   1.627   2.465   6.105 -0.0196  0.3789 -0.1405
 5959SOL    HW229511   1.507   2.415   6.189 -0.1669 -0.2174 -1.0285
 5960SOL     OW29512   4.001   0.498   2.022  0.0622  0.2298  0.0528
 5960SOL    HW129513   4.081   0.456   2.053 -0.3310 -0.4908  0.0885
 5960SOL    HW229514   4.018   0.477   1.930  1.2162  2.4480 -0.2283
 5961SOL     OW29515   4.599   0.039   4.363 -0.3347  0.0948  0.1596
 5961SOL    HW129516   4.537   0.048   4.435 -0.2335 -0.0130  0.2594
 5961SOL    HW229517   4.677   4.733   4.398 -0.4356 -0.3054 -0.1061
 5962SOL     OW29518   2.061   3.386   4.113 -0.0241 -0.2695 -0.3354
 5962SOL    HW129519   1.972   3.421   4.113 -0.3314 -1.0824 -2.1270
 5962SOL    HW229520   2.105   3.456   4.064 -1.4174  1.7114  1.2020
 5963SOL     OW29521   2.887   1.027   5.290 -0.1911 -0.3983 -0.7204
 5963SOL    HW129522   2.931   0.942   5.296 -1.1855 -1.0048 -2.1673
 5963SOL    HW229523   2.924   1.056   5.207  0.3831  2.4533  0.5041
 5964SOL     OW29524   0.728   1.954   9.580  0.1471  0.0544 -0.2048
 5964SOL    HW129525   0.715   1.960   9.674 -0.6331  0.2365 -0.3260
 5964SOL    HW229526   0.765   2.040   9.563 -2.9849  0.9038 -2.7733
 5965SOL     OW29527   0.131   3.716   5.585 -0.5636 -0.5752 -0.3282
 5965SOL    HW129528   0.212   3.755   5.553 -1.2750  2.1128  1.1346
 5965SOL    HW229529   0.154   3.692   5.675  1.2838  3.0169  0.1502
 5966SOL     OW29530   4.285   4.100   6.077 -0.5027 -0.6371  0.0251
 5966SOL    HW129531   4.318   4.189   6.067  0.6488 -1.2193 -1.4997
 5966SOL    HW229532   4.365   4.051   6.095  0.1742  1.1224  1.7821
 5967SOL     OW29533   1.708   3.035   8.116 -0.1246  0.0097  0.1633
 5967SOL    HW129534   1.784   3.093   8.125  0.6026 -0.9948  0.5164
 5967SOL    HW229535   1.644   3.083   8.064 -0.3560 -0.4924 -0.0105
 5968SOL     OW29536   1.352   0.578   1.953 -0.1041  0.5274 -0.5780
 5968SOL    HW129537   1.305   0.656   1.925 -2.4560 -0.2853  1.0908
 5968SOL    HW229538   1.351   0.523   1.875 -1.4811 -0.5973  0.2270
 5969SOL     OW29539   2.078   4.707   2.634 -0.1865 -0.1135 -0.4752
 5969SOL    HW129540   2.109   4.639   2.694 -1.5807  1.6240  2.2456
 5969SOL    HW229541   2.056   4.664   2.552  0.2832  3.0979 -2.2811
 5970SOL     OW29542   2.054   2.884  14.242  0.5701  0.2064  0.4227
 5970SOL    HW129543   1.964   2.868  14.269  0.7237 -0.4635  0.5141
 5970SOL    HW229544   2.041   2.868  14.149 -1.0300  1.4396  0.4240
 5971SOL     OW29545   0.524   3.639   3.494  0.0989 -0.3875  0.0463
 5971SOL    HW129546   0.521   3.562   3.552  0.2100 -1.3653 -1.2469
 5971SOL    HW229547   0.444   3.690   3.510 -0.0534 -1.0305  1.3267
 5972SOL     OW29548   3.572   1.517   1.880  0.1466 -0.1886 -0.0185
 5972SOL    HW129549   3.647   1.507   1.821  0.4640  0.2299  0.3191
 5972SOL    HW229550   3.610   1.575   1.946 -0.7676 -0.7886  1.0165
 5973SOL     OW29551   0.085   3.734   9.053  0.5471 -0.8791 -0.2221
 5973SOL    HW129552   0.064   3.711   8.963  0.5227 -1.3083 -0.1034
 5973SOL    HW229553   0.045   3.668   9.109 -0.4932  0.6405  0.8413
 5974SOL     OW29554   2.604   1.937   8.998  0.7452  0.0574  0.0298
 5974SOL    HW129555   2.545   2.009   8.977 -0.6753 -1.0596  0.1695
 5974SOL    HW229556   2.663   1.960   9.069  0.3384  0.7790  0.1312
 5975SOL     OW29557   0.822   3.892   6.695  0.3073  0.3223  0.2791
 5975SOL    HW129558   0.854   3.860   6.780 -1.0253 -1.4165  0.1187
 5975SOL    HW229559   0.780   3.968   6.735  1.6367  0.5240  1.3199
 5976SOL     OW29560   2.896   1.780   6.552 -0.1007  0.0434  0.0389
 5976SOL    HW129561   2.897   1.875   6.549  0.3955 -0.0579 -2.8157
 5976SOL    HW229562   2.983   1.768   6.590 -0.0997  1.0478  0.3345
 5977SOL     OW29563   3.437   0.856   7.768 -0.0517  0.0007 -0.1607
 5977SOL    HW129564   3.515   0.905   7.742 -0.0623 -0.4284 -0.9841
 5977SOL    HW229565   3.416   0.807   7.689 -0.3324  2.8475 -1.8257
 5978SOL     OW29566   4.488   2.048  13.272 -0.4701 -0.2469  0.0959
 5978SOL    HW129567   4.516   2.139  13.283 -0.1941  0.1396 -3.5845
 5978SOL    HW229568   4.398   2.055  13.303  0.0102 -0.8886  1.6314
 5979SOL     OW29569   0.726   1.654   4.221  0.4387  0.3744 -0.2262
 5979SOL    HW129570   0.649   1.690   4.176  0.3161  0.6739  0.2296
 5979SOL    HW229571   0.691   1.593   4.287  0.3480  1.3002  0.5768
 5980SOL     OW29572   3.659   4.084   6.327 -0.2956  0.1032  0.1193
 5980SOL    HW129573   3.709   4.025   6.271 -0.8760 -0.2903  0.0147
 5980SOL    HW229574   3.627   4.142   6.259 -2.4069 -0.6251  0.4784
 5981SOL     OW29575   4.309   3.176   5.833 -0.1346  0.0686 -0.3255
 5981SOL    HW129576   4.374   3.107   5.819  1.5237  1.6149 -0.2656
 5981SOL    HW229577   4.363   3.229   5.774  0.3458 -2.2611 -1.9755
 5982SOL     OW29578   1.946   2.634   5.975  0.7343 -0.4924 -0.1144
 5982SOL    HW129579   2.013   2.694   5.941 -1.9405  2.0925 -0.8362
 5982SOL    HW229580   1.874   2.646   5.913 -1.5265 -3.3104  1.9307
 5983SOL     OW29581   1.995   3.247  10.649  0.4981  0.3157 -0.1469
 5983SOL    HW129582   2.026   3.256  10.559  1.1026 -2.3433 -0.2251
 5983SOL    HW229583   1.941   3.325  10.663 -0.9563 -0.8392  0.7654
 5984SOL     OW29584   2.378   0.726  16.907 -0.2159 -0.2917 -0.0550
 5984SOL    HW129585   2.376   0.685  16.821 -0.9048  3.1941 -1.7000
 5984SOL    HW229586   2.379   0.819  16.884  1.5810  0.2265  2.0139
 5985SOL     OW29587   0.022   2.573  15.762 -0.2604  0.3500  0.1001
 5985SOL    HW129588   4.695   2.535  15.702 -2.9847  3.3078  1.1734
 5985SOL    HW229589   0.102   2.550  15.716  0.6187 -1.7119  2.6682
 5986SOL     OW29590   2.266   3.476   7.746 -0.2824 -0.0025  0.4292
 5986SOL    HW129591   2.195   3.514   7.694 -0.6631  1.6982  2.2319
 5986SOL    HW229592   2.338   3.504   7.690 -0.9583 -1.6902 -1.3197
 5987SOL     OW29593   0.879   2.304  11.761 -0.1396 -0.1141  1.2422
 5987SOL    HW129594   0.842   2.354  11.688 -1.2172 -1.0180  1.1621
 5987SOL    HW229595   0.950   2.361  11.792  0.0568  0.0382  0.4995
 5988SOL     OW29596   3.023   2.581   3.269  0.4107 -0.5090  0.3713
 5988SOL    HW129597   2.940   2.548   3.234  0.6732 -0.6387 -0.1387
 5988SOL    HW229598   2.998   2.583   3.361  1.8967  2.4528  0.7017
 5989SOL     OW29599   0.364   3.905   9.895 -0.4733  0.1237 -0.2591
 5989SOL    HW129600   0.416   3.938   9.822 -0.9735 -0.1187 -0.7233
 5989SOL    HW229601   0.427   3.928   9.964 -2.6360  1.9329  1.1242
 5990SOL     OW29602   4.414   4.695   5.867  0.1730  0.3453  0.4795
 5990SOL    HW129603   4.385   4.686   5.958 -0.8625  1.1025  0.2255
 5990SOL    HW229604   4.466   0.037   5.881 -0.7087  1.1839 -1.0232
 5991SOL     OW29605   1.415   3.456   6.412 -0.2367  0.1395  0.3524
 5991SOL    HW129606   1.480   3.493   6.352  0.3514 -1.3785  0.0695
 5991SOL    HW229607   1.444   3.491   6.496 -4.2106  0.1860  1.7030
 5992SOL     OW29608   3.539   3.590   9.740 -0.1284 -0.3232  0.2133
 5992SOL    HW129609   3.529   3.568   9.833 -0.3416 -1.1358 -0.0025
 5992SOL    HW229610   3.630   3.569   9.721 -0.1597  1.3841 -1.8707
 5993SOL     OW29611   2.024   2.051   6.406 -0.0578 -0.0713 -0.2062
 5993SOL    HW129612   2.101   2.101   6.379 -0.8854  0.3953 -1.6884
 5993SOL    HW229613   2.046   1.963   6.373 -1.5928 -0.1477 -1.0214
 5994SOL     OW29614   0.240   4.440   1.683 -0.3540  0.2567 -0.2768
 5994SOL    HW129615   0.171   4.500   1.711  1.5457  2.0960  0.4569
 5994SOL    HW229616   0.209   4.360   1.725 -1.6112  1.9889  2.1231
 5995SOL     OW29617   3.874   1.969   9.838 -0.0106 -0.1606 -0.1469
 5995SOL    HW129618   3.831   1.887   9.812  2.0562 -0.8979 -1.2679
 5995SOL    HW229619   3.936   1.942   9.906 -3.5520 -4.5092  1.3735
 5996SOL     OW29620   2.300   4.685   0.573 -0.6465 -0.1310  0.1447
 5996SOL    HW129621   2.310   0.031   0.618  0.0510  0.0182 -0.2927
 5996SOL    HW229622   2.301   4.617   0.641 -1.7667  0.9722  1.2555
 5997SOL     OW29623   1.774   0.335   8.413  0.3473  0.3801 -0.0764
 5997SOL    HW129624   1.814   0.414   8.377 -1.4758  1.0887 -0.5434
 5997SOL    HW229625   1.836   0.309   8.482 -0.7254  1.1721  1.1847
 5998SOL     OW29626   3.004   1.774  10.923 -0.5735 -0.1572  0.9113
 5998SOL    HW129627   3.079   1.820  10.959  1.4823 -1.3402 -1.8688
 5998SOL    HW229628   2.930   1.835  10.929  2.1671  3.0189  2.1411
 5999SOL     OW29629   3.100   2.467   8.427  0.1626 -0.1146 -0.4050
 5999SOL    HW129630   3.099   2.555   8.464  1.0609 -0.7658  1.1729
 5999SOL    HW229631   3.018   2.467   8.378 -0.6549 -3.1364  0.9297
 6000SOL     OW29632   0.205   3.925   4.526 -0.1691  0.5030 -0.0289
 6000SOL    HW129633   0.285   3.875   4.509  0.7791  1.8640  0.3744
 6000SOL    HW229634   0.239   4.012   4.547 -1.6500  1.0425  0.1394
 6001SOL     OW29635   2.731   4.633   3.953  0.0374 -0.0161  1.0226
 6001SOL    HW129636   2.825   4.629   3.971  0.5105 -1.4127 -1.8345
 6001SOL    HW229637   2.741   4.635   3.858 -0.1408  0.4152  1.0119
 6002SOL     OW29638   2.855   0.556   3.362 -0.2122 -0.4256  0.2837
 6002SOL    HW129639   2.932   0.576   3.308 -1.4638 -0.5711 -1.5559
 6002SOL    HW229640   2.788   0.617   3.331  1.0766  0.8419 -0.0241
 6003SOL     OW29641   3.355   2.414   4.693  0.5288 -0.3012 -0.0265
 6003SOL    HW129642   3.260   2.410   4.701  0.5814 -0.3736  0.5192
 6003SOL    HW229643   3.357   2.421   4.597  1.9699  0.0092  0.0210
 6004SOL     OW29644   1.427   4.473   6.800  0.0256 -0.6504  0.3457
 6004SOL    HW129645   1.364   4.503   6.735 -1.7895  0.2062  2.5007
 6004SOL    HW229646   1.494   4.455   6.734  1.0129  2.2136  0.5899
 6005SOL     OW29647   2.484   3.690   6.726  0.4098  0.2913  0.5214
 6005SOL    HW129648   2.438   3.628   6.783  0.0516 -0.2970 -0.4096
 6005SOL    HW229649   2.417   3.694   6.657  0.1363 -3.4290  0.5459
 6006SOL     OW29650   4.041   4.522   1.396  0.9273  0.5742 -0.3301
 6006SOL    HW129651   4.019   4.441   1.441  0.6494  1.3416  0.9198
 6006SOL    HW229652   3.999   4.593   1.446  1.9319 -0.4253  1.9154
 6007SOL     OW29653   0.581   4.066   9.718  0.2842 -0.4114 -0.2140
 6007SOL    HW129654   0.670   4.046   9.745  0.4036  0.7428  0.2497
 6007SOL    HW229655   0.563   3.985   9.671  0.5055 -0.1926 -0.6759
 6008SOL     OW29656   3.160   3.949   8.086 -0.0611 -0.3538  0.0425
 6008SOL    HW129657   3.098   4.014   8.120  0.1101 -0.3831  0.4119
 6008SOL    HW229658   3.227   3.999   8.041  0.4340  0.1884  1.3886
 6009SOL     OW29659   3.718   2.157  12.047  0.3223 -0.0023  0.5583
 6009SOL    HW129660   3.640   2.203  12.077 -0.1740  1.1722 -2.5062
 6009SOL    HW229661   3.781   2.175  12.116 -0.5510 -0.5434  1.4973
 6010SOL     OW29662   2.756   1.375   4.932 -0.2869 -0.2124  0.2454
 6010SOL    HW129663   2.825   1.404   4.992  0.3758 -0.6875 -0.2956
 6010SOL    HW229664   2.700   1.450   4.954  4.0495  2.4036  2.4308
 6011SOL     OW29665   3.383   4.358   2.295  0.4876 -0.3092  0.1544
 6011SOL    HW129666   3.446   4.286   2.296  1.0002  0.1366 -0.1311
 6011SOL    HW229667   3.433   4.435   2.319 -1.0110  0.7912 -0.1980
 6012SOL     OW29668   0.524   0.902   4.343  0.3124 -0.3637  0.3842
 6012SOL    HW129669   0.542   0.809   4.348  0.4202 -0.3049  1.1784
 6012SOL    HW229670   0.429   0.901   4.330  0.2531 -2.9485  1.0552
 6013SOL     OW29671   1.482   1.689   4.238  0.1890 -0.4556  0.2734
 6013SOL    HW129672   1.413   1.717   4.178  0.4803  0.4620  0.3665
 6013SOL    HW229673   1.424   1.683   4.314 -0.4117  1.0502 -0.0541
 6014SOL     OW29674   4.328   3.123   4.017 -0.5294  0.7549 -0.1863
 6014SOL    HW129675   4.386   3.109   4.092 -1.8673  0.6029  0.8327
 6014SOL    HW229676   4.390   3.101   3.948 -1.3384  0.3209 -0.7768
 6015SOL     OW29677   2.329   0.241   8.898  0.0670 -0.1830 -0.0515
 6015SOL    HW129678   2.323   0.324   8.946 -1.4579  1.1340 -2.5482
 6015SOL    HW229679   2.420   0.218   8.917 -0.2716 -1.2992  0.1917
 6016SOL     OW29680   1.635   3.244   2.385  0.0287 -0.1164 -0.2892
 6016SOL    HW129681   1.712   3.190   2.404 -0.2630 -0.9728 -1.5369
 6016SOL    HW229682   1.677   3.325   2.358  0.0127 -0.5198 -1.5418
 6017SOL     OW29683   4.096   4.288   1.910 -1.1310 -0.1382  0.0712
 6017SOL    HW129684   4.027   4.298   1.845 -0.8539  1.8686  0.0712
 6017SOL    HW229685   4.058   4.225   1.971 -2.7397  1.7177  0.9819
 6018SOL     OW29686   2.492   2.778   6.985 -0.2843  0.0636  0.6496
 6018SOL    HW129687   2.452   2.791   6.899 -0.1062  1.0811  0.7221
 6018SOL    HW229688   2.551   2.707   6.958  0.6940  1.4672 -0.9597
 6019SOL     OW29689   0.055   0.761   7.438  0.3123  0.0066 -0.2895
 6019SOL    HW129690   0.043   0.794   7.349 -1.2697  1.5195  0.4946
 6019SOL    HW229691   0.142   0.724   7.422  0.0051 -0.4823 -0.8744
 6020SOL     OW29692   1.784   0.984   5.208 -0.1749  0.6112  0.2748
 6020SOL    HW129693   1.815   1.005   5.296 -1.0349 -1.5417  1.0808
 6020SOL    HW229694   1.691   0.962   5.218 -0.3237  0.8292 -0.6552
 6021SOL     OW29695   3.913   2.445   5.090 -0.1124 -0.3250 -0.3307
 6021SOL    HW129696   3.894   2.480   5.177 -0.2092  0.1979 -0.5588
 6021SOL    HW229697   3.906   2.524   5.036 -0.2325  1.6867  2.6155
 6022SOL     OW29698   3.467   0.842   5.570  0.2207 -0.2161 -0.5436
 6022SOL    HW129699   3.399   0.876   5.511  0.6816  0.8613 -0.4604
 6022SOL    HW229700   3.538   0.902   5.547  1.0869 -2.1320 -2.9142
 6023SOL     OW29701   4.552   3.843   8.209  0.3306  0.2070  0.0638
 6023SOL    HW129702   4.584   3.905   8.274 -0.3060  0.5833  0.0120
 6023SOL    HW229703   4.556   3.761   8.259  1.0840  0.3922  0.3109
 6024SOL     OW29704   1.275   3.525   8.073 -0.5924  0.1352  0.1584
 6024SOL    HW129705   1.223   3.492   7.999  1.0689  0.5002 -1.1847
 6024SOL    HW229706   1.211   3.507   8.142  0.7405  1.8291  1.8298
 6025SOL     OW29707   3.259   2.029   7.458 -0.2404  0.0121 -0.7684
 6025SOL    HW129708   3.254   2.080   7.377 -2.5473 -0.2451 -0.8029
 6025SOL    HW229709   3.255   1.944   7.415  0.6101 -1.3432  1.8187
 6026SOL     OW29710   4.523   4.163  13.427  0.2701  0.3387  0.1023
 6026SOL    HW129711   4.542   4.229  13.493 -0.9813  2.6087 -1.7768
 6026SOL    HW229712   4.454   4.112  13.469 -0.0461  0.9459  0.3192
 6027SOL     OW29713   2.895   1.965   8.835  0.0502  0.4583  0.4401
 6027SOL    HW129714   2.863   2.041   8.786 -1.2785 -0.5319 -0.2147
 6027SOL    HW229715   2.817   1.947   8.888  0.8608  0.0973  1.5066
 6028SOL     OW29716   0.421   2.420   4.093  0.6952 -0.0655 -0.5047
 6028SOL    HW129717   0.412   2.339   4.042  2.2158  2.3474 -4.5926
 6028SOL    HW229718   0.475   2.473   4.036  0.3359 -0.3277 -1.0958
 6029SOL     OW29719   0.316   2.220  13.914  0.3027  0.5544 -0.6352
 6029SOL    HW129720   0.333   2.254  14.002 -1.1541  1.0509 -0.5463
 6029SOL    HW229721   0.393   2.165  13.903  0.4763  1.0391 -1.8278
 6030SOL     OW29722   3.821   3.032   7.611 -0.2327 -0.6026  0.3343
 6030SOL    HW129723   3.782   3.107   7.656  1.6773 -0.2969  1.5013
 6030SOL    HW229724   3.749   2.999   7.558  1.4855  0.4973 -2.7069
 6031SOL     OW29725   3.319   1.839   0.614  0.2531 -0.2871 -0.1696
 6031SOL    HW129726   3.385   1.804   0.556  0.2013 -1.1963  0.3167
 6031SOL    HW229727   3.370   1.901   0.666  0.0615 -1.4367  1.3942
 6032SOL     OW29728   0.391   0.836   8.611  0.2296  0.1028  0.3347
 6032SOL    HW129729   0.469   0.781   8.609 -0.3920 -0.7778  0.2906
 6032SOL    HW229730   0.428   0.909   8.660 -0.8155 -0.9156  2.6140
 6033SOL     OW29731   3.840   2.038   4.455  0.1777  0.3925 -0.1145
 6033SOL    HW129732   3.907   2.057   4.521 -0.0334 -0.3856  0.3262
 6033SOL    HW229733   3.782   2.114   4.462  1.1191  0.8164  3.0359
 6034SOL     OW29734   0.704   4.151   3.213 -0.1376 -0.2415 -0.4048
 6034SOL    HW129735   0.720   4.123   3.303 -1.4382 -1.8611 -0.6801
 6034SOL    HW229736   0.705   4.067   3.167  0.7726  0.0094 -0.8420
 6035SOL     OW29737   4.210   0.081   8.156  0.3243 -0.1950  0.0087
 6035SOL    HW129738   4.114   0.078   8.149  0.2757  1.6126 -0.1456
 6035SOL    HW229739   4.217   0.169   8.193  1.3042  0.2041 -1.1717
 6036SOL     OW29740   0.581   4.288   8.004  0.3631  0.0654  0.4307
 6036SOL    HW129741   0.579   4.372   7.958  0.0516  0.2856  0.8473
 6036SOL    HW229742   0.598   4.230   7.930  3.1204 -1.3197  2.1176
 6037SOL     OW29743   0.949   2.251   8.157  0.2501 -0.0504 -0.0792
 6037SOL    HW129744   0.879   2.260   8.093 -0.2413 -1.8689  0.2100
 6037SOL    HW229745   0.902   2.193   8.217  0.3746 -1.6622 -1.5774
 6038SOL     OW29746   3.777   1.502  17.737  0.2749 -0.4078  0.1598
 6038SOL    HW129747   3.745   1.592  17.731 -1.2300 -0.9277  0.3537
 6038SOL    HW229748   3.776   1.475  17.645 -1.2025 -0.7220  0.2770
 6039SOL     OW29749   1.963   1.507   5.350  0.3649  0.2351 -0.3281
 6039SOL    HW129750   1.978   1.595   5.316 -1.9321  2.0370  3.3000
 6039SOL    HW229751   1.943   1.515   5.443 -1.0444  1.8671 -0.7748
 6040SOL     OW29752   3.966   2.440   8.157  0.1220 -0.2914 -0.0794
 6040SOL    HW129753   4.001   2.527   8.140 -0.7310  0.1983  0.7432
 6040SOL    HW229754   3.931   2.411   8.073 -1.3866 -1.9298  1.1093
 6041SOL     OW29755   0.762   1.134   3.885 -0.0696  0.2334  0.3034
 6041SOL    HW129756   0.693   1.110   3.946  0.8078  1.7944  1.9053
 6041SOL    HW229757   0.745   1.066   3.820 -0.6511  0.3871  0.2954
 6042SOL     OW29758   0.172   4.259   9.742  0.2263  0.1370 -0.3340
 6042SOL    HW129759   0.134   4.233   9.825  0.3575 -1.2992 -0.7167
 6042SOL    HW229760   0.152   4.178   9.695 -0.1283 -0.9941  1.8068
 6043SOL     OW29761   2.271   1.834  13.282 -0.3748 -0.2515  0.1948
 6043SOL    HW129762   2.347   1.885  13.311  0.3901  0.0444 -2.3470
 6043SOL    HW229763   2.262   1.788  13.365 -0.8362 -0.7747 -0.1413
 6044SOL     OW29764   2.360   1.957   3.325  0.3765  0.1828  0.5261
 6044SOL    HW129765   2.367   1.900   3.402 -0.2471 -1.4948 -0.6620
 6044SOL    HW229766   2.443   1.934   3.283  0.7122 -0.0275  1.2960
 6045SOL     OW29767   4.718   1.503   9.900  0.1020 -0.0947  0.1696
 6045SOL    HW129768   0.030   1.578   9.867 -0.7502  0.5496  0.3491
 6045SOL    HW229769   0.059   1.469   9.942  0.0336  1.6764  1.7832
 6046SOL     OW29770   0.064   4.174   6.635  0.8980  0.9844 -0.7942
 6046SOL    HW129771   0.132   4.186   6.569  1.4683  0.5066 -0.3005
 6046SOL    HW229772   4.734   4.137   6.579 -0.0305  0.8076  0.4505
 6047SOL     OW29773   2.714   1.548   8.009  0.7726  0.1900 -0.3499
 6047SOL    HW129774   2.669   1.575   7.930 -1.4106 -2.4362 -0.0115
 6047SOL    HW229775   2.683   1.612   8.073 -0.6640 -1.0331  0.1725
 6048SOL     OW29776   0.508   2.645  14.494  0.4698  0.2226  0.8586
 6048SOL    HW129777   0.595   2.684  14.487  0.3012  0.6006  0.8888
 6048SOL    HW229778   0.484   2.671  14.583  1.0489  3.7026  0.0090
 6049SOL     OW29779   0.909   0.631   4.614  0.0370  0.3595 -0.0462
 6049SOL    HW129780   1.004   0.638   4.625  0.0561 -1.1338  0.7527
 6049SOL    HW229781   0.891   0.537   4.612 -0.0541  0.3771 -0.0431
 6050SOL     OW29782   0.114   2.652   0.770  0.3405  0.5978 -0.4166
 6050SOL    HW129783   0.160   2.693   0.844  0.7011  1.3053 -1.0318
 6050SOL    HW229784   0.173   2.580   0.745  1.0984  0.1144  2.7665
 6051SOL     OW29785   0.415   3.094   5.890 -0.3651  0.2937  0.0947
 6051SOL    HW129786   0.494   3.049   5.860  0.2975  1.4257  0.1450
 6051SOL    HW229787   0.382   3.029   5.952  0.3402 -1.0004 -0.9054
 6052SOL     OW29788   0.920   0.354   3.656  0.2237 -0.7697  0.8614
 6052SOL    HW129789   0.986   0.399   3.709 -0.4385 -3.6261  4.0929
 6052SOL    HW229790   0.971   0.286   3.612 -0.6772 -0.4131 -0.7302
 6053SOL     OW29791   0.789   1.147   5.399  0.2099  0.1362  0.2601
 6053SOL    HW129792   0.868   1.101   5.374  0.2681  0.5103 -0.2473
 6053SOL    HW229793   0.772   1.118   5.489  1.1179 -1.8365 -0.2116
 6054SOL     OW29794   4.465   1.116   3.264 -0.5902  0.7205  0.2464
 6054SOL    HW129795   4.464   1.048   3.330 -1.6646 -0.6304 -1.1626
 6054SOL    HW229796   4.410   1.075   3.197  1.8251 -2.4023  0.1870
 6055SOL     OW29797   2.400   4.018   8.861 -0.3266  0.0323 -0.3411
 6055SOL    HW129798   2.382   3.956   8.791 -0.3920  1.5017 -1.6021
 6055SOL    HW229799   2.422   4.095   8.809 -0.8337  1.1684  1.1257
 6056SOL     OW29800   0.784   2.539   2.192  0.1231  0.5372  0.0812
 6056SOL    HW129801   0.801   2.605   2.125  2.6388 -1.5436 -1.3446
 6056SOL    HW229802   0.806   2.582   2.275  4.4608  0.1841 -0.9094
 6057SOL     OW29803   0.660   2.556   0.084  0.3701  0.3803 -0.3100
 6057SOL    HW129804   0.608   2.507   0.147  0.7506 -1.7648 -1.6795
 6057SOL    HW229805   0.650   2.498   0.008  2.0519 -2.4370  1.6214
 6058SOL     OW29806   2.730   1.188   3.310 -0.1887  0.3640 -0.9629
 6058SOL    HW129807   2.817   1.230   3.309  0.9994 -2.1656 -2.4204
 6058SOL    HW229808   2.743   1.114   3.251  1.5720 -1.4815  1.7084
 6059SOL     OW29809   2.179   2.406  11.238 -0.4653 -0.2401  0.3059
 6059SOL    HW129810   2.269   2.435  11.248 -0.1697 -0.7237 -1.1042
 6059SOL    HW229811   2.179   2.334  11.301 -0.5228 -0.9647 -0.5301
 6060SOL     OW29812   4.008   1.994  15.106  0.1192  0.3069  1.0977
 6060SOL    HW129813   3.968   1.923  15.056 -3.1882  1.5299  2.0086
 6060SOL    HW229814   4.090   1.953  15.133  0.2248  0.8669  1.6420
 6061SOL     OW29815   2.501   0.591   8.514  0.5022  0.0169  0.1584
 6061SOL    HW129816   2.445   0.568   8.440  1.9934 -1.2150 -0.5735
 6061SOL    HW229817   2.446   0.639   8.577 -2.3587  0.8251 -2.9847
 6062SOL     OW29818   4.115   1.345   6.471  0.0876  0.2676 -0.0758
 6062SOL    HW129819   4.100   1.437   6.492  0.5318  0.5517 -0.9995
 6062SOL    HW229820   4.176   1.349   6.398  0.4636 -0.8704  0.1818
 6063SOL     OW29821   0.516   4.130  11.650  0.6433 -0.4001 -0.4611
 6063SOL    HW129822   0.534   4.202  11.710 -1.5557  0.8367 -1.2723
 6063SOL    HW229823   0.506   4.179  11.568  0.7092 -0.1131 -0.2971
 6064SOL     OW29824   0.740   0.920  12.883 -0.1368 -0.2861  0.4849
 6064SOL    HW129825   0.741   0.901  12.789 -0.8241 -0.3822  0.5017
 6064SOL    HW229826   0.653   0.959  12.889 -1.2259 -2.6632  0.3512
 6065SOL     OW29827   3.561   0.522  10.988  0.4098 -0.6451  0.0664
 6065SOL    HW129828   3.481   0.570  11.006 -1.0264 -2.6309 -1.1002
 6065SOL    HW229829   3.534   0.456  10.924 -0.1497 -1.5461  1.2304
 6066SOL     OW29830   2.392   1.750   0.429  0.2083  0.9204  0.2641
 6066SOL    HW129831   2.312   1.711   0.392 -0.5457  0.4975  2.3141
 6066SOL    HW229832   2.375   1.755   0.523 -1.7948 -0.1605 -0.0405
 6067SOL     OW29833   1.637   1.523   2.158  0.2526 -0.2794 -0.9065
 6067SOL    HW129834   1.611   1.466   2.230  0.9170  1.2266  0.5464
 6067SOL    HW229835   1.624   1.606   2.204  3.4313 -0.4693  0.3386
 6068SOL     OW29836   1.323   4.068   3.931  0.4217  0.0571  0.0347
 6068SOL    HW129837   1.250   4.126   3.955 -0.4382 -1.3340  0.7788
 6068SOL    HW229838   1.294   4.036   3.846  0.3678 -2.9011  1.1497
 6069SOL     OW29839   2.630   3.408   7.995  0.2643  0.4602 -0.1092
 6069SOL    HW129840   2.643   3.450   7.910 -1.4094 -0.9839 -1.0577
 6069SOL    HW229841   2.535   3.410   8.006  0.1930  1.0153 -0.8000
 6070SOL     OW29842   2.896   0.326  14.564  0.0934 -0.5359  0.0517
 6070SOL    HW129843   2.809   0.307  14.599 -0.4430 -0.9478 -1.5019
 6070SOL    HW229844   2.916   0.258  14.500  0.0301  0.2606 -0.7985
 6071SOL     OW29845   2.773   3.362  13.202 -0.2138 -0.2294 -0.0833
 6071SOL    HW129846   2.712   3.290  13.216  1.9691 -2.1276 -0.2761
 6071SOL    HW229847   2.757   3.379  13.109  1.0107  1.8427  0.0677
 6072SOL     OW29848   3.579   1.142   9.791 -0.2301 -0.0029  0.1733
 6072SOL    HW129849   3.633   1.213   9.823  0.4453 -0.8962  1.0225
 6072SOL    HW229850   3.639   1.089   9.738 -0.4506  1.1944 -1.2596
 6073SOL     OW29851   2.843   2.579   8.647  0.2356 -0.0198 -0.4351
 6073SOL    HW129852   2.771   2.556   8.705 -0.5377 -0.9663 -1.7787
 6073SOL    HW229853   2.912   2.565   8.713  0.4539  0.2521 -0.6025
 6074SOL     OW29854   3.144   3.099   5.572  0.1880 -0.5596  0.2027
 6074SOL    HW129855   3.101   3.142   5.498 -1.3585 -1.9746  0.2780
 6074SOL    HW229856   3.219   3.157   5.585  1.9316 -2.6547 -0.4559
 6075SOL     OW29857   1.207   1.383   2.778  0.3667  0.0791  0.6732
 6075SOL    HW129858   1.113   1.378   2.799  0.0740  0.3737 -0.5820
 6075SOL    HW229859   1.231   1.473   2.801  0.4194  0.4165 -0.7214
 6076SOL     OW29860   3.725   2.315   2.046  0.4735 -0.7689 -0.2004
 6076SOL    HW129861   3.805   2.347   2.003 -0.5314 -0.5863 -1.9132
 6076SOL    HW229862   3.747   2.317   2.139  0.0363  2.6564 -0.1642
 6077SOL     OW29863   2.522   4.078   5.591 -0.5183  0.2330 -0.7032
 6077SOL    HW129864   2.509   4.075   5.686  1.1348  1.6530 -0.4309
 6077SOL    HW229865   2.522   3.984   5.576 -0.1806 -0.0231  0.9276
 6078SOL     OW29866   2.030   2.204   0.983 -0.2041  0.2880 -0.6154
 6078SOL    HW129867   2.103   2.143   0.993  1.2466  2.2848  1.0778
 6078SOL    HW229868   2.049   2.247   0.900 -1.2901  1.3267 -0.3199
 6079SOL     OW29869   2.101   4.384   4.347 -0.2394 -0.0849  0.4428
 6079SOL    HW129870   2.081   4.467   4.391  0.6855  0.0960  0.5080
 6079SOL    HW229871   2.186   4.407   4.309  1.0402 -1.5325  2.4378
 6080SOL     OW29872   0.983   3.216  11.177  0.5411 -0.0644  0.3161
 6080SOL    HW129873   1.064   3.218  11.227 -0.5689 -0.2611  2.1120
 6080SOL    HW229874   1.025   3.230  11.092 -1.0964  0.5050 -0.3943
 6081SOL     OW29875   2.662   3.598   8.800  0.3459 -0.4931  0.1517
 6081SOL    HW129876   2.592   3.639   8.850 -0.3371 -1.6780  0.1584
 6081SOL    HW229877   2.660   3.636   8.712  1.0558  0.0873  0.3808
 6082SOL     OW29878   0.053   3.288  12.742 -0.0732  0.2039  0.0861
 6082SOL    HW129879   4.709   3.307  12.696 -0.4163 -0.7895  0.2866
 6082SOL    HW229880   0.023   3.218  12.800 -3.3855  0.1231 -1.7137
 6083SOL     OW29881   3.108   0.121   6.379 -0.1465  0.1205 -0.5396
 6083SOL    HW129882   3.108   0.184   6.451  1.7064 -0.9197  0.4074
 6083SOL    HW229883   3.200   0.092   6.385 -0.2140 -0.0474 -0.3160
 6084SOL     OW29884   2.252   2.355   6.895 -0.4992  1.0577 -0.0366
 6084SOL    HW129885   2.317   2.338   6.827 -1.0853 -0.7099 -0.1482
 6084SOL    HW229886   2.169   2.341   6.850 -0.4106 -1.6716  0.6465
 6085SOL     OW29887   1.980   0.093   7.618  0.6669  1.1347  0.4924
 6085SOL    HW129888   1.949   0.171   7.664 -1.4463  0.8630 -0.4759
 6085SOL    HW229889   2.045   0.056   7.679  1.1076  1.2493  0.0899
 6086SOL     OW29890   1.677   0.879   4.825 -0.1655  0.1421 -0.1087
 6086SOL    HW129891   1.662   0.973   4.839 -0.1662  0.1072  0.1266
 6086SOL    HW229892   1.641   0.865   4.737 -0.7527 -2.1149  0.5009
 6087SOL     OW29893   3.930   4.399   4.288 -0.0445  0.5272 -0.2463
 6087SOL    HW129894   3.918   4.458   4.213 -0.6708 -1.1357 -1.4673
 6087SOL    HW229895   4.020   4.375   4.271 -0.3763 -1.2294  0.5584
 6088SOL     OW29896   0.869   1.810  12.650  0.0269 -0.0345 -0.3150
 6088SOL    HW129897   0.935   1.783  12.714 -0.6342 -3.5062 -1.0953
 6088SOL    HW229898   0.894   1.902  12.658  2.2121 -0.7105  0.6942
 6089SOL     OW29899   2.264   2.195   0.172 -0.0821 -0.6918  0.4682
 6089SOL    HW129900   2.198   2.239   0.226  0.5596  2.2280 -1.1097
 6089SOL    HW229901   2.327   2.158   0.234  0.7710  1.8203  1.1104
 6090SOL     OW29902   2.328   1.209   9.976 -0.5262 -0.2793  0.0479
 6090SOL    HW129903   2.383   1.263  10.033  0.5908 -1.1867 -0.1637
 6090SOL    HW229904   2.322   1.270   9.903  0.9403  1.3698  1.3152
 6091SOL     OW29905   4.703   2.921   7.606  0.4484 -0.3602 -0.3400
 6091SOL    HW129906   4.691   2.995   7.547 -1.1021  1.5638  2.3654
 6091SOL    HW229907   0.060   2.910   7.606  0.5513  0.5432  1.1557
 6092SOL     OW29908   0.048   3.989   9.632 -0.3353  0.3320 -0.1323
 6092SOL    HW129909   4.720   3.946   9.687 -0.4046  1.9134  1.0048
 6092SOL    HW229910   0.126   3.948   9.669 -1.2653 -1.4658 -0.1755
 6093SOL     OW29911   1.140   2.769  17.582  0.3958  0.5958 -0.1416
 6093SOL    HW129912   1.078   2.821  17.635 -0.6488  0.2551 -1.0403
 6093SOL    HW229913   1.209   2.835  17.580  2.8057 -1.9243  0.3298
 6094SOL     OW29914   0.981   0.185   4.802  0.0679 -0.4908 -0.0802
 6094SOL    HW129915   1.039   0.125   4.850  2.1405  0.7627 -1.0324
 6094SOL    HW229916   0.940   0.117   4.749  0.9824 -2.5748  1.8773
 6095SOL     OW29917   1.247   2.946  10.347 -0.3441 -0.6572  0.2640
 6095SOL    HW129918   1.280   3.034  10.365  2.5551 -1.3721 -1.5034
 6095SOL    HW229919   1.174   2.960  10.286  0.6690 -0.1334 -0.8143
 6096SOL     OW29920   3.813   1.368   4.942  0.1317  0.5675 -0.2081
 6096SOL    HW129921   3.888   1.337   4.993 -0.0426  0.2725 -0.1312
 6096SOL    HW229922   3.842   1.339   4.856 -1.6962 -0.2472 -0.5514
 6097SOL     OW29923   3.001   3.516   6.945  0.1212 -0.0212  0.1822
 6097SOL    HW129924   3.015   3.605   6.977  1.6969 -0.1288 -0.2171
 6097SOL    HW229925   2.949   3.478   7.015  1.3702 -1.8151  0.1399
 6098SOL     OW29926   0.570   0.250   4.796  0.0546  0.1740  0.2950
 6098SOL    HW129927   0.649   0.299   4.818 -1.0975  1.3517  1.7739
 6098SOL    HW229928   0.605   0.162   4.783 -3.0026 -0.9239 -0.4960
 6099SOL     OW29929   2.467   2.023   4.255  0.0850  0.3146 -0.1538
 6099SOL    HW129930   2.445   1.983   4.171  0.6256  1.5209 -0.8741
 6099SOL    HW229931   2.554   1.988   4.274  0.2455  0.0645 -1.3541
 6100SOL     OW29932   1.500   4.528   9.239 -0.5035  0.0608 -0.1940
 6100SOL    HW129933   1.405   4.520   9.246 -0.4114 -0.8496  0.0644
 6100SOL    HW229934   1.517   4.510   9.147  4.0962 -0.1956  0.7200
 6101SOL     OW29935   1.719   0.308   3.489 -1.0551  0.2256 -0.1924
 6101SOL    HW129936   1.663   0.230   3.498  0.5133 -0.8913 -0.0956
 6101SOL    HW229937   1.752   0.292   3.401 -1.7092 -0.1702 -0.3643
 6102SOL     OW29938   3.921   0.801   4.263 -0.1206 -0.2983  0.2898
 6102SOL    HW129939   3.887   0.890   4.261  0.6867 -0.0049 -0.6652
 6102SOL    HW229940   3.906   0.774   4.353 -2.2521 -1.1058 -0.2826
 6103SOL     OW29941   3.165   1.445   7.791  0.4322  0.0118 -0.0058
 6103SOL    HW129942   3.186   1.441   7.698  1.8010 -1.7613  0.3864
 6103SOL    HW229943   3.216   1.523   7.813  0.3993  0.5221 -1.7169
 6104SOL     OW29944   2.052   2.369   5.843 -0.1046  0.0653 -0.2552
 6104SOL    HW129945   2.065   2.332   5.930  3.0602  0.6198 -0.4890
 6104SOL    HW229946   2.132   2.421   5.852 -1.9018  2.6022  0.9697
 6105SOL     OW29947   2.071   3.127  13.608 -0.2656  0.6016  0.7083
 6105SOL    HW129948   2.080   3.220  13.628  2.1458 -0.1025  2.9755
 6105SOL    HW229949   2.164   3.107  13.597 -0.7877 -1.5885  0.1843
 6106SOL     OW29950   1.311   1.801   8.098 -0.2019  0.2249 -0.2093
 6106SOL    HW129951   1.243   1.738   8.074 -1.8836  2.2557 -0.7007
 6106SOL    HW229952   1.255   1.877   8.108 -2.2821 -1.1583 -1.2360
 6107SOL     OW29953   2.284   4.606   7.646 -0.1481 -0.2349  0.1086
 6107SOL    HW129954   2.232   4.592   7.726  0.4943  2.5137  0.9928
 6107SOL    HW229955   2.292   4.514   7.618 -1.3652 -0.5953  0.9051
 6108SOL     OW29956   1.115   2.831   3.723 -0.2188 -0.0855 -0.5111
 6108SOL    HW129957   1.070   2.911   3.749 -1.2735 -0.7487 -0.2870
 6108SOL    HW229958   1.037   2.776   3.718 -0.0997 -0.2545 -0.5011
 6109SOL     OW29959   1.579   1.560   5.487 -0.3054  0.0693  0.9808
 6109SOL    HW129960   1.557   1.516   5.570 -0.9738  0.7567  1.1699
 6109SOL    HW229961   1.619   1.643   5.513 -0.6451  0.2122  1.0437
 6110SOL     OW29962   2.419   0.664  15.570  0.2269 -0.1727  0.2713
 6110SOL    HW129963   2.468   0.692  15.492  1.7159 -0.2946  1.1605
 6110SOL    HW229964   2.468   0.714  15.635 -0.5042 -1.7954  2.0450
 6111SOL     OW29965   3.745   2.976   5.106  0.1989  0.9190 -0.1113
 6111SOL    HW129966   3.677   3.043   5.103  0.9272  1.6842  0.3643
 6111SOL    HW229967   3.710   2.926   5.180  0.9486  2.2807  1.1703
 6112SOL     OW29968   4.133   2.994   3.813 -0.2838 -0.1355 -0.1816
 6112SOL    HW129969   4.162   2.905   3.793  2.5718  0.7055  0.2423
 6112SOL    HW229970   4.199   3.020   3.877  0.7993  0.9579 -1.7450
 6113SOL     OW29971   0.996   1.534   0.203 -0.1312 -0.7674 -0.6527
 6113SOL    HW129972   0.930   1.541   0.133 -2.0866  0.5676  1.3172
 6113SOL    HW229973   1.010   1.440   0.200  0.5134 -0.6849 -0.0699
 6114SOL     OW29974   3.245   0.909   8.683  0.4256 -0.1226  0.0847
 6114SOL    HW129975   3.290   0.862   8.754 -0.9866  0.4815  1.3760
 6114SOL    HW229976   3.246   0.991   8.733  0.4813 -1.3119  2.0348
 6115SOL     OW29977   3.517   0.386   5.224  0.0169 -0.5228 -0.5147
 6115SOL    HW129978   3.474   0.340   5.152  1.9961  0.6518 -2.4186
 6115SOL    HW229979   3.472   0.470   5.235 -0.2712 -0.8301  0.7126
 6116SOL     OW29980   1.068   1.382   4.580  0.1802  0.0197 -0.4055
 6116SOL    HW129981   1.128   1.343   4.643 -1.7472  0.7413  1.8675
 6116SOL    HW229982   1.069   1.471   4.615  1.9355 -0.1873  0.0862
 6117SOL     OW29983   3.092   3.415   7.969 -1.2994  0.5198 -0.3540
 6117SOL    HW129984   3.071   3.427   7.876  0.0832 -0.6635 -0.8114
 6117SOL    HW229985   3.136   3.499   7.983  1.1640 -0.7777 -0.2299
 6118SOL     OW29986   3.132   3.198  15.687  0.0194 -0.6082  0.5166
 6118SOL    HW129987   3.044   3.211  15.724  0.4331 -2.5606  2.1624
 6118SOL    HW229988   3.148   3.113  15.726 -0.8033 -0.2612  1.6311
 6119SOL     OW29989   4.297   2.666   4.587 -0.2002  0.2221  0.2921
 6119SOL    HW129990   4.231   2.632   4.647 -0.3217 -1.5079 -0.8271
 6119SOL    HW229991   4.350   2.730   4.636 -1.0614  1.4235 -0.3369
 6120SOL     OW29992   3.208   1.470   6.777 -0.2520 -0.3347  0.3455
 6120SOL    HW129993   3.225   1.470   6.871 -0.5577  0.6372  0.4016
 6120SOL    HW229994   3.270   1.399   6.760  1.3344  1.0519  0.3186
 6121SOL     OW29995   1.862   1.114   4.961  0.4634  0.2528  0.4706
 6121SOL    HW129996   1.863   1.160   5.045  1.4293 -0.6662  0.9608
 6121SOL    HW229997   1.767   1.116   4.947  0.6118  1.1263 -0.4441
 6122SOL     OW29998   0.517   0.473   9.208 -0.1837  0.8337  0.3006
 6122SOL    HW129999   0.599   0.428   9.227  0.9074  1.7931 -2.1812
 6122SOL    HW230000   0.476   0.413   9.146  0.8647  0.4621 -0.0331
 6123SOL     OW30001   2.694   1.292   5.242 -0.3667  0.1187 -0.3397
 6123SOL    HW130002   2.754   1.218   5.233  0.5117  0.9027 -0.8983
 6123SOL    HW230003   2.613   1.259   5.282  0.5461 -2.7446 -0.9063
 6124SOL     OW30004   1.792   2.250   4.157 -0.4346 -0.3835 -0.5170
 6124SOL    HW130005   1.780   2.333   4.111  2.1263  0.2686  0.0080
 6124SOL    HW230006   1.876   2.231   4.116  0.4394  0.9258  0.6869
 6125SOL     OW30007   1.898   2.118   1.780  0.7644  0.1293 -0.5968
 6125SOL    HW130008   1.834   2.180   1.744  0.5574  0.3868  0.2209
 6125SOL    HW230009   1.963   2.125   1.710  0.8109 -2.4776 -0.8392
 6126SOL     OW30010   0.723   3.485   2.580  0.0201  0.3194  0.1877
 6126SOL    HW130011   0.781   3.561   2.587  2.5099 -1.4952 -0.9920
 6126SOL    HW230012   0.766   3.421   2.636  0.3657  0.5846  0.2230
 6127SOL     OW30013   1.203   1.112   1.887 -0.2740 -0.0871 -0.2689
 6127SOL    HW130014   1.162   1.174   1.827 -1.4217  0.7629  1.3706
 6127SOL    HW230015   1.145   1.041   1.861  1.0978 -0.5709 -1.9464
 6128SOL     OW30016   1.556   0.429  11.069 -0.2726  0.1340  0.5193
 6128SOL    HW130017   1.515   0.392  10.991  1.5637 -0.2659 -0.2472
 6128SOL    HW230018   1.636   0.377  11.071  0.7542  1.7034  0.3709
 6129SOL     OW30019   3.212   2.108  10.017 -0.6550 -0.0658 -0.8372
 6129SOL    HW130020   3.286   2.159   9.985  0.3073  0.3894  2.1344
 6129SOL    HW230021   3.190   2.155  10.098 -0.3062  0.2959 -0.9545
 6130SOL     OW30022   3.973   0.637  13.845 -0.1339 -0.2620  0.4229
 6130SOL    HW130023   3.959   0.601  13.758  2.6315 -1.5982  0.5048
 6130SOL    HW230024   3.963   0.731  13.835  0.8605  0.0930  2.6853
 6131SOL     OW30025   1.247   4.544   4.021  0.0884  0.0610 -0.3548
 6131SOL    HW130026   1.217   4.559   3.931  0.5180  0.7284 -0.3847
 6131SOL    HW230027   1.169   4.563   4.072  0.6145 -0.1807  0.5461
 6132SOL     OW30028   2.951   2.309  10.479 -0.2467  0.4808 -0.6207
 6132SOL    HW130029   2.988   2.299  10.567 -1.5359  0.0431 -0.1226
 6132SOL    HW230030   2.887   2.237  10.483 -0.1758  0.3889 -1.1869
 6133SOL     OW30031   1.915   0.517   4.014  0.2281  0.4757 -0.3192
 6133SOL    HW130032   1.983   0.455   3.988 -1.8753 -0.5509 -3.3216
 6133SOL    HW230033   1.851   0.448   4.028  0.3103 -0.0004 -2.2900
 6134SOL     OW30034   4.322   2.039   2.866  0.3354  0.3166 -0.4395
 6134SOL    HW130035   4.344   2.026   2.959 -1.5183  0.8628  0.0681
 6134SOL    HW230036   4.282   2.126   2.864 -1.1046 -0.3381  0.6122
 6135SOL     OW30037   1.557   2.815   4.775  0.0955  0.4341  0.1949
 6135SOL    HW130038   1.512   2.732   4.792 -0.9398  1.4670  2.5761
 6135SOL    HW230039   1.648   2.784   4.779  0.4177  1.5185  1.3756
 6136SOL     OW30040   1.821   1.243   1.299 -0.5174  0.5140  0.0922
 6136SOL    HW130041   1.844   1.335   1.292 -1.0499  0.5090 -1.7790
 6136SOL    HW230042   1.741   1.247   1.352  0.0844 -1.1971  1.1084
 6137SOL     OW30043   1.547   0.883   6.998  0.0350  0.2673 -0.9238
 6137SOL    HW130044   1.604   0.889   6.921 -0.0253  0.5393 -0.9456
 6137SOL    HW230045   1.591   0.919   7.074 -0.9948 -1.6443  0.5833
 6138SOL     OW30046   0.121   3.879   5.093 -0.2545 -0.3985  0.1124
 6138SOL    HW130047   0.100   3.798   5.048 -2.3671  1.0562 -1.4978
 6138SOL    HW230048   0.182   3.848   5.161 -1.0875 -0.6779  0.7367
 6139SOL     OW30049   4.652   2.796   9.986 -0.0474  0.3954 -0.1862
 6139SOL    HW130050   4.602   2.834   9.914 -0.6912  0.2646  0.1914
 6139SOL    HW230051   4.734   2.780   9.940  0.1622  0.0892  0.2907
 6140SOL     OW30052   0.395   1.679   1.807  0.4936 -0.0716 -0.0793
 6140SOL    HW130053   0.350   1.703   1.887  0.4039  0.3675 -0.2626
 6140SOL    HW230054   0.393   1.767   1.771 -0.4046  0.7184  1.9176
 6141SOL     OW30055   2.611   2.781   2.671 -0.7402 -0.1646  0.2473
 6141SOL    HW130056   2.630   2.769   2.577 -0.0816  0.9333  0.2388
 6141SOL    HW230057   2.569   2.696   2.684  0.0169 -0.5291  0.3268
 6142SOL     OW30058   4.600   0.426  11.908  0.0878 -0.2892  0.0483
 6142SOL    HW130059   4.564   0.343  11.938  1.9375 -1.0110  0.2676
 6142SOL    HW230060   4.694   0.413  11.918  0.0302 -0.2872  0.5614
 6143SOL     OW30061   1.446   4.527  13.904 -0.4307  0.1891  0.0039
 6143SOL    HW130062   1.423   4.479  13.825 -0.0017 -1.6196  0.9790
 6143SOL    HW230063   1.540   4.510  13.906 -0.5647 -0.3696  1.8217
 6144SOL     OW30064   2.952   1.208   4.194 -0.1568 -0.0449  0.0173
 6144SOL    HW130065   2.918   1.162   4.117  0.6581  0.5609 -0.7114
 6144SOL    HW230066   3.013   1.149   4.239  2.3590  2.5834  0.0187
 6145SOL     OW30067   2.740   3.202  11.525 -0.0722 -0.1458  0.1217
 6145SOL    HW130068   2.647   3.200  11.545 -0.3448  1.4659 -1.0976
 6145SOL    HW230069   2.750   3.241  11.438 -0.5508  2.5758  1.3183
 6146SOL     OW30070   0.960   3.215   2.670 -0.1047  0.3954 -0.0199
 6146SOL    HW130071   0.969   3.221   2.765 -1.0797  1.7387 -0.0172
 6146SOL    HW230072   0.867   3.194   2.664 -0.0568  0.5757 -1.4229
 6147SOL     OW30073   3.934   1.805  16.607  0.1665 -0.4585  0.3299
 6147SOL    HW130074   4.027   1.822  16.621  0.6323 -2.1215 -0.6974
 6147SOL    HW230075   3.904   1.820  16.696 -0.4101  0.4195 -0.0168
 6148SOL     OW30076   1.945   3.565   7.347  0.3243  0.5054  0.1410
 6148SOL    HW130077   1.914   3.478   7.323 -2.5919  1.6648 -0.3009
 6148SOL    HW230078   2.029   3.581   7.304  0.3374 -1.3580 -0.5321
 6149SOL     OW30079   3.760   1.673   2.359  0.5050 -0.6460 -0.3912
 6149SOL    HW130080   3.804   1.735   2.301  0.8186 -1.6618 -1.2401
 6149SOL    HW230081   3.829   1.610   2.380  0.4370  0.5131  3.3791
 6150SOL     OW30082   2.817   3.885   1.696  0.2258  0.0619  0.0175
 6150SOL    HW130083   2.910   3.899   1.711  0.4322 -0.7939 -0.4759
 6150SOL    HW230084   2.782   3.888   1.785 -0.4805 -2.4882 -0.1724
 6151SOL     OW30085   2.037   4.545   6.292  0.3873 -0.1976 -0.4082
 6151SOL    HW130086   2.033   4.546   6.388 -0.9095  1.5870 -0.4765
 6151SOL    HW230087   2.086   4.463   6.289  2.6823  1.1535 -0.3466
 6152SOL     OW30088   4.132   4.709  16.110 -0.2424  0.0171 -0.7107
 6152SOL    HW130089   4.117   4.619  16.139 -2.2154  0.6994  0.3675
 6152SOL    HW230090   4.148   4.695  16.017  1.3359 -2.0683 -0.1394
 6153SOL     OW30091   1.085   0.058   3.079  0.2022 -0.3873 -0.7607
 6153SOL    HW130092   1.100   0.152   3.084  0.6086 -0.4910 -0.0800
 6153SOL    HW230093   1.173   0.028   3.054 -0.1987 -3.3802  1.3699
 6154SOL     OW30094   4.300   3.906  17.334  0.1579 -0.3848 -0.1366
 6154SOL    HW130095   4.294   3.880  17.426  1.7402 -1.3311 -0.2931
 6154SOL    HW230096   4.216   3.938  17.302  1.2654  1.3063 -1.4072
 6155SOL     OW30097   0.430   0.505  12.982  0.4742  0.3321  0.0259
 6155SOL    HW130098   0.522   0.485  12.967  0.9622  1.9264  0.9753
 6155SOL    HW230099   0.407   0.456  13.061  1.4943  0.2832  0.2926
 6156SOL     OW30100   3.859   3.097   8.693  0.0604  0.2847 -0.0800
 6156SOL    HW130101   3.841   3.009   8.660 -1.5879 -0.1367  1.9206
 6156SOL    HW230102   3.786   3.152   8.663 -1.3247 -0.9349  1.0189
 6157SOL     OW30103   2.396   3.915   4.347  0.1145  0.0539 -0.0736
 6157SOL    HW130104   2.348   3.848   4.299 -0.1548 -0.8209  1.4368
 6157SOL    HW230105   2.463   3.862   4.389 -1.1223 -1.6246 -0.2449
 6158SOL     OW30106   2.224   1.114   7.316 -0.2870 -0.7406 -0.1726
 6158SOL    HW130107   2.273   1.195   7.317  3.2108 -2.8745  0.8210
 6158SOL    HW230108   2.291   1.049   7.337  0.6235  0.6529  1.1264
 6159SOL     OW30109   3.202   4.661  12.649 -0.3703  0.1528 -0.2179
 6159SOL    HW130110   3.157   4.666  12.564 -2.2900 -0.2067  0.7798
 6159SOL    HW230111   3.292   4.641  12.622 -0.7024  0.0856 -1.3001
 6160SOL     OW30112   2.463   2.636   1.443 -0.2691  0.1314 -0.1675
 6160SOL    HW130113   2.449   2.569   1.509 -1.4464 -0.4042 -0.9812
 6160SOL    HW230114   2.526   2.593   1.385  1.2156 -0.8615  2.1583
 6161SOL     OW30115   3.950   2.189   2.358  0.5142  0.4291  0.2420
 6161SOL    HW130116   3.986   2.276   2.375 -1.6047  0.9027  2.1863
 6161SOL    HW230117   4.020   2.136   2.397  0.5646  0.9007  0.7923
 6162SOL     OW30118   0.247   2.105   8.869  0.4352  0.3706 -0.1005
 6162SOL    HW130119   0.269   2.050   8.944 -0.1404  0.8107  0.3917
 6162SOL    HW230120   0.153   2.103   8.851  0.1375  1.3703  1.3511
 6163SOL     OW30121   0.864   3.721   3.450  0.3417 -0.0299  0.4040
 6163SOL    HW130122   0.872   3.627   3.465  1.1320 -0.3385 -1.9131
 6163SOL    HW230123   0.921   3.733   3.374  1.2424  0.6749  1.1994
 6164SOL     OW30124   4.251   0.209   0.799  0.1788 -0.3678 -0.2047
 6164SOL    HW130125   4.204   0.168   0.726 -0.3024  1.2571 -0.7938
 6164SOL    HW230126   4.256   0.138   0.863  1.1254  0.2881  0.4584
 6165SOL     OW30127   0.156   0.013   5.907  0.3965  0.0018  0.1705
 6165SOL    HW130128   0.137   4.686   5.975  0.3447 -0.2081 -0.0422
 6165SOL    HW230129   0.228   0.059   5.952  0.2852 -1.4583  1.8546
 6166SOL     OW30130   3.312   0.108  10.030  0.0449 -0.0693  0.8077
 6166SOL    HW130131   3.332   0.032   9.976 -0.4972  1.7448 -1.9327
 6166SOL    HW230132   3.229   0.084  10.071 -1.3703  1.7216 -1.0038
 6167SOL     OW30133   4.269   0.791   3.684 -0.1697  0.0819  0.5406
 6167SOL    HW130134   4.323   0.778   3.762  2.0853  1.8596 -0.7400
 6167SOL    HW230135   4.242   0.700   3.674 -0.0967 -0.0902  1.8538
 6168SOL     OW30136   4.211   3.622   7.993  0.0688  0.6087 -0.0133
 6168SOL    HW130137   4.168   3.705   8.011 -2.7206 -0.6978 -0.5786
 6168SOL    HW230138   4.302   3.649   7.982  0.5279 -0.1266  1.9540
 6169SOL     OW30139   3.743   4.158   2.550  0.2616 -0.5136  0.8477
 6169SOL    HW130140   3.797   4.198   2.619 -0.5678  1.1384  0.5539
 6169SOL    HW230141   3.655   4.183   2.578  0.1967 -0.8137  0.9044
 6170SOL     OW30142   3.779   4.341   5.136  0.8093 -0.3204  0.3214
 6170SOL    HW130143   3.818   4.428   5.133 -1.6907  0.8078  0.7488
 6170SOL    HW230144   3.767   4.325   5.230  1.1838 -0.3497  0.3632
 6171SOL     OW30145   0.438   2.062   3.710  0.0351 -0.2518  0.0910
 6171SOL    HW130146   0.355   2.080   3.665 -0.5523 -2.1650  0.4136
 6171SOL    HW230147   0.428   1.968   3.724  1.0518 -0.2339  0.8957
 6172SOL     OW30148   3.667   2.167  17.381 -0.0022 -0.1002 -0.2686
 6172SOL    HW130149   3.589   2.141  17.430 -0.6235 -1.6578 -2.0734
 6172SOL    HW230150   3.618   2.215  17.314 -3.5668 -0.1173  2.3026
 6173SOL     OW30151   3.957   3.991  17.654  0.4374 -0.4347  0.1577
 6173SOL    HW130152   4.050   3.994  17.678  1.1142 -1.3821 -2.3419
 6173SOL    HW230153   3.965   3.907  17.609 -0.5310 -1.0022  1.0581
 6174SOL     OW30154   2.734   0.015  10.443  0.1173  0.2962  0.2224
 6174SOL    HW130155   2.673   0.089  10.434 -0.2755  0.3338  3.0701
 6174SOL    HW230156   2.729   4.706  10.359  2.8910  0.4416 -0.0188
 6175SOL     OW30157   1.404   2.630   1.225  0.2940  0.3016 -0.3524
 6175SOL    HW130158   1.469   2.561   1.240  0.9507  0.6972 -1.4146
 6175SOL    HW230159   1.384   2.664   1.312 -0.5296 -2.6638  0.6250
 6176SOL     OW30160   4.567   1.877   5.395 -0.5512 -0.0519  0.8147
 6176SOL    HW130161   4.556   1.855   5.487  1.0814  1.3671  1.3449
 6176SOL    HW230162   4.565   1.972   5.405 -0.0130  0.0341  0.1569
 6177SOL     OW30163   0.953   2.084   1.231 -0.0913  0.3675  0.5643
 6177SOL    HW130164   0.920   2.019   1.169 -0.5780  1.0885  0.0676
 6177SOL    HW230165   0.975   2.154   1.170 -1.3964  0.8872  0.7069
 6178SOL     OW30166   0.252   1.113   3.092  0.0933  0.2681 -0.1621
 6178SOL    HW130167   0.303   1.194   3.086  0.3763  0.0538 -0.6891
 6178SOL    HW230168   0.169   1.150   3.062 -0.3962 -1.4747 -0.9902
 6179SOL     OW30169   3.997   0.007   3.626  0.3300 -0.4505  0.0173
 6179SOL    HW130170   3.935   4.729   3.696 -0.9168  0.6743 -0.8509
 6179SOL    HW230171   3.961   4.672   3.575  0.0600 -0.9315  0.8923
 6180SOL     OW30172   3.430   3.798   5.508  0.1907  0.0484  0.0004
 6180SOL    HW130173   3.351   3.811   5.455  0.8598  2.7055 -0.3374
 6180SOL    HW230174   3.477   3.724   5.470  1.8300  2.0502 -1.8287
 6181SOL     OW30175   1.052   3.756  10.135 -0.7870  0.0296  0.2108
 6181SOL    HW130176   0.969   3.712  10.152 -1.0539  0.9118  1.1827
 6181SOL    HW230177   1.110   3.680  10.127 -0.0300  0.5794  0.4597
 6182SOL     OW30178   1.456   1.803   1.961  0.4186 -0.0592 -0.4277
 6182SOL    HW130179   1.548   1.810   1.937  0.8253 -0.0710  1.1477
 6182SOL    HW230180   1.421   1.805   1.872  1.4457 -0.4376 -0.8373
 6183SOL     OW30181   0.776   2.160   3.517  0.2941 -0.2313  0.2127
 6183SOL    HW130182   0.733   2.085   3.474  1.7772 -1.3040  0.6007
 6183SOL    HW230183   0.776   2.229   3.451  0.2682 -1.7688 -1.4064
 6184SOL     OW30184   4.222   4.503  14.962 -0.0062 -0.7172 -0.0563
 6184SOL    HW130185   4.127   4.497  14.978 -0.2423  1.6882 -0.6392
 6184SOL    HW230186   4.215   4.479  14.869 -3.3027  1.1367 -0.2943
 6185SOL     OW30187   0.122   3.392   7.522 -0.6302  0.3627  0.0193
 6185SOL    HW130188   0.090   3.305   7.498  1.2156 -0.3031  0.0317
 6185SOL    HW230189   0.155   3.423   7.438 -1.9474 -1.8204 -1.2901
 6186SOL     OW30190   4.638   4.504   3.486 -0.3174 -0.2232 -0.5933
 6186SOL    HW130191   4.549   4.526   3.459 -1.0557 -1.1820  1.0279
 6186SOL    HW230192   4.680   4.588   3.464 -0.6380  0.1914  0.3539
 6187SOL     OW30193   4.271   3.694  15.696  0.6194  0.1808  0.0592
 6187SOL    HW130194   4.250   3.739  15.614 -0.0225 -0.4170 -0.0971
 6187SOL    HW230195   4.228   3.754  15.757  1.0280 -1.2895  1.7742
 6188SOL     OW30196   3.712   0.689  14.000 -0.1471  0.0431  0.0595
 6188SOL    HW130197   3.784   0.667  13.942  0.3314 -0.7177  0.9429
 6188SOL    HW230198   3.655   0.614  13.985 -0.3060  1.0104 -4.1682
 6189SOL     OW30199   4.395   3.080   4.439 -0.0839 -0.0877  0.1183
 6189SOL    HW130200   4.375   3.159   4.389  1.0075 -0.8492 -1.5105
 6189SOL    HW230201   4.374   3.103   4.529  0.9960  1.6554 -0.0807
 6190SOL     OW30202   1.808   2.442  17.418  0.2749 -0.3847 -0.1054
 6190SOL    HW130203   1.753   2.518  17.437 -0.2958 -0.4977 -1.2974
 6190SOL    HW230204   1.892   2.487  17.409  0.3253  0.0157  2.4070
 6191SOL     OW30205   2.733   3.547  17.241  0.0170 -0.1250 -0.0235
 6191SOL    HW130206   2.714   3.474  17.300 -1.7965 -0.8477 -1.5014
 6191SOL    HW230207   2.686   3.518  17.162 -0.0045  2.2240 -0.8571
 6192SOL     OW30208   2.419   0.425   5.772  0.5306 -0.4149 -0.1746
 6192SOL    HW130209   2.357   0.485   5.732 -2.4354 -2.7209  0.9413
 6192SOL    HW230210   2.470   0.488   5.823  0.9117 -0.9241  0.0737
 6193SOL     OW30211   3.423   1.626   1.222  0.0812  0.8111 -0.3645
 6193SOL    HW130212   3.329   1.642   1.215  0.2844  3.0655  2.0791
 6193SOL    HW230213   3.443   1.665   1.307  0.7007  0.3462 -0.2972
 6194SOL     OW30214   3.756   0.817   8.199 -0.2276 -0.2904  0.8711
 6194SOL    HW130215   3.732   0.781   8.113  0.5066  1.1822  0.0658
 6194SOL    HW230216   3.746   0.912   8.198  0.9340 -0.1737  1.4721
 6195SOL     OW30217   1.241   2.943   7.244 -0.6849  0.3066 -0.3764
 6195SOL    HW130218   1.325   2.986   7.236  1.0657 -2.8707  1.1242
 6195SOL    HW230219   1.195   3.003   7.185 -0.5615  2.1311  1.3876
 6196SOL     OW30220   2.257   0.737   6.269  0.3024 -0.0461  0.3943
 6196SOL    HW130221   2.339   0.693   6.293  0.0868 -2.3206 -3.1229
 6196SOL    HW230222   2.213   0.667   6.221 -1.4453  0.9979  0.4677
 6197SOL     OW30223   1.537   4.263   4.616 -0.1376  0.0998  0.2212
 6197SOL    HW130224   1.447   4.233   4.627 -0.3014  0.9787  1.2843
 6197SOL    HW230225   1.575   4.191   4.567 -1.0396 -1.1412  1.3469
 6198SOL     OW30226   2.779   4.025   7.320 -0.6375  0.2075 -0.2078
 6198SOL    HW130227   2.821   3.967   7.383  0.5513  3.2130  1.7497
 6198SOL    HW230228   2.848   4.084   7.290  0.5734 -0.3856  1.3915
 6199SOL     OW30229   4.507   2.507   9.477  0.1239  0.4440  0.6722
 6199SOL    HW130230   4.436   2.528   9.417  2.7579 -1.2855 -3.0227
 6199SOL    HW230231   4.566   2.456   9.422 -0.8778 -2.1842  2.0341
 6200SOL     OW30232   3.933   2.534   7.506  0.1267 -0.0829  0.3582
 6200SOL    HW130233   3.938   2.557   7.414 -2.0296 -4.8471 -0.9415
 6200SOL    HW230234   4.024   2.536   7.537 -0.0998  1.8191  0.9466
 6201SOL     OW30235   1.790   1.600   1.934  0.1641  0.0738 -0.0125
 6201SOL    HW130236   1.819   1.690   1.949  0.3091 -0.4240  2.6040
 6201SOL    HW230237   1.741   1.581   2.014 -0.0711 -4.6395 -1.3204
 6202SOL     OW30238   1.002   1.357  14.898  0.3864  0.4629 -0.5269
 6202SOL    HW130239   0.930   1.409  14.863 -1.1046 -1.7630 -0.7378
 6202SOL    HW230240   0.986   1.367  14.992  0.3770 -3.1209 -0.1621
 6203SOL     OW30241   2.158   3.563  10.615 -0.0975 -0.6846 -0.1705
 6203SOL    HW130242   2.196   3.650  10.631  0.5313 -1.0060  0.1065
 6203SOL    HW230243   2.240   3.514  10.606 -0.3769 -1.5397  1.7731
 6204SOL     OW30244   4.630   0.624  11.706  0.2536 -0.0292  0.0085
 6204SOL    HW130245   4.611   0.554  11.769 -0.2768  1.6351  1.6873
 6204SOL    HW230246   4.546   0.620  11.661  0.3416 -1.7878 -0.0179
 6205SOL     OW30247   2.750   1.361   6.664  0.7595 -0.1716 -0.0794
 6205SOL    HW130248   2.750   1.429   6.597 -0.8122 -1.9300 -1.8923
 6205SOL    HW230249   2.841   1.337   6.680  1.1087  1.5600  0.4791
 6206SOL     OW30250   1.743   1.726   3.881  0.4341  0.1711  0.0852
 6206SOL    HW130251   1.827   1.683   3.869  0.8820  0.9686  0.3529
 6206SOL    HW230252   1.726   1.698   3.972 -0.5541 -1.3111 -0.5558
 6207SOL     OW30253   0.137   3.294   5.795  0.4871 -0.0613 -0.1477
 6207SOL    HW130254   0.053   3.333   5.769  0.3819  0.1887  0.5603
 6207SOL    HW230255   0.124   3.284   5.889  0.4085 -2.1501 -0.3797
 6208SOL     OW30256   2.292   4.358  17.551  0.1490  0.3330 -0.4262
 6208SOL    HW130257   2.217   4.320  17.506 -0.1213 -0.4776  0.6916
 6208SOL    HW230258   2.340   4.406  17.483  0.9218  0.8530  0.4760
 6209SOL     OW30259   4.323   4.106   3.021 -0.2823  0.1307 -0.0385
 6209SOL    HW130260   4.377   4.170   2.975 -1.2849  0.2481 -1.0580
 6209SOL    HW230261   4.388   4.056   3.071  0.1559  0.1673 -0.5696
 6210SOL     OW30262   4.615   3.564   3.316  0.2211 -0.0260 -0.0708
 6210SOL    HW130263   4.706   3.541   3.335 -0.9644 -4.9479 -0.1604
 6210SOL    HW230264   4.614   3.657   3.335 -0.2610 -0.2169  0.8171
 6211SOL     OW30265   0.310   3.284   5.014 -0.3573  0.3453  0.1023
 6211SOL    HW130266   0.284   3.270   5.105  0.2996  0.3324  0.2874
 6211SOL    HW230267   0.237   3.235   4.975 -1.2806 -1.6050  4.2784
 6212SOL     OW30268   3.090   3.801   5.153 -0.2712  0.3020  0.1985
 6212SOL    HW130269   3.031   3.801   5.078  1.3668  2.1751 -1.0952
 6212SOL    HW230270   3.078   3.891   5.183 -1.1990  1.0488 -2.4193
 6213SOL     OW30271   3.273   0.866   3.957 -0.0447  0.0004  0.3242
 6213SOL    HW130272   3.215   0.939   3.977 -1.0161 -0.3044 -1.3738
 6213SOL    HW230273   3.224   0.789   3.986 -1.3975 -0.4429 -3.1311
 6214SOL     OW30274   4.044   3.711   8.584 -0.2928 -0.0679 -0.1586
 6214SOL    HW130275   3.976   3.705   8.651  0.6578 -1.9719  0.6697
 6214SOL    HW230276   3.989   3.705   8.506 -0.2733  2.0675 -0.3152
 6215SOL     OW30277   0.534   1.976   2.650 -0.4048 -0.0927  0.1409
 6215SOL    HW130278   0.616   1.970   2.602 -0.5983 -1.7852  0.0297
 6215SOL    HW230279   0.511   2.068   2.638 -0.5402 -0.3249 -1.3463
 6216SOL     OW30280   1.632   3.980   5.617 -0.5171 -0.1276  0.2882
 6216SOL    HW130281   1.606   4.045   5.551 -1.8183 -1.2369 -0.2969
 6216SOL    HW230282   1.712   4.018   5.654 -1.8936  1.1506  1.9300
 6217SOL     OW30283   1.296   4.554  17.255  0.1625 -0.1339  0.5696
 6217SOL    HW130284   1.205   4.524  17.252  0.4891 -1.0564 -0.1170
 6217SOL    HW230285   1.338   4.524  17.336 -1.9433  0.8207  1.9896
 6218SOL     OW30286   2.936   4.007  14.674  0.2765  0.5645 -0.0461
 6218SOL    HW130287   2.874   4.041  14.609 -0.6181  1.2053  1.1552
 6218SOL    HW230288   2.878   3.976  14.743  2.0248 -0.6711  0.8818
 6219SOL     OW30289   2.974   3.872   4.193 -0.1469 -0.0296 -0.2031
 6219SOL    HW130290   2.935   3.939   4.250  2.0040  0.7454  0.3588
 6219SOL    HW230291   2.984   3.805   4.261 -0.7181 -1.2563 -1.3220
 6220SOL     OW30292   4.314   3.604   8.535  0.5714 -0.2122  0.6211
 6220SOL    HW130293   4.222   3.631   8.534  0.5970 -0.2027 -1.6985
 6220SOL    HW230294   4.333   3.576   8.625 -2.0022 -3.2011  0.2076
 6221SOL     OW30295   1.230   3.755   9.342  0.1022 -0.4971  0.2053
 6221SOL    HW130296   1.265   3.677   9.384 -1.7820 -1.6150 -0.2836
 6221SOL    HW230297   1.213   3.723   9.253 -0.1350  1.8298 -0.5937
 6222SOL     OW30298   1.507   1.973   6.620 -0.2054  0.1773  0.3980
 6222SOL    HW130299   1.512   1.895   6.566 -1.0618  0.1003  0.4252
 6222SOL    HW230300   1.534   2.050   6.570  0.5558 -1.3060 -1.4658
 6223SOL     OW30301   1.207   3.905   3.003 -0.2117  0.2773 -0.9986
 6223SOL    HW130302   1.244   3.983   2.961  1.6642 -0.0064  0.1183
 6223SOL    HW230303   1.115   3.930   2.997  0.3624  2.2379 -1.7275
 6224SOL     OW30304   1.026   3.463   3.852  0.0024 -0.0041 -0.2887
 6224SOL    HW130305   0.978   3.434   3.930 -0.6530 -1.6324 -1.2899
 6224SOL    HW230306   0.953   3.488   3.794 -0.7790  0.1429  0.7632
 6225SOL     OW30307   4.157   3.056   5.166 -0.2825 -0.0728  0.1512
 6225SOL    HW130308   4.238   3.088   5.126  0.0491 -1.6276 -0.4448
 6225SOL    HW230309   4.160   3.110   5.245  2.9391 -0.8863  0.5658
 6226SOL     OW30310   1.602   2.147   3.478  0.4861 -0.6680  0.0353
 6226SOL    HW130311   1.563   2.071   3.520  0.0518 -1.1457 -1.2353
 6226SOL    HW230312   1.655   2.181   3.550 -1.0662  2.3563 -0.2609
 6227SOL     OW30313   4.387   2.330   0.677 -0.4948 -0.9116  0.1369
 6227SOL    HW130314   4.473   2.371   0.674 -1.3969  1.0345  1.2880
 6227SOL    HW230315   4.331   2.393   0.632  1.5208  1.4792  1.0398
 6228SOL     OW30316   3.493   3.844   8.817 -0.0360 -0.1759  0.0054
 6228SOL    HW130317   3.568   3.902   8.819  1.4418 -2.1615  2.0195
 6228SOL    HW230318   3.499   3.819   8.725 -2.2898  1.4566 -0.5869
 6229SOL     OW30319   2.385   1.729   7.390 -0.0606 -0.0708  0.2913
 6229SOL    HW130320   2.393   1.824   7.375 -0.7265 -0.3404 -1.7780
 6229SOL    HW230321   2.309   1.694   7.343 -0.1778 -1.1023  1.2352
 6230SOL     OW30322   1.738   3.448  12.746 -0.6172  0.1814  0.4771
 6230SOL    HW130323   1.814   3.391  12.743 -1.0570 -0.5334  2.5186
 6230SOL    HW230324   1.760   3.508  12.675 -0.2179 -1.4809 -0.8020
 6231SOL     OW30325   1.395   1.286   4.997  0.6513  0.3636 -0.0276
 6231SOL    HW130326   1.338   1.283   4.920 -0.6609  2.3114  0.8513
 6231SOL    HW230327   1.469   1.340   4.970 -0.0334  1.5341  0.4412
 6232SOL     OW30328   0.185   1.706   9.827 -0.4676  0.0883 -0.5050
 6232SOL    HW130329   0.229   1.768   9.769 -0.2519 -0.6890 -1.1791
 6232SOL    HW230330   0.256   1.643   9.844 -3.5659 -2.5453  2.5338
 6233SOL     OW30331   3.195   2.526  11.838  0.9297 -0.4828 -0.4456
 6233SOL    HW130332   3.200   2.607  11.889  2.0444 -0.2961 -0.8576
 6233SOL    HW230333   3.137   2.471  11.891 -0.4555  1.1222 -0.2922
 6234SOL     OW30334   0.620   4.656   3.011 -0.3369 -0.2848  0.0674
 6234SOL    HW130335   0.654   4.572   3.041 -1.9540 -0.2591  1.9728
 6234SOL    HW230336   0.702   4.691   2.977  0.9384 -4.7213 -1.3554
 6235SOL     OW30337   3.014   3.408   3.830 -0.6862 -0.5528 -0.1571
 6235SOL    HW130338   2.939   3.459   3.799 -0.7947 -0.4857  0.2121
 6235SOL    HW230339   3.020   3.378   3.739 -0.7825 -1.3594  0.1087
 6236SOL     OW30340   0.417   1.753   3.399  0.2971 -0.0685 -0.5823
 6236SOL    HW130341   0.358   1.717   3.466  1.4338  1.3845  1.2226
 6236SOL    HW230342   0.365   1.804   3.338  0.6653  1.8864  0.7511
 6237SOL     OW30343   3.837   1.315   3.901  0.6203 -0.1633  0.0076
 6237SOL    HW130344   3.785   1.339   3.825 -1.1429 -0.4062  1.1343
 6237SOL    HW230345   3.778   1.268   3.960  0.5090  0.4821  0.4053
 6238SOL     OW30346   4.351   0.177   7.550 -0.6413  0.0782 -0.5833
 6238SOL    HW130347   4.428   0.186   7.494  1.3121 -2.1378  1.7308
 6238SOL    HW230348   4.343   0.272   7.549  0.8172  0.1654 -3.3967
 6239SOL     OW30349   3.941   4.262  15.567 -0.4056 -0.1967  0.6742
 6239SOL    HW130350   3.937   4.355  15.590  0.5939  0.2415 -0.9171
 6239SOL    HW230351   4.010   4.242  15.631  0.1676 -1.4304 -0.3203
 6240SOL     OW30352   1.563   0.334  14.176  0.2238  1.2261 -0.3656
 6240SOL    HW130353   1.629   0.380  14.228 -0.1341 -0.0337  1.1984
 6240SOL    HW230354   1.481   0.365  14.214 -0.1682  0.7090 -0.7859
 6241SOL     OW30355   2.860   1.247  11.263  0.5977  0.6203  0.2831
 6241SOL    HW130356   2.902   1.213  11.343  2.5487  1.4330 -0.4005
 6241SOL    HW230357   2.793   1.303  11.303 -0.9262 -0.1516 -1.1968
 6242SOL     OW30358   2.335   3.077   1.810  0.3313 -0.1964 -0.1443
 6242SOL    HW130359   2.336   2.996   1.759 -0.2538 -0.3768  0.1350
 6242SOL    HW230360   2.244   3.104   1.803  0.0310 -0.9163  0.9993
 6243SOL     OW30361   0.760   4.076   4.294 -0.6298 -0.2881  0.1224
 6243SOL    HW130362   0.688   4.016   4.273 -1.8765  0.5361  2.0809
 6243SOL    HW230363   0.763   4.117   4.208 -1.8533 -1.2219 -0.3713
 6244SOL     OW30364   3.423   3.625   3.563 -0.2002  0.4396  0.1667
 6244SOL    HW130365   3.518   3.633   3.550 -0.3567 -1.4583 -1.8783
 6244SOL    HW230366   3.425   3.584   3.650 -1.4678  0.6414  0.2941
 6245SOL     OW30367   0.539   0.102   7.168 -0.2235  0.4957  0.0184
 6245SOL    HW130368   0.625   0.073   7.199 -1.0836 -1.7255  0.3563
 6245SOL    HW230369   0.499   0.140   7.246 -1.8081 -2.7467  0.7891
 6246SOL     OW30370   3.207   1.961  16.410  0.5600 -0.3498 -0.1383
 6246SOL    HW130371   3.210   1.865  16.413  0.0642 -0.3660 -0.1922
 6246SOL    HW230372   3.294   1.987  16.381  1.2839 -0.7083  1.7159
 6247SOL     OW30373   0.094   2.482   1.678 -0.1925  0.2831  0.0335
 6247SOL    HW130374   0.187   2.460   1.667 -0.1354 -0.3707  1.8791
 6247SOL    HW230375   0.058   2.398   1.705  2.0555 -0.1453  1.6331
 6248SOL     OW30376   0.928   4.517   6.384  0.0105 -0.1761  0.0438
 6248SOL    HW130377   0.861   4.452   6.364  0.8104 -1.6616  2.1677
 6248SOL    HW230378   0.959   4.478   6.466  0.2749 -1.7945 -0.8382
 6249SOL     OW30379   2.785   1.845   0.809 -0.0120 -0.4536  0.1626
 6249SOL    HW130380   2.768   1.778   0.742 -0.5101 -0.1520 -0.0121
 6249SOL    HW230381   2.846   1.899   0.758  0.5290 -0.9812  0.2474
 6250SOL     OW30382   2.803   4.598   4.748  0.6743  0.2554  0.1114
 6250SOL    HW130383   2.815   4.692   4.761  1.7342 -0.0191  1.0969
 6250SOL    HW230384   2.868   4.557   4.805 -0.1395 -0.7065  0.3463
 6251SOL     OW30385   1.533   3.714   5.598  0.0219  0.2139  0.1368
 6251SOL    HW130386   1.571   3.802   5.591 -0.6644  0.8087  3.9830
 6251SOL    HW230387   1.597   3.660   5.644  0.5116  1.1340  0.5220
 6252SOL     OW30388   4.733   1.825  16.331  0.5817 -0.8013  0.4276
 6252SOL    HW130389   0.048   1.779  16.265  1.7865  0.4825  0.4780
 6252SOL    HW230390   4.670   1.763  16.368  1.8031 -1.3681  1.5712
 6253SOL     OW30391   0.531   4.414  16.212 -0.0494  0.8823 -0.0636
 6253SOL    HW130392   0.602   4.377  16.160 -1.1768 -0.6497 -0.5183
 6253SOL    HW230393   0.494   4.335  16.250 -0.3582  1.6000  1.1244
 6254SOL     OW30394   0.510   1.858   8.917  0.0098 -0.6880  0.4327
 6254SOL    HW130395   0.461   1.896   8.990  1.2006  0.5045  0.6255
 6254SOL    HW230396   0.539   1.941   8.880 -2.1789 -0.3014 -0.3718
 6255SOL     OW30397   2.119   0.706   3.961 -0.0530 -0.0656  0.9739
 6255SOL    HW130398   2.064   0.636   3.996  0.2205  0.3096  2.1711
 6255SOL    HW230399   2.086   0.706   3.872  1.7379 -1.1829  0.3164
 6256SOL     OW30400   3.808   3.580  12.269  0.1170 -0.0765 -0.3796
 6256SOL    HW130401   3.881   3.518  12.268 -0.0809 -0.3202 -0.0438
 6256SOL    HW230402   3.803   3.593  12.174  0.5679 -0.8241 -0.5017
 6257SOL     OW30403   0.268   3.028   2.315  0.6149  0.4854 -0.1559
 6257SOL    HW130404   0.250   3.000   2.405  0.4105 -1.7811 -0.9002
 6257SOL    HW230405   0.189   3.011   2.263  0.4280  1.0776 -0.0682
 6258SOL     OW30406   3.597   2.737  17.131  0.4926  0.4088 -0.2072
 6258SOL    HW130407   3.640   2.718  17.214 -0.2175  3.2143  0.7982
 6258SOL    HW230408   3.649   2.809  17.094 -0.5440  0.3376 -1.8297
 6259SOL     OW30409   2.824   1.513   9.174 -0.1068  0.1761  0.0801
 6259SOL    HW130410   2.785   1.463   9.246 -0.4471 -1.5005 -1.2578
 6259SOL    HW230411   2.840   1.450   9.103 -0.1447  1.5654 -1.1573
 6260SOL     OW30412   3.713   0.465   8.552  0.5096  0.1069 -0.1956
 6260SOL    HW130413   3.755   0.498   8.473 -0.1990  2.2957  0.3261
 6260SOL    HW230414   3.754   0.526   8.614 -0.4966  0.9954 -0.3906
 6261SOL     OW30415   0.257   2.785   2.473  0.2553 -0.0407 -0.8645
 6261SOL    HW130416   0.311   2.719   2.429  0.5597 -0.2943 -0.1063
 6261SOL    HW230417   0.181   2.790   2.415 -0.7917  2.0488  0.7023
 6262SOL     OW30418   4.463   4.652   7.710 -0.2720  0.3379  0.3805
 6262SOL    HW130419   4.403   4.726   7.723 -1.9276 -1.2628  1.7776
 6262SOL    HW230420   4.510   4.654   7.793  2.5871  2.5212 -1.2716
 6263SOL     OW30421   3.533   0.390   1.133 -0.5907 -0.5646 -0.2204
 6263SOL    HW130422   3.535   0.304   1.174  2.1531  0.1392  1.1731
 6263SOL    HW230423   3.443   0.398   1.104  0.6752  3.5646 -2.9873
 6264SOL     OW30424   1.417   3.952   6.055  0.0561 -0.0789  0.6781
 6264SOL    HW130425   1.417   3.960   5.959 -0.8279  0.2871  0.7039
 6264SOL    HW230426   1.389   4.041   6.077  1.2117  0.1577  1.1882
 6265SOL     OW30427   2.484   1.630   5.217 -0.3038  0.4935 -0.1167
 6265SOL    HW130428   2.488   1.540   5.250 -2.1804  1.5293  2.9518
 6265SOL    HW230429   2.426   1.680   5.274 -1.4113 -2.2612  1.2040
 6266SOL     OW30430   0.054   3.125  14.268  0.2589 -0.1303 -0.3876
 6266SOL    HW130431   0.012   3.119  14.182  0.6680 -0.4264 -0.5667
 6266SOL    HW230432   0.133   3.080  14.240 -0.2316 -1.3830  0.2611
 6267SOL     OW30433   3.383   0.322   8.050  0.2619 -0.2960  0.0854
 6267SOL    HW130434   3.412   0.410   8.073  2.1160 -1.6498  2.9145
 6267SOL    HW230435   3.367   0.289   8.138 -1.5123  1.1493  0.2983
 6268SOL     OW30436   4.673   2.483   2.290 -0.0694  0.0020  0.0285
 6268SOL    HW130437   0.011   2.477   2.231  0.6144 -2.2162  1.0897
 6268SOL    HW230438   4.604   2.468   2.226 -0.1158  1.9861 -0.3830
 6269SOL     OW30439   3.819   0.022   2.875  0.2656  0.4002 -0.3158
 6269SOL    HW130440   3.746   0.082   2.886  0.5422  0.5541  0.6823
 6269SOL    HW230441   3.887   0.069   2.924 -0.3652 -1.1837  2.0863
 6270SOL     OW30442   2.916   1.892  12.139 -0.0683  0.5547 -0.7028
 6270SOL    HW130443   2.996   1.911  12.091 -0.1884 -0.7719 -1.4265
 6270SOL    HW230444   2.949   1.852  12.219  2.0886  3.5560 -0.1310
 6271SOL     OW30445   1.075   2.604   8.926  0.7783 -0.0362 -0.3212
 6271SOL    HW130446   1.042   2.530   8.977 -0.9273 -0.0525 -1.4647
 6271SOL    HW230447   1.005   2.623   8.864 -0.7833 -1.6047  0.9589
 6272SOL     OW30448   3.296   2.756   2.707 -0.0689  0.7199 -0.0423
 6272SOL    HW130449   3.290   2.662   2.719  0.4488  0.3161 -2.9274
 6272SOL    HW230450   3.376   2.777   2.755 -0.6893  0.3570  1.1448
 6273SOL     OW30451   1.460   1.664  12.111  0.4197 -0.3874 -0.7437
 6273SOL    HW130452   1.441   1.749  12.153 -1.5042 -0.0831 -2.2681
 6273SOL    HW230453   1.537   1.687  12.059  0.0277  0.5940 -0.8987
 6274SOL     OW30454   0.256   3.249   0.526 -0.2133  0.1414 -0.0753
 6274SOL    HW130455   0.162   3.236   0.536  0.1752 -0.9330  2.2856
 6274SOL    HW230456   0.261   3.300   0.445  0.3951 -2.0356 -1.4072
 6275SOL     OW30457   0.990   0.056   7.208 -0.3731 -0.3719 -0.1274
 6275SOL    HW130458   1.036   4.727   7.259 -1.3590 -1.3524 -0.5356
 6275SOL    HW230459   1.059   0.120   7.187  0.5678 -0.9083  1.3156
 6276SOL     OW30460   0.167   3.368  12.460 -0.1856 -0.6552  0.0414
 6276SOL    HW130461   0.108   3.417  12.516 -0.6832 -1.5694  0.3176
 6276SOL    HW230462   0.126   3.281  12.464  1.3533 -1.1992  3.6642
 6277SOL     OW30463   4.688   2.607   8.198  0.6725 -0.9578  0.1572
 6277SOL    HW130464   4.605   2.644   8.166  0.9045  2.2277  3.2428
 6277SOL    HW230465   4.710   2.674   8.263 -0.5931  0.9402 -1.3682
 6278SOL     OW30466   3.868   2.875   6.671 -0.7144  0.0985 -0.0705
 6278SOL    HW130467   3.810   2.940   6.630  0.3321  2.0052  1.4584
 6278SOL    HW230468   3.948   2.927   6.682  0.5917 -1.1820 -3.5251
 6279SOL     OW30469   1.816   2.139   4.978  0.2869 -0.2423 -0.7607
 6279SOL    HW130470   1.752   2.068   4.976 -2.1181  1.9487 -0.6352
 6279SOL    HW230471   1.877   2.111   4.910  0.2808  2.0019 -1.7007
 6280SOL     OW30472   1.238   1.884  13.080 -0.2989 -0.7805 -0.1021
 6280SOL    HW130473   1.201   1.818  13.022  0.4645 -1.6719  0.4306
 6280SOL    HW230474   1.175   1.871  13.151  1.4852 -1.1545  1.4044
 6281SOL     OW30475   2.947   2.180   0.548 -0.5627  0.0613  0.0498
 6281SOL    HW130476   2.887   2.223   0.608  0.9262  1.7626  0.3270
 6281SOL    HW230477   2.975   2.106   0.602 -0.7333 -0.1489 -0.1499
 6282SOL     OW30478   0.721   4.623   4.401  0.1118 -0.1690 -0.3398
 6282SOL    HW130479   0.743   4.534   4.429  0.5925  1.1488  3.4084
 6282SOL    HW230480   0.648   4.598   4.344 -1.3681  3.0975  0.1571
 6283SOL     OW30481   2.166   0.702  14.896 -0.2764  0.5252  0.2602
 6283SOL    HW130482   2.089   0.755  14.918  0.0774  1.4785 -0.8058
 6283SOL    HW230483   2.133   0.624  14.851  2.1362  0.3813 -1.2468
 6284SOL     OW30484   3.773   0.653   8.925 -0.1619  0.1997 -0.2807
 6284SOL    HW130485   3.707   0.698   8.872  0.9219  0.3090 -1.5371
 6284SOL    HW230486   3.793   0.721   8.990  0.1246 -0.1766  0.0239
 6285SOL     OW30487   2.108   2.772   3.694 -0.3462  0.3824  0.7815
 6285SOL    HW130488   2.043   2.791   3.627  1.0797 -0.0325 -0.7282
 6285SOL    HW230489   2.062   2.790   3.776 -2.9186  0.8824 -0.7530
 6286SOL     OW30490   2.388   3.122   4.608  0.2344 -0.3098  0.6971
 6286SOL    HW130491   2.461   3.183   4.607 -0.7356  0.8007 -2.1629
 6286SOL    HW230492   2.388   3.100   4.515 -2.0605 -1.8105  1.0367
 6287SOL     OW30493   3.656   0.421   4.744  0.0231  0.2553 -0.1078
 6287SOL    HW130494   3.597   0.455   4.676 -0.1120 -1.2697 -0.7574
 6287SOL    HW230495   3.737   0.467   4.725 -0.0064  0.2837 -0.1629
 6288SOL     OW30496   3.473   1.103   0.502  0.0729  0.0420 -0.2916
 6288SOL    HW130497   3.560   1.142   0.501  0.2845 -0.4298  0.0784
 6288SOL    HW230498   3.459   1.107   0.407  0.1602  2.3428 -0.2221
 6289SOL     OW30499   0.592   2.269   5.742 -0.3369 -0.0750  0.0358
 6289SOL    HW130500   0.576   2.187   5.696 -0.5448  0.1670 -0.3230
 6289SOL    HW230501   0.626   2.246   5.828  0.0560  1.2746  0.2429
 6290SOL     OW30502   3.492   4.374   5.650 -0.1628  0.7220  0.0734
 6290SOL    HW130503   3.485   4.389   5.745 -0.1916 -2.5203  0.5736
 6290SOL    HW230504   3.560   4.308   5.655  1.1661  1.9339 -1.9511
 6291SOL     OW30505   4.696   2.239   3.095 -0.4933 -0.0677 -0.1222
 6291SOL    HW130506   4.636   2.275   3.030 -1.0298  0.4102  0.6287
 6291SOL    HW230507   4.646   2.243   3.177 -0.9604  0.7995 -0.4519
 6292SOL     OW30508   2.275   4.689   8.802 -0.1184  0.5270  0.3065
 6292SOL    HW130509   2.182   4.702   8.815  0.6830  3.1369  3.2988
 6292SOL    HW230510   2.307   0.041   8.813  0.9441  0.3969 -1.6373
 6293SOL     OW30511   4.592   3.916   2.227  0.0333 -0.3171 -0.5060
 6293SOL    HW130512   4.635   3.920   2.141  0.4276  1.8603 -0.2086
 6293SOL    HW230513   4.551   3.830   2.226 -0.2660 -0.2005  1.1540
 6294SOL     OW30514   1.710   1.072   6.556  0.3470  0.5354  1.0587
 6294SOL    HW130515   1.714   1.030   6.642  0.1689 -2.2666 -0.2983
 6294SOL    HW230516   1.711   1.160   6.593  0.7596  0.3103  1.5860
 6295SOL     OW30517   4.406   0.312   9.327  0.6174  0.4151 -0.1480
 6295SOL    HW130518   4.475   0.286   9.388  1.3768  0.7610 -0.8721
 6295SOL    HW230519   4.449   0.307   9.241  0.8936  0.8031 -0.0303
 6296SOL     OW30520   1.278   2.078   7.170 -0.2406  0.2531 -0.4325
 6296SOL    HW130521   1.243   2.095   7.257 -0.0636  3.6242 -1.0194
 6296SOL    HW230522   1.372   2.087   7.185 -0.1384  1.3558 -1.7038
 6297SOL     OW30523   1.593   1.899   5.668 -0.4149 -0.4756  0.2653
 6297SOL    HW130524   1.500   1.907   5.692 -0.4631  1.2745 -0.5197
 6297SOL    HW230525   1.631   1.967   5.723  2.2326 -1.0303 -0.8784
 6298SOL     OW30526   3.490   1.731   8.018 -0.1296 -0.0840 -0.6986
 6298SOL    HW130527   3.484   1.671   8.092 -3.3352 -0.3617 -1.2096
 6298SOL    HW230528   3.524   1.804   8.070 -1.7923 -1.1942  1.9354
 6299SOL     OW30529   4.269   2.539  13.030 -0.2078 -0.1543 -0.8887
 6299SOL    HW130530   4.357   2.501  13.023 -0.0715  0.0506 -0.2575
 6299SOL    HW230531   4.219   2.517  12.952  0.8014 -0.0618 -1.5582
 6300SOL     OW30532   2.764   2.761   4.422  0.3447  0.1647 -0.2616
 6300SOL    HW130533   2.775   2.849   4.386  0.9784  0.7220  1.2874
 6300SOL    HW230534   2.681   2.778   4.467  0.1881  2.4668 -1.3929
 6301SOL     OW30535   3.560   3.278  14.770  0.7849  0.4555 -0.4005
 6301SOL    HW130536   3.600   3.228  14.842 -2.1320  0.1536  0.9951
 6301SOL    HW230537   3.630   3.331  14.732 -0.2689 -0.0304 -3.0389
 6302SOL     OW30538   2.788   3.452   9.397  0.2670  0.0686 -0.0405
 6302SOL    HW130539   2.772   3.522   9.460 -2.7780 -0.2512 -0.4634
 6302SOL    HW230540   2.768   3.377   9.453 -2.8937  0.2912 -0.8892
 6303SOL     OW30541   2.566   3.335   0.960  0.3033 -0.2664 -0.1333
 6303SOL    HW130542   2.573   3.363   0.869  1.4077 -0.5233 -0.1382
 6303SOL    HW230543   2.476   3.304   0.952  0.3266 -0.3918  0.0672
 6304SOL     OW30544   4.091   2.836  10.620  0.4384  0.1423 -0.0826
 6304SOL    HW130545   3.999   2.853  10.598 -0.0332  1.5313  2.9795
 6304SOL    HW230546   4.126   2.770  10.559  0.0462 -1.8573  1.8784
 6305SOL     OW30547   1.801   2.097   7.031  0.2704 -0.4376 -0.3416
 6305SOL    HW130548   1.871   2.106   6.967 -0.4515  1.9833 -0.8067
 6305SOL    HW230549   1.734   2.128   6.969 -1.5681 -3.2189  0.2359
 6306SOL     OW30550   2.687   1.884   4.304  0.0051  0.0075  0.1581
 6306SOL    HW130551   2.665   1.796   4.333 -2.8969  0.2649 -1.2808
 6306SOL    HW230552   2.768   1.908   4.350 -0.1060  2.6714 -0.9990
 6307SOL     OW30553   1.648   3.277   6.561  0.0132 -0.2602 -0.0054
 6307SOL    HW130554   1.644   3.251   6.469 -0.1723 -1.1532  0.2622
 6307SOL    HW230555   1.655   3.373   6.557  0.5831 -0.2824  0.3706
 6308SOL     OW30556   2.524   2.655   0.590 -0.2603 -0.0376  0.4785
 6308SOL    HW130557   2.474   2.603   0.527  0.9148  0.2930 -0.7481
 6308SOL    HW230558   2.460   2.721   0.618  0.1441  1.2390 -1.5837
 6309SOL     OW30559   4.669   4.142  14.881 -0.0129 -0.0049  0.4664
 6309SOL    HW130560   0.010   4.195  14.864  0.3405 -0.4857  0.5934
 6309SOL    HW230561   4.605   4.212  14.891  0.8943  0.8810  0.0887
 6310SOL     OW30562   1.859   2.185   8.725 -0.2914  0.7086 -0.1250
 6310SOL    HW130563   1.941   2.179   8.774  0.5798  1.3267 -1.4995
 6310SOL    HW230564   1.811   2.117   8.772  1.9470 -0.1157  0.9632
 6311SOL     OW30565   4.557   1.068   7.403  0.0965 -0.6878 -0.3190
 6311SOL    HW130566   4.517   1.149   7.371  2.6593 -0.1219 -2.0434
 6311SOL    HW230567   4.478   1.022   7.432 -0.6929  1.7156  1.4004
 6312SOL     OW30568   4.199   1.455   3.649 -0.0345  0.1463  0.5554
 6312SOL    HW130569   4.258   1.482   3.719  0.4269  0.9631 -0.1417
 6312SOL    HW230570   4.183   1.539   3.606 -0.0945  0.0851  0.4590
 6313SOL     OW30571   3.652   1.477   6.202  0.1139  0.0002  0.1563
 6313SOL    HW130572   3.674   1.556   6.252 -0.0683  1.9933 -2.8823
 6313SOL    HW230573   3.587   1.439   6.261 -0.1865  1.9846  1.1270
 6314SOL     OW30574   3.156   3.039   9.078 -0.2257 -0.1152 -0.2209
 6314SOL    HW130575   3.070   3.072   9.054 -0.2486  1.4143  2.0020
 6314SOL    HW230576   3.212   3.116   9.069  1.0885 -1.0782 -0.3025
 6315SOL     OW30577   1.933   2.038  10.195  0.2192 -0.3505 -0.3312
 6315SOL    HW130578   1.995   1.977  10.236 -0.9323 -0.7423  0.8576
 6315SOL    HW230579   1.994   2.094  10.148  0.0957 -1.2056 -1.4857
 6316SOL     OW30580   0.815   3.220   8.206 -0.6340 -0.1480  0.1676
 6316SOL    HW130581   0.793   3.160   8.277  2.3170  0.4756  1.6293
 6316SOL    HW230582   0.746   3.199   8.143  0.2075  0.6213 -1.0070
 6317SOL     OW30583   1.741   2.749   7.299  0.1277 -0.0197 -0.5779
 6317SOL    HW130584   1.664   2.726   7.351  0.1135 -0.8321 -0.9670
 6317SOL    HW230585   1.790   2.673   7.328 -2.7868 -1.5831  0.2885
 6318SOL     OW30586   1.263   2.897  13.800  0.0452 -0.3702 -0.1260
 6318SOL    HW130587   1.310   2.840  13.861  2.6790  0.4467 -1.4054
 6318SOL    HW230588   1.236   2.971  13.854  0.7458 -2.5259  3.2381
 6319SOL     OW30589   4.696   3.589   1.018 -0.5194  0.1566  0.5314
 6319SOL    HW130590   4.668   3.504   0.985  0.1624  0.5725 -1.1225
 6319SOL    HW230591   4.705   3.640   0.937  1.4172 -0.9130  0.0613
 6320SOL     OW30592   3.187   0.091  16.936 -0.2181  0.3531  0.3261
 6320SOL    HW130593   3.144   0.076  17.020  0.3187  1.5718  0.8155
 6320SOL    HW230594   3.253   0.022  16.931 -1.0134 -0.5229  1.8647
 6321SOL     OW30595   3.833   3.332   8.928 -0.1158  0.1839  0.7743
 6321SOL    HW130596   3.918   3.374   8.937 -0.9066  2.3745 -1.7781
 6321SOL    HW230597   3.853   3.249   8.970 -2.8237 -0.5235  0.6937
 6322SOL     OW30598   4.507   0.007   5.479 -0.1677  0.1658 -0.2820
 6322SOL    HW130599   4.512   0.102   5.469  3.7246  0.0099  0.1806
 6322SOL    HW230600   4.598   4.716   5.482  0.2532  1.7298  2.6509
 6323SOL     OW30601   0.692   2.759   2.983  0.1617  0.0623 -0.6332
 6323SOL    HW130602   0.670   2.727   2.895 -2.4121 -0.4856  0.2142
 6323SOL    HW230603   0.717   2.675   3.023 -0.9668 -0.6821 -1.4980
 6324SOL     OW30604   2.009   3.012  15.124 -0.4912 -0.5913 -0.3277
 6324SOL    HW130605   2.084   3.051  15.080 -0.0338 -1.7514 -0.5693
 6324SOL    HW230606   2.051   2.943  15.174  0.8152  0.8130  0.4974
 6325SOL     OW30607   0.420   0.566   2.556 -0.2654  0.3782  0.1677
 6325SOL    HW130608   0.453   0.653   2.535  2.4701  0.3432  4.2042
 6325SOL    HW230609   0.493   0.535   2.609 -1.0065 -2.7776 -0.6335
 6326SOL     OW30610   1.529   3.552  12.125  0.5658  0.5517  0.0257
 6326SOL    HW130611   1.569   3.475  12.166 -0.0126  0.5643  0.6040
 6326SOL    HW230612   1.478   3.505  12.060 -1.3812  1.2186  1.0644
 6327SOL     OW30613   1.366   0.340   7.657  0.0828 -0.5027  0.5965
 6327SOL    HW130614   1.299   0.273   7.674  0.0737 -0.3632  1.1140
 6327SOL    HW230615   1.316   0.419   7.681 -0.4739 -0.3291 -1.1347
 6328SOL     OW30616   4.583   0.582   8.721 -0.2317  0.3195  0.2610
 6328SOL    HW130617   4.542   0.502   8.753  0.4560  0.0593  0.4903
 6328SOL    HW230618   4.651   0.583   8.788 -1.1556  0.6167  1.2030
 6329SOL     OW30619   3.097   0.276   6.927  0.2441  0.2050  0.3445
 6329SOL    HW130620   3.049   0.349   6.965  0.0898 -0.2746  1.0697
 6329SOL    HW230621   3.074   0.200   6.982  1.0918  0.4516  1.0400
 6330SOL     OW30622   4.256   1.232   8.639 -0.2389 -0.1292 -0.2666
 6330SOL    HW130623   4.328   1.223   8.577 -0.9457 -0.5186 -1.0223
 6330SOL    HW230624   4.298   1.208   8.722  0.2531 -1.8244 -1.0120
 6331SOL     OW30625   3.543   3.731  15.003 -0.1690  0.1801  0.0722
 6331SOL    HW130626   3.527   3.823  15.027 -0.6292  0.1932 -0.2804
 6331SOL    HW230627   3.561   3.739  14.909  1.3774 -1.5985  0.2223
 6332SOL     OW30628   1.616   2.015   4.156  0.0319 -0.4736  0.2883
 6332SOL    HW130629   1.527   2.049   4.145 -0.1229 -0.4777  1.5524
 6332SOL    HW230630   1.668   2.093   4.174 -0.8343 -0.1411  1.3751
 6333SOL     OW30631   4.527   2.957   1.223  0.2399 -0.1820 -0.3846
 6333SOL    HW130632   4.447   2.960   1.171 -0.2906 -1.9707  0.3399
 6333SOL    HW230633   4.499   2.912   1.302  0.1584 -0.9358 -0.8421
 6334SOL     OW30634   2.075   0.133   2.367  0.4346 -0.2267  0.0437
 6334SOL    HW130635   2.103   0.189   2.440 -0.0709  2.1799 -1.6282
 6334SOL    HW230636   1.980   0.144   2.362  0.3712 -0.0794  1.5134
 6335SOL     OW30637   2.039   3.134   5.465 -0.3218 -0.7291 -0.0242
 6335SOL    HW130638   1.984   3.086   5.403 -0.3718  1.1744 -1.4711
 6335SOL    HW230639   1.989   3.216   5.473 -0.0009 -0.4350 -0.9892
 6336SOL     OW30640   2.469   0.600   6.388 -0.1037  0.1343 -0.0400
 6336SOL    HW130641   2.432   0.531   6.442  0.3976  0.5067  0.7972
 6336SOL    HW230642   2.549   0.616   6.439  0.0484  1.5258 -0.7037
 6337SOL     OW30643   0.793   1.988   8.123  0.0588 -0.2028  0.2988
 6337SOL    HW130644   0.765   2.059   8.180  2.1067  1.0175 -0.2108
 6337SOL    HW230645   0.771   1.909   8.173  0.1317  0.6795  1.7157
 6338SOL     OW30646   0.783   0.558  10.818  0.2369  0.1356  0.2304
 6338SOL    HW130647   0.729   0.575  10.895  0.2044 -1.0080  0.4612
 6338SOL    HW230648   0.740   0.473  10.809 -1.1847  0.7934  0.8101
 6339SOL     OW30649   2.818   2.601  17.243 -0.2064  0.1886  0.5306
 6339SOL    HW130650   2.795   2.684  17.203  0.5342 -1.0045 -2.3456
 6339SOL    HW230651   2.742   2.546  17.223  1.1004 -0.9254 -1.3318
 6340SOL     OW30652   2.367   4.451   2.924  0.4435  0.4862 -0.2990
 6340SOL    HW130653   2.406   4.365   2.905  1.5877  1.3780 -2.0732
 6340SOL    HW230654   2.442   4.509   2.909 -0.5366  2.1632  1.4976
 6341SOL     OW30655   2.422   2.042  12.569  0.3436  0.1734  0.6237
 6341SOL    HW130656   2.371   2.002  12.639  1.0527  1.0537  1.6403
 6341SOL    HW230657   2.415   2.137  12.578 -0.4556  0.3100 -1.3129
 6342SOL     OW30658   1.934   4.190  11.217  0.7204  0.0508 -0.4367
 6342SOL    HW130659   1.884   4.209  11.297  1.7410 -1.3811  0.5380
 6342SOL    HW230660   2.020   4.194  11.259 -0.6287 -0.2470  2.3619
 6343SOL     OW30661   1.780   3.006  12.418 -0.2461  0.5715  0.9250
 6343SOL    HW130662   1.845   2.937  12.407 -2.0964 -1.0328  0.0842
 6343SOL    HW230663   1.818   3.058  12.347  1.8227 -2.6348 -0.2917
 6344SOL     OW30664   0.597   3.034   6.157 -1.0924  0.2112 -0.1476
 6344SOL    HW130665   0.636   3.031   6.245 -1.2436  0.6679 -0.0608
 6344SOL    HW230666   0.665   3.086   6.114 -1.4596  0.2262 -0.6995
 6345SOL     OW30667   1.161   0.881   4.123  0.5707  0.1800 -0.2434
 6345SOL    HW130668   1.227   0.949   4.135 -0.4123  0.6517  2.2796
 6345SOL    HW230669   1.148   0.846   4.211  2.7399 -0.3994 -0.1505
 6346SOL     OW30670   3.243   2.090  17.310  0.3853  0.3540  0.5887
 6346SOL    HW130671   3.180   2.142  17.360 -0.1498  0.5413 -0.2946
 6346SOL    HW230672   3.189   2.054  17.240  0.3267 -0.2949  0.9635
 6347SOL     OW30673   0.571   4.089   0.780  0.2207  0.3860  0.3216
 6347SOL    HW130674   0.531   4.096   0.693  1.4594  3.8837  0.0183
 6347SOL    HW230675   0.600   3.998   0.781  0.3346  0.4013 -0.6894
 6348SOL     OW30676   0.247   4.346   1.426 -0.0008 -0.0463 -0.4599
 6348SOL    HW130677   0.263   4.362   1.519 -1.6653 -1.9367  0.1397
 6348SOL    HW230678   0.293   4.263   1.420  0.8816  0.3484  0.7907
 6349SOL     OW30679   2.554   3.942   1.619  0.1688  0.0986  0.3704
 6349SOL    HW130680   2.646   3.953   1.597  0.5186 -2.9171  0.3788
 6349SOL    HW230681   2.560   3.927   1.713  1.4349 -1.3144  0.0569
 6350SOL     OW30682   1.722   2.529   4.424  0.0889  0.3412 -0.6943
 6350SOL    HW130683   1.693   2.438   4.415 -0.3828  0.4947 -0.7266
 6350SOL    HW230684   1.766   2.534   4.508 -0.0487 -1.1415 -0.5393
 6351SOL     OW30685   2.894   4.659   6.066  0.3225  0.0470  0.1106
 6351SOL    HW130686   2.856   4.586   6.114 -1.2992  1.4058  0.8919
 6351SOL    HW230687   2.824   4.724   6.062 -0.6669 -1.2364 -3.1257
 6352SOL     OW30688   0.309   0.996   3.348  0.1636  0.2826 -0.3188
 6352SOL    HW130689   0.381   0.936   3.327  0.7631  1.0018 -0.3289
 6352SOL    HW230690   0.311   1.052   3.270 -3.2035 -0.8464 -1.2260
 6353SOL     OW30691   3.437   3.526   6.577  0.0041  0.7240  0.1239
 6353SOL    HW130692   3.382   3.547   6.502  0.0797 -1.6887 -0.6232
 6353SOL    HW230693   3.366   3.528   6.642 -1.5384  0.1309 -1.5421
 6354SOL     OW30694   2.629   0.545   8.182  0.5613  0.1743  0.6110
 6354SOL    HW130695   2.685   0.522   8.257  0.3985 -0.4343  0.5423
 6354SOL    HW230696   2.697   0.586   8.129  0.5312 -1.3501 -0.5813
 6355SOL     OW30697   1.454   1.088   8.242 -0.0367 -0.4855 -0.2539
 6355SOL    HW130698   1.391   1.121   8.305 -1.4639 -1.5540 -1.1221
 6355SOL    HW230699   1.482   1.008   8.286 -0.7645 -1.2797 -1.2221
 6356SOL     OW30700   0.389   4.689   4.479  0.4955 -0.5069 -0.0628
 6356SOL    HW130701   0.416   4.646   4.560  2.4071  1.0671  0.1450
 6356SOL    HW230702   0.456   4.662   4.416 -2.2779 -2.4899 -2.1047
 6357SOL     OW30703   3.692   2.194   3.205  0.4077  0.2459  0.3257
 6357SOL    HW130704   3.700   2.223   3.296 -0.7825 -0.6947  0.7328
 6357SOL    HW230705   3.749   2.118   3.203  0.6919  0.4961 -0.8400
 6358SOL     OW30706   3.910   3.563   4.912  0.3004  0.5141 -0.8751
 6358SOL    HW130707   3.847   3.635   4.914  0.0848  0.1824  3.2074
 6358SOL    HW230708   3.945   3.570   5.001 -1.3538  0.3576 -0.2024
 6359SOL     OW30709   3.669   4.170   6.978  0.4009  0.1686  0.2472
 6359SOL    HW130710   3.722   4.173   6.898 -1.3457  1.3200 -0.8655
 6359SOL    HW230711   3.649   4.262   6.999  0.0470 -0.0961  1.0491
 6360SOL     OW30712   3.446   3.022   1.481  0.4507  0.3287 -0.0988
 6360SOL    HW130713   3.492   3.003   1.563  1.6577 -0.3031 -0.9297
 6360SOL    HW230714   3.358   2.993   1.505  0.5032  2.3710  2.6430
 6361SOL     OW30715   1.156   2.633   6.328 -0.1221 -0.3893 -0.5662
 6361SOL    HW130716   1.167   2.679   6.244  5.4330  1.2168  1.0669
 6361SOL    HW230717   1.076   2.579   6.327 -0.1531 -0.3402 -0.9004
 6362SOL     OW30718   2.363   0.976  16.849  0.0125  0.0117  0.6125
 6362SOL    HW130719   2.429   1.009  16.788  0.9173 -1.4720  0.7895
 6362SOL    HW230720   2.307   1.052  16.863 -2.1015 -1.2794 -0.8919
 6363SOL     OW30721   1.799   2.137   8.406 -0.2286 -0.2278  0.1075
 6363SOL    HW130722   1.800   2.154   8.312  0.1652  0.2383  0.1968
 6363SOL    HW230723   1.854   2.206   8.443 -0.2356  0.2454 -0.7428
 6364SOL     OW30724   0.513   2.745   5.639  0.1930 -0.2504 -0.1238
 6364SOL    HW130725   0.534   2.659   5.675 -0.3137 -0.0579  0.6273
 6364SOL    HW230726   0.556   2.799   5.706 -2.0170 -0.4455  1.4562
 6365SOL     OW30727   3.501   3.064   5.543  0.0570  0.2143 -0.0448
 6365SOL    HW130728   3.478   3.155   5.523 -0.6153 -0.0510 -0.4788
 6365SOL    HW230729   3.489   3.074   5.637  0.6742 -0.7025  0.1299
 6366SOL     OW30730   4.099   4.664   4.383 -0.2802 -0.4605  0.1040
 6366SOL    HW130731   4.088   4.700   4.295  2.8760 -0.2552 -0.2306
 6366SOL    HW230732   4.051   4.582   4.372 -2.6000  0.5931  2.5669
 6367SOL     OW30733   4.256   3.555   0.487 -1.0624 -0.1585 -0.4959
 6367SOL    HW130734   4.313   3.564   0.410  2.3800 -1.0153  1.9715
 6367SOL    HW230735   4.172   3.524   0.453  0.1872 -2.5079 -1.5242
 6368SOL     OW30736   1.489   0.590   4.695  0.6887 -0.6419  0.1567
 6368SOL    HW130737   1.522   0.513   4.649 -0.6911 -1.6971  0.9310
 6368SOL    HW230738   1.520   0.661   4.639  0.2236 -1.6672 -1.4102
 6369SOL     OW30739   4.286   1.905   2.006  0.2858  0.5803 -0.0123
 6369SOL    HW130740   4.259   1.988   1.968 -1.8156  0.0839  0.4274
 6369SOL    HW230741   4.240   1.847   1.945  1.7138 -0.6547  0.0684
 6370SOL     OW30742   1.763   0.048  10.757  1.1112  0.2010 -0.1698
 6370SOL    HW130743   1.717   0.129  10.779  2.1589 -0.2508  3.7156
 6370SOL    HW230744   1.809   0.027  10.838  1.3884  1.5092  0.0135
 6371SOL     OW30745   0.848   2.832   6.047  0.3468  0.0050  0.2155
 6371SOL    HW130746   0.823   2.767   6.112 -0.9942  1.0250  0.7224
 6371SOL    HW230747   0.845   2.915   6.095  1.0445  0.6961 -0.9266
 6372SOL     OW30748   1.687   1.320   7.794 -0.0954  0.1998  0.2744
 6372SOL    HW130749   1.770   1.296   7.835  0.4699  2.2644  0.3502
 6372SOL    HW230750   1.638   1.364   7.863  1.6053  3.0218 -0.3148
 6373SOL     OW30751   3.663   3.462   4.597  0.8594  0.1799  0.1358
 6373SOL    HW130752   3.593   3.427   4.542  0.2089 -1.9658  2.3023
 6373SOL    HW230753   3.649   3.556   4.605  3.3367  0.5320  0.5374
 6374SOL     OW30754   0.826   1.032   4.468  0.0884  0.8334 -0.3674
 6374SOL    HW130755   0.846   1.090   4.394  2.0897 -0.7667 -1.0648
 6374SOL    HW230756   0.765   0.970   4.429  0.4411  0.6797 -0.6685
 6375SOL     OW30757   2.185   1.167   1.207 -0.5271  0.0902  0.6702
 6375SOL    HW130758   2.170   1.231   1.138 -3.0857 -0.0801  1.0389
 6375SOL    HW230759   2.096   1.135   1.221 -0.3968 -0.7680 -0.5255
 6376SOL     OW30760   3.350   3.197   3.051 -0.3645 -0.7594  0.6484
 6376SOL    HW130761   3.335   3.291   3.036  1.8842 -0.1318  2.3519
 6376SOL    HW230762   3.302   3.160   2.977 -0.9984 -0.8880  1.1266
 6377SOL     OW30763   0.449   2.330  16.510 -0.5780 -0.0300 -0.1892
 6377SOL    HW130764   0.412   2.281  16.584  0.9357 -1.0313 -0.0991
 6377SOL    HW230765   0.470   2.262  16.446 -4.3147 -0.0308 -1.4536
 6378SOL     OW30766   3.468   4.389   2.802  0.1015 -0.1624 -0.0509
 6378SOL    HW130767   3.458   4.337   2.723 -0.8136 -0.5351  0.3079
 6378SOL    HW230768   3.377   4.401   2.828  0.2849 -2.0600  1.4629
 6379SOL     OW30769   3.817   2.676   4.954 -1.0674  0.6434 -0.1724
 6379SOL    HW130770   3.853   2.763   4.940  2.3174 -0.7161  0.0879
 6379SOL    HW230771   3.733   2.693   4.997 -0.6682 -0.5639  1.0840
 6380SOL     OW30772   3.492   0.700  10.770 -0.3447 -0.0132 -0.5865
 6380SOL    HW130773   3.424   0.767  10.763  1.3505  1.9718  1.9023
 6380SOL    HW230774   3.513   0.702  10.863  1.6762 -1.0284 -1.0189
 6381SOL     OW30775   0.126   2.737   8.648  0.3431  0.8412 -0.2606
 6381SOL    HW130776   0.049   2.789   8.623 -1.2945 -1.6994 -0.4709
 6381SOL    HW230777   0.090   2.687   8.721 -1.1909  0.8526 -1.0098
 6382SOL     OW30778   2.122   1.215   4.950  0.2200  0.2327  0.4075
 6382SOL    HW130779   2.034   1.207   4.913  0.3071 -0.6933  0.4164
 6382SOL    HW230780   2.186   1.196   4.881 -1.8574  0.6422 -1.6286
 6383SOL     OW30781   1.241   3.345   5.783 -0.0583  0.9167  0.2280
 6383SOL    HW130782   1.201   3.429   5.804 -0.7841  0.1828  1.7736
 6383SOL    HW230783   1.251   3.315   5.873 -0.2740  0.3730  0.0713
 6384SOL     OW30784   0.920   2.773   8.189 -0.4425 -0.2852  0.0437
 6384SOL    HW130785   1.012   2.784   8.212 -0.8456  2.8485  0.1840
 6384SOL    HW230786   0.898   2.737   8.275 -1.6233 -0.9055 -0.5195
 6385SOL     OW30787   4.250   1.240   3.395 -0.3033 -0.3421 -0.1116
 6385SOL    HW130788   4.244   1.308   3.462  1.9227  0.1231 -0.3666
 6385SOL    HW230789   4.344   1.218   3.396 -0.7307 -2.2024 -0.4431
 6386SOL     OW30790   1.657   3.816   6.074  0.3835  0.0941  0.6071
 6386SOL    HW130791   1.573   3.858   6.054  1.1445  1.0981 -0.4934
 6386SOL    HW230792   1.701   3.880   6.129  0.0045  0.3854  0.5727
 6387SOL     OW30793   1.197   3.202   3.721  0.1149  0.1765 -0.1531
 6387SOL    HW130794   1.269   3.208   3.658  1.3676 -1.2196  1.1150
 6387SOL    HW230795   1.204   3.286   3.765 -2.2552  0.3320 -0.0862
 6388SOL     OW30796   4.504   2.979   5.805 -0.1840 -0.1463  0.7399
 6388SOL    HW130797   4.598   2.960   5.795  0.2080  1.5736  1.1390
 6388SOL    HW230798   4.461   2.894   5.795 -1.8392  1.2956 -4.0671
 6389SOL     OW30799   4.676   2.734   9.179  0.0718  0.0382 -0.6234
 6389SOL    HW130800   4.735   2.701   9.247  0.2600 -0.3127 -0.9529
 6389SOL    HW230801   4.677   2.829   9.183 -2.4833 -0.0741  2.6119
 6390SOL     OW30802   1.567   2.796  10.255 -0.6323 -0.0045  0.1390
 6390SOL    HW130803   1.656   2.800  10.220 -0.6707  2.3973  0.2848
 6390SOL    HW230804   1.543   2.705  10.240  0.5822  0.2617 -3.4104
 6391SOL     OW30805   1.637   1.591   1.205 -0.6683  0.3615  0.0387
 6391SOL    HW130806   1.611   1.557   1.290  0.8281 -2.7364 -0.7416
 6391SOL    HW230807   1.557   1.639   1.185 -1.6600 -0.6849  1.5871
 6392SOL     OW30808   2.939   4.623   6.893  0.0937 -0.2287 -0.1426
 6392SOL    HW130809   3.015   4.621   6.836  1.8321  2.1565  2.0492
 6392SOL    HW230810   2.931   4.718   6.901 -1.0655 -0.4650  1.6579
 6393SOL     OW30811   1.783   1.945   9.101  0.2818  0.0090 -0.0220
 6393SOL    HW130812   1.731   1.916   9.176 -0.9359 -1.8130 -1.5543
 6393SOL    HW230813   1.864   1.897   9.119 -1.6759 -3.1718  0.2386
 6394SOL     OW30814   2.906   3.036   3.665 -0.0245 -0.2380  0.4333
 6394SOL    HW130815   2.857   3.062   3.744 -0.2076 -1.6874  0.7821
 6394SOL    HW230816   2.969   3.108   3.656  1.5441 -1.8786 -1.4995
 6395SOL     OW30817   3.739   4.436  13.999 -0.0920 -0.0588  0.9494
 6395SOL    HW130818   3.678   4.506  14.022  0.0924  1.3077 -2.8396
 6395SOL    HW230819   3.776   4.474  13.919 -1.4484  0.0924  0.3997
 6396SOL     OW30820   0.088   1.947   7.882  0.4787  0.1877  0.2440
 6396SOL    HW130821   0.125   1.933   7.969  0.3522 -0.4258  0.1953
 6396SOL    HW230822   0.094   2.043   7.877  0.4180  0.1478 -0.6481
 6397SOL     OW30823   2.390   1.014   2.441  0.1465 -0.0506 -0.2304
 6397SOL    HW130824   2.483   1.037   2.448 -0.2639  1.4308  0.3576
 6397SOL    HW230825   2.357   1.098   2.409  0.2951  0.1534  0.1602
 6398SOL     OW30826   1.539   0.243  11.285 -0.0940 -0.3863 -0.2147
 6398SOL    HW130827   1.592   0.291  11.347  0.8088 -4.7206  2.3693
 6398SOL    HW230828   1.524   0.315  11.224  0.4630 -0.4334 -0.4026
 6399SOL     OW30829   2.555   2.755   9.830  0.4725 -0.6241 -0.5612
 6399SOL    HW130830   2.638   2.779   9.871 -0.0162 -2.4641  1.5260
 6399SOL    HW230831   2.565   2.796   9.744  0.2768  0.7192  0.0554
 6400SOL     OW30832   3.480   2.168  15.987  0.0897  0.4339  0.4374
 6400SOL    HW130833   3.512   2.198  15.902  0.1306 -1.0406 -0.0801
 6400SOL    HW230834   3.514   2.239  16.042 -1.2556  3.3001 -2.4745
 6401SOL     OW30835   2.784   1.933   1.512 -0.2980 -0.3581 -0.5564
 6401SOL    HW130836   2.706   1.884   1.484 -1.6672  0.9472  0.9496
 6401SOL    HW230837   2.843   1.863   1.541  0.7380  0.1339 -1.4975
 6402SOL     OW30838   4.545   0.811  11.990 -0.8129 -0.2865  0.1417
 6402SOL    HW130839   4.562   0.868  12.065  0.4825 -1.8942  1.0745
 6402SOL    HW230840   4.621   0.753  11.980 -1.0075 -0.7458  1.3494
 6403SOL     OW30841   3.521   3.839  13.536  0.1103  0.0134  0.2812
 6403SOL    HW130842   3.449   3.886  13.577  0.0437  1.5508 -1.5987
 6403SOL    HW230843   3.568   3.912  13.494  1.5184 -2.0064 -1.6257
 6404SOL     OW30844   0.221   0.443   9.411  0.0890 -0.0445 -0.8743
 6404SOL    HW130845   0.283   0.370   9.414  1.7629  1.3922 -0.3725
 6404SOL    HW230846   0.284   0.515   9.413 -0.1591  0.0581  2.0723
 6405SOL     OW30847   0.629   1.696   7.257  0.0830 -0.1216 -0.2769
 6405SOL    HW130848   0.646   1.634   7.187  0.8493 -1.4373  1.0864
 6405SOL    HW230849   0.540   1.669   7.280  0.0909  0.6506  0.6794
 6406SOL     OW30850   3.885   1.961   8.873  0.2310 -0.0394 -0.8844
 6406SOL    HW130851   3.882   2.027   8.803  2.8942  1.9174  0.8337
 6406SOL    HW230852   3.955   1.903   8.845  0.7918 -0.6661  1.7871
 6407SOL     OW30853   3.592   0.223   2.180 -0.0558  0.8570  0.1316
 6407SOL    HW130854   3.516   0.228   2.238  0.5146 -0.4096  0.9829
 6407SOL    HW230855   3.656   0.194   2.245 -0.6053  2.8512  1.5565
 6408SOL     OW30856   1.371   0.241   1.876 -0.4794 -0.2832  0.0927
 6408SOL    HW130857   1.350   0.158   1.919  1.6354 -0.8106  0.1097
 6408SOL    HW230858   1.337   0.223   1.789 -3.9807  0.9648  1.2089
 6409SOL     OW30859   2.161   1.067   4.089 -0.5230 -0.7201  0.0951
 6409SOL    HW130860   2.145   1.150   4.045  1.8220 -0.2301  0.1698
 6409SOL    HW230861   2.249   1.051   4.053 -0.6237 -1.1820  0.0543
 6410SOL     OW30862   1.972   1.240   5.928 -0.2653 -0.1861  0.2985
 6410SOL    HW130863   2.012   1.327   5.916  2.1298 -1.6075 -2.1172
 6410SOL    HW230864   2.053   1.195   5.951  1.2319  1.1671 -2.2951
 6411SOL     OW30865   4.326   0.454   7.620 -0.0631  0.4043  0.2672
 6411SOL    HW130866   4.297   0.449   7.712 -2.2040  2.5254 -0.3048
 6411SOL    HW230867   4.421   0.449   7.634  0.0189 -0.3635 -0.5947
 6412SOL     OW30868   1.454   1.937  12.147  0.0113 -0.1399 -0.0770
 6412SOL    HW130869   1.384   1.955  12.085  0.3035 -0.5994 -0.5362
 6412SOL    HW230870   1.534   1.966  12.103  0.4238 -1.1891 -0.0230
 6413SOL     OW30871   0.828   1.566  16.245 -0.3883  0.4099  0.6543
 6413SOL    HW130872   0.883   1.490  16.227 -2.1646 -0.8515  0.5627
 6413SOL    HW230873   0.786   1.592  16.162 -0.1537 -1.1970  0.0359
 6414SOL     OW30874   1.526   4.010  10.503  0.6711  0.1904  0.3730
 6414SOL    HW130875   1.521   3.964  10.419 -1.9173  0.9858  0.0850
 6414SOL    HW230876   1.615   4.041  10.519  0.4184  1.6675 -1.0642
 6415SOL     OW30877   1.471   0.593  14.442  0.1099  0.2353  0.3730
 6415SOL    HW130878   1.435   0.533  14.377  0.3260  1.6805 -1.0870
 6415SOL    HW230879   1.413   0.575  14.516 -1.5218  1.0794 -0.7001
 6416SOL     OW30880   0.413   2.708   8.718 -0.0699 -0.5805  0.0142
 6416SOL    HW130881   0.416   2.694   8.812  2.2102 -0.6203 -0.0836
 6416SOL    HW230882   0.317   2.715   8.712 -0.0263  0.6014  0.7155
 6417SOL     OW30883   2.543   0.306   6.947  0.4489 -0.3572 -0.1878
 6417SOL    HW130884   2.478   0.283   7.014  0.2403 -0.0534 -0.2883
 6417SOL    HW230885   2.529   0.235   6.884 -0.1286  2.0541 -2.7469
 6418SOL     OW30886   3.059   1.155   9.082 -0.3476  0.5161 -0.3534
 6418SOL    HW130887   3.113   1.171   9.159 -1.2115 -0.2619  0.4086
 6418SOL    HW230888   3.058   1.243   9.044  1.5532  1.6164  2.1673
 6419SOL     OW30889   3.060   2.037   8.249 -0.4984  0.3903 -0.8862
 6419SOL    HW130890   3.067   1.968   8.183  0.7085 -1.1447  0.8600
 6419SOL    HW230891   3.049   1.997   8.335 -2.4593  0.3863 -1.1371
 6420SOL     OW30892   2.190   3.895   2.820  0.2130 -0.2338  0.3564
 6420SOL    HW130893   2.190   3.821   2.882 -0.1401 -0.4433  0.1023
 6420SOL    HW230894   2.283   3.914   2.808 -0.4591  1.7097 -1.7651
 6421SOL     OW30895   4.015   4.496   6.282  0.5263 -0.9396  0.1536
 6421SOL    HW130896   3.958   4.545   6.223 -0.3189  0.2173  1.9379
 6421SOL    HW230897   3.975   4.508   6.368 -1.2297 -0.1430 -0.7566
 6422SOL     OW30898   0.275   3.054  10.777 -0.1054 -0.1167  0.0081
 6422SOL    HW130899   0.273   3.057  10.681  1.1325  0.9353  0.0190
 6422SOL    HW230900   0.196   3.002  10.791  0.4887 -0.2698  2.7003
 6423SOL     OW30901   3.981   2.216   1.432 -0.1034  0.0560  0.0185
 6423SOL    HW130902   3.889   2.205   1.408  0.2590  0.9788 -1.7621
 6423SOL    HW230903   4.020   2.292   1.389  0.6256  0.6379  1.6922
 6424SOL     OW30904   1.188   3.627   9.093  0.4610 -0.0780 -0.0948
 6424SOL    HW130905   1.159   3.712   9.058 -0.1400 -1.6180 -3.3207
 6424SOL    HW230906   1.234   3.589   9.019 -1.7613  0.3745 -1.7033
 6425SOL     OW30907   0.114   3.073  11.919  0.8346  0.3942 -0.4364
 6425SOL    HW130908   0.135   3.044  12.008 -0.9462 -0.2882 -0.2296
 6425SOL    HW230909   0.186   3.038  11.867 -0.9043 -0.9987 -1.8929
 6426SOL     OW30910   1.313   0.295  15.705  0.4886 -0.2161 -0.6179
 6426SOL    HW130911   1.335   0.224  15.645 -0.7516 -0.9142 -0.2452
 6426SOL    HW230912   1.394   0.299  15.757 -1.2615  1.1580  2.0326
 6427SOL     OW30913   3.220   2.780   7.641  0.0288  0.0279 -0.3351
 6427SOL    HW130914   3.300   2.815   7.680 -0.0995 -0.6425  0.5245
 6427SOL    HW230915   3.257   2.701   7.600 -0.2828 -0.0487 -0.4694
 6428SOL     OW30916   1.494   2.823   8.862  0.1394  0.4391  0.2107
 6428SOL    HW130917   1.570   2.765   8.874 -0.4813 -0.9170 -2.4867
 6428SOL    HW230918   1.423   2.760   8.865  0.4344  0.1483  1.0745
 6429SOL     OW30919   4.182   0.719   8.472  0.0863 -0.2354  0.1934
 6429SOL    HW130920   4.090   0.713   8.496  0.1977 -1.2943  0.3536
 6429SOL    HW230921   4.184   0.814   8.463  1.5706 -0.3590 -0.7754
 6430SOL     OW30922   4.358   2.817   1.399  0.5485  0.0455  0.1176
 6430SOL    HW130923   4.290   2.753   1.381 -0.5684  0.9366  1.1408
 6430SOL    HW230924   4.351   2.836   1.493  3.5518  1.3702  0.0821
 6431SOL     OW30925   0.864   1.313   9.431  0.2093  0.9838 -0.3363
 6431SOL    HW130926   0.861   1.320   9.335 -0.5466  1.5406 -0.2789
 6431SOL    HW230927   0.853   1.219   9.445 -1.5084  0.9496 -1.7516
 6432SOL     OW30928   0.006   4.362   5.264  0.1533  0.2324  0.0274
 6432SOL    HW130929   4.733   4.268   5.275 -0.6626  0.5662  2.1424
 6432SOL    HW230930   4.655   4.399   5.256  0.5146  0.5511 -2.5975
 6433SOL     OW30931   3.918   4.042   1.508  0.3102 -0.1135  0.4155
 6433SOL    HW130932   3.836   3.994   1.494 -0.5527  0.8957  2.0200
 6433SOL    HW230933   3.963   3.988   1.572 -0.0693 -1.9798 -0.8845
 6434SOL     OW30934   2.402   3.879   3.525 -0.1507 -0.1478 -0.4395
 6434SOL    HW130935   2.471   3.824   3.486 -0.1062 -0.7491  0.4825
 6434SOL    HW230936   2.327   3.820   3.532  0.2115 -0.6938 -1.2081
 6435SOL     OW30937   3.023   2.910   4.664 -0.1245  0.1795  0.7013
 6435SOL    HW130938   3.047   2.823   4.632  2.3770  0.4410  1.8304
 6435SOL    HW230939   3.042   2.963   4.586  2.4475  0.6563  1.6236
 6436SOL     OW30940   0.360   0.164  13.902 -0.0104  0.0399 -0.3736
 6436SOL    HW130941   0.354   0.077  13.940 -1.6311  0.6575  0.8361
 6436SOL    HW230942   0.407   0.210  13.972 -0.0485 -0.8098  0.2153
 6437SOL     OW30943   0.745   0.236   2.637 -0.4458  0.1868 -0.4570
 6437SOL    HW130944   0.839   0.240   2.653 -0.6672 -0.5313  0.9411
 6437SOL    HW230945   0.746   0.284   2.554 -2.4496  1.3027  0.1600
 6438SOL     OW30946   1.147   3.829   3.994 -0.7127  0.2991 -1.1163
 6438SOL    HW130947   1.110   3.748   4.029 -2.7611  1.0987 -1.4319
 6438SOL    HW230948   1.196   3.868   4.066  0.0772  0.5549 -1.7982
 6439SOL     OW30949   3.509   3.951   7.778  0.3935 -0.0723  0.0552
 6439SOL    HW130950   3.579   3.894   7.747 -0.3863 -0.3726 -1.1427
 6439SOL    HW230951   3.538   4.028   7.729 -0.0631  0.0003 -0.1061
 6440SOL     OW30952   0.551   2.336  16.051 -0.4501 -0.1873  0.1949
 6440SOL    HW130953   0.464   2.358  16.020 -1.2285 -2.4058  0.7942
 6440SOL    HW230954   0.579   2.414  16.100 -0.8581 -2.0694  3.4560
 6441SOL     OW30955   3.763   1.470   6.572  0.1001  0.1927  0.0768
 6441SOL    HW130956   3.751   1.530   6.646 -1.5542 -0.5138  0.3771
 6441SOL    HW230957   3.751   1.529   6.498  0.7363 -2.1699 -1.8858
 6442SOL     OW30958   2.015   2.748   3.151  0.2938  0.1525 -0.4520
 6442SOL    HW130959   1.934   2.720   3.109 -0.2778  0.3471  0.5268
 6442SOL    HW230960   2.026   2.677   3.216  0.9599 -0.6036 -1.3858
 6443SOL     OW30961   1.468   1.191   5.421 -0.1677  0.1814 -0.5709
 6443SOL    HW130962   1.439   1.239   5.498  0.5575  0.1726 -0.2901
 6443SOL    HW230963   1.394   1.190   5.361  1.1233  0.8607 -2.1699
 6444SOL     OW30964   3.491   2.970  10.300 -0.1337 -0.2493  0.1267
 6444SOL    HW130965   3.531   3.021  10.370 -2.9752  0.5530  1.1696
 6444SOL    HW230966   3.517   2.884  10.331 -2.3691 -0.8298  0.4006
 6445SOL     OW30967   3.632   2.108   5.107 -0.5123 -0.3027 -0.4375
 6445SOL    HW130968   3.699   2.146   5.051 -0.9650 -0.4648 -1.0915
 6445SOL    HW230969   3.672   2.022   5.122  0.4311  0.2959  0.4938
 6446SOL     OW30970   3.418   0.650   5.271  0.5508  0.2155 -0.0218
 6446SOL    HW130971   3.346   0.632   5.332  0.8180  1.4573  0.6564
 6446SOL    HW230972   3.392   0.735   5.236 -1.0727 -0.2299  0.0921
 6447SOL     OW30973   3.111   0.666   4.042 -0.0302 -0.5561 -0.1224
 6447SOL    HW130974   3.085   0.655   4.133  2.4264 -1.9675  0.4187
 6447SOL    HW230975   3.027   0.670   3.995  0.0177  4.6928  0.2861
 6448SOL     OW30976   0.604   4.309  15.062 -0.1997 -0.1400 -0.4802
 6448SOL    HW130977   0.590   4.248  15.134 -1.2823  1.7549  0.9360
 6448SOL    HW230978   0.683   4.353  15.095  0.1552 -3.2509  2.8220
 6449SOL     OW30979   0.758   0.106  15.252 -0.2242  0.2795 -0.0207
 6449SOL    HW130980   0.761   0.201  15.240  2.0140  0.2026 -0.0996
 6449SOL    HW230981   0.671   0.076  15.226 -0.0405  1.2697 -1.8213
 6450SOL     OW30982   2.529   0.335   9.223  0.5291 -0.6761  0.7091
 6450SOL    HW130983   2.582   0.414   9.215  0.5369 -0.6716  0.8102
 6450SOL    HW230984   2.586   0.282   9.166 -2.3051 -2.8156 -0.0996
 6451SOL     OW30985   0.418   4.186  16.304 -0.0389  0.2344  0.2135
 6451SOL    HW130986   0.426   4.155  16.394 -2.1180  1.2414  0.7580
 6451SOL    HW230987   0.385   4.107  16.261  1.3792 -0.1111 -0.2534
 6452SOL     OW30988   0.205   1.034   6.593 -0.1825  0.1093 -0.7554
 6452SOL    HW130989   0.128   1.010   6.644  0.9418 -2.5592 -0.3207
 6452SOL    HW230990   0.180   1.109   6.539 -0.2330 -0.8506 -2.0671
 6453SOL     OW30991   2.044   0.040   5.526 -0.0046 -0.4385  0.7975
 6453SOL    HW130992   2.067   0.075   5.440 -3.5864 -0.5509 -0.2245
 6453SOL    HW230993   2.062   4.686   5.506  0.8961  0.0705 -0.6969
 6454SOL     OW30994   4.373   4.588  16.466  0.1529  0.1381 -0.6357
 6454SOL    HW130995   4.424   4.527  16.414  0.1165  1.1608 -1.8780
 6454SOL    HW230996   4.397   4.554  16.552 -0.5505 -0.3276 -0.6185
 6455SOL     OW30997   2.128   3.247   6.471  0.1160  0.0742  0.6545
 6455SOL    HW130998   2.179   3.308   6.525 -0.6588  0.8441  0.5180
 6455SOL    HW230999   2.198   3.183   6.467 -0.4604 -0.5924  1.2693
 6456SOL     OW31000   1.319   1.836   6.793  0.7285 -0.7564  0.0591
 6456SOL    HW131001   1.396   1.891   6.778  1.2364 -1.1012  1.3450
 6456SOL    HW231002   1.355   1.752   6.765  3.0138 -0.0742  0.9349
 6457SOL     OW31003   1.287   1.930   7.614  0.3712  0.2533  0.4813
 6457SOL    HW131004   1.346   1.940   7.689  1.0217 -2.1315  0.2721
 6457SOL    HW231005   1.203   1.913   7.658  0.0282 -0.1688 -0.3457
 6458SOL     OW31006   0.731   3.952   0.070 -0.9011  1.0027 -0.2587
 6458SOL    HW131007   0.677   3.970   0.147 -5.0867  2.2074 -3.4594
 6458SOL    HW231008   0.815   3.991   0.092 -1.0406  1.3219 -0.2968
 6459SOL     OW31009   0.445   0.164   1.668 -0.1070  0.0719 -0.1271
 6459SOL    HW131010   0.448   0.171   1.764 -2.8328 -3.8888  0.2396
 6459SOL    HW231011   0.447   0.069   1.662 -0.8275 -0.1027  2.1965
 6460SOL     OW31012   2.672   2.343  12.192  0.0007 -0.1851  0.1707
 6460SOL    HW131013   2.698   2.414  12.134  1.2218  0.2511  1.2504
 6460SOL    HW231014   2.647   2.389  12.272 -1.9115  0.8599 -1.0218
 6461SOL     OW31015   0.807   4.309   2.117 -0.1347 -0.1839 -0.0496
 6461SOL    HW131016   0.739   4.358   2.071 -1.7754 -0.9921  1.5169
 6461SOL    HW231017   0.845   4.385   2.161  0.3033  0.4548 -1.5420
 6462SOL     OW31018   4.120   0.742   9.102 -0.5471 -0.4435 -0.1301
 6462SOL    HW131019   4.150   0.830   9.128  0.0265 -0.4830 -0.6532
 6462SOL    HW231020   4.026   0.751   9.117 -0.3029 -0.2917  1.3997
 6463SOL     OW31021   1.272   3.197   9.417  0.1691 -0.0599 -0.4078
 6463SOL    HW131022   1.300   3.148   9.340 -0.8546 -1.9859  0.4350
 6463SOL    HW231023   1.200   3.247   9.380  0.3447  0.5911  0.1252
 6464SOL     OW31024   2.051   2.381   6.365  0.2543  0.0240 -0.3794
 6464SOL    HW131025   2.096   2.466   6.374  0.0275  0.0450  0.5517
 6464SOL    HW231026   2.107   2.316   6.407 -1.0125 -0.6040  0.3187
 6465SOL     OW31027   1.720   2.394   3.256  0.1771 -0.4189 -0.4078
 6465SOL    HW131028   1.770   2.345   3.322 -0.7855  1.8212  1.9779
 6465SOL    HW231029   1.644   2.340   3.236 -1.9436  2.2387  0.5211
 6466SOL     OW31030   2.027   2.398   6.716  0.5086 -0.1095  0.2509
 6466SOL    HW131031   2.086   2.457   6.668  0.1811  0.4691  0.5734
 6466SOL    HW231032   1.968   2.466   6.746  1.8575  0.9368  0.5260
 6467SOL     OW31033   3.920   3.044   8.962  0.3659 -0.6062 -0.5582
 6467SOL    HW131034   3.926   3.074   8.871  0.1391 -3.8783 -1.6430
 6467SOL    HW231035   3.902   2.952   8.944  1.8089 -0.9165 -0.3680
 6468SOL     OW31036   4.058   2.895   3.233 -0.3616 -0.1493 -0.4772
 6468SOL    HW131037   4.145   2.861   3.256 -0.2156 -1.1597 -2.5236
 6468SOL    HW231038   4.039   2.947   3.311  1.0439  0.7629 -0.7486
 6469SOL     OW31039   3.960   0.921  13.847 -0.1642 -0.5106  0.1091
 6469SOL    HW131040   3.878   0.940  13.894 -0.8437  0.9288 -1.6538
 6469SOL    HW231041   3.983   1.008  13.815  1.0596 -1.1442 -0.6872
 6470SOL     OW31042   0.533   3.962   0.518  0.5103 -0.6074 -0.2799
 6470SOL    HW131043   0.441   3.938   0.530 -0.5085  2.4438 -1.8304
 6470SOL    HW231044   0.556   3.871   0.538  0.4550 -0.9610 -1.8230
 6471SOL     OW31045   3.304   2.508   9.470 -0.1357  0.3041 -0.1076
 6471SOL    HW131046   3.226   2.514   9.415 -0.5849 -0.5324  0.4331
 6471SOL    HW231047   3.286   2.573   9.537  1.1381 -0.0842  0.6058
 6472SOL     OW31048   2.175   2.641   4.145  0.2647  0.1998  0.2149
 6472SOL    HW131049   2.197   2.612   4.234  3.3105  1.6469 -0.0884
 6472SOL    HW231050   2.260   2.679   4.124 -0.0680 -1.0780 -3.4631
 6473SOL     OW31051   0.253   1.845   4.007  0.6847 -0.2618 -0.2983
 6473SOL    HW131052   0.194   1.782   4.050  0.4554  0.4671  0.4621
 6473SOL    HW231053   0.211   1.923   4.044  1.8872 -0.6897  1.9811
 6474SOL     OW31054   1.042   4.722   6.693  0.0719 -0.1371 -0.6454
 6474SOL    HW131055   0.955   4.708   6.657  0.4845 -1.5212 -1.1309
 6474SOL    HW231056   1.066   0.062   6.643  1.8901 -0.8805 -0.9360
 6475SOL     OW31057   0.589   2.660  12.811  0.2828  0.8291 -0.1713
 6475SOL    HW131058   0.604   2.649  12.905  3.3164 -0.0979 -0.7863
 6475SOL    HW231059   0.613   2.750  12.791  2.2991 -0.2901 -2.7685
 6476SOL     OW31060   2.893   3.427   5.009 -0.6028 -0.1241 -0.1817
 6476SOL    HW131061   2.835   3.354   5.032  0.1243 -1.3381 -2.1992
 6476SOL    HW231062   2.970   3.379   4.979 -0.3035  0.8851 -1.0308
 6477SOL     OW31063   4.170   0.673   7.466  0.6052 -0.0570  0.1416
 6477SOL    HW131064   4.255   0.715   7.451  0.8261 -0.0171  1.4939
 6477SOL    HW231065   4.199   0.585   7.489  0.4069 -0.5736 -1.5591
 6478SOL     OW31066   2.293   2.857   2.399  0.2495  0.1646 -0.2358
 6478SOL    HW131067   2.386   2.875   2.386  0.6361 -0.4822  1.7690
 6478SOL    HW231068   2.274   2.924   2.464  1.8641  1.2133 -0.8362
 6479SOL     OW31069   0.784   3.328   1.261 -0.2830 -0.0389  0.4045
 6479SOL    HW131070   0.759   3.237   1.272  0.1550  0.0930  2.4385
 6479SOL    HW231071   0.745   3.336   1.174  1.6191 -1.4475 -0.5666
 6480SOL     OW31072   0.379   0.840   7.632  0.8527  0.3237  0.0350
 6480SOL    HW131073   0.304   0.899   7.625 -0.3847 -1.0090  1.7698
 6480SOL    HW231074   0.406   0.844   7.723  1.1961  0.0088 -0.0517
 6481SOL     OW31075   4.370   0.886   1.923 -0.0723 -0.4745 -0.1025
 6481SOL    HW131076   4.408   0.853   2.005 -1.1195 -1.2779  0.0629
 6481SOL    HW231077   4.413   0.971   1.922  1.7045 -1.3986 -1.1137
 6482SOL     OW31078   2.358   2.670   8.338  0.4802 -0.2256 -0.0782
 6482SOL    HW131079   2.322   2.757   8.321  0.5094 -0.2985 -0.4999
 6482SOL    HW231080   2.320   2.625   8.263 -0.0295 -0.1225  0.1159
 6483SOL     OW31081   2.514   1.940   3.741 -0.4544 -0.3143 -0.1644
 6483SOL    HW131082   2.462   1.899   3.672 -0.1796 -0.6882 -0.1555
 6483SOL    HW231083   2.577   1.984   3.684 -2.4325  3.1232  0.3509
 6484SOL     OW31084   1.356   1.468  11.300 -0.0847 -0.0342 -0.1849
 6484SOL    HW131085   1.333   1.543  11.354 -2.0943 -0.2960 -0.6858
 6484SOL    HW231086   1.422   1.501  11.239 -0.5177  1.7626  0.3506
 6485SOL     OW31087   2.648   0.859   5.821  0.2042  0.2693 -0.1386
 6485SOL    HW131088   2.686   0.940   5.855  0.7117  0.8637 -2.1528
 6485SOL    HW231089   2.572   0.890   5.772  0.6393  0.2546 -0.8147
 6486SOL     OW31090   0.127   4.590   6.124  0.4692  0.0669 -0.3896
 6486SOL    HW131091   0.139   4.595   6.218  1.7285  1.3913 -0.6113
 6486SOL    HW231092   0.039   4.552   6.129  0.1006  0.8293 -1.0278
 6487SOL     OW31093   0.807   3.911   0.566  0.1134  0.6881 -0.0562
 6487SOL    HW131094   0.777   3.870   0.648 -4.1286  1.4606 -1.2162
 6487SOL    HW231095   0.734   3.971   0.550 -0.4543 -0.2653 -1.0070
 6488SOL     OW31096   0.540   2.445  15.606  0.1170 -0.5738 -0.6523
 6488SOL    HW131097   0.571   2.365  15.650  1.2230 -1.5531 -3.1694
 6488SOL    HW231098   0.589   2.439  15.524 -0.0202 -0.0507 -0.7712
 6489SOL     OW31099   4.735   4.454   6.862 -0.0105  0.2371  0.1936
 6489SOL    HW131100   0.060   4.516   6.901 -0.2273  0.9303 -0.5715
 6489SOL    HW231101   4.697   4.505   6.790  0.1846 -1.1441 -0.8749
 6490SOL     OW31102   4.664   3.893   7.967  0.1652 -0.6899 -0.0944
 6490SOL    HW131103   4.640   3.864   8.055 -0.3690  0.8862  0.2718
 6490SOL    HW231104   4.677   3.986   7.988 -0.5588 -0.6596  0.2182
 6491SOL     OW31105   2.395   2.479   1.647  0.5700  0.5186 -0.5192
 6491SOL    HW131106   2.440   2.395   1.635  0.6005  0.5397 -0.5529
 6491SOL    HW231107   2.373   2.483   1.740 -2.0532 -0.0763 -1.1111
 6492SOL     OW31108   4.278   0.839   2.277 -0.5313  0.4442 -0.6769
 6492SOL    HW131109   4.192   0.840   2.233  0.0621  1.3010 -1.8276
 6492SOL    HW231110   4.294   0.745   2.286 -2.1921  0.4515  2.2476
 6493SOL     OW31111   0.533   3.830   9.553 -0.1290 -0.0114  0.0295
 6493SOL    HW131112   0.623   3.815   9.583  0.0573  0.6043 -0.2292
 6493SOL    HW231113   0.540   3.842   9.458 -2.0683 -1.5997 -0.3077
 6494SOL     OW31114   2.277   4.013   7.935 -0.6309 -0.1077  1.0803
 6494SOL    HW131115   2.213   3.943   7.949 -0.6725  0.0329  1.6057
 6494SOL    HW231116   2.336   3.993   8.008 -0.1142 -2.8577 -0.0958
 6495SOL     OW31117   1.984   3.293   4.848  0.1545 -0.1295 -0.7048
 6495SOL    HW131118   2.066   3.285   4.895  0.3598 -2.4679 -1.4653
 6495SOL    HW231119   1.972   3.388   4.841 -2.0837 -0.2359  1.5981
 6496SOL     OW31120   3.547   1.913   9.398  0.5288  0.3047  0.1088
 6496SOL    HW131121   3.599   1.845   9.440 -0.8729 -0.5417  0.4573
 6496SOL    HW231122   3.498   1.948   9.472  1.6284  0.0073  0.9880
 6497SOL     OW31123   1.080   2.972  15.116  0.4378  0.8142 -0.2815
 6497SOL    HW131124   1.014   3.008  15.176 -1.4858 -4.1268  0.6494
 6497SOL    HW231125   1.134   3.050  15.108 -0.0980  1.1036 -0.9839
 6498SOL     OW31126   1.010   2.577   8.626  0.1784  0.6114  0.7678
 6498SOL    HW131127   1.074   2.513   8.593  1.9546  1.6552  2.1874
 6498SOL    HW231128   0.936   2.528   8.662  0.3146 -0.1925 -0.0263
 6499SOL     OW31129   4.438   1.783  11.840  0.1956 -0.4094 -0.4577
 6499SOL    HW131130   4.525   1.747  11.856 -0.4865 -1.1206  1.7031
 6499SOL    HW231131   4.434   1.788  11.745 -0.7369 -2.3421 -0.5258
 6500SOL     OW31132   0.971   4.378  12.598  0.1703  0.1412 -0.6886
 6500SOL    HW131133   0.966   4.445  12.530  2.2936  1.6292  0.6274
 6500SOL    HW231134   1.066   4.384  12.609  0.2836  0.8309 -2.0442
 6501SOL     OW31135   0.931   3.669   2.586  0.1873 -0.1396 -0.5707
 6501SOL    HW131136   0.980   3.700   2.663 -1.0352 -1.3557  0.6966
 6501SOL    HW231137   0.928   3.749   2.533 -1.2331 -2.0934 -3.4064
 6502SOL     OW31138   0.986   0.707   6.180  0.0818  0.2866  0.3703
 6502SOL    HW131139   1.078   0.732   6.171  0.4845 -2.1070 -1.8294
 6502SOL    HW231140   0.978   0.642   6.111  0.8828  1.2520 -0.6259
 6503SOL     OW31141   3.075   2.847   5.684 -0.2499 -0.2854 -0.3854
 6503SOL    HW131142   3.111   2.932   5.660  1.8603 -0.4268  2.2975
 6503SOL    HW231143   3.059   2.806   5.599  2.2317  2.1272 -2.0177
 6504SOL     OW31144   3.837   2.955   0.305  0.1824  0.1996  0.2398
 6504SOL    HW131145   3.798   2.916   0.383  1.1656  1.3752  1.3208
 6504SOL    HW231146   3.884   3.032   0.338 -0.7729  0.4556  1.0091
 6505SOL     OW31147   1.821   1.310   3.878  0.1126  0.5087  0.2029
 6505SOL    HW131148   1.902   1.266   3.854 -0.6964 -0.9089  0.0454
 6505SOL    HW231149   1.847   1.401   3.894  1.0118  0.3320 -0.2517
 6506SOL     OW31150   2.051   0.611   7.755 -0.3153 -0.0228 -0.5572
 6506SOL    HW131151   2.102   0.652   7.685  0.9063 -1.7970 -0.7044
 6506SOL    HW231152   2.098   0.648   7.830 -2.8299 -0.0156  1.0194
 6507SOL     OW31153   2.441   3.349  15.670 -0.8977  0.2899  0.0218
 6507SOL    HW131154   2.405   3.314  15.752  0.7863 -1.6434 -0.0587
 6507SOL    HW231155   2.527   3.377  15.701 -0.6122 -1.3987  0.7741
 6508SOL     OW31156   2.127   4.638   8.267 -0.0693  0.0239  0.8622
 6508SOL    HW131157   2.108   4.636   8.360 -1.0100  0.5061  0.6741
 6508SOL    HW231158   2.173   4.554   8.263  1.3458  0.8427 -0.2506
 6509SOL     OW31159   1.848   0.123   2.629  0.2472  0.1101  0.9121
 6509SOL    HW131160   1.866   0.209   2.668 -3.7123  0.4198  2.0513
 6509SOL    HW231161   1.934   0.081   2.627  0.8376  1.3554 -0.1185
 6510SOL     OW31162   2.584   1.357  13.819  0.5931 -0.5159  0.0465
 6510SOL    HW131163   2.588   1.310  13.736  1.4227 -1.1313  0.4483
 6510SOL    HW231164   2.662   1.328  13.865 -0.5941 -1.6332  1.3746
 6511SOL     OW31165   1.037   2.797  13.654 -0.5730 -0.4700 -0.5660
 6511SOL    HW131166   1.094   2.856  13.704  0.2494  0.0443 -2.1103
 6511SOL    HW231167   1.084   2.717  13.678 -0.5037  0.3674  2.1501
 6512SOL     OW31168   3.113   1.162   5.406  0.0491  0.5857  0.1349
 6512SOL    HW131169   3.071   1.152   5.321  0.7120  0.2853 -0.1523
 6512SOL    HW231170   3.176   1.230   5.382 -0.3953  1.4865  1.5403
 6513SOL     OW31171   0.404   0.447  11.305  0.2975  0.3973 -0.1614
 6513SOL    HW131172   0.353   0.500  11.366  0.3654  0.3183 -0.0366
 6513SOL    HW231173   0.426   0.510  11.236  0.7523  0.2732 -0.1289
 6514SOL     OW31174   3.203   4.365  11.582 -0.1477 -0.2871  0.0796
 6514SOL    HW131175   3.164   4.290  11.537 -0.0417  0.0617 -0.5804
 6514SOL    HW231176   3.231   4.322  11.663  2.1918  1.3303  0.1490
 6515SOL     OW31177   3.518   4.244   4.734 -0.4730 -0.1618  0.1938
 6515SOL    HW131178   3.428   4.266   4.759 -0.2570  2.8554 -1.6195
 6515SOL    HW231179   3.551   4.333   4.725  0.3194 -0.4168  0.5902
 6516SOL     OW31180   4.446   3.679  10.358  0.1870  0.3076 -0.4525
 6516SOL    HW131181   4.366   3.725  10.336  0.5465  0.7693 -0.7843
 6516SOL    HW231182   4.426   3.666  10.451  0.9611  0.9476 -0.1956
 6517SOL     OW31183   4.459   2.306   7.881  0.2520 -0.1663 -0.2919
 6517SOL    HW131184   4.388   2.370   7.883 -0.2023 -0.6872  0.2331
 6517SOL    HW231185   4.536   2.344   7.924 -1.0024  0.7384  1.1386
 6518SOL     OW31186   4.660   2.659   4.601 -0.3621  0.1089 -0.0855
 6518SOL    HW131187   4.621   2.601   4.666 -1.3260  0.2560 -0.5272
 6518SOL    HW231188   4.718   2.594   4.562  2.7216  2.2524  0.8847
 6519SOL     OW31189   4.715   1.085   5.013  0.0185  0.1674  0.3210
 6519SOL    HW131190   4.633   1.131   5.030  1.0376  2.5019 -1.0500
 6519SOL    HW231191   4.684   1.012   4.960  0.6354 -0.7783  1.2652
 6520SOL     OW31192   1.891   0.096   8.339 -0.2784 -0.2165 -0.1452
 6520SOL    HW131193   1.837   0.165   8.378  0.7474 -0.5923  1.9660
 6520SOL    HW231194   1.926   0.148   8.266 -1.7347  1.0719  0.0573
 6521SOL     OW31195   3.913   0.253  11.588  0.7600 -0.1283 -0.0223
 6521SOL    HW131196   3.880   0.337  11.556 -0.6098 -0.8006 -0.4144
 6521SOL    HW231197   3.862   0.187  11.539 -3.2399  2.4682  0.6400
 6522SOL     OW31198   0.921   2.782   4.924  0.2519  0.0335  0.1760
 6522SOL    HW131199   1.007   2.758   4.959  0.8756  0.3770 -1.1238
 6522SOL    HW231200   0.863   2.738   4.985  0.2158 -2.7125 -1.8687
 6523SOL     OW31201   4.462   2.318   2.581  0.0291  0.5489  0.1155
 6523SOL    HW131202   4.369   2.321   2.560  0.1505  3.5269  0.0464
 6523SOL    HW231203   4.491   2.234   2.544  1.0458  0.8202  0.3044
 6524SOL     OW31204   2.387   0.796   5.484  0.0462  0.2472  0.1827
 6524SOL    HW131205   2.474   0.766   5.456 -0.9339  1.1179 -3.6944
 6524SOL    HW231206   2.348   0.809   5.398  2.4596 -1.5959 -1.2078
 6525SOL     OW31207   1.760   1.217  10.757 -0.0282 -0.2502  0.5409
 6525SOL    HW131208   1.726   1.200  10.845 -0.6051  0.5362  0.4701
 6525SOL    HW231209   1.685   1.257  10.713  0.9547  2.7745  1.5904
 6526SOL     OW31210   3.272   1.056  11.540 -0.2448  0.3857  0.1387
 6526SOL    HW131211   3.347   1.041  11.484  0.0761  0.6009  0.5086
 6526SOL    HW231212   3.308   1.134  11.582  0.1032  0.4156 -0.2242
 6527SOL     OW31213   2.543   1.039   6.913  0.4650  0.3420  0.2149
 6527SOL    HW131214   2.627   1.038   6.867 -0.2050  1.6606 -1.0479
 6527SOL    HW231215   2.552   0.986   6.992  2.2651  1.4037  0.7048
 6528SOL     OW31216   1.257   4.203  17.402  0.7621  0.0786 -0.5398
 6528SOL    HW131217   1.223   4.190  17.491 -1.6190  0.3712 -1.4088
 6528SOL    HW231218   1.327   4.146  17.370 -0.9646  0.3092 -4.7024
 6529SOL     OW31219   3.192   0.873   4.586  0.5690  0.1208 -0.1298
 6529SOL    HW131220   3.282   0.871   4.617 -0.1276 -0.4702  1.8276
 6529SOL    HW231221   3.139   0.911   4.655 -0.1231 -0.9277 -0.0772
 6530SOL     OW31222   2.846   4.632  16.985  0.2020  0.0343 -0.2249
 6530SOL    HW131223   2.792   4.609  16.909  0.1663  0.3720 -0.3032
 6530SOL    HW231224   2.785   4.612  17.056 -0.0042 -0.3816 -0.5163
 6531SOL     OW31225   4.338   1.254  10.986  0.5973  0.0719  0.1840
 6531SOL    HW131226   4.393   1.269  10.909  1.9866  1.4305  1.4281
 6531SOL    HW231227   4.293   1.184  10.939 -0.8668  2.1065 -1.4503
 6532SOL     OW31228   3.638   1.348   0.186  0.1364 -0.2659 -0.2659
 6532SOL    HW131229   3.676   1.413   0.128 -0.7497  1.1977  0.7790
 6532SOL    HW231230   3.595   1.285   0.129 -0.6597 -1.2308  1.3970
 6533SOL     OW31231   3.855   0.708   0.270 -0.1162 -0.0525 -0.3483
 6533SOL    HW131232   3.760   0.719   0.266 -0.0219  0.4049 -1.4342
 6533SOL    HW231233   3.864   0.613   0.258 -0.9009 -0.3387  1.3882
 6534SOL     OW31234   2.897   1.774  10.650  0.1929 -0.3218  0.4734
 6534SOL    HW131235   2.842   1.844  10.685  0.9517 -0.4273  1.8981
 6534SOL    HW231236   2.932   1.734  10.730 -0.7116 -0.5077  0.7718
 6535SOL     OW31237   0.597   0.678   2.110  0.1984  0.0285  0.4011
 6535SOL    HW131238   0.558   0.682   2.023  0.5744 -1.5914  0.1610
 6535SOL    HW231239   0.523   0.714   2.159  0.2984  0.5613  0.1570
 6536SOL     OW31240   2.141   2.219   4.897 -0.4679  0.2053  0.5506
 6536SOL    HW131241   2.089   2.299   4.893 -1.7007 -0.7634 -2.6806
 6536SOL    HW231242   2.077   2.151   4.875  1.7794 -1.7247 -0.0391
 6537SOL     OW31243   0.076   4.055  13.925 -0.8989 -0.2282  0.4518
 6537SOL    HW131244   0.052   4.037  13.834 -1.6211  2.8281  0.0459
 6537SOL    HW231245   0.169   4.032  13.923 -0.4638  1.8129 -2.5015
 6538SOL     OW31246   1.363   4.133   6.780 -0.4052  0.8005 -0.0252
 6538SOL    HW131247   1.398   4.048   6.754  0.5657  0.7928  1.2885
 6538SOL    HW231248   1.348   4.175   6.695 -2.5213  0.7319  0.3129
 6539SOL     OW31249   0.734   4.543   0.621  0.5990  0.0311  0.2969
 6539SOL    HW131250   0.680   4.588   0.686 -0.3574 -0.1506 -0.3618
 6539SOL    HW231251   0.780   4.614   0.575  1.4424 -1.8728 -1.8251
 6540SOL     OW31252   4.655   3.743   7.328 -0.1099 -0.5877  0.5616
 6540SOL    HW131253   4.671   3.689   7.406  1.4760  2.6463  2.5078
 6540SOL    HW231254   0.008   3.771   7.313  0.0866 -2.4434 -1.6188
 6541SOL     OW31255   4.582   4.246   8.088  0.4429  0.0005 -0.1743
 6541SOL    HW131256   4.499   4.205   8.110  0.3911 -0.4476 -1.1927
 6541SOL    HW231257   4.588   4.340   8.109 -2.8491  0.8858 -3.2369
 6542SOL     OW31258   3.561   3.929   6.812 -0.1170  0.0061 -0.3381
 6542SOL    HW131259   3.558   4.019   6.845  0.2624 -0.3233  0.5808
 6542SOL    HW231260   3.603   3.932   6.726 -0.3073  0.4522 -0.4134
 6543SOL     OW31261   1.946   1.227  11.829  0.5667  0.6728  0.1868
 6543SOL    HW131262   2.018   1.213  11.892 -0.3010  1.5702  1.3728
 6543SOL    HW231263   1.879   1.165  11.856  0.9847  0.2924  0.3511
 6544SOL     OW31264   2.713   3.602   1.941  0.1081 -0.1160 -0.4009
 6544SOL    HW131265   2.715   3.607   1.845 -0.8271  3.4543 -0.2235
 6544SOL    HW231266   2.770   3.672   1.973  2.0603 -1.2066 -1.5081
 6545SOL     OW31267   2.465   3.205   5.712  0.1638 -0.3660 -0.8678
 6545SOL    HW131268   2.479   3.292   5.674  1.5188 -0.2640 -0.1245
 6545SOL    HW231269   2.369   3.198   5.718  0.2268  1.2134  1.9562
 6546SOL     OW31270   3.017   0.975  13.586 -0.0849 -0.3409  0.0412
 6546SOL    HW131271   3.066   1.052  13.615 -0.0259 -1.4120  2.7351
 6546SOL    HW231272   3.001   0.935  13.671  0.5808 -0.6433  0.0260
 6547SOL     OW31273   1.499   2.383   1.876  0.4104 -0.3991  0.3282
 6547SOL    HW131274   1.454   2.461   1.844  0.0539 -0.8345 -0.2383
 6547SOL    HW231275   1.530   2.429   1.954 -1.2771  0.8792  0.2513
 6548SOL     OW31276   2.331   1.436   1.411 -0.1641 -0.0617 -0.5228
 6548SOL    HW131277   2.335   1.422   1.316 -1.3613  0.2690 -0.6264
 6548SOL    HW231278   2.236   1.432   1.424 -0.2152  2.2525 -0.1706
 6549SOL     OW31279   3.158   2.847   5.945 -0.4621  0.4232 -0.3138
 6549SOL    HW131280   3.126   2.865   5.857  1.8410  2.3312 -0.7623
 6549SOL    HW231281   3.247   2.814   5.938 -0.8312 -0.8062  0.8628
 6550SOL     OW31282   0.869   1.964   6.537  0.4139  0.5967 -0.0557
 6550SOL    HW131283   0.951   1.963   6.588  2.2930 -0.3924 -3.0863
 6550SOL    HW231284   0.806   1.939   6.605  1.2850 -0.9454  0.1915
 6551SOL     OW31285   4.456   1.032  14.116 -0.2134 -0.4064 -0.5206
 6551SOL    HW131286   4.468   1.050  14.209 -2.5683 -0.4601 -0.1986
 6551SOL    HW231287   4.362   1.048  14.101 -0.3050 -0.0690  0.4314
 6552SOL     OW31288   1.066   3.054   5.019  0.6510  0.4504  0.2968
 6552SOL    HW131289   1.097   2.967   4.996  2.0613  1.1467 -0.4447
 6552SOL    HW231290   1.032   3.085   4.935 -2.6297 -1.9126  0.7869
 6553SOL     OW31291   2.566   4.289   6.120 -0.0165  0.6894 -0.0476
 6553SOL    HW131292   2.475   4.310   6.099 -1.0721 -2.3875  1.4229
 6553SOL    HW231293   2.559   4.226   6.192  0.4748  1.7933  0.9669
 6554SOL     OW31294   0.699   0.942   3.633  0.0811 -0.2355  0.0203
 6554SOL    HW131295   0.755   0.941   3.555 -0.6564 -0.0383 -0.5078
 6554SOL    HW231296   0.677   0.852   3.653  0.4211  0.3159  2.9042
 6555SOL     OW31297   2.748   0.106  12.735 -0.2654 -0.2471 -0.0104
 6555SOL    HW131298   2.821   0.070  12.683 -1.9058 -1.5601 -1.3973
 6555SOL    HW231299   2.671   0.124  12.680 -0.4822  1.9730  1.0193
 6556SOL     OW31300   0.956   3.788   0.806 -0.1702  1.0441 -0.2254
 6556SOL    HW131301   0.961   3.878   0.837 -0.8117  1.5036 -1.4275
 6556SOL    HW231302   0.874   3.762   0.847 -1.3358 -0.4622 -3.4441
 6557SOL     OW31303   0.448   4.043   5.790 -0.1351  0.1696 -0.8452
 6557SOL    HW131304   0.501   4.122   5.786 -2.1592  1.5501 -0.1135
 6557SOL    HW231305   0.368   4.079   5.753 -1.1081 -1.6135 -0.4570
 6558SOL     OW31306   0.524   2.037  13.929 -0.1744 -0.7038  0.4078
 6558SOL    HW131307   0.554   1.949  13.947  0.0733 -1.0813 -1.7942
 6558SOL    HW231308   0.563   2.048  13.842 -0.5495  1.7895  0.5519
 6559SOL     OW31309   2.827   0.581  16.247  0.1919 -0.2628  0.1378
 6559SOL    HW131310   2.802   0.514  16.183  1.7402  0.5932 -1.3741
 6559SOL    HW231311   2.855   0.528  16.322  0.7107 -1.7333 -1.0788
 6560SOL     OW31312   3.410   2.799   6.907  0.4269 -0.4847 -0.2216
 6560SOL    HW131313   3.505   2.808   6.912  0.1000  1.5959  2.5334
 6560SOL    HW231314   3.393   2.821   6.999  3.2545 -1.2879  0.5175
 6561SOL     OW31315   2.253   2.105   0.617  0.4388  0.2023 -0.0843
 6561SOL    HW131316   2.261   2.072   0.707  1.7198 -0.9765 -0.6306
 6561SOL    HW231317   2.310   2.180   0.603 -1.1528  1.7072  1.6310
 6562SOL     OW31318   0.267   4.337   7.204  0.1385  0.8187 -0.2914
 6562SOL    HW131319   0.247   4.353   7.112  1.4452  0.0771 -0.7106
 6562SOL    HW231320   0.335   4.396   7.236 -0.9739  1.8160  0.2293
 6563SOL     OW31321   3.818   0.527  12.898 -0.3499  0.1989 -0.6425
 6563SOL    HW131322   3.872   0.497  12.971 -0.4007  2.3407  0.2532
 6563SOL    HW231323   3.829   0.622  12.903 -1.8007  0.4693 -2.4081
 6564SOL     OW31324   0.867   2.906   7.219 -0.1986 -0.2895  0.5518
 6564SOL    HW131325   0.902   2.849   7.151 -1.0118 -1.5280  1.1745
 6564SOL    HW231326   0.869   2.990   7.173  1.4397 -0.3681  0.4997
 6565SOL     OW31327   3.710   4.205   8.598  0.3050  0.1127 -0.5246
 6565SOL    HW131328   3.796   4.164   8.603 -0.4132 -1.5951 -2.3755
 6565SOL    HW231329   3.728   4.297   8.620  0.2680 -0.0723  0.2942
 6566SOL     OW31330   0.421   2.033   5.017  0.0575  0.7389 -0.4033
 6566SOL    HW131331   0.484   1.978   4.970 -0.0453 -0.1060  0.4383
 6566SOL    HW231332   0.338   1.985   5.009 -0.5787  1.5468  1.2304
 6567SOL     OW31333   0.763   1.881   7.873 -0.2825  0.2261  0.1633
 6567SOL    HW131334   0.814   1.959   7.851 -0.5339 -0.1589 -1.8240
 6567SOL    HW231335   0.759   1.892   7.968 -0.5723  0.1457  0.1589
 6568SOL     OW31336   0.831   0.715   4.367 -0.2693 -0.2641  0.2211
 6568SOL    HW131337   0.861   0.703   4.457 -1.8527  0.5367  0.8594
 6568SOL    HW231338   0.917   0.748   4.340 -0.7497  2.2532  1.7739
 6569SOL     OW31339   2.864   1.069  10.888  0.0422 -0.9971  0.2448
 6569SOL    HW131340   2.854   1.014  10.966 -3.2292 -1.9466 -0.8425
 6569SOL    HW231341   2.792   1.038  10.833 -1.2826  1.5128  0.5445
 6570SOL     OW31342   1.811   4.454   6.845  0.2600  0.3375  0.4618
 6570SOL    HW131343   1.736   4.395   6.834 -2.0602  2.9953  2.1294
 6570SOL    HW231344   1.766   4.533   6.816  1.7817  0.7594 -0.7753
 6571SOL     OW31345   0.182   1.502  16.311  0.1378 -0.1964 -0.1954
 6571SOL    HW131346   0.187   1.408  16.324 -0.2573 -0.0029  1.3122
 6571SOL    HW231347   0.163   1.515  16.218 -0.9719 -0.8857 -0.0618
 6572SOL     OW31348   2.482   4.219   2.886 -0.8603  0.6099 -0.5589
 6572SOL    HW131349   2.560   4.202   2.834 -1.1578  0.6185 -1.0073
 6572SOL    HW231350   2.512   4.243   2.974  2.5705 -1.5436 -1.1499
 6573SOL     OW31351   0.630   1.767  14.086 -0.3214 -0.0307 -0.3243
 6573SOL    HW131352   0.665   1.678  14.073  2.7572  0.8029  2.1610
 6573SOL    HW231353   0.589   1.757  14.172  1.6217 -0.3351  0.5725
 6574SOL     OW31354   1.782   1.083   0.694  0.2693  0.2898 -0.5010
 6574SOL    HW131355   1.789   1.175   0.666  0.0352  0.9446  1.5362
 6574SOL    HW231356   1.742   1.037   0.621 -0.0130 -1.2416  0.6376
 6575SOL     OW31357   3.264   0.178   3.946 -0.6696  0.2802  0.2861
 6575SOL    HW131358   3.280   0.256   3.999 -0.8265 -0.5118  1.4844
 6575SOL    HW231359   3.308   0.204   3.864 -0.7757  3.1133  1.1279
 6576SOL     OW31360   2.061   4.072   4.070 -0.2864  0.0971 -0.2195
 6576SOL    HW131361   2.144   4.061   4.117 -1.3406  0.6167  1.7463
 6576SOL    HW231362   2.011   3.996   4.099  0.8036 -1.5833 -2.7211
 6577SOL     OW31363   3.984   1.670   9.526 -0.0018 -0.3581  0.5334
 6577SOL    HW131364   4.029   1.586   9.535 -1.4314 -1.3216 -1.3000
 6577SOL    HW231365   4.050   1.735   9.551 -0.4400 -0.6123  2.3091
 6578SOL     OW31366   0.550   3.847   6.819  0.0441 -0.0332 -0.0810
 6578SOL    HW131367   0.597   3.930   6.808  1.3908 -1.0066 -1.4951
 6578SOL    HW231368   0.608   3.774   6.797  1.5477  0.8376  0.9780
 6579SOL     OW31369   4.174   0.411   7.871 -0.4351  0.0507 -0.2520
 6579SOL    HW131370   4.124   0.360   7.807 -1.7374  1.3275 -0.2427
 6579SOL    HW231371   4.099   0.458   7.907 -0.3739  0.4198 -0.6181
 6580SOL     OW31372   4.647   4.499   8.179 -0.3243 -0.9728 -0.4195
 6580SOL    HW131373   4.633   4.520   8.271  3.4158  0.1841 -0.1376
 6580SOL    HW231374   4.582   4.565   8.154 -0.0190 -0.6070 -0.2305
 6581SOL     OW31375   0.490   0.221  11.207  0.4478 -0.8302  0.2575
 6581SOL    HW131376   0.470   0.234  11.115  1.9678 -0.5636 -0.0302
 6581SOL    HW231377   0.451   0.298  11.250 -0.4537 -0.3618 -1.4016
 6582SOL     OW31378   3.439   4.054   7.291 -0.8345  0.2194 -0.6767
 6582SOL    HW131379   3.497   4.029   7.219 -1.4613  0.0834 -1.1295
 6582SOL    HW231380   3.490   4.133   7.310 -0.9524 -0.0481  0.7779
 6583SOL     OW31381   3.032   2.670   2.358  0.3093 -0.3739  0.4821
 6583SOL    HW131382   3.065   2.755   2.387 -2.4466  0.8046  0.1064
 6583SOL    HW231383   3.101   2.617   2.399  0.9605  0.3711  0.3520
 6584SOL     OW31384   2.564   2.321   4.748  0.5471  0.0731 -0.0802
 6584SOL    HW131385   2.560   2.406   4.702 -0.0086  0.2478  0.2899
 6584SOL    HW231386   2.498   2.277   4.695 -0.4690  0.9825  0.4299
 6585SOL     OW31387   4.702   3.139   1.291  0.6062 -0.0659 -0.2823
 6585SOL    HW131388   4.633   3.079   1.263  2.7195 -1.0936 -3.3603
 6585SOL    HW231389   0.015   3.090   1.357  1.3243  3.9441  2.1232
 6586SOL     OW31390   1.248   3.829   8.136  0.5362 -1.1619 -0.5157
 6586SOL    HW131391   1.204   3.754   8.096 -0.1196  1.0087 -3.8701
 6586SOL    HW231392   1.329   3.794   8.174 -0.4281 -0.3931  2.2842
 6587SOL     OW31393   3.352   2.676   3.396 -0.1423 -0.0082  0.1779
 6587SOL    HW131394   3.367   2.769   3.413  1.0350 -0.1520 -0.0355
 6587SOL    HW231395   3.379   2.647   3.483 -1.2295 -1.2211  0.1074
 6588SOL     OW31396   4.299   3.481   7.144 -0.7807 -0.4253  0.0797
 6588SOL    HW131397   4.325   3.548   7.207 -0.5636  0.9920 -1.5406
 6588SOL    HW231398   4.387   3.447   7.126 -1.1100 -1.5454  0.5772
 6589SOL     OW31399   2.174   1.065   5.172 -0.2420  0.2390  0.2707
 6589SOL    HW131400   2.162   1.124   5.097  1.6206  0.9970  0.5779
 6589SOL    HW231401   2.106   1.096   5.232  2.5344  0.7409  3.1184
 6590SOL     OW31402   2.890   2.155   4.688  0.1230  0.7846  0.2433
 6590SOL    HW131403   2.914   2.078   4.636  1.4125  2.6816 -1.9536
 6590SOL    HW231404   2.864   2.214   4.617  0.4459 -2.0575 -2.2116
 6591SOL     OW31405   0.553   1.288  16.453 -0.1547  0.1107 -0.4711
 6591SOL    HW131406   0.565   1.377  16.487 -0.4029 -0.4987  1.1725
 6591SOL    HW231407   0.479   1.297  16.392 -0.2905 -1.4912 -0.5303
 6592SOL     OW31408   3.022   3.068  11.844  0.6428  0.1602 -0.2515
 6592SOL    HW131409   3.023   3.085  11.938  0.0922 -0.1313 -0.1969
 6592SOL    HW231410   2.951   3.130  11.830  1.7803  0.9272 -2.5852
 6593SOL     OW31411   1.964   2.782   5.708  0.0159  0.4883  0.1377
 6593SOL    HW131412   1.931   2.775   5.618  1.9028  0.5370 -0.5678
 6593SOL    HW231413   1.974   2.877   5.707 -1.0454  0.5939 -2.3973
 6594SOL     OW31414   0.288   1.229  16.782 -0.4271 -0.0485  1.0424
 6594SOL    HW131415   0.297   1.324  16.788 -3.0368  0.2891 -0.6880
 6594SOL    HW231416   0.362   1.213  16.841 -0.0078 -3.1368 -0.2961
 6595SOL     OW31417   1.835   1.021  17.458  0.1783  0.2892 -0.1845
 6595SOL    HW131418   1.752   1.029  17.505 -0.2984  0.8540 -1.1269
 6595SOL    HW231419   1.825   1.090  17.392 -1.7099 -2.1438 -2.4132
 6596SOL     OW31420   0.112   1.789   2.412 -0.4946  0.3128 -0.3082
 6596SOL    HW131421   0.206   1.787   2.427 -0.2784 -1.8365 -1.8537
 6596SOL    HW231422   0.090   1.875   2.447  0.4182 -0.8076  3.0228
 6597SOL     OW31423   4.377   0.176  10.367  0.0478  0.2297  0.0179
 6597SOL    HW131424   4.432   0.242  10.325  0.1753 -0.0684 -0.2834
 6597SOL    HW231425   4.328   0.143  10.292  1.6423 -0.9114 -0.5355
 6598SOL     OW31426   3.014   4.465   6.364 -0.2042 -0.3113  0.0397
 6598SOL    HW131427   2.957   4.394   6.336 -1.0535  0.2368  0.3776
 6598SOL    HW231428   3.057   4.500   6.286  1.0691  1.7505  1.6658
 6599SOL     OW31429   0.842   1.943   1.016 -0.5364 -0.1225 -0.5184
 6599SOL    HW131430   0.756   1.984   1.024 -0.1568  0.6622 -0.5027
 6599SOL    HW231431   0.804   1.864   0.977 -0.4431 -0.1081 -0.6368
 6600SOL     OW31432   4.493   1.412   5.644 -0.2771 -0.4699  0.1352
 6600SOL    HW131433   4.489   1.316   5.645  2.3875 -0.5689  0.9035
 6600SOL    HW231434   4.587   1.424   5.630 -0.2453 -1.5318 -0.6157
 6601SOL     OW31435   3.546   1.427   3.966 -0.7694 -0.0542  0.1867
 6601SOL    HW131436   3.457   1.444   3.934 -0.8874  0.2253  0.6683
 6601SOL    HW231437   3.567   1.490   4.035  0.5565 -1.4373  1.0409
 6602SOL     OW31438   3.310   2.814   8.053  0.6013 -0.2585 -0.0876
 6602SOL    HW131439   3.246   2.883   8.070 -1.6695 -1.6334 -3.1451
 6602SOL    HW231440   3.261   2.732   8.060  1.6159 -0.8151  0.5646
 6603SOL     OW31441   1.562   2.156   9.459  0.0015 -0.1150 -0.3394
 6603SOL    HW131442   1.522   2.120   9.539  1.4811 -0.3596  0.2820
 6603SOL    HW231443   1.651   2.178   9.488 -0.3307  1.7690 -0.8033
 6604SOL     OW31444   4.490   3.776   9.180  0.8951 -0.1773  0.1186
 6604SOL    HW131445   4.521   3.855   9.224 -1.8987  1.2641 -0.4818
 6604SOL    HW231446   4.516   3.785   9.088 -0.7681  0.4269 -0.3017
 6605SOL     OW31447   0.076   0.250   5.421 -0.5364  0.5352 -0.0609
 6605SOL    HW131448   0.099   0.179   5.362  0.2636  0.8078 -0.0761
 6605SOL    HW231449   0.160   0.287   5.450  0.4116 -2.3895  0.9005
 6606SOL     OW31450   4.555   1.438   4.231 -0.4446 -0.6453  0.1513
 6606SOL    HW131451   4.610   1.392   4.294 -1.9614 -1.8707  0.5879
 6606SOL    HW231452   4.507   1.361   4.201 -1.6344 -0.2355  0.9881
 6607SOL     OW31453   1.229   0.419   7.039 -1.1648  0.2034 -0.2128
 6607SOL    HW131454   1.235   0.350   7.105 -0.0692 -0.8233 -1.3724
 6607SOL    HW231455   1.286   0.485   7.076  0.7395 -0.5659 -1.8029
 6608SOL     OW31456   3.649   1.103  10.853  0.1629 -0.2888  0.1710
 6608SOL    HW131457   3.575   1.055  10.816  0.6379 -3.5616  3.4854
 6608SOL    HW231458   3.606   1.181  10.888  2.0747  0.5024  0.7605
 6609SOL     OW31459   2.067   0.770   6.513 -0.0835 -1.2942 -0.4210
 6609SOL    HW131460   2.126   0.778   6.438  1.3594  0.3323  0.9032
 6609SOL    HW231461   2.140   0.783   6.574 -0.0571  1.4128 -1.0303
 6610SOL     OW31462   2.295   0.150  16.296  0.7200  0.3530 -0.1579
 6610SOL    HW131463   2.300   0.183  16.206 -2.8096  1.3523  0.0487
 6610SOL    HW231464   2.342   0.066  16.290  0.8587  0.4838 -0.9257
 6611SOL     OW31465   4.172   4.731  15.825  0.0686 -0.3702  0.5315
 6611SOL    HW131466   4.179   0.083  15.791  0.8143 -0.8616 -0.5943
 6611SOL    HW231467   4.171   4.674  15.748 -1.2863  0.7681 -0.2985
 6612SOL     OW31468   4.292   0.596  13.770 -0.0343  0.4740 -0.1038
 6612SOL    HW131469   4.327   0.567  13.854  0.6364  0.6158 -0.3389
 6612SOL    HW231470   4.202   0.565  13.780 -1.0375  2.8290 -1.7369
 6613SOL     OW31471   0.513   1.098  14.508  0.2529  0.4065 -0.2688
 6613SOL    HW131472   0.419   1.091  14.494  0.5356 -1.1642 -1.5142
 6613SOL    HW231473   0.537   1.005  14.509  0.4234  0.4505 -0.2365
 6614SOL     OW31474   2.452   0.109   0.284 -0.0309  0.3247  0.2624
 6614SOL    HW131475   2.414   0.163   0.214  0.1260 -0.3871 -0.3604
 6614SOL    HW231476   2.414   0.024   0.262  0.1459 -0.5377  3.1699
 6615SOL     OW31477   4.732   1.165   1.997  0.8481 -0.3676  0.3615
 6615SOL    HW131478   4.639   1.149   2.014  0.0827  3.7328  0.0667
 6615SOL    HW231479   4.722   1.242   1.940 -3.7850 -2.2531 -1.4301
 6616SOL     OW31480   4.574   4.598   8.432  0.1759  0.2211  0.3748
 6616SOL    HW131481   4.479   4.587   8.428  0.0809  1.2007 -0.1316
 6616SOL    HW231482   4.582   4.691   8.452 -0.4959  0.3697 -0.0602
 6617SOL     OW31483   1.139   1.219   6.126  0.6806 -0.0682 -0.4559
 6617SOL    HW131484   1.159   1.179   6.211  1.2507  1.2614  0.0499
 6617SOL    HW231485   1.054   1.260   6.139 -0.3697 -2.4720  0.1354
 6618SOL     OW31486   0.510   1.967  14.436  0.2919  0.3558 -0.3581
 6618SOL    HW131487   0.587   1.916  14.412  0.9127  0.9656  0.3280
 6618SOL    HW231488   0.459   1.965  14.356  1.0166 -0.8356 -0.7931
 6619SOL     OW31489   1.214   0.036   3.789 -0.0651  0.3562  0.3725
 6619SOL    HW131490   1.160   4.696   3.802  1.4948 -0.5291  1.5269
 6619SOL    HW231491   1.160   0.097   3.739 -0.5176  0.1451  0.6039
 6620SOL     OW31492   2.024   3.240  13.332  0.3536 -0.6590  0.1465
 6620SOL    HW131493   2.043   3.329  13.302 -1.2304 -1.2053 -2.4661
 6620SOL    HW231494   1.977   3.244  13.415 -3.2875  1.3565 -1.9908
 6621SOL     OW31495   2.256   0.311   1.151  0.2381 -0.9179 -0.0764
 6621SOL    HW131496   2.348   0.337   1.159  0.2184 -0.6946 -0.5486
 6621SOL    HW231497   2.209   0.384   1.110  1.8243  0.7587  1.0711
 6622SOL     OW31498   0.502   2.647  14.814  0.8464 -0.2171 -0.5209
 6622SOL    HW131499   0.555   2.577  14.775 -1.1543 -1.7761 -0.4789
 6622SOL    HW231500   0.533   2.734  14.790  1.0775 -0.0879  0.2361
 6623SOL     OW31501   4.093   1.808   6.797 -0.2285  0.7165  0.1226
 6623SOL    HW131502   4.147   1.739   6.761 -0.5949 -0.1142  1.1641
 6623SOL    HW231503   4.162   1.868   6.824 -0.2615  1.2122 -0.8701
 6624SOL     OW31504   1.620   2.794   8.028 -0.3708 -0.0843  0.2365
 6624SOL    HW131505   1.525   2.788   8.037 -0.4364  0.0047 -0.3477
 6624SOL    HW231506   1.644   2.874   8.074 -0.0015  0.4830 -0.9219
 6625SOL     OW31507   1.065   2.825  12.175 -0.3009 -0.2719  0.2679
 6625SOL    HW131508   0.971   2.814  12.160 -0.6701 -1.4111  3.3395
 6625SOL    HW231509   1.080   2.911  12.136  1.7611 -0.8303 -0.1553
 6626SOL     OW31510   3.803   2.818   8.643 -0.0823 -0.1377 -0.1028
 6626SOL    HW131511   3.711   2.824   8.668 -0.1844  0.7473 -0.6791
 6626SOL    HW231512   3.847   2.810   8.727  0.3653 -1.6500 -0.4817
 6627SOL     OW31513   3.460   1.300   7.939 -0.1044 -0.2398  0.5976
 6627SOL    HW131514   3.520   1.368   7.969  1.6587 -2.5085  2.2468
 6627SOL    HW231515   3.451   1.245   8.017  0.9935 -1.2430  0.0208
 6628SOL     OW31516   3.826   1.151   3.349  0.0984 -0.4297 -0.2984
 6628SOL    HW131517   3.864   1.131   3.435  0.7489 -0.8514 -0.6802
 6628SOL    HW231518   3.793   1.062   3.338 -1.4864  0.1292 -0.0776
 6629SOL     OW31519   3.399   0.305   6.898  0.7826  1.0089 -0.7122
 6629SOL    HW131520   3.424   0.293   6.989 -1.2954 -0.2168 -0.3047
 6629SOL    HW231521   3.303   0.315   6.903  0.8102  1.7626 -1.6513
 6630SOL     OW31522   3.920   2.066   3.525 -0.3188 -0.2738  0.0087
 6630SOL    HW131523   3.888   2.051   3.436  1.3258 -0.4917 -0.5378
 6630SOL    HW231524   3.899   2.158   3.538 -0.2236 -0.1543 -0.7160
 6631SOL     OW31525   2.112   2.891   6.651 -0.7798  0.4519 -0.1296
 6631SOL    HW131526   2.092   2.850   6.735  0.1432  0.1442 -0.0682
 6631SOL    HW231527   2.031   2.891   6.600 -0.1348  3.5878 -1.1511
 6632SOL     OW31528   2.529   0.118   4.830 -0.4669  0.2134  0.4420
 6632SOL    HW131529   2.468   0.138   4.759  0.3875 -0.5855 -0.5172
 6632SOL    HW231530   2.563   0.203   4.859 -0.4767  0.0304  0.9924
 6633SOL     OW31531   2.229   3.318  10.809  0.3819 -0.4553  0.5870
 6633SOL    HW131532   2.284   3.317  10.730 -1.1363 -3.3961 -0.4523
 6633SOL    HW231533   2.143   3.319  10.766 -0.0441  0.1091  1.4610
 6634SOL     OW31534   0.036   3.146   9.449 -0.3938  0.0221 -1.0271
 6634SOL    HW131535   4.682   3.165   9.425 -1.2968 -0.8740  1.7183
 6634SOL    HW231536   0.056   3.217   9.509 -1.5406  3.5686 -4.8205
 6635SOL     OW31537   3.445   3.488   7.003 -0.0850 -0.3064 -0.1484
 6635SOL    HW131538   3.498   3.567   6.996 -1.1215  0.3932 -0.2492
 6635SOL    HW231539   3.379   3.522   7.064  1.6556 -1.1323  2.2188
 6636SOL     OW31540   0.139   0.927   1.612  0.8364  0.5379  0.6951
 6636SOL    HW131541   0.068   0.879   1.569  1.5743 -0.0634  0.1405
 6636SOL    HW231542   0.111   1.012   1.580 -0.2435 -0.8188 -2.0117
 6637SOL     OW31543   1.574   4.498   7.578  0.4058  0.2199 -0.1146
 6637SOL    HW131544   1.643   4.481   7.514  0.4962 -1.1138  0.3328
 6637SOL    HW231545   1.622   4.497   7.661 -2.0151 -1.0348  1.2611
 6638SOL     OW31546   1.263   4.172   9.288 -0.0190 -0.3801  0.5366
 6638SOL    HW131547   1.218   4.241   9.336 -0.9046  0.7958 -1.9874
 6638SOL    HW231548   1.225   4.187   9.201  0.0104  2.7182  1.0516
 6639SOL     OW31549   3.668   3.768   2.019  0.1186 -0.2872  0.2069
 6639SOL    HW131550   3.755   3.759   1.980 -1.1664 -1.7024 -2.3444
 6639SOL    HW231551   3.627   3.686   1.991  1.3837 -0.7808 -0.2232
 6640SOL     OW31552   3.427   0.834  14.749  0.1377 -0.8057  0.6668
 6640SOL    HW131553   3.359   0.792  14.802 -1.0753  1.3015  0.8016
 6640SOL    HW231554   3.372   0.886  14.691  1.3403 -0.8338 -0.5011
 6641SOL     OW31555   1.313   3.187   5.033  1.1986 -0.2096 -0.0674
 6641SOL    HW131556   1.330   3.146   4.948  2.3595  1.2060 -0.5044
 6641SOL    HW231557   1.233   3.138   5.054  0.9737  0.1885  0.0126
 6642SOL     OW31558   3.602   0.449   2.527 -0.2445 -0.4793 -0.3262
 6642SOL    HW131559   3.514   0.469   2.496  0.3502 -0.7728 -2.1608
 6642SOL    HW231560   3.613   0.536   2.566 -0.4130 -1.0108  0.9127
 6643SOL     OW31561   1.004   1.160  13.048  0.5244 -0.1656 -0.2837
 6643SOL    HW131562   1.095   1.170  13.019  0.7019  0.4551  0.4655
 6643SOL    HW231563   0.960   1.232  13.003 -0.8449  0.4715  2.0342
 6644SOL     OW31564   2.185   3.011   0.464  0.6780  0.6356  0.0287
 6644SOL    HW131565   2.207   3.036   0.554 -1.0094  0.1749  0.5601
 6644SOL    HW231566   2.268   3.019   0.417  0.0117  3.4957 -0.6497
 6645SOL     OW31567   2.859   1.555   7.640  0.7392 -0.4311  0.2879
 6645SOL    HW131568   2.866   1.633   7.695  0.9825  0.1093 -0.5044
 6645SOL    HW231569   2.864   1.478   7.697  3.1943  0.1683  0.8754
 6646SOL     OW31570   2.556   1.811   1.435  1.0671  0.0774  0.2897
 6646SOL    HW131571   2.572   1.784   1.345  0.3559  0.5004  0.0288
 6646SOL    HW231572   2.462   1.804   1.415  1.2964 -2.0990  0.0375
 6647SOL     OW31573   3.972   0.159   8.044  0.3343 -0.5221  0.0634
 6647SOL    HW131574   3.928   0.089   8.091 -0.2415  0.3140  0.7825
 6647SOL    HW231575   3.941   0.142   7.955 -0.2739 -0.4251  0.2540
 6648SOL     OW31576   2.009   3.698  11.384  0.5679  0.0046  0.2285
 6648SOL    HW131577   2.045   3.627  11.438  0.7230  0.1390  0.3050
 6648SOL    HW231578   1.964   3.753  11.448 -0.6064 -1.7386  0.9121
 6649SOL     OW31579   0.932   3.762  14.316  0.3351  0.0039 -0.4869
 6649SOL    HW131580   1.025   3.751  14.295  1.3577  3.4434  2.3054
 6649SOL    HW231581   0.944   3.817  14.393 -0.2011  0.4097 -0.7036
 6650SOL     OW31582   3.407   3.906   0.371 -0.0443 -0.1630 -0.6524
 6650SOL    HW131583   3.501   3.889   0.367 -0.0740 -0.5242  0.0962
 6650SOL    HW231584   3.370   3.837   0.427 -1.2414  1.5624  0.6825
 6651SOL     OW31585   0.284   0.963   1.069  0.5920  0.1661 -0.6526
 6651SOL    HW131586   0.328   0.929   0.992 -0.7382 -3.2774  0.0901
 6651SOL    HW231587   0.345   0.937   1.138  0.7227 -3.2953 -2.0750
 6652SOL     OW31588   2.419   3.101   6.740 -0.5819  0.0740  0.4540
 6652SOL    HW131589   2.389   3.011   6.726 -1.8873  0.9252 -2.1108
 6652SOL    HW231590   2.499   3.096   6.687 -0.2199  1.7381  0.8647
 6653SOL     OW31591   0.070   4.105   2.881 -0.0864  0.0267 -0.6340
 6653SOL    HW131592   4.733   4.129   2.827 -0.9594 -0.2438  0.4411
 6653SOL    HW231593   0.026   4.126   2.964  1.4938 -1.9047  0.7062
 6654SOL     OW31594   3.252   1.137   1.566 -0.1300 -0.3755 -0.3597
 6654SOL    HW131595   3.317   1.125   1.636  1.2025 -0.0592 -1.5492
 6654SOL    HW231596   3.261   1.231   1.551  1.1422 -0.8839 -2.7011
 6655SOL     OW31597   3.137   1.419  10.271 -0.3432  0.7068  0.0320
 6655SOL    HW131598   3.095   1.467  10.200 -0.7228  1.8338  1.0072
 6655SOL    HW231599   3.089   1.337  10.280 -1.6069  1.3784 -0.6003
 6656SOL     OW31600   2.865   3.783   9.294  0.4360 -0.3228 -0.6173
 6656SOL    HW131601   2.805   3.830   9.236 -0.3443  0.8346  1.1338
 6656SOL    HW231602   2.831   3.799   9.382  0.5607 -1.1666 -0.4154
 6657SOL     OW31603   2.396   2.860   3.426  0.7992  0.5628 -0.4425
 6657SOL    HW131604   2.459   2.840   3.357  1.2315 -2.0928  0.7178
 6657SOL    HW231605   2.330   2.793   3.411 -0.0446  1.1711  0.5673
 6658SOL     OW31606   2.426   1.721  12.670 -0.2160  0.4311  0.2685
 6658SOL    HW131607   2.456   1.636  12.704  0.0035  0.7701  0.9229
 6658SOL    HW231608   2.388   1.759  12.749 -0.5109 -0.4328  0.5519
 6659SOL     OW31609   0.495   4.078  16.557  0.0752  0.2021  0.4187
 6659SOL    HW131610   0.458   4.162  16.582 -0.7400 -0.0524  0.0879
 6659SOL    HW231611   0.465   4.023  16.630 -2.0723  0.9243  0.0760
 6660SOL     OW31612   4.068   3.792   5.294 -0.5506  0.1190  0.1652
 6660SOL    HW131613   4.106   3.873   5.261 -0.8021  0.4557  0.6926
 6660SOL    HW231614   3.999   3.834   5.345 -0.1143  0.3850  0.5414
 6661SOL     OW31615   0.525   0.960   1.265  0.4453  0.0417  0.1275
 6661SOL    HW131616   0.539   1.050   1.236 -0.8588 -0.0200 -0.6784
 6661SOL    HW231617   0.519   0.970   1.360  2.6849  3.3288 -0.0784
 6662SOL     OW31618   0.177   2.442   5.114  0.0488  0.2667  0.2218
 6662SOL    HW131619   0.233   2.364   5.114  0.7291  0.7461 -1.6589
 6662SOL    HW231620   0.116   2.417   5.045 -1.2171  1.2162  1.0035
 6663SOL     OW31621   0.015   2.136  11.328  0.3092 -0.0387  0.0226
 6663SOL    HW131622   0.038   2.199  11.396  1.1336  1.2808 -1.4485
 6663SOL    HW231623   0.085   2.072  11.340 -0.9649 -1.6650 -1.3063
 6664SOL     OW31624   3.766   0.599   9.923 -0.6979  0.8008 -0.0414
 6664SOL    HW131625   3.836   0.543   9.890  0.8145  0.5907  3.4762
 6664SOL    HW231626   3.805   0.686   9.927  3.0304 -0.7244 -3.2027
 6665SOL     OW31627   1.045   1.903   6.780  0.0444  0.1058 -0.2495
 6665SOL    HW131628   1.004   1.918   6.864 -3.2456 -0.8939 -1.6906
 6665SOL    HW231629   1.137   1.898   6.807 -0.3532 -1.7210  0.7287
 6666SOL     OW31630   4.110   3.405   8.113  0.6025  0.4188 -0.7081
 6666SOL    HW131631   4.141   3.495   8.097 -0.5674  0.9475  0.0849
 6666SOL    HW231632   4.163   3.383   8.189 -3.0003 -3.0891  0.7566
 6667SOL     OW31633   0.248   4.160   0.703 -0.0288 -0.0425 -1.1135
 6667SOL    HW131634   0.319   4.224   0.703 -0.0910  0.0244 -1.4643
 6667SOL    HW231635   0.175   4.222   0.701  0.3429  0.3460 -2.7662
 6668SOL     OW31636   3.766   1.013   2.239 -0.7246  0.1682  0.4377
 6668SOL    HW131637   3.774   0.946   2.308 -1.2950 -1.2260 -0.8682
 6668SOL    HW231638   3.698   1.069   2.275  1.0121  3.1017 -0.8699
 6669SOL     OW31639   0.300   1.777   2.726  0.4328  0.3393  0.4770
 6669SOL    HW131640   0.330   1.706   2.784  3.0216 -1.6959 -3.3450
 6669SOL    HW231641   0.379   1.821   2.696  0.5759  0.9065  1.6637
 6670SOL     OW31642   2.510   0.811   8.312 -0.1140 -0.1886  0.4300
 6670SOL    HW131643   2.525   0.747   8.381  1.6347  1.1005  1.2367
 6670SOL    HW231644   2.531   0.884   8.370  1.0510  1.3288 -1.8920
 6671SOL     OW31645   3.034   1.803   5.292 -0.6159  0.0650  0.1232
 6671SOL    HW131646   3.023   1.869   5.362 -2.4723  1.2539 -1.2778
 6671SOL    HW231647   2.960   1.826   5.236  1.0790  2.6448 -1.0925
 6672SOL     OW31648   1.597   4.498   3.209  0.0576  0.1431  0.4505
 6672SOL    HW131649   1.595   4.477   3.303 -1.4795  0.9441  0.5963
 6672SOL    HW231650   1.547   4.580   3.213  1.4445  1.0020 -0.2156
 6673SOL     OW31651   3.374   0.309   3.707 -0.0016 -0.8054 -0.2116
 6673SOL    HW131652   3.345   0.264   3.627 -1.4646 -0.0672 -0.1009
 6673SOL    HW231653   3.316   0.385   3.706  1.4971  0.2694 -2.8105
 6674SOL     OW31654   2.902   0.351  13.008 -0.3023 -0.0849 -0.0433
 6674SOL    HW131655   2.815   0.340  13.045 -1.0360 -0.1019 -1.7683
 6674SOL    HW231656   2.954   0.373  13.085  0.4810 -1.4175 -0.2041
 6675SOL     OW31657   2.331   0.296   8.322 -0.0271 -0.6197 -0.3199
 6675SOL    HW131658   2.266   0.255   8.378 -0.1422 -1.3316 -0.9715
 6675SOL    HW231659   2.399   0.229   8.324 -0.7825 -1.4353 -2.4383
 6676SOL     OW31660   1.243   4.574   9.194  0.3205 -0.4638 -0.5155
 6676SOL    HW131661   1.172   4.572   9.130  0.6468  2.7704 -0.9416
 6676SOL    HW231662   1.198   4.533   9.268  1.9256 -1.1282  0.0924
 6677SOL     OW31663   2.212   1.860  17.399 -0.0725  0.4548 -0.5579
 6677SOL    HW131664   2.201   1.937  17.455 -1.6470 -0.3827  0.2966
 6677SOL    HW231665   2.137   1.810  17.430  0.3815  0.3452  0.3609
 6678SOL     OW31666   4.321   0.002   4.178 -0.3178 -0.1385  0.2926
 6678SOL    HW131667   4.264   0.065   4.222  0.2874 -0.5487  1.6588
 6678SOL    HW231668   4.405   0.019   4.222  0.0222  0.6987 -0.6945
 6679SOL     OW31669   1.875   3.058   5.234  0.3921 -0.8148 -0.2592
 6679SOL    HW131670   1.789   3.041   5.274  1.1710  0.1431  1.8295
 6679SOL    HW231671   1.841   3.090   5.151 -0.3805  0.4017  0.5192
 6680SOL     OW31672   0.371   3.036   5.223 -0.1911  0.0132 -0.1989
 6680SOL    HW131673   0.331   3.106   5.275  0.0287  0.6448 -0.8795
 6680SOL    HW231674   0.428   3.005   5.294  0.3535 -0.7905 -0.9941
 6681SOL     OW31675   0.276   1.877   6.810 -1.0647 -0.0468 -0.2750
 6681SOL    HW131676   0.332   1.801   6.824 -0.1196  0.4731 -1.2214
 6681SOL    HW231677   0.337   1.951   6.811 -0.0474 -0.9034  0.6335
 6682SOL     OW31678   2.513   2.023  13.165 -0.2915 -0.4780 -0.0195
 6682SOL    HW131679   2.524   2.115  13.189 -1.0065 -0.2411 -0.5838
 6682SOL    HW231680   2.515   1.981  13.251  1.1987 -1.2316 -0.4243
 6683SOL     OW31681   4.565   2.070   3.742 -0.0303 -0.2100 -0.5096
 6683SOL    HW131682   4.532   2.140   3.799 -0.7561  0.1298 -1.3555
 6683SOL    HW231683   4.568   2.003   3.810 -3.5764  2.4873  2.3315
 6684SOL     OW31684   1.233   2.307   5.347 -0.2256  0.2346  0.1129
 6684SOL    HW131685   1.170   2.289   5.278  0.6382  2.2093 -1.1800
 6684SOL    HW231686   1.306   2.248   5.328 -1.3614 -1.6002  1.4756
 6685SOL     OW31687   1.758   2.971   3.104 -0.1611 -0.3398 -0.1090
 6685SOL    HW131688   1.670   2.995   3.076  0.1190  3.1431  1.9172
 6685SOL    HW231689   1.740   2.963   3.198 -0.7658 -0.1940 -0.2140
 6686SOL     OW31690   2.196   0.660   7.523 -0.4303 -0.3662  0.1640
 6686SOL    HW131691   2.268   0.598   7.516  0.4656  0.9942 -2.4765
 6686SOL    HW231692   2.150   0.625   7.447  0.4808 -2.1242  0.4308
 6687SOL     OW31693   2.752   3.173  11.841 -0.0332  0.3614 -0.5104
 6687SOL    HW131694   2.752   3.199  11.749  0.0336 -1.5877 -1.0629
 6687SOL    HW231695   2.657   3.185  11.849 -0.2586  0.0024 -2.7020
 6688SOL     OW31696   2.772   4.452   5.773 -0.4846 -0.3867  0.3570
 6688SOL    HW131697   2.710   4.497   5.830  0.3418  0.0541  0.9197
 6688SOL    HW231698   2.712   4.401   5.719  0.1664 -0.3483 -0.4016
 6689SOL     OW31699   1.435   3.091   9.198  0.3913  0.0214 -0.4115
 6689SOL    HW131700   1.484   3.083   9.116 -0.6265 -0.4581 -0.9707
 6689SOL    HW231701   1.402   3.002   9.213  0.0256  0.4849  1.5108
 6690SOL     OW31702   4.724   4.378   2.707 -0.1472 -0.2734 -0.1900
 6690SOL    HW131703   4.735   4.463   2.666 -1.3914  0.6950  1.4532
 6690SOL    HW231704   0.033   4.403   2.787  0.0918  2.1506 -1.0820
 6691SOL     OW31705   4.205   3.770   3.434  0.2813  0.3907  0.0947
 6691SOL    HW131706   4.251   3.686   3.445 -0.7176 -0.1860 -0.1825
 6691SOL    HW231707   4.188   3.791   3.525  1.2801  1.2825  0.0767
 6692SOL     OW31708   1.407   4.309   0.648  0.1483  0.0253  0.1714
 6692SOL    HW131709   1.368   4.263   0.722 -1.2107  1.2305  0.2059
 6692SOL    HW231710   1.344   4.380   0.632  0.1508 -0.5842 -2.4479
 6693SOL     OW31711   1.839   4.108   5.389  0.2400  0.5887 -0.3356
 6693SOL    HW131712   1.747   4.117   5.365 -0.4305 -0.8987  1.6694
 6693SOL    HW231713   1.870   4.153   5.310 -1.4548 -1.9160 -2.4461
 6694SOL     OW31714   4.378   1.209   4.221 -0.5251  0.1700 -0.7249
 6694SOL    HW131715   4.352   1.132   4.170  1.4313 -1.1835  0.3179
 6694SOL    HW231716   4.303   1.269   4.216  0.3813  1.2356 -1.8680
 6695SOL     OW31717   1.011   0.902   1.845 -0.2798 -0.0978  0.5262
 6695SOL    HW131718   0.942   0.892   1.911 -0.9538 -1.4408 -0.3859
 6695SOL    HW231719   0.955   0.920   1.770  1.5728  1.0083 -0.5809
 6696SOL     OW31720   3.609   3.307   9.080  0.1782 -0.0406  0.4744
 6696SOL    HW131721   3.677   3.322   9.015  0.0869  0.2535  0.4452
 6696SOL    HW231722   3.627   3.220   9.115  2.0755  0.7161  1.3704
 6697SOL     OW31723   3.611   4.482   3.284 -0.3505 -0.1426  0.1740
 6697SOL    HW131724   3.549   4.410   3.296 -1.0244  0.3305 -0.4725
 6697SOL    HW231725   3.587   4.515   3.198 -0.2884 -0.4959  0.0216
 6698SOL     OW31726   3.054   3.033   7.512 -0.0941 -0.4744 -0.0937
 6698SOL    HW131727   2.990   3.031   7.440  1.9889 -1.4075 -1.9194
 6698SOL    HW231728   3.009   3.023   7.595 -3.8971  0.6664 -2.0121
 6699SOL     OW31729   0.070   0.480  11.235  0.2307  0.2880  0.0597
 6699SOL    HW131730   0.135   0.447  11.173 -0.8299 -2.1489  0.2065
 6699SOL    HW231731   0.007   0.532  11.185  0.5185 -1.4120 -2.0506
 6700SOL     OW31732   4.034   0.483   1.740  0.2510  0.2649  0.3082
 6700SOL    HW131733   4.074   0.398   1.722 -1.8482 -0.9689  1.5402
 6700SOL    HW231734   3.984   0.504   1.661  0.3645 -1.9378 -0.3589
 6701SOL     OW31735   0.450   2.575   2.613  0.3478  0.1655  0.3748
 6701SOL    HW131736   0.519   2.639   2.631  0.1824  0.1252  1.1541
 6701SOL    HW231737   0.473   2.555   2.522  1.7437 -0.4714  0.8709
 6702SOL     OW31738   2.693   1.136   4.063  0.7572  0.1754  0.5009
 6702SOL    HW131739   2.697   1.122   3.969  1.9284  2.7170  0.1746
 6702SOL    HW231740   2.732   1.056   4.097  0.2276 -0.1502  0.3315
 6703SOL     OW31741   1.751   2.707   8.979  0.0486 -0.1712 -0.3694
 6703SOL    HW131742   1.808   2.633   8.961  1.2225  0.6861 -0.1442
 6703SOL    HW231743   1.805   2.786   8.968 -0.9600  0.4676 -0.7636
 6704SOL     OW31744   1.895   1.928   7.888  0.3066 -0.2681  0.0468
 6704SOL    HW131745   1.985   1.909   7.860  0.5338 -0.6376  1.0397
 6704SOL    HW231746   1.848   1.954   7.808 -0.4097 -0.4474  0.4136
 6705SOL     OW31747   3.361   1.324   2.673  0.0529  0.4124  0.3405
 6705SOL    HW131748   3.362   1.239   2.718  2.2709  0.0606 -0.3738
 6705SOL    HW231749   3.423   1.313   2.601 -0.4707 -0.9547  0.0954
 6706SOL     OW31750   1.194   0.769  11.540 -0.2291 -0.0582  0.1917
 6706SOL    HW131751   1.231   0.840  11.488  0.4723  0.4284  1.3574
 6706SOL    HW231752   1.271   0.756  11.595  0.1920 -0.3435 -0.4524
 6707SOL     OW31753   1.417   1.166   9.969 -0.1347 -0.1197  0.6987
 6707SOL    HW131754   1.409   1.095  10.032 -3.6155  0.4497  0.8971
 6707SOL    HW231755   1.345   1.148   9.909 -0.4781 -0.6897  1.2884
 6708SOL     OW31756   2.276   1.642  13.487  0.1552  0.1599 -0.1375
 6708SOL    HW131757   2.190   1.603  13.504  1.6178 -1.8232  2.5582
 6708SOL    HW231758   2.326   1.610  13.561 -2.0944 -2.1322  0.4137
 6709SOL     OW31759   2.874   2.641   6.097 -0.2973 -0.7654  0.3268
 6709SOL    HW131760   2.828   2.584   6.158  0.0702  0.8352  2.1007
 6709SOL    HW231761   2.884   2.590   6.017  0.5048 -1.5381  0.9245
 6710SOL     OW31762   3.446   1.742   2.324 -1.0890 -0.4107  0.6791
 6710SOL    HW131763   3.455   1.700   2.239 -1.8637  0.8300  0.0021
 6710SOL    HW231764   3.531   1.785   2.331  0.6485 -3.2908 -2.9274
 6711SOL     OW31765   0.931   3.994  11.715 -0.0221 -0.3829  0.4999
 6711SOL    HW131766   0.850   4.020  11.673  0.6034  1.1816  0.2693
 6711SOL    HW231767   0.921   4.007  11.810 -1.9291  0.2899  0.2045
 6712SOL     OW31768   3.453   2.215   0.074 -0.0868  0.2999 -0.0313
 6712SOL    HW131769   3.529   2.271   0.057 -0.5569  1.9658  3.3949
 6712SOL    HW231770   3.399   2.224  17.744 -0.4598  0.2136  0.2168
 6713SOL     OW31771   0.745   4.127   2.319  0.4717 -0.8464  0.0340
 6713SOL    HW131772   0.659   4.152   2.353  1.0556  0.1824  0.7413
 6713SOL    HW231773   0.753   4.188   2.246  1.1349 -1.3212 -0.2907
 6714SOL     OW31774   4.245   4.027   5.805 -0.0918  0.0289 -0.0636
 6714SOL    HW131775   4.250   4.051   5.897  0.1934 -0.1669 -0.0271
 6714SOL    HW231776   4.150   4.026   5.792 -0.2761 -1.7577  1.5321
 6715SOL     OW31777   0.793   2.717  12.409  0.5718  0.5292  0.2889
 6715SOL    HW131778   0.857   2.723  12.480 -0.1899  0.9245  0.9452
 6715SOL    HW231779   0.783   2.809  12.382  0.3396  0.3425 -0.2624
 6716SOL     OW31780   0.359   0.157   4.132 -0.3408 -0.9300  0.0113
 6716SOL    HW131781   0.290   0.108   4.176 -1.5997  2.0557  1.4129
 6716SOL    HW231782   0.421   0.089   4.107  4.7178  3.1701  1.4083
 6717SOL     OW31783   3.707   1.114  15.496 -0.1710 -0.1668  0.2898
 6717SOL    HW131784   3.646   1.181  15.465 -1.7303 -1.9142 -0.4209
 6717SOL    HW231785   3.758   1.104  15.415 -1.3446 -1.1733 -0.3301
 6718SOL     OW31786   4.309   3.733   5.979  0.3036 -0.2872  0.0423
 6718SOL    HW131787   4.290   3.821   6.012 -0.3806 -1.0689  1.7468
 6718SOL    HW231788   4.239   3.720   5.914  1.1905 -0.8685 -0.8033
 6719SOL     OW31789   2.046   4.451  17.670 -0.2495  0.2695 -0.1703
 6719SOL    HW131790   2.128   4.402  17.668  0.1895  1.0078 -0.4717
 6719SOL    HW231791   2.075   4.542  17.661  0.7551 -0.2930 -2.8110
 6720SOL     OW31792   0.697   3.715  17.652 -0.0456  0.1974 -0.5683
 6720SOL    HW131793   0.698   3.782  17.720 -0.7709  0.3440 -0.7034
 6720SOL    HW231794   0.606   3.719  17.624 -0.9796  1.3157  2.6006
 6721SOL     OW31795   2.187   2.743   5.866 -0.4365  0.8228  0.2389
 6721SOL    HW131796   2.138   2.773   5.789 -4.8085 -3.4776  1.3304
 6721SOL    HW231797   2.271   2.785   5.850 -0.6086  0.2472 -2.2889
 6722SOL     OW31798   4.150   0.720   4.511  0.0378 -0.9564  0.3247
 6722SOL    HW131799   4.197   0.694   4.590 -2.5546 -0.4396  2.0503
 6722SOL    HW231800   4.126   0.632   4.482  2.3426 -1.1900 -0.8243
 6723SOL     OW31801   0.029   2.666   3.683  0.0764  0.0584 -0.1336
 6723SOL    HW131802   0.076   2.676   3.766 -0.7973 -0.4758  0.4141
 6723SOL    HW231803   4.725   2.580   3.692  1.3327 -0.5474 -0.0987
 6724SOL     OW31804   3.222   4.136  16.283  0.1397 -0.1082  0.6927
 6724SOL    HW131805   3.160   4.086  16.337 -0.4301  1.3291  1.3533
 6724SOL    HW231806   3.278   4.073  16.237  0.8703  1.9077 -1.1670
 6725SOL     OW31807   2.589   0.272   6.607 -0.3014  0.0945  0.1348
 6725SOL    HW131808   2.514   0.242   6.556  0.7487  0.8635 -1.8954
 6725SOL    HW231809   2.656   0.209   6.581 -1.5136 -0.3120 -2.0409
 6726SOL     OW31810   3.790   1.460   1.731 -0.0813 -0.6068 -0.0104
 6726SOL    HW131811   3.865   1.468   1.671  0.2574 -0.0927  0.4813
 6726SOL    HW231812   3.827   1.407   1.802 -1.5190  0.7579  1.7535
 6727SOL     OW31813   2.368   0.712  17.197  0.5799  0.1308  0.3572
 6727SOL    HW131814   2.367   0.701  17.102 -0.0224  0.1776  0.3587
 6727SOL    HW231815   2.279   0.683  17.215  0.0495  0.3983 -1.8358
 6728SOL     OW31816   4.627   4.539   8.860  0.5846  0.2427  0.2031
 6728SOL    HW131817   4.570   4.466   8.885 -1.1721  2.2845  2.2010
 6728SOL    HW231818   4.581   4.618   8.889  1.9954  0.8806  0.7292
 6729SOL     OW31819   1.528   2.821   2.819 -0.0869 -0.0074 -0.4080
 6729SOL    HW131820   1.493   2.852   2.735  2.0803  0.9031 -0.9769
 6729SOL    HW231821   1.622   2.813   2.803 -0.1663 -1.2006 -0.3330
 6730SOL     OW31822   4.306   0.604   3.889  0.3348 -0.0815 -0.4857
 6730SOL    HW131823   4.244   0.583   3.959 -1.4370 -0.1182 -2.0644
 6730SOL    HW231824   4.293   0.540   3.818 -1.1992 -0.0295 -0.2357
 6731SOL     OW31825   0.082   1.347  11.525 -0.2289 -0.4388  0.5708
 6731SOL    HW131826   0.151   1.389  11.576  0.8689  0.5354 -1.7388
 6731SOL    HW231827   0.011   1.412  11.529 -0.0036 -0.3720  3.8464
 6732SOL     OW31828   2.477   0.776   8.037  0.1232 -0.1383  0.1124
 6732SOL    HW131829   2.482   0.771   8.133  0.6357 -0.3129  0.0754
 6732SOL    HW231830   2.571   0.775   8.019  0.0143 -0.7786 -0.4140
 6733SOL     OW31831   0.677   4.699  17.142  0.4236  0.6249  0.3213
 6733SOL    HW131832   0.617   0.024  17.102  1.5280  1.4385 -0.0378
 6733SOL    HW231833   0.679   4.734  17.231  1.7034  2.1119 -0.2987
 6734SOL     OW31834   4.445   3.898   5.695 -0.1943 -0.1756 -0.3546
 6734SOL    HW131835   4.470   3.839   5.767 -1.1528  0.8633  0.8219
 6734SOL    HW231836   4.377   3.953   5.734  1.4042 -0.3543  2.6557
 6735SOL     OW31837   1.792   4.702  10.007  0.3945  0.0724 -0.0957
 6735SOL    HW131838   1.872   4.700  10.059  0.5042  0.4100 -0.2476
 6735SOL    HW231839   1.817   4.656   9.927  0.5143  0.7033 -0.4251
 6736SOL     OW31840   1.416   2.383   6.728  0.0254 -0.0922 -0.9278
 6736SOL    HW131841   1.376   2.455   6.680  0.1787 -0.0976 -1.0649
 6736SOL    HW231842   1.357   2.310   6.711  2.5983 -1.9880 -1.8050
 6737SOL     OW31843   3.065   1.429   9.021  0.4024 -0.2809  0.4563
 6737SOL    HW131844   3.152   1.427   8.979  0.0916  1.2788 -0.2594
 6737SOL    HW231845   3.012   1.395   8.949  2.9620 -3.6968  0.1646
 6738SOL     OW31846   4.388   1.146  11.937  0.6270 -0.4739  0.4063
 6738SOL    HW131847   4.396   1.242  11.933 -0.9069 -0.2705  2.0196
 6738SOL    HW231848   4.391   1.121  11.845 -1.5760 -0.3251  0.3009
 6739SOL     OW31849   3.162   1.959  11.093  0.3520  0.2741  0.4693
 6739SOL    HW131850   3.104   2.034  11.079  2.2269  1.5577 -0.4214
 6739SOL    HW231851   3.200   1.981  11.178  2.7797 -2.2251  0.0335
 6740SOL     OW31852   0.441   2.981   5.499 -0.6473 -0.2182 -0.3270
 6740SOL    HW131853   0.389   3.007   5.575 -1.9520 -2.7254 -0.3574
 6740SOL    HW231854   0.430   2.887   5.511 -1.3001 -0.4693 -2.8454
 6741SOL     OW31855   3.007   4.143   6.796 -0.1337 -0.0940 -0.0582
 6741SOL    HW131856   3.013   4.217   6.857 -0.0083 -0.6604  0.6258
 6741SOL    HW231857   3.092   4.102   6.809 -0.5149 -0.4375  1.4556
 6742SOL     OW31858   3.265   0.439   6.125  0.2999  0.4007  0.1260
 6742SOL    HW131859   3.246   0.512   6.067 -2.9837 -0.0085  0.6945
 6742SOL    HW231860   3.186   0.388   6.109  1.2856 -2.4007  3.9260
 6743SOL     OW31861   2.773   0.132   4.549  0.0282  0.1573  0.2660
 6743SOL    HW131862   2.693   0.121   4.499 -1.2387  1.2425  2.0678
 6743SOL    HW231863   2.843   0.090   4.499 -1.8512  0.3290 -2.5110
 6744SOL     OW31864   1.837   3.540   4.133 -0.3943  0.5709 -0.0881
 6744SOL    HW131865   1.761   3.580   4.175 -1.7090 -2.5974  0.5033
 6744SOL    HW231866   1.776   3.484   4.084 -0.7222  0.8839 -0.0418
 6745SOL     OW31867   3.922   4.166   9.493 -0.0968 -0.2793  0.0135
 6745SOL    HW131868   3.903   4.075   9.473 -0.5734 -0.7902  2.8756
 6745SOL    HW231869   3.942   4.198   9.404 -0.4722 -1.1311 -0.3759
 6746SOL     OW31870   4.603   2.846   2.139  0.0287  0.2829 -0.7483
 6746SOL    HW131871   4.519   2.826   2.181  0.1217  0.9451 -0.2495
 6746SOL    HW231872   4.578   2.854   2.047 -3.7375  1.7985  0.3643
 6747SOL     OW31873   4.298   3.232  12.649 -0.1267  0.2767 -0.2670
 6747SOL    HW131874   4.386   3.255  12.619  0.1075 -0.1878  0.0694
 6747SOL    HW231875   4.256   3.315  12.673 -1.4587 -0.4912  0.0098
 6748SOL     OW31876   2.761   3.227   7.443  0.1428  0.0223 -0.2147
 6748SOL    HW131877   2.746   3.135   7.422 -2.2113  0.5057 -0.6688
 6748SOL    HW231878   2.764   3.246   7.537  0.3985 -0.2588 -0.1657
 6749SOL     OW31879   1.158   4.169  10.159 -0.3726 -0.1504  0.2274
 6749SOL    HW131880   1.114   4.248  10.191 -1.1644 -0.3894 -0.2446
 6749SOL    HW231881   1.109   4.102  10.207 -2.7547  2.1056  0.9774
 6750SOL     OW31882   3.348   0.808   8.932 -0.6222  0.6726  0.3218
 6750SOL    HW131883   3.401   0.730   8.916 -0.7873  0.5239  0.4921
 6750SOL    HW231884   3.325   0.802   9.025  1.2923 -0.5100  0.7214
 6751SOL     OW31885   2.501   4.544   8.755  0.5109  0.1914 -0.7783
 6751SOL    HW131886   2.425   4.588   8.793  0.0802  0.2568 -1.7191
 6751SOL    HW231887   2.547   4.627   8.741  2.6578 -0.3496  3.0752
 6752SOL     OW31888   1.495   2.209  13.179  0.4244 -0.0541 -0.1575
 6752SOL    HW131889   1.490   2.178  13.269 -0.5501 -0.1391 -0.2336
 6752SOL    HW231890   1.560   2.279  13.177 -0.6628  0.9964  0.6381
 6753SOL     OW31891   0.654   2.213   3.779 -0.1410 -0.0579  0.3325
 6753SOL    HW131892   0.574   2.162   3.762 -1.1112  2.1480 -1.7032
 6753SOL    HW231893   0.667   2.232   3.686 -2.4866 -0.6450 -0.1124
 6754SOL     OW31894   2.117   1.048  10.015 -0.1448  0.1463  0.6554
 6754SOL    HW131895   2.098   1.086  10.100 -1.3402 -0.3532  0.6179
 6754SOL    HW231896   2.200   1.092   9.995 -0.0265 -0.0953  0.6173
 6755SOL     OW31897   0.029   4.206   5.919  0.2421 -0.6832 -0.1053
 6755SOL    HW131898   0.042   4.112   5.931  2.4868 -0.1764  1.4598
 6755SOL    HW231899   4.731   4.229   6.005  1.8533 -3.9202  1.4312
 6756SOL     OW31900   0.126   3.016   0.806 -0.3000 -0.0178 -0.7339
 6756SOL    HW131901   0.049   2.978   0.848  0.9086  0.3111  1.7802
 6756SOL    HW231902   0.090   3.101   0.783  2.9656  1.3854 -0.6382
 6757SOL     OW31903   1.199   1.410  15.902 -0.4155 -0.2166  0.3583
 6757SOL    HW131904   1.285   1.383  15.934 -0.6344  0.5529  1.5520
 6757SOL    HW231905   1.166   1.468  15.970  2.3751 -0.8256  2.2127
 6758SOL     OW31906   0.265   3.443   2.762  0.3971  0.0889  0.2012
 6758SOL    HW131907   0.342   3.496   2.780  0.2934  0.5433 -0.7023
 6758SOL    HW231908   0.267   3.386   2.839  4.9775 -0.3800 -0.2446
 6759SOL     OW31909   4.068   1.205   0.535 -0.0375 -0.2851  0.4719
 6759SOL    HW131910   3.994   1.196   0.475  1.3553  1.1958 -1.4647
 6759SOL    HW231911   4.046   1.289   0.576 -0.5814 -0.3593  0.3381
 6760SOL     OW31912   4.677   0.316   4.329 -0.5835  0.1566  0.2662
 6760SOL    HW131913   4.642   0.342   4.244 -1.4417 -1.5117  0.1168
 6760SOL    HW231914   4.626   0.240   4.357  0.5267 -1.1087 -1.1550
 6761SOL     OW31915   2.228   3.043   6.059  0.4740 -0.3807 -0.5634
 6761SOL    HW131916   2.217   3.124   6.108 -1.7893 -1.0425 -0.0074
 6761SOL    HW231917   2.323   3.036   6.051  0.5588  2.5037 -2.2585
 6762SOL     OW31918   4.375   1.375   3.000  0.4455 -0.4590  0.3090
 6762SOL    HW131919   4.309   1.321   3.043 -1.3024 -1.4126 -3.5771
 6762SOL    HW231920   4.315   1.420   2.940  1.1239  0.0491  0.0144
 6763SOL     OW31921   4.373   2.179  12.704  0.3806 -0.3800 -0.1109
 6763SOL    HW131922   4.379   2.125  12.625 -0.3631 -0.7588  0.0949
 6763SOL    HW231923   4.414   2.262  12.679  0.3020 -0.4293 -0.4077
 6764SOL     OW31924   0.464   4.308   2.753  0.2165 -0.4462  0.2943
 6764SOL    HW131925   0.551   4.308   2.714 -1.0718  2.0438 -2.5066
 6764SOL    HW231926   0.468   4.246   2.826 -0.7321  0.1307  0.8466
 6765SOL     OW31927   3.546   1.469   5.489 -0.5546 -0.4804 -0.4357
 6765SOL    HW131928   3.561   1.563   5.497  1.1025 -0.6458 -1.4664
 6765SOL    HW231929   3.631   1.438   5.457 -0.5139  0.2104 -0.9908
 6766SOL     OW31930   2.785   0.389   2.349 -0.8407  0.1769 -0.9469
 6766SOL    HW131931   2.691   0.403   2.363 -0.9003 -1.4393  0.3289
 6766SOL    HW231932   2.810   0.470   2.305  1.1920  1.1459  1.9942
 6767SOL     OW31933   1.090   4.072  11.974  0.3505 -0.6309 -0.0216
 6767SOL    HW131934   1.167   4.069  12.031  0.3231  0.3373  0.0746
 6767SOL    HW231935   1.045   3.997  12.011 -0.9002  0.2252  0.1691
 6768SOL     OW31936   4.536   3.740   5.077 -0.1038  0.1944  0.2496
 6768SOL    HW131937   4.443   3.722   5.062  0.0022 -0.1815  0.0437
 6768SOL    HW231938   4.534   3.799   5.152 -2.1941 -0.8336  1.0078
 6769SOL     OW31939   4.115   1.457   1.786  0.2118 -0.7989 -0.1849
 6769SOL    HW131940   4.065   1.382   1.818  0.0941 -0.1696  1.0850
 6769SOL    HW231941   4.141   1.411   1.706  0.8069  0.7629 -0.8949
 6770SOL     OW31942   0.136   0.586   6.359  0.2362 -0.3108 -0.2496
 6770SOL    HW131943   0.164   0.647   6.427  1.6192 -2.8901  1.4639
 6770SOL    HW231944   0.048   0.574   6.394  0.4436  0.7782  0.6273
 6771SOL     OW31945   1.709   2.352   4.665  0.0541  0.0663  0.1785
 6771SOL    HW131946   1.629   2.328   4.617  0.0833 -0.9856  0.6526
 6771SOL    HW231947   1.676   2.326   4.751  0.6850 -0.1630  0.3503
 6772SOL     OW31948   1.701   2.508  15.024  0.1258  0.1422 -0.2523
 6772SOL    HW131949   1.689   2.509  15.119 -2.1892  0.1532 -0.5525
 6772SOL    HW231950   1.785   2.553  15.020  1.4181 -2.2515 -0.4056
 6773SOL     OW31951   4.486   2.378   1.583  0.9008 -0.0704 -0.3944
 6773SOL    HW131952   4.486   2.284   1.564 -0.9950 -0.2670  0.5989
 6773SOL    HW231953   4.513   2.408   1.496  1.1680  0.1349 -0.2409
 6774SOL     OW31954   3.036   0.291   6.120 -0.5307 -0.5036 -0.0076
 6774SOL    HW131955   3.073   0.228   6.182 -0.6109 -2.4408 -1.9371
 6774SOL    HW231956   2.951   0.308   6.159 -1.2278 -2.1815 -0.8091
 6775SOL     OW31957   1.503   1.909   3.590  0.2891  0.4129 -0.1056
 6775SOL    HW131958   1.586   1.881   3.629  0.3905  0.7541 -0.0729
 6775SOL    HW231959   1.456   1.959   3.656  0.0290  1.7503 -1.2904
 6776SOL     OW31960   0.244   2.278   8.166 -0.3001 -0.4674 -0.5667
 6776SOL    HW131961   0.208   2.261   8.079 -1.5751  1.9138 -0.5186
 6776SOL    HW231962   0.170   2.315   8.213  0.2417  0.6170 -0.5812
 6777SOL     OW31963   2.179   2.668  12.500 -0.1790 -0.3733  0.7553
 6777SOL    HW131964   2.093   2.701  12.528 -0.2716 -0.1662  0.2264
 6777SOL    HW231965   2.175   2.676  12.404 -3.2598  3.2649  1.1811
 6778SOL     OW31966   1.959   0.291   8.155 -0.0122 -0.4606 -0.5040
 6778SOL    HW131967   1.956   0.379   8.192  0.0820 -0.9088  0.5635
 6778SOL    HW231968   2.045   0.291   8.113 -0.1964 -2.3738 -0.8957
 6779SOL     OW31969   1.292   4.318   4.802  0.1128  0.0740 -0.2458
 6779SOL    HW131970   1.279   4.231   4.842 -1.1861  0.1572 -0.4924
 6779SOL    HW231971   1.218   4.318   4.742  0.9675  1.9334 -1.2674
 6780SOL     OW31972   2.841   2.993   5.077 -0.5700 -0.6160 -0.3978
 6780SOL    HW131973   2.848   2.934   5.151 -0.4443 -0.0611  0.0381
 6780SOL    HW231974   2.935   2.998   5.056 -0.6316 -1.1054 -0.7815
 6781SOL     OW31975   1.962   4.404  16.508  0.0703  0.0716 -0.4590
 6781SOL    HW131976   1.870   4.383  16.520  0.0627 -0.4848 -1.5220
 6781SOL    HW231977   1.991   4.428  16.596 -0.3917 -0.1783 -0.2418
 6782SOL     OW31978   1.186   2.399   8.543  0.3680  0.1531 -0.1393
 6782SOL    HW131979   1.180   2.385   8.449  2.3682 -0.4981 -0.1713
 6782SOL    HW231980   1.275   2.367   8.552 -0.7093 -3.1065 -1.2131
 6783SOL     OW31981   1.025   1.791   5.660 -0.4656  0.3542 -0.3481
 6783SOL    HW131982   0.986   1.786   5.573  0.2006 -2.2969 -0.4762
 6783SOL    HW231983   1.008   1.883   5.679  1.6677  0.8795 -0.9604
 6784SOL     OW31984   1.994   1.576   9.983  0.4949 -0.3005  0.0004
 6784SOL    HW131985   1.958   1.644   9.927 -1.9583 -1.7660 -0.1907
 6784SOL    HW231986   1.983   1.619  10.068 -1.0217  1.7775 -1.2568
 6785SOL     OW31987   2.465   1.638   4.049  0.0789 -0.4678  0.1303
 6785SOL    HW131988   2.538   1.576   4.051  1.1302  0.6701 -2.7207
 6785SOL    HW231989   2.407   1.598   4.114 -0.4744 -0.8324 -0.5781
 6786SOL     OW31990   0.340   2.809   2.019 -0.5609  0.0617 -0.1282
 6786SOL    HW131991   0.263   2.783   1.968 -0.8724  0.8743 -0.0784
 6786SOL    HW231992   0.334   2.905   2.013 -2.1906 -0.1254 -1.7569
 6787SOL     OW31993   3.418   4.664   4.000  0.5678  0.5796 -0.5106
 6787SOL    HW131994   3.362   4.615   4.061 -0.7181  1.9898 -0.5425
 6787SOL    HW231995   3.363   0.004   3.998  1.2184  1.0325 -0.7401
 6788SOL     OW31996   1.164   1.528   3.637  0.2859 -0.1391 -0.3535
 6788SOL    HW131997   1.238   1.554   3.581 -1.5192  2.5859 -1.5116
 6788SOL    HW231998   1.201   1.570   3.715 -2.8289 -0.6868  1.3912
 6789SOL     OW31999   0.566   4.094   8.207  0.3257  0.2411  0.0977
 6789SOL    HW132000   0.573   4.160   8.139 -1.5469 -1.7179 -1.9776
 6789SOL    HW232001   0.472   4.080   8.210  0.3797 -0.0672  0.4245
 6790SOL     OW32002   3.743   1.525   3.653 -0.3508 -0.0269 -0.1390
 6790SOL    HW132003   3.835   1.541   3.674 -0.5646  0.1835  0.6250
 6790SOL    HW232004   3.710   1.607   3.688  0.1376 -0.6958  1.8926
 6791SOL     OW32005   0.624   0.257   8.331  0.2921 -0.7558 -0.0238
 6791SOL    HW132006   0.543   0.272   8.283 -0.7820  0.0325  2.0593
 6791SOL    HW232007   0.599   0.294   8.415  0.2419  1.6269 -1.0741
 6792SOL     OW32008   3.345   3.855   9.497 -0.0060 -0.3627  0.1732
 6792SOL    HW132009   3.349   3.767   9.461  1.3007 -0.0759 -0.3869
 6792SOL    HW232010   3.276   3.889   9.440  2.7979 -0.5799 -3.3164
 6793SOL     OW32011   0.764   4.677  12.019  0.4872  0.0988  0.1007
 6793SOL    HW132012   0.848   4.631  12.027 -0.4078 -1.2257  1.8824
 6793SOL    HW232013   0.749   4.653  11.927 -0.2767  2.8143 -0.4968
 6794SOL     OW32014   3.884   3.549  17.728 -0.2322 -0.0317 -0.4920
 6794SOL    HW132015   3.792   3.557   0.007 -0.2827 -0.4263 -0.5462
 6794SOL    HW232016   3.882   3.588  17.641  0.1518  0.5582 -0.2316
 6795SOL     OW32017   2.434   0.648   3.099  0.4912 -0.3634 -0.2988
 6795SOL    HW132018   2.366   0.624   3.162 -0.0301  3.0108  0.4185
 6795SOL    HW232019   2.444   0.557   3.070 -1.4179 -1.4841  2.4823
 6796SOL     OW32020   3.258   3.573   6.024  0.2233  0.1228 -0.5050
 6796SOL    HW132021   3.266   3.637   6.094 -2.2369 -0.1294  0.0175
 6796SOL    HW232022   3.206   3.623   5.960  0.4515  0.2861 -0.5628
 6797SOL     OW32023   0.538   0.750   8.904 -0.2806 -0.5060  0.4450
 6797SOL    HW132024   0.590   0.803   8.963 -0.8176 -0.5552  0.9576
 6797SOL    HW232025   0.455   0.788   8.932  0.4545  1.8940 -0.7093
 6798SOL     OW32026   2.388   2.668   5.562  0.6022  0.5915  0.9219
 6798SOL    HW132027   2.408   2.726   5.635 -0.8696  0.4673  1.4348
 6798SOL    HW232028   2.301   2.634   5.584 -0.3011  3.1307  1.3356
 6799SOL     OW32029   4.609   4.686   1.349 -0.6380  0.3407 -0.3210
 6799SOL    HW132030   4.646   4.599   1.365 -0.9650  0.1656 -0.4900
 6799SOL    HW232031   4.675   4.726   1.293  0.8283 -1.1192  0.3878
 6800SOL     OW32032   4.471   0.105  14.523 -0.8526 -0.1096 -0.3795
 6800SOL    HW132033   4.552   0.075  14.564  0.1254  0.6640 -1.7176
 6800SOL    HW232034   4.461   0.195  14.554  1.0854 -1.2414  3.4412
 6801SOL     OW32035   1.240   0.285   8.895 -0.8073 -0.1524  0.2640
 6801SOL    HW132036   1.267   0.283   8.986  0.5383 -1.7969 -0.1766
 6801SOL    HW232037   1.247   0.376   8.864 -0.6915  1.0713  3.9550
 6802SOL     OW32038   0.956   2.733  11.819  0.3868 -0.0770 -0.3361
 6802SOL    HW132039   1.015   2.803  11.793  2.6298 -1.7300  0.3282
 6802SOL    HW232040   0.893   2.790  11.863  0.8373  0.7292 -0.7423
 6803SOL     OW32041   3.119   0.698   6.172  0.4204  0.1973 -0.2650
 6803SOL    HW132042   3.149   0.683   6.261  1.4697 -0.5984 -0.7557
 6803SOL    HW232043   3.198   0.734   6.133 -0.3172  1.9846 -0.0909
 6804SOL     OW32044   1.873   1.173   9.154  0.0650 -0.1280  0.0172
 6804SOL    HW132045   1.887   1.255   9.106  1.4390 -0.6518 -0.4783
 6804SOL    HW232046   1.782   1.175   9.183 -0.5299 -0.2445 -1.8267
 6805SOL     OW32047   0.967   0.006  15.104 -0.0607  0.0228  0.3320
 6805SOL    HW132048   0.934   4.656  15.084  2.5182 -0.2305 -2.9707
 6805SOL    HW232049   0.922   0.030  15.184  1.4786 -1.2042  1.5716
 6806SOL     OW32050   2.101   3.621   6.052 -0.1096  0.1588  0.8655
 6806SOL    HW132051   2.167   3.687   6.031  0.3629 -0.2361  1.1038
 6806SOL    HW232052   2.134   3.544   6.007 -0.5182 -1.3110  3.0709
 6807SOL     OW32053   2.278   1.293   4.380 -0.2930  0.3290 -0.1295
 6807SOL    HW132054   2.201   1.238   4.364  0.0729 -0.3640  0.5073
 6807SOL    HW232055   2.341   1.229   4.348  0.6608  0.1871  2.0283
 6808SOL     OW32056   1.523   2.783   9.808 -0.4008 -0.4937 -0.0738
 6808SOL    HW132057   1.503   2.866   9.765 -0.6163  0.4290  1.7896
 6808SOL    HW232058   1.445   2.762   9.860  0.4160 -2.3253  0.4080
 6809SOL     OW32059   0.198   4.499   8.199  0.2346 -0.3028 -0.5134
 6809SOL    HW132060   0.107   4.500   8.169  0.5468 -2.9390 -1.4826
 6809SOL    HW232061   0.190   4.528   8.290  0.4993  0.4941 -0.7436
 6810SOL     OW32062   4.146   2.003   0.067 -0.6307 -0.3829 -0.0640
 6810SOL    HW132063   4.166   1.930   0.125 -0.5434  1.0151  1.6275
 6810SOL    HW232064   4.206   1.986  17.743  0.0044  1.2798  0.0752
 6811SOL     OW32065   2.085   0.116  14.638 -0.0202 -0.4143  0.3123
 6811SOL    HW132066   2.073   0.210  14.620  1.0627 -0.4444 -0.5150
 6811SOL    HW232067   2.060   0.077  14.554  0.8936 -0.7590  0.2031
 6812SOL     OW32068   3.437   4.657  16.959 -0.7446  0.5108 -0.0760
 6812SOL    HW132069   3.379   4.585  16.932 -0.8891 -0.3164  2.4682
 6812SOL    HW232070   3.488   4.661  16.878 -0.2751 -1.0287  0.1329
 6813SOL     OW32071   0.997   3.439   2.288  0.5519 -0.2991 -0.1798
 6813SOL    HW132072   1.081   3.400   2.265  1.5672  1.3118  0.7697
 6813SOL    HW232073   1.009   3.457   2.381 -0.4783 -1.4138  0.1671
 6814SOL     OW32074   2.283   3.129   3.430 -0.1500  0.3055 -0.0830
 6814SOL    HW132075   2.213   3.066   3.414 -1.3148  1.1956  1.5709
 6814SOL    HW232076   2.363   3.077   3.419  0.0441  0.6352 -0.2487
 6815SOL     OW32077   0.628   4.563   1.373  0.5313 -0.7578  0.2180
 6815SOL    HW132078   0.701   4.614   1.406  0.4620 -0.7457  0.3529
 6815SOL    HW232079   0.562   4.624   1.339  0.5356 -0.6257  0.4448
 6816SOL     OW32080   0.919   1.169   2.040  0.3207  0.2170  0.5657
 6816SOL    HW132081   0.854   1.182   1.970  1.2805 -3.3799 -0.9858
 6816SOL    HW232082   0.906   1.076   2.055 -1.1088  0.3057 -0.0551
 6817SOL     OW32083   0.297   3.014   4.920  0.1627  0.3716 -0.1015
 6817SOL    HW132084   0.247   2.934   4.936 -1.1755  1.1648 -0.2305
 6817SOL    HW232085   0.340   3.025   5.004 -2.6501  0.0626  1.3793
 6818SOL     OW32086   2.673   2.986   1.471  0.0466 -0.0397  0.0773
 6818SOL    HW132087   2.625   3.059   1.432 -1.5050 -0.6429  0.8426
 6818SOL    HW232088   2.683   2.928   1.396 -2.1370  0.6430 -0.7387
 6819SOL     OW32089   1.651   1.248   2.013 -0.0447 -0.0820  0.3396
 6819SOL    HW132090   1.640   1.333   1.971  0.3141  0.4303  1.2631
 6819SOL    HW232091   1.569   1.200   2.003 -0.8039  1.1991  0.4147
 6820SOL     OW32092   1.248   3.347  16.636  0.0117  0.1087 -0.0067
 6820SOL    HW132093   1.233   3.440  16.619  1.1778 -0.1805 -2.5885
 6820SOL    HW232094   1.280   3.349  16.726  0.7329  0.5131 -0.2735
 6821SOL     OW32095   4.420   4.720   1.721 -0.3312  0.3619  0.2002
 6821SOL    HW132096   4.390   4.694   1.634  0.8879  2.0784 -0.7142
 6821SOL    HW232097   4.380   4.651   1.774 -3.5868  1.1359 -1.2559
 6822SOL     OW32098   4.357   0.669   2.629 -0.0037  0.3260 -0.5177
 6822SOL    HW132099   4.380   0.761   2.643  1.3540  0.2971 -2.6085
 6822SOL    HW232100   4.440   0.628   2.601 -0.0436  0.1266 -0.3479
 6823SOL     OW32101   0.254   4.217   7.758 -0.7222 -0.2560 -0.1889
 6823SOL    HW132102   0.283   4.261   7.837  0.2270 -2.5023  0.7107
 6823SOL    HW232103   0.335   4.190   7.715 -0.5141 -0.0017  0.0509
 6824SOL     OW32104   3.550   3.742   7.019 -0.1779 -0.0662 -0.0032
 6824SOL    HW132105   3.567   3.795   6.940  1.0676 -0.0430  0.2872
 6824SOL    HW232106   3.585   3.796   7.089 -0.6335 -1.0652  0.9850
 6825SOL     OW32107   3.098   1.133   7.029 -0.6148  0.1688  0.0350
 6825SOL    HW132108   3.092   1.039   7.016 -1.5197 -0.2022  3.1829
 6825SOL    HW232109   3.025   1.151   7.088 -0.8266  0.5000 -0.3323
 6826SOL     OW32110   4.066   2.311   2.709 -0.0804  1.5123  0.2635
 6826SOL    HW132111   4.103   2.303   2.621  0.3871 -1.0006  0.7052
 6826SOL    HW232112   4.020   2.395   2.716 -0.6636  1.0276  2.3538
 6827SOL     OW32113   1.296   2.768   4.040  0.1294 -0.4119  0.4604
 6827SOL    HW132114   1.391   2.759   4.046  0.1177 -0.9730 -0.1986
 6827SOL    HW232115   1.281   2.828   3.967  4.3179 -0.6114 -0.5975
 6828SOL     OW32116   2.973   1.936   8.547 -0.1545 -0.4359 -0.5377
 6828SOL    HW132117   2.972   2.031   8.533 -1.1122 -0.2967  0.4309
 6828SOL    HW232118   2.965   1.923   8.642 -3.1200  0.0942 -0.7195
 6829SOL     OW32119   0.719   3.777   3.703 -0.4899 -0.9312  0.0831
 6829SOL    HW132120   0.700   3.723   3.626  0.3759  2.9647 -2.8653
 6829SOL    HW232121   0.651   3.842   3.686  1.8718  1.2609 -1.0048
 6830SOL     OW32122   0.949   2.697  13.133 -0.4928  0.5075 -0.7092
 6830SOL    HW132123   0.920   2.660  13.217  0.3331  0.4986 -0.4323
 6830SOL    HW232124   0.956   2.621  13.075  1.1949  1.4366 -1.7314
 6831SOL     OW32125   3.114   0.285   2.424  0.8190 -0.2200 -0.2657
 6831SOL    HW132126   3.049   0.236   2.373  0.0901  0.5709 -0.1054
 6831SOL    HW232127   3.058   0.319   2.494  0.2429 -0.9656 -0.3716
 6832SOL     OW32128   4.732   4.488   3.742  0.5588 -0.0727  0.1395
 6832SOL    HW132129   4.709   4.467   3.652 -1.0841  0.5955  0.4020
 6832SOL    HW232130   0.089   4.491   3.726  0.6980  0.0655  0.9562
 6833SOL     OW32131   0.789   1.165  17.044 -0.9143 -0.2750 -0.2212
 6833SOL    HW132132   0.825   1.168  16.956  0.1981  0.8347  0.2635
 6833SOL    HW232133   0.791   1.258  17.068 -1.8070 -0.4872  0.7066
 6834SOL     OW32134   3.778   4.563  10.163  0.1372  0.3260  0.0660
 6834SOL    HW132135   3.787   4.503  10.237 -4.8119  1.0707  1.2746
 6834SOL    HW232136   3.757   4.650  10.200  2.9891  0.5058  1.2785
 6835SOL     OW32137   1.858   3.088   2.342  0.3308  0.8356 -0.0772
 6835SOL    HW132138   1.898   3.171   2.317  0.8829  0.7402  0.4982
 6835SOL    HW232139   1.918   3.068   2.414  0.8544  1.7084 -0.2741
 6836SOL     OW32140   1.274   3.292   3.335  0.1939 -0.2847  0.2670
 6836SOL    HW132141   1.332   3.363   3.364 -0.5736  0.3923  0.1633
 6836SOL    HW232142   1.263   3.308   3.242 -1.2766 -0.4301  0.4056
 6837SOL     OW32143   2.980   4.720   1.097  0.0207  0.5918  0.5181
 6837SOL    HW132144   2.906   0.004   1.041  0.2062  0.5098  0.2391
 6837SOL    HW232145   3.026   4.652   1.047  3.0083  3.5311 -0.7115
 6838SOL     OW32146   4.697   0.420   6.749  0.0709  1.0567  0.6723
 6838SOL    HW132147   0.041   0.405   6.796  1.4918  0.9224 -1.8564
 6838SOL    HW232148   4.683   0.508   6.784  0.5009  0.0869  3.3360
 6839SOL     OW32149   0.046   1.263   8.398  0.5225  0.0513  0.1901
 6839SOL    HW132150   4.730   1.337   8.428 -0.7063 -1.2815  1.2453
 6839SOL    HW232151   0.000   1.180   8.407  0.3290  0.2419  0.9700
 6840SOL     OW32152   0.995   2.453  12.703  0.2232  0.0809 -0.4812
 6840SOL    HW132153   0.941   2.399  12.645  0.4956 -3.3303  2.4983
 6840SOL    HW232154   1.072   2.427  12.653  1.1146  3.0461 -0.6805
 6841SOL     OW32155   1.282   1.623   2.868  0.3043  0.1309  0.1103
 6841SOL    HW132156   1.227   1.701   2.872 -1.1998 -0.8059 -2.5783
 6841SOL    HW232157   1.332   1.618   2.950 -0.9599 -3.1297  0.6974
 6842SOL     OW32158   1.135   3.373   9.236 -0.4759 -0.4622  0.3360
 6842SOL    HW132159   1.039   3.378   9.233 -0.3901  0.3809 -1.2114
 6842SOL    HW232160   1.155   3.454   9.190 -1.0475 -0.7457 -0.4170
 6843SOL     OW32161   3.076   0.809   9.812 -0.3320 -0.5288  0.1471
 6843SOL    HW132162   3.040   0.895   9.790 -0.3325 -1.0564 -1.8341
 6843SOL    HW232163   3.170   0.822   9.816 -0.7422  2.8683 -0.5194
 6844SOL     OW32164   0.760   0.474   7.698 -0.9096  0.2845 -0.1180
 6844SOL    HW132165   0.682   0.526   7.716 -0.1379  1.6960 -0.8655
 6844SOL    HW232166   0.811   0.481   7.779 -2.7880 -0.7541  1.1376
 6845SOL     OW32167   1.993   4.375   7.649  0.4694 -0.3545 -0.1146
 6845SOL    HW132168   2.044   4.447   7.688  0.7679 -0.3542 -0.5063
 6845SOL    HW232169   2.023   4.295   7.692  0.6456 -0.8245 -1.1161
 6846SOL     OW32170   3.724   2.014   2.252  0.5358  0.5784 -0.7652
 6846SOL    HW132171   3.786   1.949   2.219  0.6100  0.5457 -0.5599
 6846SOL    HW232172   3.771   2.055   2.324  1.6083  0.2370 -1.2764
 6847SOL     OW32173   2.952   0.428  12.669  0.4182  0.1319 -0.0350
 6847SOL    HW132174   3.039   0.457  12.695  0.3208  0.9338 -0.5646
 6847SOL    HW232175   2.962   0.335  12.686 -1.7196 -0.1989 -0.5257
 6848SOL     OW32176   2.570   3.756   5.979 -0.5676 -0.0630 -0.1615
 6848SOL    HW132177   2.516   3.687   5.940  0.4842 -1.2921  0.5631
 6848SOL    HW232178   2.583   3.724   6.068  2.2415 -2.2136 -1.3700
 6849SOL     OW32179   0.373   3.183   6.200 -0.1385 -0.5524  0.4937
 6849SOL    HW132180   0.361   3.187   6.294 -1.1890 -0.2946  0.3430
 6849SOL    HW232181   0.455   3.134   6.195  0.1949  0.1576 -1.1322
 6850SOL     OW32182   1.118   0.208   3.568  0.2637 -0.3215  0.5860
 6850SOL    HW132183   1.140   0.137   3.508  0.4468 -0.7922  1.2115
 6850SOL    HW232184   1.202   0.248   3.590 -0.3102  1.5623 -0.6244
 6851SOL     OW32185   2.105   0.138   5.217 -0.2132 -0.6401 -0.2230
 6851SOL    HW132186   2.052   0.064   5.187 -1.9557  0.5541 -0.0990
 6851SOL    HW232187   2.192   0.099   5.219  0.8079  1.6596  0.4590
 6852SOL     OW32188   3.335   1.831  12.298 -0.8819 -0.4930  0.0407
 6852SOL    HW132189   3.380   1.772  12.358  1.6810  0.3703 -0.9951
 6852SOL    HW232190   3.399   1.903  12.295  0.4714 -1.6522  1.3193
 6853SOL     OW32191   3.687   0.202   3.638  0.5046  0.3371  0.5824
 6853SOL    HW132192   3.650   0.134   3.694 -0.4642  0.2815 -0.1222
 6853SOL    HW232193   3.626   0.273   3.657 -0.6983 -0.5208 -0.0501
 6854SOL     OW32194   3.373   2.012   9.587 -0.2814 -0.2382  0.3596
 6854SOL    HW132195   3.423   2.075   9.640 -0.5340  0.5414 -0.3307
 6854SOL    HW232196   3.323   2.075   9.535 -1.7082  0.3477  2.4658
 6855SOL     OW32197   2.292   4.634   8.519  0.4253  0.0889 -0.3016
 6855SOL    HW132198   2.298   4.595   8.606 -0.1717  2.2892  0.7167
 6855SOL    HW232199   2.221   4.697   8.530  0.6390  0.2205  0.3166
 6856SOL     OW32200   1.945   2.993   7.413 -0.0813  0.3742  0.3494
 6856SOL    HW132201   1.889   3.034   7.478 -2.3874 -0.4418 -1.1225
 6856SOL    HW232202   1.907   2.906   7.397 -2.2591  1.4952 -0.5154
 6857SOL     OW32203   4.502   1.324   2.395  0.4674  0.2052 -0.0083
 6857SOL    HW132204   4.571   1.388   2.379 -0.9058  1.5842 -0.3167
 6857SOL    HW232205   4.485   1.345   2.487 -0.1574 -0.0228 -0.0746
 6858SOL     OW32206   2.866   0.756   8.338  0.2041 -0.0945 -0.4148
 6858SOL    HW132207   2.946   0.797   8.371 -0.0573  0.1849 -0.1231
 6858SOL    HW232208   2.792   0.786   8.391 -1.7120 -2.1755 -1.9304
 6859SOL     OW32209   1.474   1.834  10.400  0.4426 -0.0341  0.3723
 6859SOL    HW132210   1.382   1.809  10.395  0.1595  1.3843 -1.2988
 6859SOL    HW232211   1.477   1.927  10.421 -0.5151 -0.0100  0.3800
 6860SOL     OW32212   0.632   2.951   5.830 -0.0107 -0.2295 -0.3985
 6860SOL    HW132213   0.677   2.940   5.914 -0.0440 -0.7468 -0.4486
 6860SOL    HW232214   0.707   2.978   5.778  0.8707  1.9031  1.9806
 6861SOL     OW32215   3.297   2.794  13.094  0.6544  0.2955  0.5325
 6861SOL    HW132216   3.281   2.855  13.022 -2.3986 -0.4725  0.5628
 6861SOL    HW232217   3.212   2.749  13.096  1.0243 -0.3958  0.8571
 6862SOL     OW32218   1.520   1.249   5.916 -0.1528  0.2938  0.0286
 6862SOL    HW132219   1.596   1.214   5.870 -1.8113 -2.9372 -0.2151
 6862SOL    HW232220   1.560   1.300   5.986 -2.9811  2.0848  0.3211
 6863SOL     OW32221   3.646   2.843  13.209 -0.2248  0.3941 -0.8075
 6863SOL    HW132222   3.616   2.906  13.144 -1.1515 -0.0201 -0.7928
 6863SOL    HW232223   3.703   2.789  13.155 -1.0481 -0.1903 -1.1040
 6864SOL     OW32224   0.248   2.696   4.174 -0.6027 -0.6375  0.0732
 6864SOL    HW132225   0.199   2.620   4.142 -1.7585 -0.0441  0.4321
 6864SOL    HW232226   0.204   2.719   4.256  0.8622  0.1905  0.6180
 6865SOL     OW32227   2.857   3.177   5.777  0.1674  0.1771  0.0002
 6865SOL    HW132228   2.944   3.155   5.744  0.5359  0.1437  1.0185
 6865SOL    HW232229   2.858   3.117   5.852 -2.8464  0.9401  0.6452
 6866SOL     OW32230   2.670   4.577   2.900  0.0058  0.1173 -0.0667
 6866SOL    HW132231   2.628   4.640   2.958  0.5343 -0.9871  1.5175
 6866SOL    HW232232   2.625   4.599   2.818 -0.3349  0.0612  0.1072
 6867SOL     OW32233   4.119   0.271   5.152  0.4490  0.0321 -0.1505
 6867SOL    HW132234   4.026   0.296   5.148  1.0495  2.0842 -1.0026
 6867SOL    HW232235   4.148   0.263   5.062  3.5495 -1.1942  0.9580
 6868SOL     OW32236   4.246   0.080   7.869 -0.4381 -0.1239  0.2431
 6868SOL    HW132237   4.173   0.138   7.850  0.2559  0.6176 -0.1258
 6868SOL    HW232238   4.254   0.085   7.965 -0.8063  1.8244  0.1551
 6869SOL     OW32239   2.756   4.019   6.703  0.5116  0.3312  0.2946
 6869SOL    HW132240   2.839   4.066   6.710 -0.4599  1.6185  3.0677
 6869SOL    HW232241   2.721   4.059   6.783  0.4371  0.5990  0.1282
 6870SOL     OW32242   1.788   1.792  15.252  0.0233  0.2293 -0.2691
 6870SOL    HW132243   1.739   1.711  15.243 -0.2754  0.2944  0.8014
 6870SOL    HW232244   1.726   1.856  15.218 -0.8572  0.8728  2.5444
 6871SOL     OW32245   0.155   0.279   3.867 -0.4959  0.7655 -0.6740
 6871SOL    HW132246   0.221   0.329   3.820 -1.0747  1.9986 -0.1767
 6871SOL    HW232247   0.203   0.205   3.905 -1.5343 -0.0040 -0.8797
 6872SOL     OW32248   2.274   1.025  10.895 -0.1688 -0.0376 -0.1955
 6872SOL    HW132249   2.336   1.097  10.889 -1.0808  0.4079 -4.3182
 6872SOL    HW232250   2.247   1.015  10.804 -4.4760  0.9734  0.9384
 6873SOL     OW32251   4.066   2.177   6.601 -0.1021 -0.3322 -0.0345
 6873SOL    HW132252   4.028   2.261   6.575  1.4862  0.0921 -0.9636
 6873SOL    HW232253   4.154   2.208   6.619 -0.9781  1.6750  0.7946
 6874SOL     OW32254   1.296   0.873  12.725 -0.0381 -0.3997 -0.1442
 6874SOL    HW132255   1.272   0.897  12.635 -0.2177  1.7900  0.4958
 6874SOL    HW232256   1.227   0.816  12.759 -0.7414  1.8289  2.1712
 6875SOL     OW32257   4.252   3.950   1.738 -0.9619 -0.0791  0.1726
 6875SOL    HW132258   4.274   3.978   1.649  0.8814  1.5185  1.1162
 6875SOL    HW232259   4.274   3.857   1.731  0.1303  0.0034  2.6156
 6876SOL     OW32260   0.542   3.956  10.096  0.3726 -0.1088  0.5791
 6876SOL    HW132261   0.636   3.975  10.099  0.3836 -0.3543  1.6736
 6876SOL    HW232262   0.515   4.042  10.128  1.2034  1.2292 -2.3317
 6877SOL     OW32263   1.173   2.880  11.751  0.1793 -0.6095  0.2270
 6877SOL    HW132264   1.179   2.957  11.695 -1.6831 -0.7752 -0.2088
 6877SOL    HW232265   1.224   2.913  11.825  0.5593 -1.3199  0.2764
 6878SOL     OW32266   0.627   0.484   7.208 -0.0481  0.0054 -0.0065
 6878SOL    HW132267   0.610   0.503   7.116  1.0835  0.4825 -0.1217
 6878SOL    HW232268   0.600   0.568   7.245 -1.3987 -0.7088  0.6091
 6879SOL     OW32269   3.702   1.519  13.076  0.4672  0.7753  0.4056
 6879SOL    HW132270   3.794   1.495  13.082  0.0741 -0.8979 -0.2931
 6879SOL    HW232271   3.677   1.503  13.167  1.9261  0.2163  0.7085
 6880SOL     OW32272   2.994   0.130  14.785  0.1829 -0.1084 -0.6572
 6880SOL    HW132273   2.907   0.168  14.796 -0.7225 -2.4268  0.2055
 6880SOL    HW232274   2.968   0.081  14.707  1.9183 -0.3095 -1.1091
 6881SOL     OW32275   2.154   1.131   9.697 -0.6161 -0.3860  0.5994
 6881SOL    HW132276   2.120   1.186   9.626 -0.9297  0.2505  1.2317
 6881SOL    HW232277   2.082   1.145   9.759 -1.7920  0.0861 -0.8791
 6882SOL     OW32278   0.304   4.415   0.838 -0.5998 -0.4499  0.5024
 6882SOL    HW132279   0.320   4.498   0.792 -0.9784  0.3251  1.7829
 6882SOL    HW232280   0.265   4.438   0.922 -2.7924 -1.6155 -0.2050
 6883SOL     OW32281   1.143   2.729  16.686 -0.2042  0.0200 -0.4733
 6883SOL    HW132282   1.106   2.799  16.632  0.4548  0.8826  0.1925
 6883SOL    HW232283   1.142   2.764  16.775  3.2987  3.1572 -1.6775
 6884SOL     OW32284   1.567   3.420   5.228 -0.1560 -0.1123  0.8180
 6884SOL    HW132285   1.655   3.415   5.190 -0.4333  1.5934 -0.0937
 6884SOL    HW232286   1.586   3.400   5.319 -2.4925  2.7310  1.9213
 6885SOL     OW32287   4.733   2.074   8.803  0.2773 -0.1451  0.0867
 6885SOL    HW132288   4.709   2.004   8.743  2.9256 -0.4071 -0.6707
 6885SOL    HW232289   4.656   2.083   8.860 -0.3992 -1.3191 -0.6623
 6886SOL     OW32290   0.232   3.362   4.132  0.0595 -0.2361  0.2713
 6886SOL    HW132291   0.229   3.393   4.223  2.4738  0.4442  0.1003
 6886SOL    HW232292   0.294   3.289   4.137  0.0057 -0.1472  2.2739
 6887SOL     OW32293   2.270   0.650  11.081  0.3398  0.3784  0.1161
 6887SOL    HW132294   2.339   0.716  11.074 -0.4191  1.0927 -0.6075
 6887SOL    HW232295   2.225   0.669  10.999 -2.1485 -0.5479  1.2397
 6888SOL     OW32296   4.397   2.956   7.685  0.5796  0.7498 -0.0927
 6888SOL    HW132297   4.490   2.982   7.687  0.3791  1.2803  2.0867
 6888SOL    HW232298   4.355   3.037   7.655  0.3277  0.3743 -0.7508
 6889SOL     OW32299   0.169   2.142   3.873 -0.5864 -0.1513  0.7267
 6889SOL    HW132300   0.143   2.077   3.808  1.6174 -1.7899  1.4709
 6889SOL    HW232301   0.122   2.122   3.954  0.3437 -1.9440  0.8428
 6890SOL     OW32302   2.100   3.927   3.663  0.0017  0.2807 -0.0981
 6890SOL    HW132303   2.022   3.929   3.718 -0.4507 -1.0649 -0.6675
 6890SOL    HW232304   2.156   3.895   3.733 -1.7734 -0.1503  1.1275
 6891SOL     OW32305   2.547   1.665  15.180 -0.0198  0.1753  0.5460
 6891SOL    HW132306   2.504   1.749  15.169  1.0580  0.6107 -0.3843
 6891SOL    HW232307   2.567   1.655  15.087  0.3803  0.6380  0.5814
 6892SOL     OW32308   2.726   1.231   9.294 -0.4195  0.1099  0.0110
 6892SOL    HW132309   2.697   1.177   9.221  1.7128  0.9948 -1.4776
 6892SOL    HW232310   2.646   1.280   9.310 -0.3238  0.4066 -0.4342
 6893SOL     OW32311   4.631   4.663  14.956  0.0444  0.0337 -0.0605
 6893SOL    HW132312   4.573   4.719  14.905  0.7247  1.1258  0.3694
 6893SOL    HW232313   4.581   4.582  14.961 -0.1057  0.1950  1.0318
 6894SOL     OW32314   4.596   1.745   6.824 -0.1730 -0.2247  0.3473
 6894SOL    HW132315   4.586   1.656   6.856  0.4839  0.1638  1.6384
 6894SOL    HW232316   4.663   1.779   6.884 -0.8188  1.8901 -0.1371
 6895SOL     OW32317   0.717   1.614   5.967 -0.2188  0.1232 -0.4469
 6895SOL    HW132318   0.671   1.634   6.049  0.7376  0.1302  0.0932
 6895SOL    HW232319   0.688   1.689   5.915  1.4105  1.5793  0.7539
 6896SOL     OW32320   1.861   0.334   5.074 -0.6607  0.3726  0.3366
 6896SOL    HW132321   1.881   0.303   5.162 -0.3543  3.4410  1.3559
 6896SOL    HW232322   1.920   0.410   5.064  0.5314 -0.4119  1.3791
 6897SOL     OW32323   3.356   2.989  13.363 -0.4830  0.0922  0.1485
 6897SOL    HW132324   3.415   3.044  13.312  0.7301  1.4792  3.0583
 6897SOL    HW232325   3.365   2.910  13.309 -3.3875 -0.1439 -0.0273
 6898SOL     OW32326   0.836   1.349   5.241 -0.4571  0.3753 -0.4829
 6898SOL    HW132327   0.786   1.303   5.308 -0.3051 -0.6550 -1.0755
 6898SOL    HW232328   0.911   1.380   5.291 -1.5913 -1.1544  2.1738
 6899SOL     OW32329   3.870   4.724  16.407 -0.2200 -0.0152  0.4865
 6899SOL    HW132330   3.937   4.661  16.379  0.0586  0.0250  1.0654
 6899SOL    HW232331   3.911   0.024  16.485  2.5239 -0.5796 -0.6720
 6900SOL     OW32332   3.777   0.612   5.861  0.0665  0.4734 -0.5615
 6900SOL    HW132333   3.811   0.684   5.809 -2.0934  1.6068 -0.4237
 6900SOL    HW232334   3.793   0.656   5.945 -0.1678  1.3892 -0.9998
 6901SOL     OW32335   3.354   2.830   3.986  0.1798  0.4690  0.1052
 6901SOL    HW132336   3.331   2.879   3.907 -1.3933 -1.0216 -0.3514
 6901SOL    HW232337   3.440   2.871   3.993  0.0150  1.0057 -1.0441
 6902SOL     OW32338   0.914   2.110   2.767  0.5283 -0.1389 -0.0018
 6902SOL    HW132339   0.835   2.133   2.816  0.6318 -2.4660  1.2668
 6902SOL    HW232340   0.891   2.143   2.680 -0.5571  0.8314  0.6552
 6903SOL     OW32341   2.663   0.323   3.137  0.2672 -0.8031  0.7229
 6903SOL    HW132342   2.720   0.392   3.105  0.6436 -1.9708 -1.0982
 6903SOL    HW232343   2.727   0.303   3.205  0.4062 -0.1752  0.7769
 6904SOL     OW32344   0.614   4.268   5.820 -0.1624 -0.6002  0.2121
 6904SOL    HW132345   0.629   4.362   5.808  3.3747 -1.4403 -2.0471
 6904SOL    HW232346   0.694   4.227   5.785 -0.6564  0.3320 -2.0421
 6905SOL     OW32347   3.811   3.132   7.283 -0.1221 -0.1276  0.0184
 6905SOL    HW132348   3.868   3.150   7.209  2.2605 -1.1842  1.5964
 6905SOL    HW232349   3.832   3.212   7.331 -0.5472 -0.4700  0.7771
 6906SOL     OW32350   1.656   1.602   9.959 -0.1413  0.3036  0.1300
 6906SOL    HW132351   1.676   1.680  10.010  0.0741 -0.2939  0.9665
 6906SOL    HW232352   1.599   1.641   9.893 -3.0666  0.3523  2.6735
 6907SOL     OW32353   3.357   3.758   3.095 -0.3063  0.1702 -0.5586
 6907SOL    HW132354   3.421   3.770   3.025  0.0247  0.8915 -0.1203
 6907SOL    HW232355   3.395   3.810   3.165 -0.3545 -0.3121 -0.1772
 6908SOL     OW32356   1.770   2.776  12.682 -0.2733  0.5925  0.3021
 6908SOL    HW132357   1.855   2.740  12.709 -1.1611 -1.2283  0.7152
 6908SOL    HW232358   1.796   2.837  12.613  3.1551 -0.7871  0.3347
 6909SOL     OW32359   2.060   1.618   6.499  0.2681  0.0220  0.5933
 6909SOL    HW132360   2.054   1.693   6.558 -2.1002  1.0570 -0.9799
 6909SOL    HW232361   2.004   1.553   6.542  0.8744 -0.3504  0.8170
 6910SOL     OW32362   3.637   2.219   6.549 -0.2404 -0.5637  0.6315
 6910SOL    HW132363   3.652   2.307   6.515 -0.0359 -0.2667  1.4890
 6910SOL    HW232364   3.676   2.230   6.636  1.2513  0.1741 -0.1231
 6911SOL     OW32365   1.613   1.213   8.570 -0.1276 -0.3464  0.1968
 6911SOL    HW132366   1.622   1.245   8.660  1.6201  1.5898 -0.6775
 6911SOL    HW232367   1.645   1.287   8.520 -0.3721 -0.0757  0.4408
 6912SOL     OW32368   1.233   3.045  11.968  0.1041  0.3457  0.6940
 6912SOL    HW132369   1.300   3.065  12.033  0.3200  1.1827  0.2110
 6912SOL    HW232370   1.163   3.107  11.990 -1.9815 -1.0588 -1.9179
 6913SOL     OW32371   1.910   3.101   8.723 -0.2498  0.0991 -0.4637
 6913SOL    HW132372   1.847   3.140   8.663  0.0865 -1.8482 -2.0843
 6913SOL    HW232373   1.925   3.173   8.784 -3.0042 -0.7781  1.2208
 6914SOL     OW32374   2.646   2.176  13.541  0.3996 -0.0562  0.2288
 6914SOL    HW132375   2.611   2.200  13.627  2.8414  2.3032  0.5477
 6914SOL    HW232376   2.690   2.258  13.517  1.4616 -0.3281  1.2848
 6915SOL     OW32377   3.486   2.038  10.667  0.0642 -0.4183 -0.0449
 6915SOL    HW132378   3.487   2.099  10.741  0.4558 -0.3866 -0.0788
 6915SOL    HW232379   3.580   2.023  10.661  0.2159  0.1291  0.8327
 6916SOL     OW32380   3.686   3.387   6.073  0.0923 -0.4747 -0.4170
 6916SOL    HW132381   3.651   3.466   6.115  2.2252 -0.5988  1.5684
 6916SOL    HW232382   3.778   3.391   6.098  0.0256 -1.3974 -0.0401
 6917SOL     OW32383   3.564   3.123   8.610 -0.0222 -0.2440  0.0397
 6917SOL    HW132384   3.576   3.091   8.521  1.8293  2.9209 -0.8556
 6917SOL    HW232385   3.497   3.187   8.587  0.3904  0.1932  0.0391
 6918SOL     OW32386   3.549   4.209   5.016  0.2128  0.4872 -0.2632
 6918SOL    HW132387   3.500   4.257   4.950 -1.9555 -2.8788 -1.1052
 6918SOL    HW232388   3.606   4.279   5.047  0.3434  0.1789  0.1950
 6919SOL     OW32389   2.224   2.525   0.273 -0.6422  0.1932  0.5344
 6919SOL    HW132390   2.171   2.536   0.194 -1.2740 -1.4445  0.7421
 6919SOL    HW232391   2.171   2.557   0.347  0.6130  3.5421 -0.0107
 6920SOL     OW32392   1.813   2.434   6.111  0.7453  0.2472 -0.1634
 6920SOL    HW132393   1.854   2.517   6.086 -0.7979  0.3980 -2.2284
 6920SOL    HW232394   1.867   2.368   6.068  1.5348  1.0670 -0.4392
 6921SOL     OW32395   3.256   1.742   7.357  0.0057 -0.0336 -0.0786
 6921SOL    HW132396   3.319   1.768   7.290 -1.5831 -0.8450 -1.8697
 6921SOL    HW232397   3.308   1.677   7.405  0.7450  1.4185  1.0797
 6922SOL     OW32398   1.401   0.359   6.286  0.1490  0.3786 -0.2039
 6922SOL    HW132399   1.388   0.453   6.268 -1.1256  0.7653  2.8740
 6922SOL    HW232400   1.351   0.350   6.366 -3.9548  2.0335 -2.5716
 6923SOL     OW32401   1.562   3.625   6.257  0.0744  0.1812  0.8052
 6923SOL    HW132402   1.617   3.627   6.179  4.1618 -1.7217  3.6400
 6923SOL    HW232403   1.589   3.702   6.307 -3.3171  0.8341  1.6145
 6924SOL     OW32404   0.314   0.267   1.455 -0.4310 -0.8318  0.3328
 6924SOL    HW132405   0.354   0.221   1.529 -0.0105  0.0201  0.6328
 6924SOL    HW232406   0.256   0.331   1.496  1.1537  0.8440 -0.0543
 6925SOL     OW32407   0.686   4.140   8.589  0.3871 -0.3602 -0.7276
 6925SOL    HW132408   0.594   4.130   8.566 -1.0409  4.1522  2.8454
 6925SOL    HW232409   0.721   4.141   8.500  1.2133  0.7652 -0.3879
 6926SOL     OW32410   3.422   4.412   5.929 -0.6531 -0.0971 -0.3078
 6926SOL    HW132411   3.517   4.424   5.922 -0.9338  1.0023 -2.1021
 6926SOL    HW232412   3.429   4.400   6.024  0.4880 -2.8091 -0.7167
 6927SOL     OW32413   0.618   0.500   2.719  0.2484 -0.2612 -0.4445
 6927SOL    HW132414   0.581   0.437   2.781  1.7027 -0.0629  0.6108
 6927SOL    HW232415   0.709   0.472   2.729  0.3151 -0.4102 -1.3834
 6928SOL     OW32416   2.950   3.592   8.186 -0.1281 -0.0957 -0.1967
 6928SOL    HW132417   2.942   3.500   8.160  1.1825  0.0510 -1.1555
 6928SOL    HW232418   3.035   3.590   8.230 -0.1623 -1.0781 -0.1908
 6929SOL     OW32419   2.861   3.527   7.452 -0.0300 -0.2929  0.1814
 6929SOL    HW132420   2.795   3.565   7.393 -0.7290  1.0510  1.8263
 6929SOL    HW232421   2.860   3.433   7.433 -1.7759 -0.2338 -0.0027
 6930SOL     OW32422   3.351   0.348  11.172  0.5300 -0.4627 -0.0467
 6930SOL    HW132423   3.360   0.355  11.077  0.4483 -0.1477 -0.0287
 6930SOL    HW232424   3.410   0.273  11.174 -4.2786 -4.2150  1.4647
 6931SOL     OW32425   3.807   0.436  13.332  0.8295 -0.4029  0.6044
 6931SOL    HW132426   3.804   0.423  13.237 -0.6414 -3.7225  1.1168
 6931SOL    HW232427   3.853   0.356  13.358  1.7475 -0.0646  0.0282
 6932SOL     OW32428   1.987   1.711   9.534 -0.2161 -0.3522  0.3031
 6932SOL    HW132429   1.973   1.788   9.479 -0.3459  1.6883  3.1859
 6932SOL    HW232430   2.071   1.728   9.576 -0.0283  1.0344 -0.6421
 6933SOL     OW32431   0.614   2.324   2.110  0.2446 -0.2963  0.6468
 6933SOL    HW132432   0.628   2.418   2.118 -0.2232 -0.2651  1.0918
 6933SOL    HW232433   0.670   2.312   2.033 -0.7785 -1.5356  0.1039
 6934SOL     OW32434   2.398   0.563  16.590  0.0348 -0.2353 -0.1378
 6934SOL    HW132435   2.421   0.483  16.543  1.8526  0.2152  0.0123
 6934SOL    HW232436   2.484   0.584  16.625 -0.3247  0.5898  0.2551
 6935SOL     OW32437   1.174   2.527   5.189  0.2636 -0.1944 -0.6673
 6935SOL    HW132438   1.083   2.538   5.216  1.0099  2.6925  0.7158
 6935SOL    HW232439   1.218   2.482   5.260 -1.0005  0.5215  0.5660
 6936SOL     OW32440   0.739   1.345  12.343 -0.0931  0.9095  0.0895
 6936SOL    HW132441   0.766   1.437  12.337 -0.4163  0.7954 -3.3503
 6936SOL    HW232442   0.646   1.342  12.323 -0.0426 -0.2650  0.0590
 6937SOL     OW32443   2.778   3.758   7.767 -1.3302 -0.0761  0.1056
 6937SOL    HW132444   2.842   3.759   7.838  0.1141  1.1527 -1.2238
 6937SOL    HW232445   2.838   3.747   7.694 -1.5805 -1.7231  0.1354
 6938SOL     OW32446   2.367   2.338   0.587  0.0286 -0.0099  0.0301
 6938SOL    HW132447   2.430   2.368   0.522  1.7065 -0.3279  1.5134
 6938SOL    HW232448   2.316   2.418   0.601 -1.3284 -0.8037 -0.3877
 6939SOL     OW32449   0.454   3.570   6.666 -0.2715  0.9551  0.1029
 6939SOL    HW132450   0.413   3.536   6.746  3.2262 -0.6128  1.2176
 6939SOL    HW232451   0.440   3.662   6.686  2.7056  1.5916 -0.8148
 6940SOL     OW32452   2.861   4.617  13.188  0.1065  0.4271 -0.1219
 6940SOL    HW132453   2.794   4.681  13.213 -0.7776 -0.2405 -0.8060
 6940SOL    HW232454   2.923   4.663  13.131  0.8884 -0.3221  0.1242
 6941SOL     OW32455   3.514   4.506   6.764 -0.6518  0.6343 -0.1262
 6941SOL    HW132456   3.575   4.546   6.702  1.3263 -1.8760  0.2072
 6941SOL    HW232457   3.429   4.539   6.735 -0.0371  1.8049 -0.5668
 6942SOL     OW32458   2.591   1.611   4.987 -0.4400 -0.5130 -0.1123
 6942SOL    HW132459   2.516   1.624   4.930 -0.0855 -0.4029 -0.5518
 6942SOL    HW232460   2.552   1.614   5.074 -1.9917  0.7773 -0.8513
 6943SOL     OW32461   4.688   0.094   5.138  0.1256 -0.1695 -0.1278
 6943SOL    HW132462   4.675   0.034   5.064  0.9221  0.4536 -0.7835
 6943SOL    HW232463   0.011   0.041   5.190  0.1617  0.3247  0.3343
 6944SOL     OW32464   3.506   1.765  10.736 -0.0615 -0.5124 -0.1281
 6944SOL    HW132465   3.480   1.704  10.666  0.5200  0.1217 -0.9022
 6944SOL    HW232466   3.466   1.846  10.705 -1.1496 -0.8888  0.2630
 6945SOL     OW32467   1.956   1.606   7.883  0.1672 -0.1566 -0.3310
 6945SOL    HW132468   1.895   1.575   7.951  2.2271 -1.3338  0.9714
 6945SOL    HW232469   2.034   1.558   7.910 -0.2091 -1.5085 -1.6810
 6946SOL     OW32470   4.318   1.197   9.332  0.1405  0.1034 -0.0086
 6946SOL    HW132471   4.269   1.278   9.343  0.7373  0.4373  0.2022
 6946SOL    HW232472   4.392   1.224   9.278 -0.0527 -0.0385 -0.3441
 6947SOL     OW32473   4.226   0.995   0.433  0.5215 -0.5977  0.1682
 6947SOL    HW132474   4.149   0.953   0.395  0.1123 -1.1677  1.6187
 6947SOL    HW232475   4.186   1.069   0.480 -2.0230 -0.9510 -1.4547
 6948SOL     OW32476   3.051   1.902  10.013  0.3454  0.1013 -0.3914
 6948SOL    HW132477   3.068   1.898   9.919 -2.1004  0.1236 -0.8399
 6948SOL    HW232478   3.112   1.972  10.036 -1.5545  1.6340 -0.0726
 6949SOL     OW32479   1.876   2.625  11.301 -0.3611  0.1737  0.3947
 6949SOL    HW132480   1.884   2.537  11.337  0.8079 -1.1467 -3.2000
 6949SOL    HW232481   1.911   2.673  11.376  3.1840 -1.4213 -0.2456
 6950SOL     OW32482   0.291   1.312   4.763  0.4046 -0.0815 -0.2370
 6950SOL    HW132483   0.386   1.298   4.768 -0.0732 -3.0104  0.5182
 6950SOL    HW232484   0.296   1.358   4.680  1.9951  0.9760  0.4416
 6951SOL     OW32485   3.567   0.520   7.069  0.3620  0.4248 -0.1906
 6951SOL    HW132486   3.506   0.558   7.132  0.7419 -0.3259  0.6279
 6951SOL    HW232487   3.533   0.431   7.076 -1.4421  1.1882  0.6983
 6952SOL     OW32488   1.581   2.324   8.924  0.2740 -0.0357  0.4898
 6952SOL    HW132489   1.609   2.383   8.854 -1.9376 -1.2991 -1.4536
 6952SOL    HW232490   1.519   2.269   8.877 -0.9645  0.9560  0.9622
 6953SOL     OW32491   2.188   3.330   7.411  0.5113  0.0768 -1.0031
 6953SOL    HW132492   2.136   3.289   7.342  2.9417 -0.9357 -2.2233
 6953SOL    HW232493   2.233   3.259   7.457 -2.5818  0.0280  1.9772
 6954SOL     OW32494   4.446   0.179   3.817  0.0499 -0.3284  0.0060
 6954SOL    HW132495   4.519   0.240   3.821 -1.0162  0.9723 -0.5910
 6954SOL    HW232496   4.498   0.099   3.826 -0.4127 -0.4035  1.9462
 6955SOL     OW32497   1.665   2.214   6.558  0.6168  0.0297  0.3769
 6955SOL    HW132498   1.710   2.246   6.480  2.3131 -0.8066  1.0158
 6955SOL    HW232499   1.737   2.159   6.588 -0.0799  0.1602  2.3253
 6956SOL     OW32500   0.072   2.200   1.738 -0.0690 -1.0982 -0.4430
 6956SOL    HW132501   0.089   2.115   1.698  2.7162 -0.9446  0.3841
 6956SOL    HW232502   0.142   2.203   1.803 -1.3620  1.4025  0.8364
 6957SOL     OW32503   2.296   1.977   3.049  0.0175 -1.1459 -0.0459
 6957SOL    HW132504   2.343   2.054   3.079 -2.3799  0.4965 -0.5839
 6957SOL    HW232505   2.251   1.963   3.132 -0.5533  0.5356 -0.0768
 6958SOL     OW32506   0.147   2.727   9.862 -0.2118  0.4694  0.6180
 6958SOL    HW132507   0.241   2.741   9.870  0.2075 -2.5837  0.7812
 6958SOL    HW232508   0.138   2.633   9.851 -0.6613  0.3617  1.9440
 6959SOL     OW32509   3.847   0.341   9.294  0.0687  0.4491  0.7087
 6959SOL    HW132510   3.819   0.355   9.203 -0.6103 -2.3112  0.4832
 6959SOL    HW232511   3.923   0.399   9.295  0.5611 -0.1285 -2.0838
 6960SOL     OW32512   4.288   4.126   6.395  0.5076  0.6188  0.4798
 6960SOL    HW132513   4.223   4.077   6.445  0.1282  0.5497 -0.0799
 6960SOL    HW232514   4.360   4.065   6.411 -0.8434 -1.8395 -2.8056
 6961SOL     OW32515   3.749   2.977   4.504  0.2540 -0.8112  0.4309
 6961SOL    HW132516   3.712   2.925   4.575 -1.0640 -0.7588 -0.2262
 6961SOL    HW232517   3.671   3.026   4.476  0.7895 -1.4480 -2.1423
 6962SOL     OW32518   0.770   2.724   7.584  0.2815 -0.3415  0.2268
 6962SOL    HW132519   0.849   2.679   7.556  0.5460  0.4920 -0.3707
 6962SOL    HW232520   0.715   2.651   7.611  2.5276 -2.2369 -0.4169
 6963SOL     OW32521   4.045   3.189  13.556 -0.4651 -0.3564  0.1072
 6963SOL    HW132522   3.993   3.190  13.636 -1.6944 -1.4497 -0.6601
 6963SOL    HW232523   4.127   3.152  13.588  0.1614 -0.1921 -1.2860
 6964SOL     OW32524   4.110   2.846   7.583  0.2735  0.1859 -0.0165
 6964SOL    HW132525   4.049   2.890   7.525  0.5943  0.3666 -0.2135
 6964SOL    HW232526   4.159   2.912   7.633  1.2044 -0.7430  0.3082
 6965SOL     OW32527   4.227   2.584   1.392 -0.2867  0.1569 -0.0048
 6965SOL    HW132528   4.175   2.552   1.319 -0.9717 -0.1684  0.6222
 6965SOL    HW232529   4.257   2.500   1.429  0.3307  0.7111  0.7559
 6966SOL     OW32530   1.014   0.465   8.658 -0.2397 -0.1440  0.1691
 6966SOL    HW132531   0.920   0.475   8.645  0.4735  3.6805 -2.0714
 6966SOL    HW232532   1.015   0.376   8.622 -0.2710 -0.4819  1.0162
 6967SOL     OW32533   3.450   0.969   9.396  0.3058 -0.2277 -0.3234
 6967SOL    HW132534   3.415   0.981   9.485  1.4556 -1.2879  0.2734
 6967SOL    HW232535   3.440   1.060   9.366  1.5598 -0.4071 -1.2940
 6968SOL     OW32536   1.186   1.959  14.094  0.1768  0.0117 -0.2391
 6968SOL    HW132537   1.175   2.037  14.148  2.4764 -0.5297  1.0059
 6968SOL    HW232538   1.097   1.931  14.072 -0.1556  0.6258  0.3133
 6969SOL     OW32539   0.116   0.449   3.517  0.0952  0.0008  0.3277
 6969SOL    HW132540   0.176   0.497   3.574  1.4700 -2.0654  0.5967
 6969SOL    HW232541   0.044   0.463   3.579 -2.8770 -0.2550 -3.0581
 6970SOL     OW32542   3.344   0.652  11.039 -0.9693 -0.3186  0.1708
 6970SOL    HW132543   3.271   0.668  10.979 -2.1567 -0.7124  1.5204
 6970SOL    HW232544   3.346   0.727  11.099  2.0501 -1.5486  1.6169
 6971SOL     OW32545   1.728   4.389   4.479  0.4391 -0.4329 -0.0907
 6971SOL    HW132546   1.789   4.416   4.548 -0.2552 -0.0472  0.3626
 6971SOL    HW232547   1.649   4.365   4.527 -0.6008 -0.8777 -2.0145
 6972SOL     OW32548   3.854   3.454   5.667  0.5593 -0.0886  0.4447
 6972SOL    HW132549   3.845   3.532   5.611  0.2136 -0.1331  0.4360
 6972SOL    HW232550   3.768   3.412   5.663  0.9445 -0.9513  1.2040
 6973SOL     OW32551   0.512   0.044   3.464 -0.0465 -0.3431  0.1811
 6973SOL    HW132552   0.543   0.133   3.449  1.4401 -0.7646  0.6832
 6973SOL    HW232553   0.461   0.025   3.385 -0.7556  0.4504  0.4519
 6974SOL     OW32554   1.655   1.856   0.090  0.4836 -0.5858 -0.3527
 6974SOL    HW132555   1.607   1.812   0.160  2.0915 -2.0202 -0.1500
 6974SOL    HW232556   1.657   1.948   0.117 -2.6685 -0.1289 -1.6940
 6975SOL     OW32557   4.419   2.946  12.775 -0.0252 -0.5889  0.8039
 6975SOL    HW132558   4.433   2.977  12.864  0.9728  1.0342  0.0670
 6975SOL    HW232559   4.348   3.004  12.747 -0.0563 -0.2687  1.5370
 6976SOL     OW32560   1.530   0.403   4.347 -0.0032 -0.1504  0.6323
 6976SOL    HW132561   1.537   0.403   4.251 -0.5588 -2.4176  0.5963
 6976SOL    HW232562   1.624   0.413   4.363  0.3908 -1.6218 -0.7041
 6977SOL     OW32563   2.475   2.538   6.283 -0.5240 -0.4713 -0.0271
 6977SOL    HW132564   2.392   2.525   6.237 -0.8188 -1.0111  0.6717
 6977SOL    HW232565   2.518   2.591   6.215 -2.1901  1.0131  0.0763
 6978SOL     OW32566   1.850   0.586   6.222  0.1244 -0.0771 -0.7116
 6978SOL    HW132567   1.796   0.562   6.297  1.5305  1.2406  0.7182
 6978SOL    HW232568   1.787   0.629   6.164 -0.8258 -0.0034  0.3791
 6979SOL     OW32569   1.618   2.745   3.520  0.1493  0.6400  0.3581
 6979SOL    HW132570   1.542   2.757   3.577 -0.2007 -0.4010  0.1136
 6979SOL    HW232571   1.591   2.777   3.434 -2.6553  0.6520  1.2587
 6980SOL     OW32572   1.407   1.786   1.686  0.7566  0.8026  0.3579
 6980SOL    HW132573   1.338   1.852   1.680 -1.0327 -1.2179 -1.1714
 6980SOL    HW232574   1.373   1.714   1.633 -0.2539  1.8599 -0.4107
 6981SOL     OW32575   1.369   3.146   0.785 -0.5404 -0.2402 -0.3692
 6981SOL    HW132576   1.369   3.104   0.871  0.7629 -2.2296 -1.3369
 6981SOL    HW232577   1.294   3.203   0.803  0.4375  0.5705  1.1736
 6982SOL     OW32578   4.349   2.840   0.813  0.0366  0.4884 -0.0265
 6982SOL    HW132579   4.345   2.747   0.835  0.9520 -0.3768 -3.4632
 6982SOL    HW232580   4.442   2.850   0.834 -0.1927  1.3078  0.5734
 6983SOL     OW32581   4.000   2.921   7.336  0.3787  0.1425 -0.3709
 6983SOL    HW132582   3.934   2.987   7.357  0.7089  0.0202  1.0349
 6983SOL    HW232583   4.067   2.984   7.308  1.4096 -1.8912 -2.4982
 6984SOL     OW32584   0.292   2.635  12.850 -0.6269  0.4750 -0.2050
 6984SOL    HW132585   0.317   2.614  12.940  1.3492  1.1920 -0.5808
 6984SOL    HW232586   0.377   2.662  12.816 -0.2783  0.1244  0.3731
 6985SOL     OW32587   1.639   0.150  10.095  0.3188  0.2170  0.0641
 6985SOL    HW132588   1.634   0.220  10.031 -2.0404  0.6947  0.7506
 6985SOL    HW232589   1.669   0.078  10.039 -0.6555  0.2665 -0.5149
 6986SOL     OW32590   1.541   0.237   8.564  0.0932 -0.1952  0.0576
 6986SOL    HW132591   1.475   0.303   8.542  0.2204  0.5276  1.8118
 6986SOL    HW232592   1.621   0.275   8.529 -0.9809  1.4066 -0.6719
 6987SOL     OW32593   3.556   4.226  16.696 -0.0969 -0.2399 -0.2911
 6987SOL    HW132594   3.534   4.252  16.607 -0.1525 -2.3434 -0.8865
 6987SOL    HW232595   3.472   4.232  16.742  0.2520  0.3594  0.2774
 6988SOL     OW32596   1.587   1.107   4.964 -0.0757  0.0315  0.5803
 6988SOL    HW132597   1.517   1.171   4.976 -2.3878 -2.1303 -1.6489
 6988SOL    HW232598   1.591   1.056   5.045  1.5086 -0.2739  0.3184
 6989SOL     OW32599   4.094   1.230   1.333  0.1633  0.3521 -0.3685
 6989SOL    HW132600   4.071   1.144   1.295 -0.3088 -0.2076  1.1960
 6989SOL    HW232601   4.126   1.270   1.252 -0.7420 -0.9378 -1.3831
 6990SOL     OW32602   0.598   2.055   8.567 -0.6670 -0.1254  0.1609
 6990SOL    HW132603   0.653   2.048   8.644  0.6118 -0.1899 -0.7598
 6990SOL    HW232604   0.572   1.964   8.555  0.6857 -0.2737 -1.6774
 6991SOL     OW32605   3.509   3.638  12.286 -0.0592 -0.6806  0.1288
 6991SOL    HW132606   3.598   3.601  12.286  1.3317  2.6475 -1.1459
 6991SOL    HW232607   3.471   3.575  12.224 -0.4819 -0.7418  0.4490
 6992SOL     OW32608   2.413   1.532   1.122  0.1528  0.5536 -0.0463
 6992SOL    HW132609   2.492   1.583   1.139  0.4240  0.1309 -0.0444
 6992SOL    HW232610   2.452   1.481   1.051  0.7843 -0.4932  1.0515
 6993SOL     OW32611   4.327   0.932   5.133  0.7387  0.2532  0.3035
 6993SOL    HW132612   4.405   0.987   5.126  1.0933 -0.1308  1.3767
 6993SOL    HW232613   4.332   0.880   5.053 -0.1249 -0.7816  0.9326
 6994SOL     OW32614   3.204   2.438  17.272 -0.0462  0.2620 -0.5835
 6994SOL    HW132615   3.182   2.522  17.311  0.3447 -0.2578  0.7548
 6994SOL    HW232616   3.273   2.474  17.216 -1.5990  1.3007 -1.8178
 6995SOL     OW32617   3.744   0.250  13.111 -0.0185  0.4590  0.1542
 6995SOL    HW132618   3.680   0.199  13.161  0.2936  0.3803  0.4765
 6995SOL    HW232619   3.823   0.199  13.130  0.8002  1.4068 -0.7513
 6996SOL     OW32620   4.730   4.517   2.097  0.0084  0.3143 -0.0060
 6996SOL    HW132621   0.043   4.529   2.016 -2.0262 -0.7066 -1.4378
 6996SOL    HW232622   4.692   4.431   2.076  1.5145 -0.7091  1.4197
 6997SOL     OW32623   0.473   0.903  11.164 -0.1326  0.4033 -0.5709
 6997SOL    HW132624   0.549   0.946  11.205  0.0298  0.9504 -1.4285
 6997SOL    HW232625   0.427   0.975  11.121 -1.0433  0.1266 -0.0446
 6998SOL     OW32626   3.438   4.215  16.450 -0.2612  0.6614  0.0724
 6998SOL    HW132627   3.461   4.122  16.449  0.7157  0.9121 -1.9921
 6998SOL    HW232628   3.369   4.217  16.384  0.3846 -0.7056 -0.6451
 6999SOL     OW32629   3.328   2.495  10.409  0.2440  0.6819  0.1261
 6999SOL    HW132630   3.305   2.429  10.474 -1.3669  1.6264  0.5134
 6999SOL    HW232631   3.392   2.457  10.349  0.3222  0.5375  0.3029
 7000SOL     OW32632   0.261   0.518   1.969  0.2898 -0.5879  0.0504
 7000SOL    HW132633   0.264   0.614   1.972 -0.2982 -0.5760  0.3441
 7000SOL    HW232634   0.293   0.492   1.883  1.9315  1.8115 -0.0539
 7001SOL     OW32635   0.727   0.716  16.355  0.1380 -0.3370 -0.1891
 7001SOL    HW132636   0.743   0.634  16.403  1.1541  0.3648  0.6635
 7001SOL    HW232637   0.806   0.711  16.301 -0.4024 -3.4441 -0.6795
 7002SOL     OW32638   2.143   4.369   8.069 -0.2468 -0.3823 -0.1148
 7002SOL    HW132639   2.058   4.329   8.084 -0.2538  0.3540  1.8638
 7002SOL    HW232640   2.210   4.334   8.128  3.3545  2.7210 -2.3343
 7003SOL     OW32641   1.697   0.721   7.720 -0.0464  0.5764 -0.0143
 7003SOL    HW132642   1.685   0.780   7.793 -0.2549 -1.0109  1.2350
 7003SOL    HW232643   1.791   0.705   7.726 -0.3889 -0.6015  2.1363
 7004SOL     OW32644   0.519   0.263   2.791 -0.4263  0.0201  0.0755
 7004SOL    HW132645   0.595   0.229   2.743  1.3719  0.3175  2.7294
 7004SOL    HW232646   0.452   0.194   2.783 -1.4480  1.1277 -0.8746
 7005SOL     OW32647   2.592   2.828  11.641  0.6358  0.6906  0.1322
 7005SOL    HW132648   2.593   2.733  11.648 -2.1758  0.8247  2.4128
 7005SOL    HW232649   2.626   2.844  11.729 -2.3233 -0.1030  1.4207
 7006SOL     OW32650   1.799   2.715   9.861 -0.3047 -0.1180 -0.5189
 7006SOL    HW132651   1.824   2.734   9.952 -0.8659  0.1600 -0.4197
 7006SOL    HW232652   1.713   2.756   9.854  0.0714  0.8878  0.6542
 7007SOL     OW32653   1.340   0.666   8.273 -0.3453 -0.0856  0.1205
 7007SOL    HW132654   1.322   0.582   8.231  3.6060 -0.7452 -0.2959
 7007SOL    HW232655   1.268   0.672   8.335 -0.5962 -1.5642 -0.0481
 7008SOL     OW32656   2.579   4.465   6.452 -0.0544  0.2329  0.1462
 7008SOL    HW132657   2.662   4.480   6.498  1.2339 -1.6839 -1.5463
 7008SOL    HW232658   2.543   4.548   6.482 -0.6058  0.4062 -1.0097
 7009SOL     OW32659   3.737   4.137  12.922 -0.0970 -0.1160 -0.3383
 7009SOL    HW132660   3.733   4.052  12.879 -0.5984 -0.7714  0.9847
 7009SOL    HW232661   3.793   4.185  12.861  1.0869 -0.1264  0.7439
 7010SOL     OW32662   3.566   0.676   0.065  0.0144  0.1657 -0.0791
 7010SOL    HW132663   3.551   0.611   0.133 -1.5899  1.6784  1.0006
 7010SOL    HW232664   3.592   0.751   0.119  0.1507  0.4725 -0.5698
 7011SOL     OW32665   4.452   1.110  15.521  1.0593  0.3196  0.3840
 7011SOL    HW132666   4.380   1.169  15.542  0.6791 -0.3905  1.0880
 7011SOL    HW232667   4.427   1.082  15.433 -3.5781 -2.0766  2.4793
 7012SOL     OW32668   4.655   1.916   4.915 -0.6833 -0.0185 -0.4722
 7012SOL    HW132669   4.609   1.971   4.852 -1.0239  0.9586  0.6215
 7012SOL    HW232670   4.625   1.943   5.002 -1.1926  1.4172 -1.0974
 7013SOL     OW32671   4.191   1.848   9.648  0.0196 -0.3307  0.3754
 7013SOL    HW132672   4.188   1.944   9.654 -1.6284 -0.2436 -1.7799
 7013SOL    HW232673   4.248   1.826   9.721  0.3801  1.4374  0.6327
 7014SOL     OW32674   1.010   4.050   2.150  1.0061  0.1138 -0.3494
 7014SOL    HW132675   0.941   4.112   2.174 -0.8289 -1.8676 -0.4583
 7014SOL    HW232676   1.084   4.078   2.204  0.8761 -1.1873  0.5379
 7015SOL     OW32677   1.590   2.290   4.922 -0.1863  0.1656 -0.0514
 7015SOL    HW132678   1.521   2.264   4.983 -0.7688 -0.6900 -1.0767
 7015SOL    HW232679   1.650   2.216   4.937 -1.2007 -0.5527  0.4714
 7016SOL     OW32680   4.665   2.722   2.582 -0.5289  0.2263 -0.3598
 7016SOL    HW132681   4.623   2.708   2.667 -1.4293  3.2011 -0.3143
 7016SOL    HW232682   4.696   2.813   2.590 -0.1347 -0.1007  1.9252
 7017SOL     OW32683   4.714   3.768   4.487  0.3904  0.4921  0.4283
 7017SOL    HW132684   4.708   3.718   4.569  1.5444  0.1493  0.2994
 7017SOL    HW232685   0.052   3.825   4.499  0.4061  0.6877 -0.6316
 7018SOL     OW32686   3.681   3.848  12.346  0.1869 -0.0622 -0.5891
 7018SOL    HW132687   3.738   3.772  12.335 -2.0045 -1.8354  0.2550
 7018SOL    HW232688   3.600   3.797  12.348 -1.2836  2.3016 -0.0754
 7019SOL     OW32689   4.290   3.584  10.571  0.1316  0.2606  0.5479
 7019SOL    HW132690   4.340   3.591  10.653 -1.1186 -0.6008  1.3769
 7019SOL    HW232691   4.254   3.496  10.577  1.2050 -0.1267  1.5066
 7020SOL     OW32692   0.293   0.865   4.167 -0.3922 -0.6420 -0.4540
 7020SOL    HW132693   0.256   0.868   4.079  1.8607 -0.8003 -1.3917
 7020SOL    HW232694   0.244   0.786   4.191  0.5441 -1.6007 -1.6871
 7021SOL     OW32695   3.995   2.168   0.869  0.1136  0.8801 -0.6333
 7021SOL    HW132696   4.018   2.076   0.854 -2.3616  0.1236  0.2662
 7021SOL    HW232697   3.959   2.190   0.783  2.2819  1.7546 -1.3175
 7022SOL     OW32698   1.231   2.776   6.086 -0.2492 -0.2261  0.3296
 7022SOL    HW132699   1.270   2.706   6.034 -0.2717 -0.3424  0.4689
 7022SOL    HW232700   1.147   2.785   6.040 -0.4607  1.2860  1.0130
 7023SOL     OW32701   3.159   2.587  10.223  0.4985 -0.4668 -0.2237
 7023SOL    HW132702   3.117   2.668  10.253  1.8370  1.0005 -2.2656
 7023SOL    HW232703   3.212   2.573  10.302  1.4960 -0.1961 -0.8423
 7024SOL     OW32704   2.708   0.587   4.626 -0.3267 -0.4423  1.0309
 7024SOL    HW132705   2.648   0.594   4.700 -1.6727  0.3257 -0.1309
 7024SOL    HW232706   2.648   0.613   4.556 -0.3375  1.9657  1.9352
 7025SOL     OW32707   4.342   2.201   9.318  0.0412  0.2739 -0.0785
 7025SOL    HW132708   4.340   2.110   9.289 -0.4389 -0.2629  1.6387
 7025SOL    HW232709   4.257   2.238   9.293  0.7653  1.3793 -0.9160
 7026SOL     OW32710   3.922   1.340   7.250  0.1513  0.0685 -0.0821
 7026SOL    HW132711   3.905   1.433   7.259  0.5898  0.3801 -2.5304
 7026SOL    HW232712   3.849   1.303   7.301 -0.0186  0.9461  0.3137
 7027SOL     OW32713   3.135   1.419   5.825 -0.3661 -0.0956  0.6828
 7027SOL    HW132714   3.227   1.442   5.834 -0.0648 -2.0355  2.6139
 7027SOL    HW232715   3.118   1.449   5.736  1.9663 -1.2360 -0.1250
 7028SOL     OW32716   1.677   1.968  10.637 -0.0244 -0.0358 -0.1785
 7028SOL    HW132717   1.602   2.003  10.588 -0.2922  1.4114  1.2770
 7028SOL    HW232718   1.734   2.044  10.651 -1.4661  0.8128  1.0846
 7029SOL     OW32719   4.188   1.643  11.840  0.3215 -0.1735  1.2836
 7029SOL    HW132720   4.268   1.694  11.827 -0.7674  1.4022  0.8240
 7029SOL    HW232721   4.131   1.709  11.879  0.1276 -0.2793  1.1804
 7030SOL     OW32722   1.159   0.713   3.359  0.5021 -0.3153  0.2039
 7030SOL    HW132723   1.199   0.734   3.443  0.5137 -1.5202  0.5051
 7030SOL    HW232724   1.068   0.706   3.386  0.3059 -2.9404 -1.1567
 7031SOL     OW32725   2.128   2.239  11.442 -0.7744 -0.3991 -0.4801
 7031SOL    HW132726   2.208   2.249  11.494 -0.2155  1.2908 -1.6597
 7031SOL    HW232727   2.110   2.146  11.456 -0.0447 -0.6589 -1.2601
 7032SOL     OW32728   3.087   0.049   1.639 -0.0289 -0.1195  0.3083
 7032SOL    HW132729   3.071   4.699   1.603 -3.1626  1.5109 -2.1873
 7032SOL    HW232730   3.028   0.109   1.594  0.3651 -0.4351 -0.6199
 7033SOL     OW32731   0.049   3.925   5.943 -0.5091 -0.6449 -0.1824
 7033SOL    HW132732   0.115   3.860   5.916 -0.8492 -1.1450  0.1735
 7033SOL    HW232733   0.052   3.921   6.039 -1.9439 -1.2750 -0.1650
 7034SOL     OW32734   0.770   1.127  16.403  0.0454  0.0684 -0.3377
 7034SOL    HW132735   0.697   1.074  16.370 -0.4027  1.3547 -1.3785
 7034SOL    HW232736   0.712   1.198  16.431 -0.7344  0.5885 -3.2889
 7035SOL     OW32737   2.786   2.588   2.232  0.0651 -0.2987 -0.5985
 7035SOL    HW132738   2.878   2.610   2.244 -0.0101  0.8821 -2.1634
 7035SOL    HW232739   2.768   2.561   2.322  0.6161  0.4164 -0.2777
 7036SOL     OW32740   4.664   2.929   7.972 -0.1946 -0.2873  0.7525
 7036SOL    HW132741   0.002   2.987   7.959 -0.4264 -0.1758 -0.1192
 7036SOL    HW232742   4.692   2.862   7.909  0.1410 -0.6175  1.2487
 7037SOL     OW32743   3.006   3.975  16.400 -0.0235 -0.0697  0.0890
 7037SOL    HW132744   2.972   3.955  16.487 -0.3250 -0.2042 -0.0597
 7037SOL    HW232745   3.049   3.894  16.373  0.2830 -0.1597  0.8392
 7038SOL     OW32746   1.007   0.241   2.650  0.3564  0.4445  0.0535
 7038SOL    HW132747   1.066   0.178   2.609  2.2936  1.7178  0.8654
 7038SOL    HW232748   1.042   0.319   2.607 -0.5312  0.2041 -1.0874
 7039SOL     OW32749   3.938   2.377   8.419 -0.0508 -0.1009 -0.6973
 7039SOL    HW132750   3.886   2.448   8.456  0.1358  0.0721 -0.7623
 7039SOL    HW232751   3.939   2.394   8.325  1.8426  1.1464 -0.4693
 7040SOL     OW32752   4.268   1.024   4.728  0.2632 -0.5524 -0.2720
 7040SOL    HW132753   4.290   1.094   4.666 -1.7518 -1.4172 -1.9512
 7040SOL    HW232754   4.219   1.071   4.795 -0.3657  2.4717 -2.8541
 7041SOL     OW32755   2.338   2.041   4.788 -0.6506 -0.3069 -0.1712
 7041SOL    HW132756   2.375   2.084   4.711 -0.7768  1.9698  1.0349
 7041SOL    HW232757   2.280   2.109   4.823 -0.2497 -0.4100  0.7013
 7042SOL     OW32758   4.463   4.728   3.196 -0.0817  0.1550  0.4005
 7042SOL    HW132759   4.558   4.715   3.195 -0.0138  0.7573 -2.1666
 7042SOL    HW232760   4.454   0.058   3.264  1.7864 -1.0278  1.8070
 7043SOL     OW32761   3.674   3.701   3.478 -0.6766  0.2508  0.5388
 7043SOL    HW132762   3.701   3.782   3.521 -1.4376  0.7861  0.0240
 7043SOL    HW232763   3.756   3.675   3.437 -0.6159 -0.3415  1.0282
 7044SOL     OW32764   1.151   3.604   4.166  0.0428 -0.3041 -0.0750
 7044SOL    HW132765   1.162   3.528   4.223  1.0511  1.1381  1.6595
 7044SOL    HW232766   1.226   3.592   4.109 -0.0562  2.4717 -0.7947
 7045SOL     OW32767   2.525   3.504   7.050  0.2469 -0.1044  0.5125
 7045SOL    HW132768   2.541   3.477   6.959 -0.3474 -0.4093  0.4945
 7045SOL    HW232769   2.442   3.462   7.071 -0.5898  1.5815  0.5093
 7046SOL     OW32770   2.464   1.483  16.623 -0.1499  0.1527 -0.3704
 7046SOL    HW132771   2.463   1.463  16.529  0.0185 -1.2488 -0.0684
 7046SOL    HW232772   2.424   1.570  16.626  1.8441  1.0156  1.1912
 7047SOL     OW32773   2.666   0.872   1.943  0.2072  0.3004 -0.2202
 7047SOL    HW132774   2.592   0.926   1.913 -0.2435 -1.1524 -1.7532
 7047SOL    HW232775   2.704   0.926   2.012 -1.1222  1.0817 -0.0945
 7048SOL     OW32776   2.661   1.507   3.699  0.2189  0.5573  0.3201
 7048SOL    HW132777   2.692   1.416   3.698 -0.5802  0.3059 -1.2583
 7048SOL    HW232778   2.739   1.551   3.732  1.6036 -0.6661 -1.3238
 7049SOL     OW32779   2.959   1.648   0.983 -0.2568 -0.3646  0.1971
 7049SOL    HW132780   2.923   1.732   0.956 -0.1528 -0.2138  0.5407
 7049SOL    HW232781   3.023   1.625   0.915  1.3213  1.2986  1.1365
 7050SOL     OW32782   0.304   1.537   3.596  0.6807  0.3481  0.7106
 7050SOL    HW132783   0.382   1.493   3.562  0.4975 -1.6387  2.8444
 7050SOL    HW232784   0.298   1.503   3.686  0.2687  1.1937  1.0056
 7051SOL     OW32785   2.659   2.838   6.409  0.4622  0.0562  0.1492
 7051SOL    HW132786   2.636   2.930   6.394 -3.0243 -0.8403 -0.0326
 7051SOL    HW232787   2.709   2.835   6.491  0.3607 -1.8189  0.1401
 7052SOL     OW32788   0.679   3.647   6.486  0.1151  0.0967 -0.0882
 7052SOL    HW132789   0.611   3.608   6.541 -0.0391 -0.8989 -0.9723
 7052SOL    HW232790   0.759   3.611   6.526 -0.4642  1.1204  1.9826
 7053SOL     OW32791   0.901   1.664   7.835 -0.8027  0.1302  0.1446
 7053SOL    HW132792   0.860   1.748   7.855  1.2021  1.1728 -0.1913
 7053SOL    HW232793   0.983   1.669   7.884  0.7221  0.4915 -2.4662
 7054SOL     OW32794   2.169   0.957  12.103 -0.3673  0.4058 -0.0785
 7054SOL    HW132795   2.119   0.879  12.078 -1.1470  0.9134 -0.1199
 7054SOL    HW232796   2.258   0.925  12.090 -0.3098  0.1745  0.9184
 7055SOL     OW32797   1.874   1.590  12.527 -0.0568 -0.3922 -0.2993
 7055SOL    HW132798   1.953   1.645  12.531 -2.7569  3.4731 -0.3345
 7055SOL    HW232799   1.898   1.509  12.570 -1.6143 -0.7355 -0.0941
 7056SOL     OW32800   2.658   2.496  11.224 -0.5064  0.0359 -0.0716
 7056SOL    HW132801   2.691   2.573  11.178 -2.3983  0.7423 -0.2860
 7056SOL    HW232802   2.743   2.460  11.246 -0.2655  0.9523  0.4886
 7057SOL     OW32803   3.864   3.739  12.719  0.6774  0.4121 -0.5795
 7057SOL    HW132804   3.800   3.786  12.773 -0.2534  1.1519 -2.3348
 7057SOL    HW232805   3.811   3.689  12.656 -1.3904  0.9759  0.7167
 7058SOL     OW32806   2.038   3.610   4.994 -0.4153  0.3352  0.1173
 7058SOL    HW132807   2.085   3.571   5.068  0.0556  1.2703  0.3099
 7058SOL    HW232808   2.107   3.673   4.975 -1.1978  0.7298 -1.4127
 7059SOL     OW32809   3.004   3.256   6.329  0.1873 -0.3867  0.4143
 7059SOL    HW132810   2.955   3.180   6.298  1.7481 -1.5776  0.8282
 7059SOL    HW232811   2.973   3.254   6.419 -0.7321 -3.2738  0.0109
 7060SOL     OW32812   2.374   2.770   7.918 -0.1974 -0.5549  0.0837
 7060SOL    HW132813   2.443   2.821   7.960  0.4426  0.1912 -1.9082
 7060SOL    HW232814   2.375   2.691   7.972  1.1685 -2.8181 -3.2157
 7061SOL     OW32815   4.137   4.314   0.708 -0.2576  0.4666 -0.2637
 7061SOL    HW132816   4.090   4.349   0.783  1.0394 -1.8379  1.6185
 7061SOL    HW232817   4.106   4.225   0.692 -2.2803  0.6460  2.6284
 7062SOL     OW32818   1.848   1.989   7.295  0.0879  0.1481  0.0120
 7062SOL    HW132819   1.900   1.917   7.331  1.9868  0.6057 -1.8217
 7062SOL    HW232820   1.889   2.024   7.216 -0.0192  0.3988  0.0687
 7063SOL     OW32821   1.856   0.700  14.126  0.0289  0.3885  0.1313
 7063SOL    HW132822   1.789   0.758  14.163 -0.2864 -1.0598  1.8554
 7063SOL    HW232823   1.828   0.617  14.165  2.3644  0.6188  2.3038
 7064SOL     OW32824   1.241   3.150  13.103 -0.5713 -0.2363 -0.1217
 7064SOL    HW132825   1.295   3.084  13.146  1.0457  1.5268  0.5593
 7064SOL    HW232826   1.173   3.170  13.167 -2.1301  1.9416 -2.4788
 7065SOL     OW32827   1.675   0.435   6.869 -0.8970  0.0382 -0.5604
 7065SOL    HW132828   1.597   0.490   6.871 -0.2958  0.8699  0.0798
 7065SOL    HW232829   1.715   0.434   6.956 -1.0295  2.8220 -0.4493
 7066SOL     OW32830   4.558   2.613   8.599 -0.2122 -0.1208  0.3854
 7066SOL    HW132831   4.534   2.538   8.653 -1.1094 -0.3437 -0.3177
 7066SOL    HW232832   4.531   2.583   8.512 -1.7621 -0.3865  0.9568
 7067SOL     OW32833   1.504   3.486   4.772 -0.1256  0.1632  0.2479
 7067SOL    HW132834   1.539   3.572   4.794 -0.8174  0.4453  0.2717
 7067SOL    HW232835   1.464   3.461   4.855 -1.9847  2.7461  0.1162
 7068SOL     OW32836   4.037   3.452   5.852  0.0839 -0.2220  0.6341
 7068SOL    HW132837   3.955   3.440   5.804  0.1248  2.1494  0.0052
 7068SOL    HW232838   4.071   3.524   5.799  0.1050 -0.4745  0.3069
 7069SOL     OW32839   2.901   0.596  14.484 -0.1284  0.4622 -0.1244
 7069SOL    HW132840   2.990   0.622  14.460 -0.3777  0.4884 -0.9926
 7069SOL    HW232841   2.922   0.519  14.538 -0.2849 -1.1832 -2.4146
 7070SOL     OW32842   3.093   1.519   5.558 -0.4652  0.0500 -0.2488
 7070SOL    HW132843   3.115   1.596   5.505 -0.5836 -1.5601 -2.6109
 7070SOL    HW232844   3.123   1.450   5.500  2.3543  1.7474 -0.8196
 7071SOL     OW32845   2.786   4.275   3.365  0.2453  0.0572  0.0259
 7071SOL    HW132846   2.772   4.183   3.340  0.1929  0.3892 -1.1513
 7071SOL    HW232847   2.697   4.296   3.395 -0.1704 -2.1992  0.4064
 7072SOL     OW32848   2.202   1.461   6.140  0.1811 -0.0895 -0.4549
 7072SOL    HW132849   2.193   1.383   6.194  0.9570  1.1354  1.4168
 7072SOL    HW232850   2.278   1.446   6.084  0.3043  1.6008 -0.7554
 7073SOL     OW32851   0.550   1.690   7.832 -0.0609  0.0139  0.5190
 7073SOL    HW132852   0.610   1.764   7.844 -0.9705  0.4478  2.3581
 7073SOL    HW232853   0.529   1.657   7.920 -0.4530 -1.1831 -0.0211
 7074SOL     OW32854   4.071   0.951   5.220 -0.2352 -0.3150 -0.4459
 7074SOL    HW132855   4.071   1.047   5.220  4.1528 -0.3198  0.9879
 7074SOL    HW232856   4.141   0.924   5.160 -0.4830 -0.6577 -0.5760
 7075SOL     OW32857   1.859   2.204  14.300 -0.1529  0.5395 -0.5009
 7075SOL    HW132858   1.839   2.244  14.215 -0.5903  3.4205  0.9532
 7075SOL    HW232859   1.892   2.280  14.348  2.1858  0.4920 -2.0794
 7076SOL     OW32860   0.765   4.079  11.427 -0.0033  0.1195 -0.5813
 7076SOL    HW132861   0.779   4.142  11.498 -0.2949  0.5716 -0.9222
 7076SOL    HW232862   0.686   4.114  11.385  0.3523  0.3669 -1.0544
 7077SOL     OW32863   4.115   0.767   6.369 -0.1108  0.2116  0.0538
 7077SOL    HW132864   4.070   0.750   6.452 -1.1519 -1.2985 -0.8079
 7077SOL    HW232865   4.204   0.752   6.400 -0.3698 -0.5972  0.3940
 7078SOL     OW32866   3.171   0.549   9.390  0.0740  0.0374  0.8568
 7078SOL    HW132867   3.154   0.637   9.424  2.3258  0.8393 -0.1257
 7078SOL    HW232868   3.088   0.503   9.405  0.0390 -0.1934 -0.0664
 7079SOL     OW32869   1.735   1.604   2.513  0.1811  0.1171  0.4314
 7079SOL    HW132870   1.668   1.578   2.576 -1.9108  0.8986 -1.4731
 7079SOL    HW232871   1.682   1.664   2.460 -0.7448 -0.3103  0.8677
 7080SOL     OW32872   1.767   3.072  12.996 -0.2520  0.5173  0.9346
 7080SOL    HW132873   1.695   3.014  13.021 -1.0333 -0.6810 -4.1796
 7080SOL    HW232874   1.838   3.051  13.057 -2.0259 -0.2176  2.7358
 7081SOL     OW32875   0.069   2.770   2.284  0.6022 -0.1642  0.2445
 7081SOL    HW132876   0.054   2.683   2.248  1.0684 -0.2657  0.3044
 7081SOL    HW232877   4.737   2.820   2.240  0.4669  0.3732  1.0759
 7082SOL     OW32878   2.678   1.200   3.771 -0.2394 -0.6312  0.0228
 7082SOL    HW132879   2.696   1.110   3.743 -1.8903 -1.6444  2.1938
 7082SOL    HW232880   2.761   1.233   3.736  0.1948 -0.4049  1.2452
 7083SOL     OW32881   1.047   2.128  12.963 -0.5741  0.0079  0.3776
 7083SOL    HW132882   1.122   2.184  12.944  0.5730 -1.7717 -0.3402
 7083SOL    HW232883   0.982   2.189  12.997 -2.0285  0.4360 -3.1116
 7084SOL     OW32884   1.378   0.711   2.301  0.6107  0.2987  0.1182
 7084SOL    HW132885   1.345   0.800   2.315  1.3645  0.4278  1.0495
 7084SOL    HW232886   1.473   0.718   2.303  0.6636 -0.1172 -0.7939
 7085SOL     OW32887   1.217   3.156   1.706 -0.6262  0.4948  0.3653
 7085SOL    HW132888   1.262   3.101   1.770 -0.3596  0.2507 -0.0378
 7085SOL    HW232889   1.233   3.247   1.734 -0.0950  0.7748 -0.8550
 7086SOL     OW32890   2.270   0.387   9.344  0.2009 -0.2614  0.4220
 7086SOL    HW132891   2.346   0.355   9.295  1.1846  1.9583  0.5167
 7086SOL    HW232892   2.304   0.390   9.434  0.2079 -2.7044  0.5174
 7087SOL     OW32893   1.399   3.925   2.797 -0.2298  0.1088  0.1749
 7087SOL    HW132894   1.423   4.017   2.802  0.3633 -0.0550  0.3706
 7087SOL    HW232895   1.428   3.885   2.879 -1.0328  0.2741  0.5386
 7088SOL     OW32896   1.026   2.933   9.496 -0.1757  0.2921 -0.1605
 7088SOL    HW132897   1.051   2.977   9.415  0.1010  3.6738  1.7319
 7088SOL    HW232898   1.025   3.007   9.557 -0.8606  1.6771 -1.8776
 7089SOL     OW32899   4.607   1.651   9.318 -0.2515 -0.3590 -0.3733
 7089SOL    HW132900   4.560   1.617   9.394 -0.1311 -3.8218 -1.8859
 7089SOL    HW232901   4.698   1.649   9.347 -1.0062  1.2734  2.1006
 7090SOL     OW32902   2.803   1.981   3.259 -0.1170  0.6270  0.1467
 7090SOL    HW132903   2.851   1.929   3.195 -1.8399 -1.7749  0.7871
 7090SOL    HW232904   2.719   1.935   3.252  0.9238 -1.2976  0.2468
 7091SOL     OW32905   4.426   1.310   0.500 -0.3860  0.0032  0.1101
 7091SOL    HW132906   4.334   1.319   0.478 -0.6663 -0.7354  0.9401
 7091SOL    HW232907   4.432   1.364   0.579  2.8487 -1.1916  0.7195
 7092SOL     OW32908   3.027   3.294   3.341  0.7250 -0.2247 -0.2421
 7092SOL    HW132909   3.047   3.201   3.344 -1.3644 -0.6529  0.3878
 7092SOL    HW232910   2.951   3.304   3.284  1.4441  1.4575 -0.9172
 7093SOL     OW32911   3.164   3.166   8.701  0.0178  0.0852  0.4936
 7093SOL    HW132912   3.193   3.175   8.792 -2.0477  3.1738  0.8522
 7093SOL    HW232913   3.084   3.218   8.700 -0.7658 -1.0884  3.1945
 7094SOL     OW32914   0.388   1.624   7.370  0.1372 -0.5165 -0.0042
 7094SOL    HW132915   0.380   1.607   7.464  0.3763  1.2110  0.3429
 7094SOL    HW232916   0.308   1.676   7.359  1.1781  1.2424  0.6790
 7095SOL     OW32917   0.450   1.390  14.516 -0.4871 -0.1321 -0.3858
 7095SOL    HW132918   0.444   1.295  14.504 -0.1212  0.0331 -1.9779
 7095SOL    HW232919   0.511   1.421  14.449 -0.6529  1.1473  0.0486
 7096SOL     OW32920   2.135   2.810   1.909  0.2432 -0.2631 -0.5902
 7096SOL    HW132921   2.100   2.875   1.970  1.9337  0.9158 -0.8444
 7096SOL    HW232922   2.209   2.777   1.959  0.3023 -2.7916 -2.3644
 7097SOL     OW32923   3.232   2.440  12.635  0.3237 -0.1636 -0.0370
 7097SOL    HW132924   3.205   2.350  12.656  0.3640 -0.1472  0.0837
 7097SOL    HW232925   3.147   2.480  12.653 -0.3169 -1.5911  0.1099
 7098SOL     OW32926   3.327   3.076  10.089 -0.1016 -0.1377 -0.2339
 7098SOL    HW132927   3.392   3.057  10.157  1.3688  0.8832 -1.3455
 7098SOL    HW232928   3.357   3.164  10.066  0.5632 -0.1227  0.7219
 7099SOL     OW32929   4.634   0.084   2.820 -0.6416 -0.3673  0.1859
 7099SOL    HW132930   4.678   0.013   2.774 -0.4153 -0.7466  0.9820
 7099SOL    HW232931   4.653   0.063   2.912 -1.9596 -2.9996 -0.1671
 7100SOL     OW32932   1.107   4.265   4.024  0.5176 -0.2787 -0.1170
 7100SOL    HW132933   1.143   4.347   3.991 -1.2845  1.0618  1.2601
 7100SOL    HW232934   1.104   4.275   4.119  0.6055  1.6169 -0.3176
 7101SOL     OW32935   3.042   1.690   4.587  0.4447  0.2050 -0.1598
 7101SOL    HW132936   3.127   1.646   4.584  0.1357 -0.4634  0.8187
 7101SOL    HW232937   2.991   1.648   4.656  1.2662 -0.2122  0.1985
 7102SOL     OW32938   0.071   1.820   6.991 -0.0986 -0.4801  0.2224
 7102SOL    HW132939   0.141   1.851   6.933 -1.1034  1.4859  0.0837
 7102SOL    HW232940   0.104   1.744   7.038 -2.0915 -0.2065  2.0508
 7103SOL     OW32941   4.721   4.564   5.684 -0.6070 -0.0320  0.0826
 7103SOL    HW132942   0.036   4.600   5.755 -0.5603 -0.8840  0.4892
 7103SOL    HW232943   4.645   4.539   5.737  0.3501  3.3139  2.9552
 7104SOL     OW32944   2.081   1.102   0.599 -0.1431 -0.0479 -0.2970
 7104SOL    HW132945   2.105   1.089   0.691 -1.9878  0.0618  0.2091
 7104SOL    HW232946   1.986   1.100   0.590 -0.2225  2.1646 -0.0482
 7105SOL     OW32947   0.456   4.041   7.674  0.1509 -0.5775 -0.2469
 7105SOL    HW132948   0.547   4.057   7.698  0.2039 -2.1151  0.5650
 7105SOL    HW232949   0.459   4.036   7.579  1.2670  2.3215 -0.3511
 7106SOL     OW32950   2.918   0.065  12.949  0.0333  0.2808 -0.1023
 7106SOL    HW132951   2.871   0.122  12.888  1.5262  0.1742 -1.3567
 7106SOL    HW232952   2.980   0.136  12.968  0.4368  0.4844 -2.1647
 7107SOL     OW32953   3.131   0.817   3.440 -0.2342 -0.7459  0.1903
 7107SOL    HW132954   3.107   0.843   3.351  1.2017  0.4351  0.1533
 7107SOL    HW232955   3.222   0.788   3.433  0.0790  0.5356 -0.9304
 7108SOL     OW32956   3.383   4.142   4.153  0.3662 -0.0243 -0.0229
 7108SOL    HW132957   3.349   4.082   4.087 -3.4864  0.1648  1.7910
 7108SOL    HW232958   3.404   4.083   4.225  0.3318  2.4533  2.0213
 7109SOL     OW32959   1.290   2.551   6.534  0.2772  0.2851 -0.0092
 7109SOL    HW132960   1.226   2.584   6.597  0.3319  1.8349 -0.7816
 7109SOL    HW232961   1.241   2.558   6.452 -1.4665  3.0904  1.2536
 7110SOL     OW32962   3.444   2.673  13.292  0.1001 -0.0760  0.0074
 7110SOL    HW132963   3.527   2.721  13.282 -0.3963  0.8974  0.5463
 7110SOL    HW232964   3.393   2.715  13.224 -0.9421 -0.3734  0.6096
 7111SOL     OW32965   3.270   1.805   4.141 -0.2230 -0.2706 -0.0659
 7111SOL    HW132966   3.280   1.852   4.224  0.1179  2.4825 -1.6672
 7111SOL    HW232967   3.352   1.832   4.099 -0.6484  1.5972  0.2783
 7112SOL     OW32968   4.453   1.457   8.834  0.2140  0.0065 -0.4389
 7112SOL    HW132969   4.358   1.460   8.823  0.2490 -0.1958 -0.8050
 7112SOL    HW232970   4.481   1.529   8.777  0.9692  0.9114  1.0967
 7113SOL     OW32971   1.050   2.473  11.870 -0.2283  0.5050 -0.4284
 7113SOL    HW132972   1.018   2.562  11.862  0.4345  0.7795 -0.0925
 7113SOL    HW232973   1.123   2.482  11.932  1.3248  0.5085 -2.2355
 7114SOL     OW32974   3.569   0.648  15.646 -0.5993 -0.0033 -0.0350
 7114SOL    HW132975   3.584   0.742  15.656 -0.9382  0.0996 -0.4700
 7114SOL    HW232976   3.608   0.646  15.559  0.1006 -0.3100  0.2859
 7115SOL     OW32977   3.879   0.870   9.138  0.2584 -0.1796  0.2546
 7115SOL    HW132978   3.809   0.886   9.201  0.0950 -0.2018  0.0766
 7115SOL    HW232979   3.916   0.957   9.121  2.8746 -1.4642 -0.6649
 7116SOL     OW32980   0.241   4.172   6.873 -0.0429 -0.3347  0.4403
 7116SOL    HW132981   0.186   4.183   6.795 -0.0234 -0.0238  0.4691
 7116SOL    HW232982   0.243   4.259   6.913 -1.3559 -0.6260  1.1071
 7117SOL     OW32983   3.238   2.153   2.085 -0.0449  0.3373 -0.5659
 7117SOL    HW132984   3.326   2.122   2.106 -1.1797 -2.8731 -0.5968
 7117SOL    HW232985   3.172   2.104   2.134  0.3559 -0.6046 -0.9789
 7118SOL     OW32986   3.268   1.239  16.111  0.2812 -0.3642 -0.9312
 7118SOL    HW132987   3.273   1.172  16.042  3.4941 -1.6489  0.5589
 7118SOL    HW232988   3.174   1.237  16.131  0.6114  2.9394  0.8419
 7119SOL     OW32989   4.586   3.339   4.330  0.2954  0.3712 -0.2347
 7119SOL    HW132990   4.504   3.384   4.347 -0.4595 -2.0601  2.5451
 7119SOL    HW232991   4.646   3.411   4.309 -2.2460  2.7473  0.6510
 7120SOL     OW32992   2.550   0.179   3.470  0.5782 -0.0152  0.0011
 7120SOL    HW132993   2.625   0.229   3.437  1.1795  0.3080  1.8830
 7120SOL    HW232994   2.596   0.097   3.490  0.9113 -0.0553 -0.9073
 7121SOL     OW32995   3.111   3.786  11.669  0.2938  0.5115 -0.2964
 7121SOL    HW132996   3.064   3.704  11.659  1.0319  0.0095  0.4031
 7121SOL    HW232997   3.198   3.749  11.680 -0.9461 -1.8177  1.5588
 7122SOL     OW32998   2.848   2.309   2.449 -0.1588  0.5425  0.5747
 7122SOL    HW132999   2.938   2.280   2.437 -0.9026 -0.8739 -1.7429
 7122SOL    HW233000   2.848   2.322   2.543  0.0245  0.7201  0.5490
 7123SOL     OW33001   2.966   3.341   2.515 -0.6520  0.2232  0.5189
 7123SOL    HW133002   2.972   3.246   2.505  0.8817  0.2811  0.8009
 7123SOL    HW233003   3.033   3.354   2.582 -1.3306  0.4157  1.1562
 7124SOL     OW33004   0.887   2.549   4.162 -0.3135  0.2516 -0.4400
 7124SOL    HW133005   0.972   2.545   4.118 -0.9367  2.2492 -1.8422
 7124SOL    HW233006   0.831   2.526   4.088 -1.5173  1.4318  0.1141
 7125SOL     OW33007   4.579   1.035   3.790 -0.1143 -0.6192  0.0434
 7125SOL    HW133008   4.571   0.943   3.813 -0.0738 -0.0058  2.5624
 7125SOL    HW233009   4.638   1.066   3.859 -0.8939  0.4586  0.2344
 7126SOL     OW33010   3.157   2.930   3.631 -0.2856 -0.1778 -0.1425
 7126SOL    HW133011   3.066   2.948   3.607 -0.6719 -0.6739  0.9544
 7126SOL    HW233012   3.167   2.984   3.710  2.4172 -0.4695 -0.2677
 7127SOL     OW33013   0.474   3.720  17.237  0.2703 -0.0412 -0.2655
 7127SOL    HW133014   0.396   3.671  17.211 -1.2618  1.9255  0.6377
 7127SOL    HW233015   0.454   3.754  17.324  0.5696 -0.4825 -0.0238
 7128SOL     OW33016   4.487   1.403   2.640 -0.5065  0.1099  0.1267
 7128SOL    HW133017   4.526   1.355   2.713  1.4080  0.4337 -0.6898
 7128SOL    HW233018   4.540   1.483   2.641  0.1206 -0.3215  1.5767
 7129SOL     OW33019   3.596   1.297   6.424 -0.1691 -0.6732 -0.1859
 7129SOL    HW133020   3.674   1.318   6.477  1.4811  0.0869 -2.8863
 7129SOL    HW233021   3.620   1.209   6.398  0.9468 -0.4927  0.2191
 7130SOL     OW33022   3.688   1.279   2.956  0.5886  0.0995  0.7554
 7130SOL    HW133023   3.625   1.319   3.016 -0.6631 -0.1415 -0.4158
 7130SOL    HW233024   3.635   1.203   2.933 -0.8798  0.0563  4.2102
 7131SOL     OW33025   2.444   2.133   8.850 -0.4724  0.1664  0.1691
 7131SOL    HW133026   2.356   2.115   8.818 -0.1216 -1.5707  0.1781
 7131SOL    HW233027   2.443   2.228   8.866  0.7040  0.1868  0.1376
 7132SOL     OW33028   3.398   2.329  10.015 -0.5965  0.0184  0.0819
 7132SOL    HW133029   3.323   2.389  10.008  0.1242  0.9265  0.1953
 7132SOL    HW233030   3.449   2.373  10.083 -1.7087 -2.6293  2.6376
 7133SOL     OW33031   0.311   2.553  15.727 -0.0306  0.4202  0.6240
 7133SOL    HW133032   0.401   2.519  15.728 -0.5081 -0.8518  0.6334
 7133SOL    HW233033   0.307   2.625  15.665 -1.0519 -0.8485 -0.7587
 7134SOL     OW33034   0.350   4.160  14.496  0.1363  0.8046  0.1308
 7134SOL    HW133035   0.410   4.234  14.503 -1.4506  1.8343  3.1215
 7134SOL    HW233036   0.366   4.126  14.408  0.8992 -2.4388  1.5085
 7135SOL     OW33037   4.078   0.854   5.468  0.0858  0.1059  0.2168
 7135SOL    HW133038   4.065   0.940   5.510  2.5840  0.8586 -0.5730
 7135SOL    HW233039   4.074   0.880   5.376 -0.7389 -2.2347 -0.3946
 7136SOL     OW33040   1.979   1.004   1.298  0.2676 -0.3247  0.5171
 7136SOL    HW133041   1.925   1.082   1.285 -0.6439 -1.8457 -4.8049
 7136SOL    HW233042   1.953   0.961   1.380 -0.5805 -0.7478  0.0234
 7137SOL     OW33043   2.075   2.357   3.611 -0.0193 -0.0991 -0.0414
 7137SOL    HW133044   2.045   2.427   3.670  1.2471  1.7867 -1.6357
 7137SOL    HW233045   2.167   2.380   3.596 -0.0041  0.3772  0.7653
 7138SOL     OW33046   0.482   3.190   4.287  0.7505  0.1928 -0.1456
 7138SOL    HW133047   0.450   3.130   4.220 -1.0817 -1.1825  1.9355
 7138SOL    HW233048   0.497   3.122   4.353 -0.4624 -3.4138 -3.6151
 7139SOL     OW33049   0.405   3.377   8.073 -0.1940  0.1502 -0.0374
 7139SOL    HW133050   0.471   3.401   8.137 -1.1449  2.3900  0.1177
 7139SOL    HW233051   0.316   3.385   8.108  0.0090  0.8037  0.3299
 7140SOL     OW33052   2.139   1.460   7.035 -0.8012 -0.5296  0.2306
 7140SOL    HW133053   2.231   1.451   7.058 -0.9095 -4.6932 -0.8474
 7140SOL    HW233054   2.120   1.366   7.028  0.5802 -0.7844 -0.1271
 7141SOL     OW33055   1.231   3.047   7.529 -0.0889  0.0575  0.3819
 7141SOL    HW133056   1.152   3.014   7.487 -0.4981  0.5952  0.7198
 7141SOL    HW233057   1.298   2.986   7.500  0.6161  0.8322  0.3670
 7142SOL     OW33058   2.171   2.083   3.646  0.0685  0.3748  0.2441
 7142SOL    HW133059   2.235   2.098   3.715  0.3563 -1.8143  0.4611
 7142SOL    HW233060   2.152   2.172   3.617 -0.5160 -0.0526 -0.7083
 7143SOL     OW33061   2.785   2.628   1.009  0.4550  0.7517 -0.1739
 7143SOL    HW133062   2.870   2.671   1.008  1.4611 -1.2248 -0.2298
 7143SOL    HW233063   2.811   2.539   0.986  0.1577  0.3940  0.8686
 7144SOL     OW33064   3.312   0.617   7.654 -0.2796 -0.4591 -0.1197
 7144SOL    HW133065   3.245   0.631   7.587 -0.9775 -0.6386  0.5411
 7144SOL    HW233066   3.288   0.531   7.689  0.7422 -0.1349  1.4093
 7145SOL     OW33067   4.529   2.102   6.880  0.3139  0.6472  0.2010
 7145SOL    HW133068   4.451   2.143   6.917  2.6362  2.6845  2.7967
 7145SOL    HW233069   4.493   2.051   6.807 -2.1151  3.6490 -0.7117
 7146SOL     OW33070   2.947   4.325   3.588 -0.1690  0.4659  0.2620
 7146SOL    HW133071   2.902   4.315   3.504 -1.9934 -2.4498  1.5907
 7146SOL    HW233072   3.005   4.251   3.573  0.6015  0.9782  0.6887
 7147SOL     OW33073   4.652   2.861   6.600  0.1686 -0.1721 -0.4222
 7147SOL    HW133074   4.601   2.781   6.610 -3.1348  2.2514  2.1121
 7147SOL    HW233075   4.575   2.915   6.613  1.1421  1.0818  0.1089
 7148SOL     OW33076   1.997   4.057   2.923  0.2036 -0.0627 -0.4497
 7148SOL    HW133077   2.054   3.995   2.877  0.7818 -0.0062  0.1846
 7148SOL    HW233078   2.038   4.138   2.895 -1.5137  0.9263 -0.0726
 7149SOL     OW33079   0.890   2.563  17.693 -0.0400 -0.0114  0.5676
 7149SOL    HW133080   0.879   2.470  17.674  2.7858 -0.4092  1.0232
 7149SOL    HW233081   0.815   2.567   0.004 -0.0927  0.8187  0.4485
 7150SOL     OW33082   1.150   0.041   4.952 -0.1807  0.2563 -0.1155
 7150SOL    HW133083   1.225   4.733   4.915  0.2234  1.6358 -0.9833
 7150SOL    HW233084   1.142   4.736   5.037  1.0481  0.6610  0.2069
 7151SOL     OW33085   1.508   3.359   2.790  0.2323  0.6794  0.0694
 7151SOL    HW133086   1.507   3.406   2.874  2.7504 -0.8822  0.9583
 7151SOL    HW233087   1.595   3.321   2.797 -0.5253 -0.7229  1.8207
 7152SOL     OW33088   2.606   2.739   6.145 -0.1069 -0.7551 -0.2897
 7152SOL    HW133089   2.680   2.740   6.084  0.9429  0.0191  0.9928
 7152SOL    HW233090   2.642   2.783   6.222 -0.5830  0.1438 -0.5786
 7153SOL     OW33091   3.966   2.151  12.728 -0.1304 -0.3449 -0.1420
 7153SOL    HW133092   3.903   2.084  12.757 -3.1101  1.3060 -2.8966
 7153SOL    HW233093   3.907   2.221  12.703  0.1360 -0.7627 -1.9049
 7154SOL     OW33094   1.521   0.989   5.239 -0.0653  0.3502  0.6559
 7154SOL    HW133095   1.443   0.942   5.209  1.7573 -1.2013 -1.7008
 7154SOL    HW233096   1.491   1.061   5.294 -1.5957 -0.3955  0.7813
 7155SOL     OW33097   0.190   4.147  11.218 -0.0771  0.7775 -0.5042
 7155SOL    HW133098   0.215   4.118  11.131  0.3952  0.8993 -0.4124
 7155SOL    HW233099   0.156   4.235  11.203  0.9455  0.8871 -2.1681
 7156SOL     OW33100   4.104   0.469   9.226 -0.6113  0.1715  0.2344
 7156SOL    HW133101   4.182   0.502   9.270  1.2558 -2.0270 -1.4428
 7156SOL    HW233102   4.085   0.553   9.184 -0.1629 -1.2029 -2.6919
 7157SOL     OW33103   2.406   1.393  14.112 -0.1451  0.2044  0.1800
 7157SOL    HW133104   2.383   1.361  14.025  1.8342 -2.0280  0.4565
 7157SOL    HW233105   2.492   1.351  14.117 -0.5564 -0.6591 -0.0546
 7158SOL     OW33106   4.607   2.271   8.562 -0.9291  0.2284  0.6980
 7158SOL    HW133107   4.660   2.281   8.483 -1.7066  0.6123  0.2195
 7158SOL    HW233108   4.532   2.219   8.532  1.0036 -0.7692 -2.3672
 7159SOL     OW33109   1.523   2.950  13.059  0.1046  0.5416 -0.0487
 7159SOL    HW133110   1.459   2.964  13.129 -1.3102 -3.1453 -0.6128
 7159SOL    HW233111   1.472   2.936  12.980  0.4035  0.3907 -0.2157
 7160SOL     OW33112   1.817   3.891  15.913 -0.3092 -0.1471  0.7616
 7160SOL    HW133113   1.893   3.946  15.895 -0.1180 -0.1381  1.5621
 7160SOL    HW233114   1.809   3.926  16.002 -0.3642  1.0554  0.2869
 7161SOL     OW33115   3.078   3.114   5.169 -0.2739 -0.0475 -0.4489
 7161SOL    HW133116   3.172   3.102   5.185  0.2781  3.3533 -1.0253
 7161SOL    HW233117   3.100   3.175   5.099  1.7215  1.5750  1.5484
 7162SOL     OW33118   0.675   2.341   6.629 -0.0653  0.0985  0.6451
 7162SOL    HW133119   0.598   2.396   6.612 -0.1380 -0.8108 -1.9481
 7162SOL    HW233120   0.671   2.275   6.560  1.5632  0.6666  0.0004
 7163SOL     OW33121   1.528   3.765  10.767  0.0906  0.2892 -0.5459
 7163SOL    HW133122   1.476   3.712  10.827 -0.6140 -0.1863 -1.5906
 7163SOL    HW233123   1.563   3.832  10.826  0.0462  0.3349 -0.5720
 7164SOL     OW33124   2.698   1.471  17.297 -0.6061 -0.1363 -0.9112
 7164SOL    HW133125   2.736   1.558  17.314 -0.3035 -0.5073  0.3158
 7164SOL    HW233126   2.636   1.516  17.239 -0.6284 -1.5350 -1.9565
 7165SOL     OW33127   2.094   2.366  17.147  0.3540 -0.3090  0.3418
 7165SOL    HW133128   2.045   2.432  17.196 -0.3965  0.9009 -2.0277
 7165SOL    HW233129   2.051   2.286  17.177 -2.4710  1.0162 -0.1332
 7166SOL     OW33130   1.196   3.091   2.565  0.3852  0.4317  0.4067
 7166SOL    HW133131   1.252   3.169   2.572  1.5924 -0.3183 -0.8602
 7166SOL    HW233132   1.114   3.121   2.604 -0.8382 -1.8171 -0.4540
 7167SOL     OW33133   3.634   4.238   4.007  0.5006 -0.1040 -0.3413
 7167SOL    HW133134   3.577   4.186   4.063  0.0898  1.2764  0.5278
 7167SOL    HW233135   3.625   4.325   4.045  1.6390 -0.5019  0.8274
 7168SOL     OW33136   3.095   0.191   9.136  0.2504  0.0082  0.6982
 7168SOL    HW133137   3.114   0.269   9.085  1.5801  1.7054  3.8036
 7168SOL    HW233138   3.094   0.222   9.226  0.3077 -1.1062  1.0896
 7169SOL     OW33139   3.086   0.546   8.676  0.0486 -0.4017 -0.0397
 7169SOL    HW133140   3.071   0.577   8.765  0.6853 -0.8676  0.2287
 7169SOL    HW233141   3.174   0.509   8.682 -1.0885 -2.9059  1.2771
 7170SOL     OW33142   2.115   3.203   3.691  0.5177 -0.6669  0.3280
 7170SOL    HW133143   2.040   3.143   3.686 -2.2730  2.8750 -0.3785
 7170SOL    HW233144   2.166   3.172   3.765 -0.2575  1.6892  1.8320
 7171SOL     OW33145   2.029   1.512  15.454 -0.5738 -0.1978 -0.3928
 7171SOL    HW133146   1.942   1.511  15.493 -0.5842 -0.8775 -0.4244
 7171SOL    HW233147   2.024   1.428  15.408  0.1918 -0.0507 -0.7602
 7172SOL     OW33148   4.664   1.189   6.250 -0.4897  0.2271 -0.3476
 7172SOL    HW133149   4.677   1.095   6.258  2.4562  0.7656  1.2674
 7172SOL    HW233150   4.628   1.220   6.333  1.3973  0.7086  0.3094
 7173SOL     OW33151   2.151   3.426   0.650 -0.2819  0.0269 -0.5587
 7173SOL    HW133152   2.122   3.438   0.741  0.6541  1.2745 -0.4299
 7173SOL    HW233153   2.245   3.435   0.663 -0.2970 -2.0271  0.9812
 7174SOL     OW33154   1.699   1.861   4.371  0.5740 -0.4742  0.5706
 7174SOL    HW133155   1.657   1.887   4.288 -0.3089  0.5837  1.3490
 7174SOL    HW233156   1.785   1.900   4.356  1.0748 -0.8043  2.5966
 7175SOL     OW33157   2.799   2.468   0.344  0.1008 -0.5779  0.2862
 7175SOL    HW133158   2.803   2.423   0.260 -0.8806  1.0965 -0.6740
 7175SOL    HW233159   2.716   2.432   0.375 -0.8524  0.3198 -1.2166
 7176SOL     OW33160   0.973   3.027   6.227 -0.2473 -0.6378  0.2256
 7176SOL    HW133161   0.974   2.953   6.288 -0.6040 -0.6822  0.1775
 7176SOL    HW233162   0.914   3.093   6.264 -0.3160 -0.4236 -0.2740
 7177SOL     OW33163   1.041   1.907   8.332  0.3340 -0.0523 -0.1675
 7177SOL    HW133164   1.084   1.823   8.348  1.2466  0.2940 -0.7787
 7177SOL    HW233165   0.965   1.903   8.389  1.4732 -1.3499  1.2409
 7178SOL     OW33166   3.558   4.511  10.728 -0.1375 -0.5150 -0.4273
 7178SOL    HW133167   3.610   4.432  10.746  1.2424 -0.0064 -2.2130
 7178SOL    HW233168   3.533   4.505  10.636 -1.0588 -0.9677 -0.1496
 7179SOL     OW33169   1.450   0.874  13.154  0.3493  0.4476 -0.0205
 7179SOL    HW133170   1.523   0.900  13.100 -0.0766 -1.6656 -1.6305
 7179SOL    HW233171   1.381   0.901  13.093  0.0568 -0.9422 -0.3034
 7180SOL     OW33172   0.316   4.562  14.346  0.1074  0.0210  0.3128
 7180SOL    HW133173   0.365   4.559  14.429 -1.5747  0.1932  1.3123
 7180SOL    HW233174   0.349   4.478  14.314 -0.6728  0.7797 -2.4340
 7181SOL     OW33175   4.693   2.408   4.736  0.0506 -0.0701 -0.0510
 7181SOL    HW133176   4.687   2.348   4.811  1.2811 -0.5623 -0.3382
 7181SOL    HW233177   4.653   2.356   4.666  0.3211  0.0607 -0.3053
 7182SOL     OW33178   2.177   1.035  11.665  0.0316 -0.2735 -0.1072
 7182SOL    HW133179   2.192   0.959  11.722  2.8804  0.0128 -0.4856
 7182SOL    HW233180   2.157   1.000  11.578  2.1261 -0.3335 -0.5511
 7183SOL     OW33181   4.617   0.681   5.886 -0.1190 -0.0244  1.1309
 7183SOL    HW133182   4.564   0.656   5.810 -0.5253 -0.7792  1.6668
 7183SOL    HW233183   4.689   0.618   5.880 -0.1943  0.0259 -0.2916
 7184SOL     OW33184   2.512   0.865  17.391 -0.5994  0.4476 -0.3560
 7184SOL    HW133185   2.448   0.801  17.360  0.2627 -0.8706  0.6021
 7184SOL    HW233186   2.556   0.885  17.309  0.1997  0.8550  0.1698
 7185SOL     OW33187   2.467   3.559   7.556  0.1843 -0.7117 -0.3968
 7185SOL    HW133188   2.471   3.470   7.520  1.1500 -0.7480 -0.2093
 7185SOL    HW233189   2.458   3.600   7.470 -1.9857  1.1291  0.7337
 7186SOL     OW33190   4.704   4.065   4.400 -0.0293 -0.4096  0.1305
 7186SOL    HW133191   4.615   4.031   4.409 -1.3351  2.3100 -2.3636
 7186SOL    HW233192   0.013   3.997   4.352  2.1897  1.9792 -1.1334
 7187SOL     OW33193   0.113   3.482   4.346 -0.0059 -0.0610 -0.2056
 7187SOL    HW133194   0.115   3.502   4.440 -0.7779  1.5459 -0.5217
 7187SOL    HW233195   0.133   3.571   4.315  0.6807 -0.3964 -0.7210
 7188SOL     OW33196   1.647   0.121  11.031  0.5705  0.5381 -0.1684
 7188SOL    HW133197   1.693   0.189  11.081  0.1009 -0.8219  2.1220
 7188SOL    HW233198   1.645   0.051  11.096 -0.2478 -1.1213 -2.0115
 7189SOL     OW33199   3.188   1.841  12.089  0.4859 -0.3155 -0.2657
 7189SOL    HW133200   3.263   1.828  12.031  0.6456  3.8678 -0.9854
 7189SOL    HW233201   3.231   1.837  12.174  1.6677 -0.7397 -0.8876
 7190SOL     OW33202   0.401   2.317   3.320 -0.0986 -0.5291 -0.5050
 7190SOL    HW133203   0.461   2.319   3.245 -0.7292  2.7241 -0.9030
 7190SOL    HW233204   0.316   2.290   3.287 -0.4482 -1.0851  0.8419
 7191SOL     OW33205   4.432   2.021   8.477  0.4316  0.2362  0.0401
 7191SOL    HW133206   4.386   2.004   8.559  0.1729  0.5799 -0.0320
 7191SOL    HW233207   4.389   2.101   8.447  0.4394  0.3610  0.3619
 7192SOL     OW33208   0.792   2.718  10.844 -0.0735 -0.3891  0.1324
 7192SOL    HW133209   0.828   2.805  10.862  2.3839 -1.3873 -0.0399
 7192SOL    HW233210   0.699   2.731  10.862  0.0290  2.0966 -1.0571
 7193SOL     OW33211   3.507   2.960   2.425 -0.0637  0.3244 -0.2261
 7193SOL    HW133212   3.439   3.012   2.469  0.6506  0.4688  0.7156
 7193SOL    HW233213   3.461   2.882   2.395 -2.2955  0.7276  2.1004
 7194SOL     OW33214   3.845   4.284   9.978 -0.2771 -0.3018  0.1251
 7194SOL    HW133215   3.785   4.352   9.948 -0.7742 -0.0110  1.7893
 7194SOL    HW233216   3.802   4.201   9.956 -0.5827 -0.8211  2.6776
 7195SOL     OW33217   2.526   3.411   6.365 -0.4223 -0.0858 -0.2007
 7195SOL    HW133218   2.571   3.368   6.291 -2.3365  2.6201 -2.9336
 7195SOL    HW233219   2.547   3.350   6.436  1.5597 -0.6379 -1.2366
 7196SOL     OW33220   1.519   0.866   8.371 -1.2469 -0.7196 -0.0629
 7196SOL    HW133221   1.480   0.802   8.311  0.8911 -0.1485 -2.0613
 7196SOL    HW233222   1.517   0.810   8.449 -0.2740 -0.9653 -0.2251
 7197SOL     OW33223   0.951   1.731  15.099  0.1127 -0.0369 -0.2690
 7197SOL    HW133224   0.865   1.769  15.112  0.7203  0.6081  1.9204
 7197SOL    HW233225   1.008   1.801  15.130  0.1805 -0.1892 -0.0421
 7198SOL     OW33226   0.663   4.389   4.097  0.6980 -0.4586 -0.1004
 7198SOL    HW133227   0.728   4.332   4.057  0.2759 -2.1717  1.6367
 7198SOL    HW233228   0.608   4.315   4.125 -0.0087  0.5531  1.2546
 7199SOL     OW33229   4.579   1.770   2.928  0.2095  0.0819  0.6307
 7199SOL    HW133230   4.596   1.676   2.925  0.4719  0.1412  0.2707
 7199SOL    HW233231   4.652   1.813   2.885  2.0659 -0.5713  3.1555
 7200SOL     OW33232   3.406   4.148  12.749 -0.6518 -0.3950  0.2244
 7200SOL    HW133233   3.404   4.243  12.755  1.1801 -0.2254 -1.7505
 7200SOL    HW233234   3.404   4.129  12.655 -2.2187 -1.5229  0.4746
 7201SOL     OW33235   2.571   3.353   4.884 -0.5705 -0.7855 -0.1774
 7201SOL    HW133236   2.574   3.281   4.947 -1.1153 -0.0942  0.6321
 7201SOL    HW233237   2.559   3.426   4.944 -2.6524  0.2178 -1.8172
 7202SOL     OW33238   3.505   0.176   4.698 -0.1699 -0.6634 -0.8951
 7202SOL    HW133239   3.569   0.119   4.741 -0.2696 -0.1311 -0.0527
 7202SOL    HW233240   3.560   0.252   4.677 -0.6121 -0.9517 -3.0951
 7203SOL     OW33241   2.512   1.977   0.959  0.4369 -0.2200 -0.3867
 7203SOL    HW133242   2.586   1.931   1.000  0.2283  0.2709  0.5314
 7203SOL    HW233243   2.489   1.924   0.883  0.5236  0.4818 -0.9029
 7204SOL     OW33244   4.064   3.240   3.334 -0.0211  0.1814 -0.3419
 7204SOL    HW133245   4.070   3.170   3.399 -0.3072  1.0258  0.6089
 7204SOL    HW233246   3.982   3.217   3.290  0.3696  0.5789 -1.2649
 7205SOL     OW33247   4.052   4.542   1.776  1.2544 -0.3222  0.0806
 7205SOL    HW133248   4.019   4.527   1.688  2.4703  2.2157 -0.8232
 7205SOL    HW233249   4.137   4.498   1.770  1.5736  0.7651 -3.1978
 7206SOL     OW33250   3.082   3.746  16.243  0.0879 -0.1898 -0.3274
 7206SOL    HW133251   3.096   3.729  16.150  1.1898 -0.8653 -0.0387
 7206SOL    HW233252   3.162   3.795  16.258  0.5553 -1.0929  0.1278
 7207SOL     OW33253   3.913   1.753   2.931 -0.3074  0.0896  0.4154
 7207SOL    HW133254   3.944   1.821   2.991 -2.5611 -0.2735  1.9896
 7207SOL    HW233255   3.954   1.673   2.963  1.2188  0.6409 -0.1756
 7208SOL     OW33256   0.783   4.289   5.173 -0.3137  0.3784 -0.5040
 7208SOL    HW133257   0.772   4.275   5.267 -2.5240  2.4215 -0.4688
 7208SOL    HW233258   0.692   4.286   5.144 -0.3490  0.2721 -0.3821
 7209SOL     OW33259   1.626   3.844   7.667 -0.4865  0.1083 -0.0539
 7209SOL    HW133260   1.644   3.760   7.709  2.1779  0.2072 -0.9765
 7209SOL    HW233261   1.574   3.815   7.592  0.5196  0.2574 -0.8056
 7210SOL     OW33262   4.466   3.610  11.613 -0.3430 -0.1127 -0.2740
 7210SOL    HW133263   4.553   3.613  11.652 -0.5745 -0.8456  0.2890
 7210SOL    HW233264   4.484   3.614  11.519  0.1048  2.4123 -0.0938
 7211SOL     OW33265   0.379   1.038   5.662  0.0877 -0.2418  0.2411
 7211SOL    HW133266   0.383   1.087   5.580 -0.6193  2.3122  1.7316
 7211SOL    HW233267   0.462   1.061   5.703  0.7616 -0.6853 -0.8793
 7212SOL     OW33268   2.980   0.092  14.417  0.0346  0.2903  0.5399
 7212SOL    HW133269   2.977   0.076  14.322 -0.9257 -1.0752  0.8201
 7212SOL    HW233270   3.022   0.014  14.452 -0.4975 -0.1027  0.2886
 7213SOL     OW33271   0.205   2.379  13.144  0.7913 -0.4002 -0.0113
 7213SOL    HW133272   0.153   2.301  13.160 -1.3668  0.9790 -0.2636
 7213SOL    HW233273   0.161   2.409  13.065  0.7726  2.4761  1.0694
 7214SOL     OW33274   1.593   1.529   7.927 -0.0288  0.1885  0.5886
 7214SOL    HW133275   1.635   1.613   7.945  2.5479 -1.2983  1.5052
 7214SOL    HW233276   1.553   1.547   7.842 -0.4074 -1.5933  0.3812
 7215SOL     OW33277   2.043   2.731   6.871 -0.1311 -0.3997 -0.2974
 7215SOL    HW133278   2.108   2.704   6.936 -0.6300  0.7952  0.7104
 7215SOL    HW233279   1.970   2.671   6.884 -0.3765  0.2219  1.2043
 7216SOL     OW33280   0.167   3.478  15.985  0.3787  0.6687  0.6649
 7216SOL    HW133281   0.136   3.497  16.074 -1.1890  0.0380  0.2337
 7216SOL    HW233282   0.150   3.384  15.992 -1.8502  1.0949  0.7169
 7217SOL     OW33283   4.222   4.713   2.210 -0.1786  0.0058  0.1564
 7217SOL    HW133284   4.247   0.015   2.126 -1.4141  0.3059 -0.0618
 7217SOL    HW233285   4.166   0.047   2.238 -1.1852 -0.3129 -1.0236
 7218SOL     OW33286   3.393   3.861   4.874 -0.4947  0.0492  0.0800
 7218SOL    HW133287   3.330   3.928   4.902 -1.7303 -1.5951  1.2269
 7218SOL    HW233288   3.474   3.910   4.884  1.9533 -3.6149 -1.6055
 7219SOL     OW33289   3.997   2.856  12.952 -0.2553 -0.1860  0.4330
 7219SOL    HW133290   4.001   2.934  13.007  1.6867  0.3602 -0.4932
 7219SOL    HW233291   4.028   2.791  13.015  1.0001 -0.4380 -0.4464
 7220SOL     OW33292   0.303   0.846   9.259  0.1378  0.4637 -0.6666
 7220SOL    HW133293   0.375   0.846   9.323 -0.6269  1.3889  0.2043
 7220SOL    HW233294   0.231   0.850   9.322  0.6168  1.4501 -0.1696
 7221SOL     OW33295   1.626   0.510  11.724  0.6574  0.3575  0.5905
 7221SOL    HW133296   1.635   0.416  11.734 -1.7616 -0.0095 -0.7672
 7221SOL    HW233297   1.566   0.511  11.649  0.9276  2.6032  0.3973
 7222SOL     OW33298   1.388   3.388   6.929  0.3120 -0.1373  0.0747
 7222SOL    HW133299   1.350   3.373   7.015  2.4246  1.0222  1.2110
 7222SOL    HW233300   1.401   3.303   6.888  1.5677  0.6229 -1.0939
 7223SOL     OW33301   2.916   3.270   8.724 -0.2060 -0.3857 -0.7417
 7223SOL    HW133302   2.837   3.263   8.670 -0.5523 -0.7974 -0.1768
 7223SOL    HW233303   2.926   3.366   8.727  1.4139 -0.6179  1.5814
 7224SOL     OW33304   0.840   3.001  10.836 -0.7847  0.6768 -0.1447
 7224SOL    HW133305   0.790   3.024  10.757  0.0626  0.1931 -0.8144
 7224SOL    HW233306   0.928   3.031  10.814  1.0722 -2.7720  2.6140
 7225SOL     OW33307   3.050   2.753   0.146 -0.6796 -0.4296  0.3625
 7225SOL    HW133308   3.108   2.726   0.217  0.6407  0.3299 -0.4125
 7225SOL    HW233309   2.964   2.757   0.187 -0.3527 -2.1289  1.2020
 7226SOL     OW33310   4.502   2.414   8.793  0.5632  0.3390  0.5288
 7226SOL    HW133311   4.415   2.392   8.829  0.4121 -0.2570 -0.2290
 7226SOL    HW233312   4.506   2.348   8.725 -1.7185  0.7128  0.0309
 7227SOL     OW33313   2.224   4.136   3.833  0.2927 -0.2852 -0.1005
 7227SOL    HW133314   2.151   4.151   3.774 -1.1906 -0.8157  1.5712
 7227SOL    HW233315   2.184   4.115   3.918  1.6653  0.6697  0.7821
 7228SOL     OW33316   3.491   0.317  13.477 -0.0178  0.8083  0.0293
 7228SOL    HW133317   3.443   0.397  13.454 -2.7002 -1.2597 -1.6411
 7228SOL    HW233318   3.525   0.283  13.394  2.7702  1.8992  0.7390
 7229SOL     OW33319   0.344   3.986   4.892  0.4520  0.1359  0.3299
 7229SOL    HW133320   0.341   3.910   4.950  0.5367 -1.1632 -1.3698
 7229SOL    HW233321   0.284   3.950   4.826  1.4485 -1.2328  0.1942
 7230SOL     OW33322   0.793   0.025   6.521 -0.1067 -0.8935 -0.4345
 7230SOL    HW133323   0.793   0.052   6.429 -0.1100  0.1587 -0.1195
 7230SOL    HW233324   0.756   0.102   6.564  0.9539 -0.8601  0.4089
 7231SOL     OW33325   0.704   3.248  12.277  0.5156  0.3223 -0.2399
 7231SOL    HW133326   0.689   3.340  12.256  0.1958  0.3671  0.1870
 7231SOL    HW233327   0.692   3.239  12.372  1.2279  2.1777  0.0275
 7232SOL     OW33328   0.402   2.802  12.001  0.6297  0.1130  0.0420
 7232SOL    HW133329   0.384   2.838  11.914  0.8628  0.9519  0.3447
 7232SOL    HW233330   0.362   2.870  12.056  2.6621  0.7817  0.6760
 7233SOL     OW33331   2.650   4.122   6.942  0.3983  0.3929  0.1644
 7233SOL    HW133332   2.668   4.194   7.003 -0.9407  0.3081  0.6414
 7233SOL    HW233333   2.624   4.048   6.996  1.5602 -0.1306  0.0143
 7234SOL     OW33334   1.919   2.409  13.653  0.4036  0.7573  0.6147
 7234SOL    HW133335   1.960   2.328  13.622 -0.0465 -0.0041  1.9789
 7234SOL    HW233336   1.841   2.395  13.599 -0.6577 -0.5755  2.4585
 7235SOL     OW33337   1.060   3.063   9.258  0.2174 -0.3551  0.1150
 7235SOL    HW133338   1.008   3.136   9.224 -2.3093 -2.2201 -0.0224
 7235SOL    HW233339   1.078   3.006   9.184  1.2024  3.3333 -2.4924
 7236SOL     OW33340   3.829   0.708   2.616 -0.0828 -0.2784 -0.3686
 7236SOL    HW133341   3.870   0.628   2.648 -0.7007  0.6839  2.8422
 7236SOL    HW233342   3.739   0.700   2.648 -0.1467 -3.2072 -1.3455
 7237SOL     OW33343   0.084   2.856  15.851  0.3371 -0.0069  0.4051
 7237SOL    HW133344   0.016   2.914  15.819 -0.8179 -2.3091 -1.3041
 7237SOL    HW233345   0.067   2.767  15.820  0.0366  0.3515 -0.4697
 7238SOL     OW33346   3.484   2.523   3.142  0.3236  0.5817 -0.8574
 7238SOL    HW133347   3.428   2.540   3.066 -0.6948 -0.4545 -0.3422
 7238SOL    HW233348   3.445   2.577   3.211  0.5627 -2.4053  1.5900
 7239SOL     OW33349   2.078   1.744   1.724 -0.2981 -0.3557  0.6194
 7239SOL    HW133350   2.128   1.819   1.694 -0.4628 -0.1894  0.7599
 7239SOL    HW233351   2.145   1.677   1.739  0.0710  0.0646  0.8282
 7240SOL     OW33352   3.128   2.194   2.454  0.4344 -0.7517 -0.0064
 7240SOL    HW133353   3.216   2.159   2.470 -0.0029 -2.0904 -0.5328
 7240SOL    HW233354   3.103   2.154   2.370  1.3657 -2.1741  0.3957
 7241SOL     OW33355   2.882   2.885   3.232  0.0526  0.0102  0.2383
 7241SOL    HW133356   2.830   2.941   3.289 -0.6640 -0.5057  0.0965
 7241SOL    HW233357   2.824   2.810   3.218  0.2577 -0.1499  0.2563
 7242SOL     OW33358   3.039   4.088   2.369  0.1151  0.0351  0.1161
 7242SOL    HW133359   3.104   4.151   2.338 -1.3043  1.4261 -0.0616
 7242SOL    HW233360   3.094   4.031   2.423 -0.9438 -1.2443 -0.1622
 7243SOL     OW33361   1.632   4.522   2.116 -0.7486 -0.0476 -0.9441
 7243SOL    HW133362   1.657   4.458   2.050  2.7554 -0.2517  0.5768
 7243SOL    HW233363   1.565   4.478   2.168 -0.7064  0.2879 -0.6000
 7244SOL     OW33364   3.211   2.973   1.583 -0.4694 -0.2501  0.4461
 7244SOL    HW133365   3.152   2.918   1.531 -0.4281  1.0557 -0.9758
 7244SOL    HW233366   3.161   3.054   1.583  0.7369  0.5042  3.2519
 7245SOL     OW33367   3.540   0.505   4.507  0.4040  0.2437  0.3202
 7245SOL    HW133368   3.553   0.600   4.510  0.6395  0.1759  1.5212
 7245SOL    HW233369   3.509   0.497   4.417  1.6268 -0.6124 -0.0216
 7246SOL     OW33370   0.838   3.981   5.920  0.2299  0.1546  0.0055
 7246SOL    HW133371   0.929   3.950   5.912  0.0774 -0.2303 -0.2146
 7246SOL    HW233372   0.844   4.048   5.852  1.1466 -0.6256 -0.6762
 7247SOL     OW33373   0.170   2.708  12.200 -0.0636 -0.3801 -0.5934
 7247SOL    HW133374   0.259   2.676  12.213  0.8764  1.9371 -1.3798
 7247SOL    HW233375   0.128   2.624  12.181  1.4033 -0.8569 -1.7410
 7248SOL     OW33376   1.451   2.839   7.631 -0.9453  0.3678 -0.0434
 7248SOL    HW133377   1.497   2.896   7.693 -3.2234  1.5078  0.6048
 7248SOL    HW233378   1.365   2.837   7.672 -0.5852 -0.2348  0.7072
 7249SOL     OW33379   3.932   0.733   8.627  0.1521  0.9172  0.3813
 7249SOL    HW133380   3.921   0.786   8.706 -3.4632 -1.1290  1.2087
 7249SOL    HW233381   3.875   0.782   8.568 -0.2687 -0.7951 -0.6152
 7250SOL     OW33382   2.632   3.332   2.282  0.0698 -0.1152 -0.3486
 7250SOL    HW133383   2.586   3.396   2.228  1.5193  2.3904  1.3669
 7250SOL    HW233384   2.695   3.298   2.218  2.3081  0.3534  1.5853
 7251SOL     OW33385   1.762   0.135  12.043 -0.3896 -0.6142  0.1671
 7251SOL    HW133386   1.850   0.121  12.009 -0.6016 -0.2531 -0.5285
 7251SOL    HW233387   1.777   0.129  12.137 -2.2618 -0.4614  0.4784
 7252SOL     OW33388   3.545   2.722  10.419  0.4550 -0.0166 -0.3210
 7252SOL    HW133389   3.631   2.682  10.435  1.2069  1.5271 -0.5353
 7252SOL    HW233390   3.482   2.654  10.446  0.2299 -0.9210 -3.0813
 7253SOL     OW33391   0.951   1.684   6.624 -0.0837 -0.5871 -0.7134
 7253SOL    HW133392   1.017   1.617   6.641  0.2065  0.4624  2.2661
 7253SOL    HW233393   0.988   1.757   6.673  0.6942 -0.6640 -1.1709
 7254SOL     OW33394   4.259   2.556   6.397  0.2545 -0.1063  0.1905
 7254SOL    HW133395   4.167   2.576   6.411  1.2070  2.7059  2.3056
 7254SOL    HW233396   4.258   2.517   6.309 -0.7507 -0.0701  0.1868
 7255SOL     OW33397   1.327   1.157   8.494  0.1871  0.1026  0.0926
 7255SOL    HW133398   1.374   1.119   8.569  2.1163  3.4695  0.6089
 7255SOL    HW233399   1.368   1.241   8.473  0.8579 -0.2779 -0.1401
 7256SOL     OW33400   2.181   2.608   6.294 -0.1683 -0.8269  0.6512
 7256SOL    HW133401   2.167   2.703   6.295  1.9575 -0.5297 -0.6085
 7256SOL    HW233402   2.204   2.587   6.204 -0.7707 -1.1032  0.5588
 7257SOL     OW33403   4.201   2.287   8.117  0.4155 -0.0328  0.0100
 7257SOL    HW133404   4.115   2.326   8.133  0.1020 -0.6856 -0.0681
 7257SOL    HW233405   4.226   2.341   8.042  1.2762  1.2498  1.2396
 7258SOL     OW33406   1.615   1.517   6.082 -0.1263  0.0290  0.3046
 7258SOL    HW133407   1.691   1.570   6.106 -1.3513  1.5374  0.8644
 7258SOL    HW233408   1.655   1.432   6.096 -1.2875 -0.8015 -1.3988
 7259SOL     OW33409   3.984   2.227   3.843 -1.2267  0.4313  0.2220
 7259SOL    HW133410   4.003   2.303   3.898  0.0613 -0.4431  0.9682
 7259SOL    HW233411   3.901   2.251   3.801 -1.2942 -2.4276 -1.2883
 7260SOL     OW33412   0.886   0.251  15.535 -0.1428  0.3558  0.2338
 7260SOL    HW133413   0.981   0.254  15.544  0.0706 -0.9532 -1.6317
 7260SOL    HW233414   0.866   0.166  15.495 -2.8939  0.0847  2.1812
 7261SOL     OW33415   1.189   4.116  11.742 -0.5012 -0.1556 -0.4160
 7261SOL    HW133416   1.149   4.111  11.829  0.8528  2.7630  0.3845
 7261SOL    HW233417   1.120   4.088  11.682  0.5585 -1.2137 -1.1510
 7262SOL     OW33418   3.082   2.071   4.463  0.1215  0.1298  0.5472
 7262SOL    HW133419   3.065   2.039   4.374  1.8473 -1.7152  0.8704
 7262SOL    HW233420   3.041   2.156   4.446  1.7131  1.1722  2.0459
 7263SOL     OW33421   4.096   2.851  17.716 -0.0995 -0.7681  0.6735
 7263SOL    HW133422   4.016   2.903  17.712 -0.0484 -0.8631 -1.6693
 7263SOL    HW233423   4.126   2.862   0.058  1.5189 -2.5872  0.3807
 7264SOL     OW33424   0.016   0.251   8.891  0.3694  0.2811  0.0455
 7264SOL    HW133425   0.085   0.258   8.826  1.4513  2.1334  1.3750
 7264SOL    HW233426   0.023   0.336   8.935  0.7768  1.3230 -2.0287
 7265SOL     OW33427   1.058   4.676  16.510 -0.3497 -0.1569 -0.4110
 7265SOL    HW133428   1.077   4.638  16.596  0.3353 -0.5529 -0.7407
 7265SOL    HW233429   0.963   4.667  16.512 -0.3892  0.0843 -1.5324
 7266SOL     OW33430   3.050   4.270   3.877  0.2186  0.1169 -0.2167
 7266SOL    HW133431   3.070   4.186   3.836 -0.3563 -0.4892  0.7269
 7266SOL    HW233432   2.956   4.263   3.861 -0.0808  0.4207  1.3353
 7267SOL     OW33433   0.282   1.525   5.717  0.9226 -1.1001 -0.1741
 7267SOL    HW133434   0.300   1.482   5.800  1.0692 -0.9764 -0.1408
 7267SOL    HW233435   0.324   1.611   5.725  0.5781 -0.8805 -0.7372
 7268SOL     OW33436   4.090   3.960  10.392  0.2429  0.3527 -0.0653
 7268SOL    HW133437   4.127   3.908  10.320  2.3582  1.1240  0.4482
 7268SOL    HW233438   4.083   3.890  10.456  0.6293 -0.2274 -0.6528
 7269SOL     OW33439   3.269   3.493  15.790 -0.5525 -0.6706 -0.3083
 7269SOL    HW133440   3.340   3.434  15.813 -0.1566 -0.8298 -1.9386
 7269SOL    HW233441   3.191   3.467  15.838 -0.6279 -2.6197 -1.5092
 7270SOL     OW33442   3.163   4.564  17.412 -0.6531  0.6866  0.5615
 7270SOL    HW133443   3.100   4.559  17.340  1.7289  1.7426 -1.5908
 7270SOL    HW233444   3.233   4.588  17.351 -1.3765  2.1339  0.2913
 7271SOL     OW33445   1.276   2.747   1.959 -0.6495 -0.4293 -0.0447
 7271SOL    HW133446   1.214   2.728   2.029 -0.4956  0.6474  0.3904
 7271SOL    HW233447   1.250   2.839   1.950 -0.7002 -0.3907  0.5136
 7272SOL     OW33448   2.797   1.212   7.572 -0.1976  0.4387  0.0239
 7272SOL    HW133449   2.892   1.210   7.589 -0.7067 -2.2595  2.6645
 7272SOL    HW233450   2.769   1.202   7.663 -1.9530 -3.2925 -0.9022
 7273SOL     OW33451   2.980   1.004   1.861 -0.3669  0.1507 -0.6526
 7273SOL    HW133452   2.960   1.075   1.921  2.5359 -0.3287  0.8812
 7273SOL    HW233453   2.911   1.025   1.798 -0.5175 -2.0995 -1.2684
 7274SOL     OW33454   4.041   1.920   4.891  0.2303 -0.0637 -0.0714
 7274SOL    HW133455   3.975   1.894   4.956  0.2904  0.7924  0.3432
 7274SOL    HW233456   4.022   1.859   4.820 -0.7985 -0.4983  0.5768
 7275SOL     OW33457   1.623   0.475  13.168 -0.5003  0.0572  0.0545
 7275SOL    HW133458   1.577   0.548  13.209  0.6708  1.1453 -0.5664
 7275SOL    HW233459   1.680   0.445  13.239  0.2010  1.1895 -0.0337
 7276SOL     OW33460   4.624   1.172  10.420  0.1785  0.0990  0.2051
 7276SOL    HW133461   4.709   1.159  10.379 -0.4384 -0.9484 -0.7308
 7276SOL    HW233462   4.613   1.087  10.462  1.3089  0.0755  0.4660
 7277SOL     OW33463   0.419   3.523  10.814 -0.0608 -0.1536 -0.3883
 7277SOL    HW133464   0.437   3.437  10.777 -1.1137 -1.3189  1.7656
 7277SOL    HW233465   0.328   3.539  10.789 -0.0745  1.2321  0.5021
 7278SOL     OW33466   3.264   4.418  15.285 -0.0397 -0.5590 -0.3814
 7278SOL    HW133467   3.253   4.332  15.323  1.0172  0.1172  1.4248
 7278SOL    HW233468   3.312   4.391  15.206 -2.6533 -0.9987 -1.8311
 7279SOL     OW33469   0.709   1.512   8.815 -0.0383 -0.2327  0.7645
 7279SOL    HW133470   0.673   1.556   8.892 -1.8590  1.3465 -1.0083
 7279SOL    HW233471   0.634   1.454   8.801  2.2197 -2.7139 -1.1918
 7280SOL     OW33472   4.306   0.897  12.723  0.0458 -0.5841  0.1890
 7280SOL    HW133473   4.290   0.972  12.666  1.0566 -1.3046 -1.0451
 7280SOL    HW233474   4.301   0.932  12.812 -0.5462  0.5194 -0.2818
 7281SOL     OW33475   1.124   0.472   2.569 -0.0637  0.2716 -0.3949
 7281SOL    HW133476   1.214   0.472   2.537  0.0367 -0.7573 -0.1224
 7281SOL    HW233477   1.124   0.567   2.580 -1.8000  0.2911 -0.6155
 7282SOL     OW33478   2.791   3.681  17.482  0.0885 -0.2579 -0.2419
 7282SOL    HW133479   2.781   3.586  17.488 -0.1221 -0.0405  2.9043
 7282SOL    HW233480   2.814   3.693  17.390 -1.7341  1.0888 -0.5272
 7283SOL     OW33481   3.497   0.759   6.327 -0.5527 -0.1174  0.2426
 7283SOL    HW133482   3.559   0.830   6.309  0.5678 -1.2783 -0.5269
 7283SOL    HW233483   3.433   0.759   6.255  1.0688 -0.2606 -1.2202
 7284SOL     OW33484   3.258   3.204   1.170 -0.2746  0.6964 -0.3092
 7284SOL    HW133485   3.203   3.256   1.111 -0.0081  1.9731  0.5827
 7284SOL    HW233486   3.220   3.231   1.253 -0.6945 -1.7094  0.3033
 7285SOL     OW33487   0.938   2.771   7.917  0.0289 -0.1912 -0.2629
 7285SOL    HW133488   0.941   2.774   8.013 -0.0405 -0.0670 -0.2647
 7285SOL    HW233489   0.846   2.750   7.902  0.4212 -1.1077 -1.3593
 7286SOL     OW33490   4.336   4.093   2.510 -0.3132 -0.5194  0.1264
 7286SOL    HW133491   4.334   3.998   2.496 -0.3598 -0.7515  1.7217
 7286SOL    HW233492   4.268   4.118   2.572 -0.7202 -2.6711  0.5301
 7287SOL     OW33493   0.408   0.040   7.878 -0.7875  0.2573 -0.4233
 7287SOL    HW133494   0.353   4.715   7.829 -2.8323  1.8707 -0.1772
 7287SOL    HW233495   0.394   0.018   7.970  1.0031 -1.6870 -0.6022
 7288SOL     OW33496   4.083   4.443  16.171  0.1905 -0.5524 -0.5500
 7288SOL    HW133497   4.117   4.411  16.255 -3.0348 -0.4570  0.7910
 7288SOL    HW233498   3.987   4.437  16.172  0.1413  0.2390 -1.2129
 7289SOL     OW33499   1.811   1.670  11.136  0.7349 -0.1176  0.6627
 7289SOL    HW133500   1.737   1.650  11.193 -1.1997  2.2023 -1.0065
 7289SOL    HW233501   1.847   1.750  11.175 -1.0390  1.4925 -0.9516
 7290SOL     OW33502   2.953   1.663   3.319 -0.3795 -0.5434  0.5883
 7290SOL    HW133503   3.020   1.649   3.386 -0.6744  0.2562  1.0584
 7290SOL    HW233504   2.882   1.705   3.369  0.1806  1.1790 -0.0542
 7291SOL     OW33505   0.249   3.052   9.295 -0.2648 -0.5457  0.4646
 7291SOL    HW133506   0.298   3.134   9.286 -1.1710 -0.1952 -1.2346
 7291SOL    HW233507   0.177   3.069   9.356 -0.9151 -0.8103 -0.2331
 7292SOL     OW33508   0.916   2.683   2.378  0.1226 -0.2463 -0.0886
 7292SOL    HW133509   0.975   2.695   2.453 -0.3881  0.1783  0.2420
 7292SOL    HW233510   0.841   2.730   2.415  0.3306  0.7314 -0.9096
 7293SOL     OW33511   4.631   4.686   7.210  0.1309 -0.2777  0.0521
 7293SOL    HW133512   4.579   4.674   7.290 -0.6025 -0.1170 -0.3945
 7293SOL    HW233513   4.704   4.629   7.234 -0.6582 -0.7549  1.3572
 7294SOL     OW33514   3.891   3.673   6.820  0.3263 -0.4306  0.1453
 7294SOL    HW133515   3.975   3.650   6.859  0.9447  1.9496  0.2083
 7294SOL    HW233516   3.831   3.608   6.857  1.1004 -0.1270  1.9742
 7295SOL     OW33517   1.291   3.529   3.788  0.6127  0.0601  0.0316
 7295SOL    HW133518   1.316   3.529   3.881  0.9837  2.7199 -0.0629
 7295SOL    HW233519   1.197   3.546   3.794  0.6667 -0.7384  3.1405
 7296SOL     OW33520   1.047   1.279   1.731  0.1173 -0.0926  0.1989
 7296SOL    HW133521   0.952   1.280   1.730  0.1476  0.7849 -2.5013
 7296SOL    HW233522   1.053   1.364   1.775 -2.2458  1.1283 -1.8642
 7297SOL     OW33523   1.817   0.141   5.699 -0.2874  0.3738 -0.1052
 7297SOL    HW133524   1.756   0.205   5.663 -0.1461 -0.4030 -1.7265
 7297SOL    HW233525   1.905   0.178   5.695  0.7451 -1.9689  0.9495
 7298SOL     OW33526   3.728   2.915   3.095 -0.2911 -0.2395  0.1983
 7298SOL    HW133527   3.633   2.901   3.100  0.0919 -1.8132  2.8097
 7298SOL    HW233528   3.762   2.844   3.149  1.0719  1.0685  1.0516
 7299SOL     OW33529   1.401   3.289   2.554 -0.2908 -0.3251 -0.2096
 7299SOL    HW133530   1.480   3.278   2.502 -1.1227  1.2843 -1.8290
 7299SOL    HW233531   1.445   3.321   2.633  1.4182  0.7932 -1.6196
 7300SOL     OW33532   1.378   2.801   3.650 -0.2688 -0.0664 -0.3138
 7300SOL    HW133533   1.322   2.737   3.694  0.3783  0.0386  0.6502
 7300SOL    HW233534   1.315   2.851   3.599 -1.1048 -1.4692 -0.6699
 7301SOL     OW33535   1.850   1.091   1.911 -0.2390 -0.5983  0.4895
 7301SOL    HW133536   1.784   1.137   1.964  2.0882  4.5805 -1.0899
 7301SOL    HW233537   1.928   1.128   1.953 -0.9886  1.2673  0.2400
 7302SOL     OW33538   0.730   2.970   5.306 -0.3735 -0.0705 -0.1890
 7302SOL    HW133539   0.674   3.023   5.364 -1.4228 -0.8210 -0.5121
 7302SOL    HW233540   0.798   3.032   5.282  0.3436 -0.8504 -0.1495
 7303SOL     OW33541   3.659   2.424  17.033  0.2962  0.0011  0.6873
 7303SOL    HW133542   3.717   2.481  17.083  0.5328  0.5165 -0.1630
 7303SOL    HW233543   3.710   2.419  16.952 -0.4322 -0.0852  0.2285
 7304SOL     OW33544   1.819   1.647  16.818 -0.1704  0.0789  0.6226
 7304SOL    HW133545   1.818   1.741  16.832  2.6635  0.2516 -0.4730
 7304SOL    HW233546   1.843   1.639  16.725  0.6730  0.3207  0.8304
 7305SOL     OW33547   0.080   4.448   4.033 -0.5153  0.0301  0.4222
 7305SOL    HW133548   0.024   4.501   4.090 -1.4191 -0.6741  0.1884
 7305SOL    HW233549   0.052   4.476   3.946 -0.1118 -0.9709 -0.0212
 7306SOL     OW33550   0.357   1.480   9.532 -0.4197  0.1451  0.0604
 7306SOL    HW133551   0.372   1.519   9.618 -2.2060  0.8691  0.0346
 7306SOL    HW233552   0.450   1.475   9.509 -0.3953  1.0893 -0.0720
 7307SOL     OW33553   2.583   0.696   5.261  0.0012 -0.2324  0.0171
 7307SOL    HW133554   2.654   0.695   5.196  0.2192 -0.0174  0.2553
 7307SOL    HW233555   2.586   0.612   5.307  2.0276  0.9419  1.9851
 7308SOL     OW33556   2.538   2.199   1.158 -0.3581 -0.3940 -0.3386
 7308SOL    HW133557   2.622   2.183   1.199 -0.2099 -0.3941 -0.6373
 7308SOL    HW233558   2.545   2.141   1.082 -0.7984  0.4300 -1.0121
 7309SOL     OW33559   1.342   4.684   5.319 -0.3336  0.3323 -0.6537
 7309SOL    HW133560   1.300   4.712   5.238 -1.3766  1.6998  0.3514
 7309SOL    HW233561   1.370   4.594   5.307  0.8575  0.4360  1.3533
 7310SOL     OW33562   3.553   0.472  13.083  0.1160  0.1308 -0.5201
 7310SOL    HW133563   3.616   0.400  13.078 -1.4616 -1.0723 -2.7434
 7310SOL    HW233564   3.544   0.511  12.997 -0.9499  2.2314  0.5374
 7311SOL     OW33565   1.504   3.683   7.281  1.0039 -0.4754  0.3035
 7311SOL    HW133566   1.590   3.687   7.323  0.1501  1.3360  1.8952
 7311SOL    HW233567   1.465   3.761   7.320  3.6209  1.3902 -0.7539
 7312SOL     OW33568   1.657   3.552   8.256  0.2747 -0.5180 -0.0389
 7312SOL    HW133569   1.708   3.505   8.322 -0.5074 -0.3377  0.6954
 7312SOL    HW233570   1.629   3.478   8.201 -1.2585  0.7718 -0.9832
 7313SOL     OW33571   2.739   3.176   8.048  0.7703  0.3157 -0.2024
 7313SOL    HW133572   2.736   3.180   8.144  3.0213 -3.7126  0.0184
 7313SOL    HW233573   2.699   3.263   8.037  0.1434  0.0573  0.0109
 7314SOL     OW33574   2.594   2.724   3.701  0.2274 -0.1521  0.3576
 7314SOL    HW133575   2.659   2.678   3.755  0.5752  0.2608  0.2891
 7314SOL    HW233576   2.641   2.737   3.619  1.2345  1.9265  1.2497
 7315SOL     OW33577   0.136   2.778   5.552  0.6144  0.6810  0.3831
 7315SOL    HW133578   0.226   2.786   5.521 -0.4326 -1.2061 -3.1763
 7315SOL    HW233579   0.124   2.869   5.580 -0.7875  0.9841 -1.1896
 7316SOL     OW33580   0.467   3.181   7.288 -0.1007 -0.1363 -0.2804
 7316SOL    HW133581   0.413   3.167   7.210  0.5516  2.1843 -1.1363
 7316SOL    HW233582   0.421   3.133   7.356 -0.4445 -1.9336 -1.7794
 7317SOL     OW33583   1.615   2.528   2.875  0.4124 -0.1693 -0.0640
 7317SOL    HW133584   1.597   2.610   2.828  1.5167  1.0179  1.6069
 7317SOL    HW233585   1.656   2.477   2.804 -4.7966 -0.7928 -2.6284
 7318SOL     OW33586   3.766   3.362   7.427 -0.1188 -0.3028  0.1306
 7318SOL    HW133587   3.830   3.410   7.480 -2.1501  0.4192  1.9410
 7318SOL    HW233588   3.689   3.372   7.482 -1.0203  3.3889 -1.8016
 7319SOL     OW33589   0.669   1.257  16.154  0.0657  0.1874  0.9128
 7319SOL    HW133590   0.689   1.183  16.211 -0.3342 -0.4889  0.1749
 7319SOL    HW233591   0.755   1.276  16.115  0.0851 -1.0009  0.3753
 7320SOL     OW33592   3.694   2.664   7.493  1.2376  0.1890 -0.4875
 7320SOL    HW133593   3.765   2.616   7.535  2.6928  0.1332 -3.0359
 7320SOL    HW233594   3.735   2.703   7.416  0.5489  2.9020  0.4948
 7321SOL     OW33595   3.348   1.248   6.861 -0.0975  0.3337 -0.4238
 7321SOL    HW133596   3.438   1.218   6.874 -0.8019 -1.5703  0.0517
 7321SOL    HW233597   3.310   1.195   6.932  0.2302  0.1761 -0.3664
 7322SOL     OW33598   2.711   1.233  11.041 -0.0714  0.2494  0.5495
 7322SOL    HW133599   2.794   1.237  10.994  0.1052  0.4259  0.8805
 7322SOL    HW233600   2.727   1.224  11.134  1.0596 -0.8228  0.2386
 7323SOL     OW33601   0.547   0.597   7.779 -0.1880  0.4216  0.3729
 7323SOL    HW133602   0.470   0.617   7.726 -2.1440 -0.4739  2.8948
 7323SOL    HW233603   0.554   0.678   7.831  0.4159 -0.2657  1.3697
 7324SOL     OW33604   2.139   0.035   5.808  0.1971  0.0799 -0.2962
 7324SOL    HW133605   2.108   0.053   5.719  0.8984 -1.8828 -0.9445
 7324SOL    HW233606   2.068   0.060   5.866 -1.1270 -2.0249 -0.9788
 7325SOL     OW33607   0.163   4.226  14.760 -0.1682 -0.2424  0.3135
 7325SOL    HW133608   0.159   4.138  14.723 -0.2891 -0.5609  1.0864
 7325SOL    HW233609   0.252   4.241  14.791 -1.2829  3.0774  1.8982
 7326SOL     OW33610   3.548   4.157   7.599 -0.0863  0.1825  0.3003
 7326SOL    HW133611   3.554   4.246   7.565 -1.3621  0.8511  1.8581
 7326SOL    HW233612   3.634   4.123   7.576 -0.1227 -0.9553  1.8214
 7327SOL     OW33613   0.807   1.662   2.187  0.2878  0.0091 -0.3892
 7327SOL    HW133614   0.771   1.638   2.102  1.1994 -3.9787  0.3821
 7327SOL    HW233615   0.840   1.582   2.228 -1.9113 -0.1240  1.1502
 7328SOL     OW33616   2.648   3.656   8.519  0.5440 -0.1475 -0.4658
 7328SOL    HW133617   2.599   3.702   8.451  0.9829 -0.6325 -1.1020
 7328SOL    HW233618   2.643   3.576   8.468 -1.3843  0.3145 -1.0185
 7329SOL     OW33619   2.200   0.490   2.899 -0.4319  0.2753  0.3803
 7329SOL    HW133620   2.247   0.412   2.929 -5.0285 -1.5374  2.8183
 7329SOL    HW233621   2.145   0.499   2.976  0.9163 -1.1182  1.5173
 7330SOL     OW33622   0.841   0.673   2.243  0.0250 -0.3964 -0.0349
 7330SOL    HW133623   0.851   0.643   2.334 -0.1956  0.7796  0.3720
 7330SOL    HW233624   0.749   0.653   2.224  0.2926 -0.7511 -0.9140
 7331SOL     OW33625   0.536   3.954   2.633 -0.1980  0.2760 -0.1122
 7331SOL    HW133626   0.535   3.859   2.624 -0.6316  0.2144  0.5932
 7331SOL    HW233627   0.462   3.980   2.687 -0.4856 -0.0400 -0.3585
 7332SOL     OW33628   3.293   1.685   7.809  0.6894 -0.3603  0.2764
 7332SOL    HW133629   3.376   1.682   7.856  2.0536  2.3650 -2.0025
 7332SOL    HW233630   3.258   1.772   7.829  1.2193 -0.2221  0.5817
 7333SOL     OW33631   0.726   0.779   4.733 -0.4199  0.1692  0.4338
 7333SOL    HW133632   0.799   0.745   4.681  0.6989  0.2979  1.9323
 7333SOL    HW233633   0.727   0.724   4.812 -1.0510  0.2635  0.5047
 7334SOL     OW33634   3.580   1.686  14.077  0.4776  0.0658 -0.3052
 7334SOL    HW133635   3.593   1.780  14.063 -0.4998  0.3094  0.4518
 7334SOL    HW233636   3.487   1.683  14.097  0.1119  0.2977 -2.0157
 7335SOL     OW33637   4.128   3.003   6.695  0.5697  0.5694  0.2448
 7335SOL    HW133638   4.199   3.016   6.632  1.9013 -1.8987  1.2261
 7335SOL    HW233639   4.110   3.091   6.729 -0.1254 -0.3105  2.1857
 7336SOL     OW33640   2.853   1.972  15.367  0.1345 -0.0832 -0.6149
 7336SOL    HW133641   2.892   2.011  15.446  1.0183 -0.6394 -0.7762
 7336SOL    HW233642   2.849   1.877  15.377 -1.5214 -0.0333 -0.9339
 7337SOL     OW33643   3.716   4.540   9.640 -0.5813  0.3464  0.4317
 7337SOL    HW133644   3.806   4.524   9.609 -0.9316  2.2731 -1.6108
 7337SOL    HW233645   3.721   4.527   9.734  0.1616  2.5916  0.6988
 7338SOL     OW33646   1.027   4.197   8.196  0.3718  0.8123  0.1078
 7338SOL    HW133647   1.101   4.140   8.219  1.2014  2.3080  1.1233
 7338SOL    HW233648   1.064   4.230   8.113 -2.1753 -1.2551 -1.8539
 7339SOL     OW33649   3.500   1.721   8.310  0.2543 -0.5027  0.6508
 7339SOL    HW133650   3.544   1.797   8.272 -0.2997 -0.2642  0.4819
 7339SOL    HW233651   3.462   1.763   8.387  0.4127  1.0088 -0.0831
 7340SOL     OW33652   1.330   1.833   9.237  0.0590 -0.4401 -0.0766
 7340SOL    HW133653   1.414   1.877   9.228  0.4682 -1.4915 -1.5701
 7340SOL    HW233654   1.344   1.773   9.310 -1.5551  0.0636  0.6318
 7341SOL     OW33655   1.621   0.680   8.955 -0.3726  0.2108 -0.4748
 7341SOL    HW133656   1.538   0.634   8.940  0.2485 -0.7692 -0.8345
 7341SOL    HW233657   1.618   0.684   9.051 -1.4137  2.4528 -0.5846
 7342SOL     OW33658   4.183   0.684   6.110 -0.2999 -0.1532 -0.2827
 7342SOL    HW133659   4.175   0.591   6.085  0.6738  0.1748 -1.8126
 7342SOL    HW233660   4.194   0.672   6.204 -0.1344  0.0848 -0.2748
 7343SOL     OW33661   2.213   2.016   8.432 -0.0518  0.5548 -0.1037
 7343SOL    HW133662   2.126   1.980   8.451 -0.7124  2.2492  0.0191
 7343SOL    HW233663   2.270   1.957   8.481  0.0636  1.9146  1.3845
 7344SOL     OW33664   4.261   3.844  11.544  0.3922  0.4866  0.5436
 7344SOL    HW133665   4.237   3.832  11.452 -0.1537 -1.7550  0.9845
 7344SOL    HW233666   4.308   3.767  11.574 -0.0421 -0.5183 -1.3317
 7345SOL     OW33667   2.075   3.498   3.371 -0.4301  0.5802 -0.4372
 7345SOL    HW133668   1.992   3.510   3.417  0.3099  1.3240  0.7058
 7345SOL    HW233669   2.135   3.486   3.444  1.1105 -2.1624 -2.1697
 7346SOL     OW33670   4.703   3.833   3.340  0.2919  0.5959 -0.5545
 7346SOL    HW133671   0.046   3.882   3.352 -0.6173  1.5484  1.5672
 7346SOL    HW233672   4.685   3.806   3.430  0.5325  0.6933 -0.4768
 7347SOL     OW33673   0.694   1.645  16.797  0.0283 -0.1090 -0.2944
 7347SOL    HW133674   0.654   1.602  16.721  1.2121 -1.3321 -0.2240
 7347SOL    HW233675   0.646   1.617  16.876  1.0243 -1.7376 -0.2719
 7348SOL     OW33676   3.668   0.866   8.780 -0.0432  0.2150 -0.2231
 7348SOL    HW133677   3.697   0.943   8.827  0.2612  0.2415 -0.4491
 7348SOL    HW233678   3.606   0.900   8.715 -0.5053 -3.2158 -1.5918
 7349SOL     OW33679   1.397   1.008   3.377  0.0453  0.0135  0.4485
 7349SOL    HW133680   1.456   0.975   3.445  1.6509  0.5648 -0.6634
 7349SOL    HW233681   1.349   1.076   3.424 -2.0630 -1.5413  0.5368
 7350SOL     OW33682   0.371   1.654   8.774  0.0458  0.1594 -0.6851
 7350SOL    HW133683   0.303   1.722   8.773 -0.2115 -0.0978 -0.7869
 7350SOL    HW233684   0.436   1.697   8.829 -2.0465 -0.1688  2.0772
 7351SOL     OW33685   1.947   4.410   8.446  0.0866 -0.5517 -0.6929
 7351SOL    HW133686   1.919   4.354   8.518  2.0993  1.5809  1.7293
 7351SOL    HW233687   1.888   4.484   8.462  2.1513 -0.0132  4.3919
 7352SOL     OW33688   1.983   4.376   5.579  0.3267  0.0895 -0.4950
 7352SOL    HW133689   1.915   4.442   5.598  1.6945  1.3970 -0.1756
 7352SOL    HW233690   2.029   4.428   5.513  0.6374  1.8322  1.0863
 7353SOL     OW33691   0.638   2.684   7.875 -0.5912 -0.5182 -0.1805
 7353SOL    HW133692   0.652   2.623   7.802 -0.2724  1.8792 -2.1201
 7353SOL    HW233693   0.643   2.628   7.953  1.4558  0.1345  0.1404
 7354SOL     OW33694   2.836   0.103   3.736 -0.1894  0.1564  0.2796
 7354SOL    HW133695   2.908   0.066   3.786  0.0893 -0.4697 -0.5777
 7354SOL    HW233696   2.812   0.187   3.775  0.2305  1.1278 -1.5437
 7355SOL     OW33697   1.789   2.646   7.765 -0.0497 -0.3690  0.4361
 7355SOL    HW133698   1.802   2.733   7.803 -3.8082 -0.6513  2.3406
 7355SOL    HW233699   1.869   2.638   7.713 -0.0744  0.5704  0.2615
 7356SOL     OW33700   2.267   3.079   6.995 -0.1068  0.2416 -0.2691
 7356SOL    HW133701   2.201   3.090   6.927  0.2446 -1.5154 -0.8810
 7356SOL    HW233702   2.348   3.106   6.951  0.7269 -1.6074  0.1269
 7357SOL     OW33703   1.468   3.499   2.222 -0.2416  0.1026  0.4535
 7357SOL    HW133704   1.560   3.490   2.247 -0.4133 -1.8296  0.3993
 7357SOL    HW233705   1.455   3.592   2.202  0.9081 -0.1560 -1.5040
 7358SOL     OW33706   0.138   3.940  16.765  0.7000  0.4142 -0.2829
 7358SOL    HW133707   0.058   3.978  16.801  2.6200  2.2836  1.9367
 7358SOL    HW233708   0.098   3.881  16.701  0.1322  1.2823 -0.7303
 7359SOL     OW33709   4.673   3.391   9.576 -0.1030  0.2370  0.9218
 7359SOL    HW133710   4.711   3.475   9.551 -0.0670  0.0369  0.3106
 7359SOL    HW233711   0.009   3.349   9.621 -0.5550 -4.1035 -2.3405
 7360SOL     OW33712   3.088   3.757  15.964  0.2488 -0.1456 -0.3093
 7360SOL    HW133713   3.169   3.757  15.914  0.1719 -0.5555 -0.4341
 7360SOL    HW233714   3.051   3.843  15.943 -0.0032  0.8108  3.9432
 7361SOL     OW33715   1.668   4.577   8.908 -0.1530  0.2044  0.6015
 7361SOL    HW133716   1.665   4.656   8.963 -0.5953  1.2753 -0.9779
 7361SOL    HW233717   1.578   4.547   8.927 -0.0085 -0.6477 -0.0728
 7362SOL     OW33718   3.531   0.157  11.161  0.6601 -0.0775 -0.6050
 7362SOL    HW133719   3.622   0.180  11.177  0.3126  2.9705 -2.9708
 7362SOL    HW233720   3.531   0.093  11.089  0.2025  0.9263 -1.4893
 7363SOL     OW33721   4.287   4.260   9.160 -0.1804 -0.0766 -0.3625
 7363SOL    HW133722   4.330   4.345   9.162 -3.7843  1.6513  2.9193
 7363SOL    HW233723   4.256   4.270   9.070 -0.0434 -0.3726 -0.4432
 7364SOL     OW33724   3.769   3.250   4.440 -0.1016  0.6373 -0.1875
 7364SOL    HW133725   3.743   3.298   4.518 -0.8818 -0.2698  0.1219
 7364SOL    HW233726   3.695   3.277   4.386  0.0708  1.5618  0.0476
 7365SOL     OW33727   0.987   2.857  11.430 -0.2540 -0.2622 -0.5888
 7365SOL    HW133728   1.018   2.776  11.470 -1.1508 -0.7536 -0.8899
 7365SOL    HW233729   0.947   2.824  11.350 -1.1324 -1.4914  0.3545
 7366SOL     OW33730   1.495   0.600  11.287 -0.5088  0.0115 -0.1355
 7366SOL    HW133731   1.523   0.587  11.196  1.4428  0.1906  0.4504
 7366SOL    HW233732   1.574   0.605  11.340 -0.7850 -0.1123  0.2828
 7367SOL     OW33733   1.397   2.858  14.430 -0.4815  0.6161 -0.0198
 7367SOL    HW133734   1.474   2.875  14.377  1.1591 -0.7313  1.8897
 7367SOL    HW233735   1.391   2.927  14.496 -1.5155 -0.3016  0.8377
 7368SOL     OW33736   2.389   2.317   5.078  0.3939  0.1816  0.1866
 7368SOL    HW133737   2.363   2.278   5.161  0.2964  0.0957  0.1157
 7368SOL    HW233738   2.336   2.269   5.015 -0.4632  2.4899 -0.8845
 7369SOL     OW33739   2.231   3.325   6.710  0.2005  0.1436  0.0541
 7369SOL    HW133740   2.143   3.336   6.744 -0.7876 -2.1613 -1.7764
 7369SOL    HW233741   2.227   3.234   6.739  0.9184 -1.2018 -4.1360
 7370SOL     OW33742   1.523   3.147  13.853 -0.6326 -0.0676 -0.1185
 7370SOL    HW133743   1.594   3.110  13.800 -1.8336 -0.2537 -1.5990
 7370SOL    HW233744   1.527   3.241  13.836  2.6226 -0.3929 -1.1495
 7371SOL     OW33745   3.488   3.972   5.730 -0.0442 -0.1421  0.2556
 7371SOL    HW133746   3.540   3.907   5.778  0.0332 -0.1378  0.1759
 7371SOL    HW233747   3.462   3.918   5.655  0.1726 -1.5855  1.2004
 7372SOL     OW33748   3.502   1.898   4.058  0.3206  0.0893  0.2092
 7372SOL    HW133749   3.539   1.953   4.127  1.3439  0.2418 -0.4488
 7372SOL    HW233750   3.503   1.956   3.981  2.0547  1.8519  1.5582
 7373SOL     OW33751   1.848   2.878   4.239 -0.8042 -0.3740 -0.2137
 7373SOL    HW133752   1.819   2.790   4.214 -0.0811  0.0883 -2.6590
 7373SOL    HW233753   1.828   2.933   4.163 -1.3582  1.6934  1.4141
 7374SOL     OW33754   1.338   4.542  10.933 -0.9062 -0.5693  0.4522
 7374SOL    HW133755   1.337   4.623  10.882 -0.8884 -0.5738  0.4448
 7374SOL    HW233756   1.428   4.511  10.926  0.1105  1.7700  3.5432
 7375SOL     OW33757   3.509   0.210  16.033  0.2280  0.1577 -0.4320
 7375SOL    HW133758   3.589   0.165  16.061 -0.0793 -1.2809 -1.8425
 7375SOL    HW233759   3.490   0.155  15.956  0.4598 -2.5746  1.4447
 7376SOL     OW33760   0.863   2.691   3.463  0.4195 -0.6156 -0.1356
 7376SOL    HW133761   0.837   2.782   3.448  0.6885 -1.0933 -3.5532
 7376SOL    HW233762   0.887   2.664   3.374 -4.3381 -0.5427 -1.4690
 7377SOL     OW33763   2.825   0.333  15.253  0.1727 -0.5916  0.1441
 7377SOL    HW133764   2.794   0.264  15.195 -2.6444 -0.9645  2.1363
 7377SOL    HW233765   2.857   0.287  15.331  0.2703  1.9280  1.6189
 7378SOL     OW33766   3.118   0.381  15.287 -0.1050 -0.0531  0.2581
 7378SOL    HW133767   3.082   0.328  15.216 -0.3533 -0.4595  0.6975
 7378SOL    HW233768   3.102   0.472  15.261 -2.3034 -0.2004  1.1602
 7379SOL     OW33769   2.116   2.172   7.138  0.6725  0.3880  0.1243
 7379SOL    HW133770   2.114   2.176   7.042 -0.5044 -2.4399  0.0228
 7379SOL    HW233771   2.139   2.261   7.163 -1.7100  1.2479 -0.7188
 7380SOL     OW33772   0.713   0.340   8.843  0.7035 -0.2459 -0.4020
 7380SOL    HW133773   0.670   0.254   8.848 -0.5012  0.4210  0.7256
 7380SOL    HW233774   0.635   0.395   8.832  0.4221 -0.1323  2.2467
 7381SOL     OW33775   1.733   4.087   7.144 -0.0499  0.3000  0.1938
 7381SOL    HW133776   1.821   4.048   7.144 -1.5313 -3.0081  1.1926
 7381SOL    HW233777   1.748   4.168   7.093 -0.4591  0.0964 -0.2484
 7382SOL     OW33778   0.307   4.612   3.996 -0.6802 -0.1155 -0.0010
 7382SOL    HW133779   0.326   4.628   3.904 -1.2351  1.2921  0.1309
 7382SOL    HW233780   0.226   4.562   3.990 -0.5624 -0.2413 -0.5480
 7383SOL     OW33781   0.492   1.496  16.203 -0.3663  0.0979 -0.4301
 7383SOL    HW133782   0.445   1.474  16.283  0.0617 -0.7824 -0.4214
 7383SOL    HW233783   0.541   1.414  16.201  0.6495  0.7148 -0.8942
 7384SOL     OW33784   2.587   1.950   6.009 -0.1340  0.0599  0.0691
 7384SOL    HW133785   2.621   2.032   5.974 -1.1230  0.8074  0.8767
 7384SOL    HW233786   2.639   1.885   5.962 -2.4662  0.4219 -3.0440
 7385SOL     OW33787   3.586   1.982   0.785  0.5240  0.5376 -0.2920
 7385SOL    HW133788   3.606   1.894   0.818 -1.3826  0.2969  0.2596
 7385SOL    HW233789   3.566   2.024   0.869 -2.0339 -2.4262  0.6001
 7386SOL     OW33790   4.162   0.637   8.779  0.1702 -0.5696  0.3442
 7386SOL    HW133791   4.107   0.650   8.702 -0.9404  1.2409  1.4371
 7386SOL    HW233792   4.227   0.703   8.755 -1.0880 -0.5949 -3.0797
 7387SOL     OW33793   3.883   3.379  15.206 -0.0003 -0.1335  0.0667
 7387SOL    HW133794   3.817   3.444  15.231  0.0245 -0.4302  0.9335
 7387SOL    HW233795   3.894   3.404  15.115 -1.9910  0.4474 -0.0189
 7388SOL     OW33796   2.630   0.917  10.848 -0.4013  0.0986  0.0641
 7388SOL    HW133797   2.587   0.964  10.777 -0.7660 -1.3040 -0.6404
 7388SOL    HW233798   2.561   0.888  10.907  0.1913  0.6305  1.0143
 7389SOL     OW33799   1.261   2.475   6.971 -0.1939 -0.0011  0.0632
 7389SOL    HW133800   1.324   2.448   7.037 -2.5811 -1.1824  1.8561
 7389SOL    HW233801   1.307   2.445   6.893 -0.2586 -2.2202  0.8813
 7390SOL     OW33802   2.901   0.450   9.353  0.0204  0.1259  0.4550
 7390SOL    HW133803   2.833   0.484   9.411  0.4024 -1.3526  1.7581
 7390SOL    HW233804   2.894   0.356   9.369  0.0959 -0.0561 -0.5280
 7391SOL     OW33805   0.749   2.989   6.917  0.0139 -0.1578  0.3925
 7391SOL    HW133806   0.737   3.027   7.004 -1.6763  0.6922 -0.2170
 7391SOL    HW233807   0.731   2.897   6.937  0.6985 -0.7382 -1.7482
 7392SOL     OW33808   3.862   0.178   4.908 -0.1935 -0.0590 -0.4113
 7392SOL    HW133809   3.848   0.213   4.996  1.5125 -0.1712 -0.0977
 7392SOL    HW233810   3.882   0.259   4.861 -1.7042  0.8196  0.4803
 7393SOL     OW33811   3.457   4.076  10.046 -0.0247  0.4787 -1.0401
 7393SOL    HW133812   3.480   4.158  10.090 -4.3510  1.7224 -1.1331
 7393SOL    HW233813   3.485   4.100   9.958  2.6877 -0.1432 -0.3818
 7394SOL     OW33814   4.499   1.018   2.277  0.6459 -0.3714  0.5733
 7394SOL    HW133815   4.504   1.093   2.336 -1.0081 -1.4255  2.0676
 7394SOL    HW233816   4.425   0.967   2.310 -0.3146  0.5921 -0.1197
 7395SOL     OW33817   0.249   3.888   3.765 -0.1107  0.3686 -0.2228
 7395SOL    HW133818   0.182   3.951   3.739 -1.3880 -0.7135  0.4373
 7395SOL    HW233819   0.249   3.822   3.696  2.3020 -0.9765  1.0641
 7396SOL     OW33820   1.209   2.952  14.068  0.3490 -0.0249 -0.6803
 7396SOL    HW133821   1.258   2.971  14.148  1.3190 -1.0303 -1.0293
 7396SOL    HW233822   1.160   2.878  14.104 -1.8945  0.1902 -3.3544
 7397SOL     OW33823   3.172   4.431   3.431 -0.1773  0.2325  0.4138
 7397SOL    HW133824   3.127   4.406   3.511 -1.9861  2.1981  0.0191
 7397SOL    HW233825   3.224   4.508   3.457  1.0513 -1.5197  3.1103
 7398SOL     OW33826   2.099   2.355   7.907 -0.1015  0.4103 -0.4611
 7398SOL    HW133827   2.133   2.322   7.990 -2.1164 -0.0579  0.1738
 7398SOL    HW233828   2.058   2.280   7.863 -0.2260  0.7865 -0.9761
 7399SOL     OW33829   2.385   0.595  13.066 -0.2562 -0.5337 -0.4523
 7399SOL    HW133830   2.291   0.612  13.076 -0.1692 -0.2818 -0.0775
 7399SOL    HW233831   2.391   0.603  12.971 -1.5662  0.8929 -0.4142
 7400SOL     OW33832   3.812   1.194  16.769 -1.0424  0.1175 -0.0521
 7400SOL    HW133833   3.760   1.149  16.702 -0.6591 -0.8060  0.2696
 7400SOL    HW233834   3.899   1.153  16.770  0.1221  2.7140  2.2824
 7401SOL     OW33835   1.445   3.201   4.054 -0.0152  0.3637  0.3217
 7401SOL    HW133836   1.394   3.159   3.984 -0.9031 -0.1578  1.2893
 7401SOL    HW233837   1.418   3.154   4.133  1.6011  1.3701  1.4662
 7402SOL     OW33838   3.225   1.946  15.421 -0.2621 -0.2516  0.6014
 7402SOL    HW133839   3.207   1.896  15.500  0.2741 -2.1359 -0.4557
 7402SOL    HW233840   3.320   1.937  15.411 -0.6293 -0.8484 -2.2819
 7403SOL     OW33841   2.406   2.343  17.484 -0.3706  0.3679  0.2649
 7403SOL    HW133842   2.476   2.282  17.460 -0.8970  0.3901 -1.3556
 7403SOL    HW233843   2.320   2.308  17.460  0.3534 -1.6022  0.5936
 7404SOL     OW33844   0.300   2.363   8.779  0.1248  0.0347 -0.5642
 7404SOL    HW133845   0.278   2.273   8.804 -0.2803  0.5756  1.0023
 7404SOL    HW233846   0.214   2.405   8.778 -0.8787 -1.9962 -0.8300
 7405SOL     OW33847   3.905   1.744   2.658 -0.2370 -0.4434 -0.2172
 7405SOL    HW133848   3.906   1.772   2.750  1.5996  0.1384 -0.4179
 7405SOL    HW233849   3.835   1.678   2.657 -0.5055 -0.1477 -0.6588
 7406SOL     OW33850   1.006   3.630   7.716  0.0027 -0.3492  0.2514
 7406SOL    HW133851   1.086   3.637   7.768  0.4006 -0.3170 -0.3731
 7406SOL    HW233852   0.946   3.690   7.760 -1.3771 -1.6687  0.1850
 7407SOL     OW33853   1.624   4.403   2.501 -0.1764 -0.5585  0.0641
 7407SOL    HW133854   1.611   4.497   2.509 -0.1613 -0.4784 -0.7992
 7407SOL    HW233855   1.715   4.390   2.528 -0.1996 -1.9139 -0.4909
 7408SOL     OW33856   0.349   4.058  12.274 -0.5330  0.2943  0.2785
 7408SOL    HW133857   0.367   4.128  12.336 -0.7978 -0.3006  1.0292
 7408SOL    HW233858   0.407   4.084  12.203  0.2439 -0.6037  0.5969
 7409SOL     OW33859   0.186   0.866   2.983  0.0352 -0.3221  0.3080
 7409SOL    HW133860   0.222   0.944   3.026  2.3413 -0.7115 -0.9018
 7409SOL    HW233861   0.098   0.869   3.020 -0.0672  1.2115 -0.0392
 7410SOL     OW33862   0.167   4.654   6.938 -0.0635  0.1090 -0.0758
 7410SOL    HW133863   0.134   4.735   6.977  2.6944  1.6655 -1.0260
 7410SOL    HW233864   0.211   4.692   6.862 -1.9955  0.1656 -1.1582
 7411SOL     OW33865   1.877   3.436   4.443  0.1057 -0.4660 -0.7670
 7411SOL    HW133866   1.831   3.505   4.491  1.7248  1.4076 -1.9017
 7411SOL    HW233867   1.872   3.362   4.504  1.5397  1.1270  1.2968
 7412SOL     OW33868   0.800   0.998   6.341  0.4063 -0.2471 -0.3348
 7412SOL    HW133869   0.771   1.036   6.424 -0.4317 -1.5015 -0.0562
 7412SOL    HW233870   0.884   0.967   6.374  1.0546  1.3261 -0.4966
 7413SOL     OW33871   1.089   0.764   2.143  0.0343  0.3191  0.3236
 7413SOL    HW133872   1.003   0.746   2.181  1.0855 -0.5330  2.2876
 7413SOL    HW233873   1.106   0.682   2.096  0.5724 -0.2760  1.5728
 7414SOL     OW33874   1.492   1.380   2.332 -0.5543 -0.3649 -0.0460
 7414SOL    HW133875   1.424   1.445   2.347 -0.8199 -0.9736  1.3887
 7414SOL    HW233876   1.459   1.305   2.381 -2.0320  0.9001  0.8796
 7415SOL     OW33877   2.176   3.639   6.689  0.0395  0.6904 -0.0954
 7415SOL    HW133878   2.212   3.592   6.614  0.2285  5.1002 -2.6857
 7415SOL    HW233879   2.147   3.714   6.638 -1.3464  0.8769  0.9540
 7416SOL     OW33880   2.053   3.427  17.650  0.1641  0.2226 -0.7448
 7416SOL    HW133881   2.132   3.467  17.685  0.1837 -0.5311  0.0871
 7416SOL    HW233882   2.019   3.371  17.720  1.5525  1.3832  0.8638
 7417SOL     OW33883   1.948   1.500   1.264  0.0131  0.0852 -0.0424
 7417SOL    HW133884   2.012   1.482   1.332 -1.0993  0.6091  1.1262
 7417SOL    HW233885   2.013   1.511   1.195  0.4217 -2.3540 -0.0444
 7418SOL     OW33886   2.070   2.319   1.934  0.7283 -0.1737  0.3890
 7418SOL    HW133887   2.011   2.266   1.881 -0.7520  2.2840 -0.4073
 7418SOL    HW233888   2.061   2.406   1.895 -0.4060 -0.5256 -0.1470
 7419SOL     OW33889   0.264   0.607   8.722 -0.1140  0.4515 -0.1443
 7419SOL    HW133890   0.169   0.600   8.718 -0.1527 -0.6078  2.9680
 7419SOL    HW233891   0.286   0.696   8.695 -0.2354  0.1466 -1.2441
 7420SOL     OW33892   4.595   0.246   9.138  0.1657 -0.4390  0.2515
 7420SOL    HW133893   4.656   0.317   9.158 -1.0710  0.4663  0.8583
 7420SOL    HW233894   4.629   0.228   9.050  1.7755  0.8714  0.6099
 7421SOL     OW33895   2.782   3.689   2.281  0.0384  0.1050 -0.1217
 7421SOL    HW133896   2.835   3.612   2.264  2.0655  1.2517  1.0099
 7421SOL    HW233897   2.704   3.647   2.316  0.2274  1.8885  2.4962
 7422SOL     OW33898   1.508   1.014   3.139 -0.3547 -0.3069 -0.1133
 7422SOL    HW133899   1.472   1.020   3.228 -1.6743 -1.0278 -0.5911
 7422SOL    HW233900   1.547   0.927   3.134  0.7830  0.2416 -0.8042
 7423SOL     OW33901   3.375   4.573  17.235  0.1833  0.5709  0.3960
 7423SOL    HW133902   3.381   4.607  17.146 -0.7460 -0.1630  0.0454
 7423SOL    HW233903   3.393   4.482  17.212  0.2333  1.4258 -2.8803
 7424SOL     OW33904   3.105   1.889   2.969  0.0641 -0.0935 -0.5411
 7424SOL    HW133905   3.194   1.881   2.936  0.3984  0.7549  0.1506
 7424SOL    HW233906   3.121   1.882   3.063 -3.3389  1.0878  0.1378
 7425SOL     OW33907   1.853   4.277   9.078 -0.0869  0.3893  0.0853
 7425SOL    HW133908   1.829   4.205   9.021 -2.9967  1.1460  0.3623
 7425SOL    HW233909   1.820   4.243   9.161  1.9619 -0.5940  0.4974
 7426SOL     OW33910   2.137   1.639   2.290 -0.0939 -0.5086  0.3025
 7426SOL    HW133911   2.054   1.591   2.285  0.2967 -1.1847  0.3131
 7426SOL    HW233912   2.110   1.724   2.255  0.6742  0.5848  2.3694
 7427SOL     OW33913   4.390   0.222   2.603  0.2943 -0.2842 -0.0632
 7427SOL    HW133914   4.353   0.163   2.668  1.9107  1.6619  2.6155
 7427SOL    HW233915   4.453   0.169   2.555 -1.3994  0.5259 -3.2493
 7428SOL     OW33916   1.303   0.439   2.195 -0.1577  0.4568 -0.1996
 7428SOL    HW133917   1.330   0.519   2.241 -2.2400 -0.7937  3.2039
 7428SOL    HW233918   1.327   0.469   2.107  0.7248  0.6530  0.1033
 7429SOL     OW33919   2.826   1.092   6.860 -0.2099  0.3608 -0.4093
 7429SOL    HW133920   2.822   1.115   6.953  0.4469  0.9667 -0.5310
 7429SOL    HW233921   2.904   1.138   6.828 -0.4488  1.0730  0.0355
 7430SOL     OW33922   2.040   3.009   2.112 -0.4953  0.5662 -0.0026
 7430SOL    HW133923   2.126   3.049   2.123 -0.9503  1.8096 -0.9648
 7430SOL    HW233924   1.997   3.089   2.082 -3.3420 -0.7534  0.6300
 7431SOL     OW33925   3.920   3.221   8.031  0.1651 -0.5411 -1.1523
 7431SOL    HW133926   3.995   3.271   8.062 -1.6188  0.2090  1.9171
 7431SOL    HW233927   3.905   3.270   7.951  0.3639  1.6001  0.1263
 7432SOL     OW33928   3.884   4.021   5.145 -0.2202  0.4022  0.0749
 7432SOL    HW133929   3.953   4.015   5.079  0.3145 -1.6616  0.8093
 7432SOL    HW233930   3.844   4.102   5.115 -1.1365  0.6198  1.8625
 7433SOL     OW33931   2.871   3.160  17.345 -0.7144  0.2336  0.1738
 7433SOL    HW133932   2.811   3.089  17.364 -0.0070 -0.2246  0.6976
 7433SOL    HW233933   2.938   3.120  17.400 -0.4425  0.6104  0.1175
 7434SOL     OW33934   2.586   1.181   5.593 -0.3191  0.1538  0.0185
 7434SOL    HW133935   2.537   1.114   5.641  1.4177 -1.5714 -0.6077
 7434SOL    HW233936   2.569   1.151   5.504  0.0337 -1.5104  0.5010
 7435SOL     OW33937   2.379   0.374   3.098 -0.5768  0.4140  0.6864
 7435SOL    HW133938   2.341   0.318   3.166 -2.2006  2.1033  1.1658
 7435SOL    HW233939   2.472   0.356   3.116 -0.5328  2.2955  2.3482
 7436SOL     OW33940   1.418   2.282   8.544  0.6576  0.4033  0.5853
 7436SOL    HW133941   1.419   2.261   8.450  3.4372 -0.5489  0.8304
 7436SOL    HW233942   1.510   2.308   8.553  0.0171  2.1863  1.8323
 7437SOL     OW33943   0.450   3.118   7.004  0.0044  0.2794  0.0105
 7437SOL    HW133944   0.477   3.036   7.047 -1.1055  1.0145  2.1298
 7437SOL    HW233945   0.446   3.103   6.910 -1.5208  0.5397  0.0369
 7438SOL     OW33946   3.956   0.560   7.014  0.2921  0.1536  0.4591
 7438SOL    HW133947   3.957   0.479   7.065  1.8563  0.7527  1.3889
 7438SOL    HW233948   3.995   0.626   7.072 -1.3712 -0.0615  1.8477
 7439SOL     OW33949   4.083   0.913  10.469 -0.4679  0.1837 -0.1226
 7439SOL    HW133950   4.029   0.972  10.521 -0.3136 -0.4859  0.7770
 7439SOL    HW233951   4.088   0.844  10.534  0.5681  2.1865  1.9393
 7440SOL     OW33952   1.218   3.291  11.769 -0.5169 -0.0748 -0.2138
 7440SOL    HW133953   1.224   3.238  11.689 -1.0822 -1.2762  0.5512
 7440SOL    HW233954   1.247   3.375  11.733  1.3950  0.4530  2.5730
 7441SOL     OW33955   1.277   2.172  10.766  0.1971 -0.3813  0.1263
 7441SOL    HW133956   1.347   2.197  10.706 -0.1948  0.2788 -0.0448
 7441SOL    HW233957   1.233   2.256  10.779  0.2041 -0.6849  2.1809
 7442SOL     OW33958   1.137   4.436   8.478  0.1453 -0.0997 -0.4123
 7442SOL    HW133959   1.076   4.506   8.503  0.7440 -0.2794  1.6159
 7442SOL    HW233960   1.075   4.375   8.440 -0.6013  1.4083 -1.6221
 7443SOL     OW33961   1.839   2.553   4.185 -0.3473  0.1843 -0.2226
 7443SOL    HW133962   1.919   2.520   4.225 -1.2682  0.1379  1.6058
 7443SOL    HW233963   1.785   2.564   4.264 -1.0851 -0.2199 -0.6722
 7444SOL     OW33964   1.873   3.735   7.054 -0.0211 -0.1315 -0.5068
 7444SOL    HW133965   1.964   3.718   7.032 -0.5694 -1.3673 -1.8619
 7444SOL    HW233966   1.872   3.694   7.140 -2.0164  0.7518 -0.1020
 7445SOL     OW33967   0.464   2.260   7.925  0.5239  0.0793 -0.0273
 7445SOL    HW133968   0.504   2.245   7.839 -0.9554 -2.0788 -0.3590
 7445SOL    HW233969   0.402   2.328   7.900  1.7840  1.3429  0.3020
 7446SOL     OW33970   4.583   2.975   4.937  0.0348  0.6520  0.6682
 7446SOL    HW133971   4.635   2.931   5.005 -0.8508  1.1361  1.6632
 7446SOL    HW233972   4.615   3.065   4.943  0.6792  0.4798 -0.1971
 7447SOL     OW33973   1.315   1.842   3.399 -0.0810  0.6535  0.0386
 7447SOL    HW133974   1.244   1.896   3.434 -0.1342  0.6708 -0.0978
 7447SOL    HW233975   1.387   1.871   3.456 -0.5455  0.7178  0.5993
 7448SOL     OW33976   2.887   0.846   4.170  0.3822 -0.3497  0.0268
 7448SOL    HW133977   2.801   0.819   4.202  0.1986  1.2657  0.9303
 7448SOL    HW233978   2.868   0.872   4.080 -0.7942 -2.5186 -0.3394
 7449SOL     OW33979   2.018   2.090   9.767  0.1095 -0.4774 -0.0211
 7449SOL    HW133980   1.968   2.008   9.763  1.6037 -1.4903  1.9429
 7449SOL    HW233981   2.058   2.078   9.853  0.8075 -0.5080 -0.3472
 7450SOL     OW33982   0.799   4.484   3.828  0.0311  0.0375  0.1583
 7450SOL    HW133983   0.755   4.528   3.755 -1.0394 -1.3317 -0.0387
 7450SOL    HW233984   0.731   4.421   3.853 -0.0917  0.6331  1.3300
 7451SOL     OW33985   0.783   4.518   9.067  0.0296  0.9026  0.1130
 7451SOL    HW133986   0.800   4.569   9.147  0.1050  0.4869  0.3624
 7451SOL    HW233987   0.811   4.588   9.008 -0.0129  0.4197 -0.4760
 7452SOL     OW33988   3.991   3.288   6.985  0.0932  0.1899  0.1743
 7452SOL    HW133989   3.913   3.247   6.947  0.0476 -1.0169  1.5676
 7452SOL    HW233990   4.061   3.262   6.926  1.3955  2.3657  0.7672
 7453SOL     OW33991   0.351   0.297   6.459  0.0930 -0.2958  0.1336
 7453SOL    HW133992   0.258   0.276   6.453 -0.5089  1.4849  2.9494
 7453SOL    HW233993   0.384   0.236   6.525  0.6375 -0.1582 -0.0158
 7454SOL     OW33994   0.627   2.611   8.569 -0.2271  0.0511 -0.1125
 7454SOL    HW133995   0.634   2.534   8.627  0.2326 -0.5581 -0.9719
 7454SOL    HW233996   0.550   2.655   8.604  1.2218  0.8853  2.0567
 7455SOL     OW33997   3.877   1.623   0.252  0.0765 -0.0826 -0.5621
 7455SOL    HW133998   3.822   1.571   0.194 -1.0933 -0.2330  0.6620
 7455SOL    HW233999   3.894   1.699   0.196  0.6992  0.0675 -0.1676
 7456SOL     OW34000   3.888   3.371   7.811 -0.0961  0.1722  0.0868
 7456SOL    HW134001   3.938   3.399   7.734  0.0766  0.7719  0.4197
 7456SOL    HW234002   3.808   3.335   7.772 -1.7172  1.5902  2.1148
 7457SOL     OW34003   4.177   2.900   5.543  0.3168 -0.2816  0.4336
 7457SOL    HW134004   4.200   2.993   5.531 -1.3551  0.0251 -0.4618
 7457SOL    HW234005   4.194   2.852   5.462  0.6800  0.5117  0.0357
 7458SOL     OW34006   3.267   0.426   4.092  0.0381 -0.6941 -0.3697
 7458SOL    HW134007   3.192   0.380   4.130 -0.2933  1.4919  1.6457
 7458SOL    HW234008   3.237   0.514   4.070  0.2505  0.0943  2.4479
 7459SOL     OW34009   1.341   3.874   0.893 -0.0922 -0.0502 -0.1658
 7459SOL    HW134010   1.299   3.788   0.887  1.7762 -1.0779  1.1289
 7459SOL    HW234011   1.272   3.937   0.913  0.6910  1.7496 -3.1768
 7460SOL     OW34012   0.729   1.217   8.471 -0.0033 -0.5074 -0.1593
 7460SOL    HW134013   0.801   1.263   8.427  0.6238 -1.6881 -0.3719
 7460SOL    HW234014   0.666   1.222   8.400  0.0608 -0.5761 -0.2221
 7461SOL     OW34015   2.695   3.112   8.317  0.7499 -0.4594 -0.1949
 7461SOL    HW134016   2.704   3.036   8.374  1.7236 -0.3965 -0.2689
 7461SOL    HW234017   2.613   3.080   8.279  0.3249  1.8152 -1.1993
 7462SOL     OW34018   2.363   0.606  15.134  0.1698 -0.2818  0.2137
 7462SOL    HW134019   2.413   0.638  15.060  1.8051 -1.2841  0.8829
 7462SOL    HW234020   2.298   0.676  15.143  0.9617  0.3992  0.5298
 7463SOL     OW34021   4.606   1.668   9.051 -0.3551  0.0575 -0.4261
 7463SOL    HW134022   4.626   1.654   9.144 -1.2242  2.0266  0.0562
 7463SOL    HW234023   4.538   1.735   9.055 -2.1949 -1.8007 -0.5855
 7464SOL     OW34024   0.829   4.021   8.291  0.2269 -0.1711 -0.4029
 7464SOL    HW134025   0.743   4.052   8.264  0.8301  0.6873 -1.3539
 7464SOL    HW234026   0.891   4.068   8.235  1.2519  0.1986  1.0580
 7465SOL     OW34027   1.524   3.384   4.339 -0.4624  0.1598  0.1463
 7465SOL    HW134028   1.501   3.296   4.310 -1.1228  0.3812  0.0086
 7465SOL    HW234029   1.584   3.370   4.413  0.5876  1.4730 -0.4447
 7466SOL     OW34030   4.095   2.274   9.268  0.1538 -0.4786  0.1934
 7466SOL    HW134031   4.068   2.287   9.177  0.2611 -0.6757  0.1349
 7466SOL    HW234032   4.075   2.181   9.279 -1.0979 -0.5950 -2.9801
 7467SOL     OW34033   1.158   4.668   4.488  0.3602  0.6281  0.7541
 7467SOL    HW134034   1.165   4.676   4.393 -1.1093  2.7884  0.8148
 7467SOL    HW234035   1.233   4.610   4.499  2.5244  3.5380  1.2036
 7468SOL     OW34036   4.559   2.485  15.622  0.4323 -0.2913 -0.3249
 7468SOL    HW134037   4.507   2.406  15.611 -0.5374  0.1390  1.1570
 7468SOL    HW234038   4.493   2.544  15.659 -0.4196 -0.8378 -0.9703
 7469SOL     OW34039   3.015   3.604   6.467  0.4008  0.4222 -0.7370
 7469SOL    HW134040   2.998   3.518   6.504 -1.4571  1.7851  1.6080
 7469SOL    HW234041   3.012   3.668   6.538  1.1435 -0.2081 -0.1434
 7470SOL     OW34042   1.867   3.381  13.575  0.3252  0.1001 -0.0141
 7470SOL    HW134043   1.858   3.476  13.571 -0.6911 -0.0216 -0.5157
 7470SOL    HW234044   1.806   3.339  13.514  0.3732  0.4913 -0.3263
 7471SOL     OW34045   3.102   2.543   0.799 -0.4409 -0.5349 -0.0425
 7471SOL    HW134046   3.081   2.555   0.706 -2.1384 -0.8053  0.3062
 7471SOL    HW234047   3.192   2.510   0.804 -0.5390 -0.6808  0.7484
 7472SOL     OW34048   0.131   4.585   5.125 -0.4018 -0.0201 -0.0883
 7472SOL    HW134049   0.091   4.505   5.160  0.4515 -0.5995 -0.4211
 7472SOL    HW234050   0.196   4.605   5.193 -0.7995  1.8826 -0.2655
 7473SOL     OW34051   0.650   0.767   8.654 -0.2382 -0.5230  0.0544
 7473SOL    HW134052   0.703   0.842   8.627 -1.5777 -0.0659 -1.3033
 7473SOL    HW234053   0.629   0.791   8.744  0.9722 -0.8152  0.4080
 7474SOL     OW34054   1.578   0.385   1.821  0.3293 -0.4290 -0.4091
 7474SOL    HW134055   1.507   0.329   1.850  1.0811 -0.8722  0.5639
 7474SOL    HW234056   1.533   0.432   1.750  0.0903 -1.0836 -0.6932
 7475SOL     OW34057   4.033   0.713   8.092  0.1622 -0.3319  0.5061
 7475SOL    HW134058   3.950   0.757   8.113  0.4011 -0.3233  1.4291
 7475SOL    HW234059   3.997   0.651   8.029  0.5301  1.2102 -1.1828
 7476SOL     OW34060   1.948   2.537   3.324 -0.1290  0.9296 -0.3989
 7476SOL    HW134061   1.857   2.555   3.349 -1.1539 -0.9159 -2.8560
 7476SOL    HW234062   1.948   2.444   3.303 -0.1433  0.8320  0.0316
 7477SOL     OW34063   4.087   3.716   4.056 -0.3621  0.4111  0.1575
 7477SOL    HW134064   4.054   3.802   4.082 -1.2421  0.6970 -1.9408
 7477SOL    HW234065   4.070   3.667   4.137  0.6017 -0.8861 -0.4338
 7478SOL     OW34066   0.316   2.407   3.835  0.0532 -0.4415  0.6999
 7478SOL    HW134067   0.280   2.321   3.855  0.0590 -0.5134  0.4037
 7478SOL    HW234068   0.316   2.404   3.740 -4.4551 -3.0580  0.7759
 7479SOL     OW34069   2.501   2.843   1.652  0.4074  0.1889 -0.6313
 7479SOL    HW134070   2.550   2.897   1.590 -0.6264  1.2704 -0.5082
 7479SOL    HW234071   2.459   2.783   1.590 -2.6088  2.2335 -0.5497
 7480SOL     OW34072   0.558   0.130   8.893 -0.5536 -0.2653 -0.1353
 7480SOL    HW134073   0.590   0.042   8.912  1.0640  0.4074  0.2660
 7480SOL    HW234074   0.464   0.114   8.893 -0.5605 -0.2311 -1.3123
 7481SOL     OW34075   4.423   2.254   6.302 -0.0451  0.0325 -0.0516
 7481SOL    HW134076   4.513   2.242   6.271 -0.1245  0.6517 -0.5261
 7481SOL    HW234077   4.402   2.343   6.274 -1.0694  0.0443  0.7586
 7482SOL     OW34078   0.157   2.446   6.500  0.1092 -0.1024 -0.9671
 7482SOL    HW134079   0.138   2.437   6.593  1.7321  0.1366 -0.6137
 7482SOL    HW234080   0.131   2.355   6.483 -2.0687  0.2412  0.4825
 7483SOL     OW34081   2.387   4.595   0.211 -0.2239 -0.1734 -0.1641
 7483SOL    HW134082   2.361   4.525   0.152 -0.8062 -0.0795 -0.0281
 7483SOL    HW234083   2.422   4.542   0.283  0.4209  0.5225  0.0337
 7484SOL     OW34084   3.975   1.958   3.786 -0.8015  0.4057  0.0202
 7484SOL    HW134085   3.972   1.969   3.691  0.0428 -2.2631 -0.3177
 7484SOL    HW234086   3.981   2.049   3.816 -3.2148  1.6264 -3.2562
 7485SOL     OW34087   4.095   1.213   3.767  0.3596  0.4725  0.2787
 7485SOL    HW134088   4.124   1.300   3.740  1.6351 -0.0209  0.0834
 7485SOL    HW234089   4.074   1.223   3.860 -1.3327 -3.3028  0.2939
 7486SOL     OW34090   2.067   1.503  13.612  0.9132  0.3528  0.1570
 7486SOL    HW134091   1.983   1.456  13.604  0.3833  1.1776  0.9149
 7486SOL    HW234092   2.133   1.449  13.570  1.4404  1.3579 -0.2982
 7487SOL     OW34093   0.431   1.522   8.540  0.0503  0.0193  0.1785
 7487SOL    HW134094   0.354   1.521   8.483 -0.6885 -1.6704  1.2032
 7487SOL    HW234095   0.405   1.554   8.626 -1.0993  0.5776 -0.3806
 7488SOL     OW34096   1.052   0.395  10.120 -0.9430 -0.7095  0.2183
 7488SOL    HW134097   1.069   0.473  10.174 -2.4323  0.6789 -1.3098
 7488SOL    HW234098   1.086   0.338  10.189 -0.8386  0.8890  1.5047
 7489SOL     OW34099   3.895   1.388   5.398 -0.1555  0.2306 -0.0547
 7489SOL    HW134100   3.899   1.385   5.302  2.2950  0.4906  0.0473
 7489SOL    HW234101   3.986   1.376   5.426 -0.1628 -0.7994 -0.4572
 7490SOL     OW34102   4.084   3.759  10.564  0.2609 -0.4664 -0.1797
 7490SOL    HW134103   4.156   3.698  10.547 -0.1101 -0.9464 -0.0228
 7490SOL    HW234104   4.053   3.702  10.635  0.6311  0.7867  0.9862
 7491SOL     OW34105   1.682   4.534   9.684 -0.3884  0.0247  0.2898
 7491SOL    HW134106   1.685   4.519   9.590 -0.3224 -0.6541  0.4042
 7491SOL    HW234107   1.690   4.628   9.703 -1.2217  0.1939 -0.1872
 7492SOL     OW34108   2.942   4.010   3.458 -0.1895 -0.3800  0.8528
 7492SOL    HW134109   2.857   4.029   3.419 -0.1519  1.3798  1.5914
 7492SOL    HW234110   2.986   3.982   3.378 -0.8013  2.0191 -0.3444
 7493SOL     OW34111   1.996   1.015   7.181 -0.0219 -0.1046 -0.1065
 7493SOL    HW134112   1.991   0.967   7.263  2.1569 -0.2417 -0.0581
 7493SOL    HW234113   2.069   1.070   7.209 -0.4163 -1.0313  2.7694
 7494SOL     OW34114   1.814   1.381   9.784  0.1746  0.1729  0.1356
 7494SOL    HW134115   1.779   1.458   9.829 -1.5774 -0.0270 -0.8647
 7494SOL    HW234116   1.746   1.360   9.720  1.1011  0.9158 -1.0952
 7495SOL     OW34117   3.950   3.851   0.239  0.7272  0.4540 -0.6484
 7495SOL    HW134118   3.987   3.769   0.207  0.2959  0.1758 -0.4303
 7495SOL    HW234119   3.874   3.861   0.182  1.1972  0.1944 -1.3239
 7496SOL     OW34120   4.551   4.042  13.766 -0.0414 -0.6041  0.7301
 7496SOL    HW134121   4.559   4.136  13.750 -1.4937 -0.9911 -2.2585
 7496SOL    HW234122   4.462   4.028  13.799  0.1059 -3.3934 -0.0889
 7497SOL     OW34123   1.001   3.282   6.062 -0.0278  0.3552 -0.3347
 7497SOL    HW134124   1.052   3.343   6.115 -0.5161  0.3116  0.1893
 7497SOL    HW234125   1.073   3.242   6.013 -0.1308  0.0864 -0.2685
 7498SOL     OW34126   3.186   0.486   3.700  0.1896  0.0343 -0.3322
 7498SOL    HW134127   3.123   0.470   3.771  0.7674 -1.7168 -0.2329
 7498SOL    HW234128   3.155   0.567   3.660  2.8080  0.4139 -1.6055
 7499SOL     OW34129   3.528   2.439   9.573  0.2686 -0.2573  0.5583
 7499SOL    HW134130   3.489   2.394   9.648  0.1963 -0.4477  0.4071
 7499SOL    HW234131   3.448   2.464   9.527  0.3138 -0.2366  0.4917
 7500SOL     OW34132   4.398   1.661   2.436  0.6147 -0.6442  0.2132
 7500SOL    HW134133   4.305   1.670   2.460  0.2581 -2.2042 -0.5750
 7500SOL    HW234134   4.448   1.735   2.472 -0.0521 -1.7966  3.4858
 7501SOL     OW34135   2.828   4.594  15.051  0.3172  0.6969 -0.8333
 7501SOL    HW134136   2.910   4.618  15.094  0.3011  0.0156 -0.4209
 7501SOL    HW234137   2.866   4.578  14.965 -1.2609  2.7159 -1.8884
 7502SOL     OW34138   0.440   4.611   2.010 -0.6093  0.1858  0.2679
 7502SOL    HW134139   0.367   4.601   2.071 -0.6785 -1.3160 -0.0698
 7502SOL    HW234140   0.390   4.670   1.953  0.7403 -0.8218 -1.9935
 7503SOL     OW34141   1.397   2.402   2.680  0.0207 -0.7584  0.3943
 7503SOL    HW134142   1.423   2.486   2.642 -0.7350  0.4100  2.4320
 7503SOL    HW234143   1.410   2.425   2.772 -1.5299  0.3294  0.3513
 7504SOL     OW34144   3.195   2.017  10.695 -0.0498  0.2589 -0.2790
 7504SOL    HW134145   3.272   1.986  10.647 -0.4732 -0.1420 -0.6938
 7504SOL    HW234146   3.174   1.925  10.712 -1.8985  0.6548 -0.4485
 7505SOL     OW34147   0.265   3.785   9.590  0.0943  0.9659  0.0378
 7505SOL    HW134148   0.351   3.827   9.589  0.3949  0.2914 -1.7317
 7505SOL    HW234149   0.296   3.696   9.576 -3.0011 -0.1513  0.3666
 7506SOL     OW34150   2.898   0.973  11.165  0.5814  0.6588 -0.2110
 7506SOL    HW134151   2.900   1.063  11.197  1.3606  0.2492  0.8856
 7506SOL    HW234152   2.987   0.942  11.182 -0.0942 -0.5555  1.1003
 7507SOL     OW34153   1.362   0.873   7.598 -0.1982  0.2808 -0.5164
 7507SOL    HW134154   1.447   0.916   7.612 -0.3395  0.4672 -0.2329
 7507SOL    HW234155   1.347   0.820   7.676 -1.8714 -1.1481 -1.8221
 7508SOL     OW34156   4.549   2.266   3.329  0.4896 -0.2344 -0.2726
 7508SOL    HW134157   4.626   2.293   3.379 -0.1320 -0.8130  0.9839
 7508SOL    HW234158   4.479   2.321   3.362  0.9230 -0.8994  1.7676
 7509SOL     OW34159   0.213   0.723   4.875 -0.5488 -0.4160  0.3316
 7509SOL    HW134160   0.165   0.692   4.799 -0.6329 -1.7790  0.9400
 7509SOL    HW234161   0.273   0.786   4.834 -3.4114  3.2937  1.8183
 7510SOL     OW34162   2.460   2.138   5.440  0.2779 -0.4690 -0.4850
 7510SOL    HW134163   2.371   2.145   5.405  0.2062 -1.5051 -0.5308
 7510SOL    HW234164   2.450   2.201   5.511  0.9192 -0.7872 -0.1199
 7511SOL     OW34165   0.898   2.523   9.146  0.6388 -0.2672  0.3191
 7511SOL    HW134166   0.867   2.472   9.220 -1.4285  0.0243 -0.3404
 7511SOL    HW234167   0.890   2.453   9.081  0.4481  0.2290 -0.1979
 7512SOL     OW34168   3.821   4.132  13.734 -0.2546  0.1762 -0.3868
 7512SOL    HW134169   3.826   4.037  13.723  3.7916  0.5130 -1.5403
 7512SOL    HW234170   3.730   4.160  13.726 -0.5770 -0.8458 -0.3506
 7513SOL     OW34171   0.095   0.344   1.606  0.1388 -0.1934  0.4615
 7513SOL    HW134172   0.008   0.355   1.568  2.1611  0.2808 -4.0401
 7513SOL    HW234173   0.100   0.249   1.614  1.8888 -0.1264  0.1405
 7514SOL     OW34174   3.663   4.265   2.977  0.9096 -0.0195 -0.3452
 7514SOL    HW134175   3.599   4.324   2.936  1.2699  0.9853  0.5279
 7514SOL    HW234176   3.729   4.273   2.909 -0.4979 -0.0807 -1.7307
 7515SOL     OW34177   1.747   0.891   5.860 -0.2451  0.2878 -0.0345
 7515SOL    HW134178   1.752   0.929   5.948 -1.6875  2.6378 -0.9823
 7515SOL    HW234179   1.653   0.886   5.843 -0.5807 -2.7619  2.7574
 7516SOL     OW34180   4.147   4.233  15.759  0.0065  0.3228  0.3581
 7516SOL    HW134181   4.157   4.321  15.795 -1.6279  0.2465  1.0094
 7516SOL    HW234182   4.236   4.198  15.754 -0.0090  0.1650  1.1587
 7517SOL     OW34183   2.960   1.291   0.947  0.3974 -0.0924  0.2786
 7517SOL    HW134184   2.961   1.340   0.864 -1.9710 -2.2015 -1.0023
 7517SOL    HW234185   2.982   1.209   0.903 -0.0192 -0.1485  0.1756
 7518SOL     OW34186   2.848   0.607   4.386  0.0354 -0.3232  0.0769
 7518SOL    HW134187   2.801   0.584   4.467 -1.4359  1.6942 -0.1965
 7518SOL    HW234188   2.847   0.521   4.343  1.2120  0.2091 -0.9883
 7519SOL     OW34189   3.439   0.625   3.683  0.1876 -0.2772 -0.3310
 7519SOL    HW134190   3.454   0.686   3.611 -0.3228 -1.3270 -1.3104
 7519SOL    HW234191   3.361   0.579   3.654 -0.2210  0.1952  0.0128
 7520SOL     OW34192   0.199   1.214   1.138  0.5901 -0.1670  0.5051
 7520SOL    HW134193   0.185   1.122   1.158 -0.5816 -0.0189  0.3802
 7520SOL    HW234194   0.212   1.211   1.043 -2.4001 -0.0193  0.0933
 7521SOL     OW34195   2.862   0.399   8.632 -0.2883 -0.0775  0.1608
 7521SOL    HW134196   2.824   0.422   8.716 -0.3167 -0.2774  0.2027
 7521SOL    HW234197   2.934   0.461   8.623 -0.4121  0.2168  1.2064
 7522SOL     OW34198   1.062   4.524   3.772  0.3795 -1.5379  0.4806
 7522SOL    HW134199   1.044   4.489   3.685  1.3820 -0.5989 -0.1011
 7522SOL    HW234200   0.973   4.513   3.806  0.6529 -1.5328  1.2034
 7523SOL     OW34201   0.158   0.807  17.081 -0.2148 -0.1653  0.2698
 7523SOL    HW134202   0.110   0.887  17.058  0.7892 -0.5169 -3.0117
 7523SOL    HW234203   0.237   0.836  17.127 -0.3558 -1.1424  1.1247
 7524SOL     OW34204   2.075   4.346   3.150 -0.3096 -0.2267  0.0407
 7524SOL    HW134205   2.101   4.254   3.150 -1.6114 -0.5928 -1.0160
 7524SOL    HW234206   2.031   4.365   3.233 -0.0911 -2.7216  0.7382
 7525SOL     OW34207   4.079   1.799   7.813  0.6264  0.2026  0.3892
 7525SOL    HW134208   4.163   1.760   7.837  0.1529 -0.3016  1.2249
 7525SOL    HW234209   4.100   1.861   7.744 -0.4315  0.9640  0.7500
 7526SOL     OW34210   2.151   0.680  10.855  0.0326  0.2402 -0.6357
 7526SOL    HW134211   2.132   0.772  10.836 -0.2401 -0.2270 -2.6206
 7526SOL    HW234212   2.071   0.637  10.823 -0.3596  1.7832 -1.7578
 7527SOL     OW34213   2.208   0.379   1.968  0.2873 -0.2861  0.4006
 7527SOL    HW134214   2.203   0.312   2.037 -1.2367 -2.6979 -2.0515
 7527SOL    HW234215   2.261   0.330   1.905  2.9892  0.8855  1.7778
 7528SOL     OW34216   1.320   0.971   4.889 -0.0524  0.1220  0.1112
 7528SOL    HW134217   1.385   1.037   4.914 -0.0701  0.7521 -1.4925
 7528SOL    HW234218   1.363   0.890   4.916 -0.4496 -0.7519 -1.8630
 7529SOL     OW34219   0.265   4.380   1.141  0.0431  0.0151  0.0959
 7529SOL    HW134220   0.336   4.322   1.113  0.5430 -0.3167  2.0224
 7529SOL    HW234221   0.253   4.367   1.236 -2.0614 -0.6749 -0.2716
 7530SOL     OW34222   4.160   0.840   3.135  0.4740  0.2410 -0.4122
 7530SOL    HW134223   4.147   0.906   3.203 -2.4309 -0.5168 -0.2451
 7530SOL    HW234224   4.094   0.773   3.152 -0.6364  2.0278  2.2939
 7531SOL     OW34225   0.224   1.351   2.807 -0.5274 -0.0878 -0.1819
 7531SOL    HW134226   0.244   1.420   2.870 -0.2885 -0.9805  0.7119
 7531SOL    HW234227   0.312   1.334   2.773 -0.0005  2.4333 -0.0779
 7532SOL     OW34228   2.877   1.431   7.226 -0.2066 -0.2659  0.0284
 7532SOL    HW134229   2.940   1.449   7.296  0.7332 -1.7913 -0.4115
 7532SOL    HW234230   2.877   1.513   7.177  0.8835  1.4500  2.9776
 7533SOL     OW34231   3.492   2.328   1.498  0.1389 -0.1901 -0.2218
 7533SOL    HW134232   3.447   2.412   1.501 -0.4786 -0.5796  1.6161
 7533SOL    HW234233   3.479   2.308   1.591  0.2088  1.0586  0.0494
 7534SOL     OW34234   2.600   3.902   1.896 -0.1962 -0.0763 -0.1551
 7534SOL    HW134235   2.601   3.855   1.979  1.1661  1.0958  0.4883
 7534SOL    HW234236   2.523   3.956   1.916 -0.6802 -0.8298  0.0004
 7535SOL     OW34237   3.426   1.594   3.420 -0.4253  0.4694  0.0173
 7535SOL    HW134238   3.469   1.671   3.458  0.7253 -0.5186  0.7433
 7535SOL    HW234239   3.462   1.591   3.332  2.3075 -2.4854  1.2187
 7536SOL     OW34240   2.131   4.039   8.351 -0.0065 -0.1195  0.5558
 7536SOL    HW134241   2.041   4.053   8.321 -0.3350 -1.2726  0.9791
 7536SOL    HW234242   2.128   4.083   8.436 -1.4757  0.2068  0.3267
 7537SOL     OW34243   2.208   2.840   0.968 -0.2518 -0.0913 -0.2842
 7537SOL    HW134244   2.190   2.759   1.017 -0.1922 -1.1057 -1.9292
 7537SOL    HW234245   2.151   2.904   1.010 -0.7125 -0.0566 -0.9668
 7538SOL     OW34246   0.114   1.731   3.590 -0.0285 -0.0094  0.0372
 7538SOL    HW134247   0.187   1.669   3.590 -0.2886 -0.3251 -0.8023
 7538SOL    HW234248   0.055   1.686   3.650  0.3396 -0.6994 -0.1181
 7539SOL     OW34249   0.478   0.351   7.955  0.1661  0.6081  0.2610
 7539SOL    HW134250   0.525   0.416   7.903  0.2261  0.5980  0.3019
 7539SOL    HW234251   0.403   0.336   7.898  1.1085  2.6017 -1.4741
 7540SOL     OW34252   3.285   0.125   6.142  0.3260  0.0610 -0.5287
 7540SOL    HW134253   3.322   0.132   6.230  1.2317 -2.1612 -0.7170
 7540SOL    HW234254   3.341   0.186   6.094  0.4553 -0.6278 -1.2509
 7541SOL     OW34255   3.078   2.937   8.167 -0.0177  0.4137  0.1013
 7541SOL    HW134256   3.052   3.002   8.232  1.4852 -0.3468  1.4500
 7541SOL    HW234257   3.052   2.992   8.092 -4.3182 -0.0499  1.2775
 7542SOL     OW34258   2.910   3.473   6.681  0.4288  0.2436  0.0947
 7542SOL    HW134259   2.854   3.551   6.675 -0.7210 -0.4910  1.2610
 7542SOL    HW234260   2.953   3.493   6.764 -0.4011  0.9972  0.3437
 7543SOL     OW34261   3.863   1.162   6.392  0.0410  0.2650  0.2818
 7543SOL    HW134262   3.920   1.233   6.421  0.5608 -0.6162  1.4217
 7543SOL    HW234263   3.926   1.115   6.337 -1.4272 -1.2216 -0.1494
 7544SOL     OW34264   2.630   1.082   9.019  0.4040  0.7245  0.5529
 7544SOL    HW134265   2.536   1.065   9.025  0.6565 -0.0405  2.3098
 7544SOL    HW234266   2.622   1.169   8.979 -2.0901  0.3179  0.1911
 7545SOL     OW34267   3.789   0.480   2.329  0.3190  0.6570 -0.0638
 7545SOL    HW134268   3.765   0.566   2.295 -0.9011 -0.2785 -1.5516
 7545SOL    HW234269   3.725   0.447   2.392  0.1134  0.2034 -0.5214
 7546SOL     OW34270   0.021   1.411   3.503  0.0625  0.1063  0.0528
 7546SOL    HW134271   0.104   1.377   3.470  0.2723  0.3396  0.3377
 7546SOL    HW234272   4.718   1.326   3.519 -0.5788  0.7673  1.9501
 7547SOL     OW34273   3.134   4.621   7.314  0.0370 -0.4250 -0.6184
 7547SOL    HW134274   3.216   4.614   7.363  0.0928 -0.5759 -0.7330
 7547SOL    HW234275   3.070   4.619   7.386  0.8254  0.9968  0.1150
 7548SOL     OW34276   2.399   3.413   5.305 -0.4519 -0.2353  0.3297
 7548SOL    HW134277   2.323   3.449   5.351  0.1233  1.0276  0.3122
 7548SOL    HW234278   2.471   3.428   5.366 -2.2137  1.1417  2.0836
 7549SOL     OW34279   0.284   1.166   9.154  0.5325  0.5351 -0.8088
 7549SOL    HW134280   0.232   1.172   9.234 -0.2016 -0.3280 -1.2173
 7549SOL    HW234281   0.230   1.206   9.086 -0.5797  0.0416 -0.2151
 7550SOL     OW34282   1.399   0.272   3.590 -0.1806  0.1788 -0.5306
 7550SOL    HW134283   1.382   0.343   3.652 -2.9584 -0.9733  0.0483
 7550SOL    HW234284   1.427   0.194   3.637 -1.6803 -0.3654 -0.5473
 7551SOL     OW34285   3.527   1.219   4.593 -0.3897 -0.0260  0.1683
 7551SOL    HW134286   3.433   1.204   4.603 -0.3371 -0.3603  0.1780
 7551SOL    HW234287   3.550   1.161   4.520 -0.2312 -1.2114  1.1639
 7552SOL     OW34288   3.838   0.156   9.477 -0.5502  0.0124 -0.2399
 7552SOL    HW134289   3.772   0.127   9.414 -1.6074  1.7211  0.0787
 7552SOL    HW234290   3.848   0.237   9.427  0.6076  0.5420  0.8405
 7553SOL     OW34291   1.104   2.977   5.779 -0.5207 -0.2302  0.1024
 7553SOL    HW134292   1.096   2.895   5.828  0.2901 -0.8949 -0.8888
 7553SOL    HW234293   1.130   3.041   5.846 -2.7370  2.1691 -1.3606
 7554SOL     OW34294   1.002   1.612   9.250 -0.5072  0.2491 -0.5103
 7554SOL    HW134295   1.055   1.629   9.328  1.3660 -2.5811 -1.1706
 7554SOL    HW234296   1.041   1.533   9.212  2.1732  1.2641  0.1225
 7555SOL     OW34297   2.415   3.507   0.692  0.3574  0.3077  0.4302
 7555SOL    HW134298   2.468   3.571   0.645 -0.3805 -0.2802 -1.2173
 7555SOL    HW234299   2.475   3.431   0.695  1.0509  0.9154  1.7876
 7556SOL     OW34300   3.174   1.901   7.677  0.1102  0.6169 -0.6089
 7556SOL    HW134301   3.106   1.852   7.630  0.1398  0.6616 -0.6993
 7556SOL    HW234302   3.218   1.950   7.607  0.7591  1.9144  0.7178
 7557SOL     OW34303   4.036   2.648   4.729  0.3039  0.0694  0.2730
 7557SOL    HW134304   3.959   2.635   4.784 -0.6092  0.1837 -0.9742
 7557SOL    HW234305   4.019   2.735   4.692  0.5934  0.0277  0.0448
 7558SOL     OW34306   0.641   2.226   5.993  0.1417  0.1568 -0.8109
 7558SOL    HW134307   0.720   2.173   6.005  0.6675  0.9716 -0.6400
 7558SOL    HW234308   0.616   2.251   6.082  1.6626  0.1002 -0.3582
 7559SOL     OW34309   0.708   3.438   6.012 -0.1984  0.0979  0.1562
 7559SOL    HW134310   0.720   3.398   6.098 -1.6867  0.3007  0.4597
 7559SOL    HW234311   0.650   3.368   5.982 -0.5672 -0.1644  1.5143
 7560SOL     OW34312   3.080   2.580  13.097  0.1731 -0.4622 -0.0522
 7560SOL    HW134313   3.144   2.509  13.102  1.5715  1.0272  3.4099
 7560SOL    HW234314   3.042   2.585  13.184 -1.6401 -1.6408 -0.7703
 7561SOL     OW34315   0.755   2.281   7.981  0.4495  0.0541 -0.4044
 7561SOL    HW134316   0.721   2.363   8.017  1.4317  0.0681  0.5036
 7561SOL    HW234317   0.675   2.229   7.970 -0.1452  0.6198  1.1683
 7562SOL     OW34318   1.811   0.027   3.053  0.3011 -0.5049  0.3583
 7562SOL    HW134319   1.812   0.008   2.959  0.8984 -0.0465  0.2674
 7562SOL    HW234320   1.876   0.098   3.053 -1.6196  1.2599 -1.9442
 7563SOL     OW34321   2.687   4.181   2.747 -0.5613 -0.6448 -0.2006
 7563SOL    HW134322   2.742   4.141   2.679 -0.5098 -0.2002 -0.4240
 7563SOL    HW234323   2.747   4.187   2.821  0.9980  0.1029 -1.5245
 7564SOL     OW34324   2.442   1.989   6.494 -0.1048  0.3202  0.3792
 7564SOL    HW134325   2.446   1.902   6.532 -0.3278  0.6069  1.0511
 7564SOL    HW234326   2.516   1.992   6.433  0.4809  1.1481  1.1191
 7565SOL     OW34327   3.482   1.686   2.621  0.0755  0.0943 -0.2260
 7565SOL    HW134328   3.490   1.712   2.529 -3.8577 -1.2699 -0.9538
 7565SOL    HW234329   3.534   1.605   2.626 -1.0380 -0.5709  0.5122
 7566SOL     OW34330   1.086   0.251   4.468  0.7905 -0.0464 -0.3109
 7566SOL    HW134331   1.100   0.278   4.559 -0.0318  0.2602 -0.2740
 7566SOL    HW234332   0.998   0.216   4.477  0.9528 -0.6957 -1.2752
 7567SOL     OW34333   1.340   0.219  13.149  0.1844 -0.2418  0.1312
 7567SOL    HW134334   1.417   0.184  13.195  0.9561  0.8462 -0.3458
 7567SOL    HW234335   1.351   0.305  13.188 -1.1072 -0.5056  1.0877
 7568SOL     OW34336   1.258   0.517   7.413 -0.6649 -0.7900  0.3153
 7568SOL    HW134337   1.182   0.458   7.417 -1.7387  0.4040 -2.0468
 7568SOL    HW234338   1.327   0.452   7.427  1.6292  1.0010 -2.8457
 7569SOL     OW34339   2.771   3.891   8.607  0.0360  0.1030  0.3473
 7569SOL    HW134340   2.713   3.959   8.641  0.6461 -0.7352  3.0254
 7569SOL    HW234341   2.705   3.838   8.562 -0.0233 -0.3592  0.9743
 7570SOL     OW34342   4.151   1.993   2.512  0.3416  0.5020 -0.5016
 7570SOL    HW134343   4.227   1.934   2.520  0.0037  0.2149  0.4807
 7570SOL    HW234344   4.193   2.077   2.531 -1.4470  1.3818 -0.4696
 7571SOL     OW34345   0.297   4.210  10.907 -0.0304 -0.1089  0.2984
 7571SOL    HW134346   0.213   4.165  10.900  1.7893 -3.6219  1.0197
 7571SOL    HW234347   0.335   4.166  10.831  1.1008  0.4443  0.5483
 7572SOL     OW34348   0.156   0.554  17.693  0.3895 -0.2860 -0.0385
 7572SOL    HW134349   0.103   0.520   0.016 -0.2454 -1.0045 -0.8505
 7572SOL    HW234350   0.206   0.618  17.743  0.7357  1.6963 -2.8548
 7573SOL     OW34351   0.006   0.976  11.787 -0.1435 -0.4782 -0.4665
 7573SOL    HW134352   4.710   0.921  11.858  1.1512 -0.5018  0.1215
 7573SOL    HW234353   0.096   0.972  11.817 -0.9624 -0.5850  1.9975
 7574SOL     OW34354   0.343   1.335   4.443  0.1495 -0.1687  0.1037
 7574SOL    HW134355   0.346   1.419   4.488 -1.2883 -0.0871  0.0517
 7574SOL    HW234356   0.422   1.352   4.392  1.7619  2.0554  3.3082
 7575SOL     OW34357   3.182   0.371   2.120 -0.3152 -0.0575  0.0863
 7575SOL    HW134358   3.239   0.390   2.195 -1.7542 -1.2094  1.4591
 7575SOL    HW234359   3.097   0.356   2.162  0.2471 -1.8432  0.5500
 7576SOL     OW34360   3.030   3.451  17.467  0.2038  0.2366 -0.3600
 7576SOL    HW134361   3.036   3.453  17.562 -2.6088  1.1083 -0.1821
 7576SOL    HW234362   2.935   3.436  17.459  0.1690  0.6682 -0.7880
 7577SOL     OW34363   3.981   3.781   2.807 -0.0508 -0.1579  0.3833
 7577SOL    HW134364   3.894   3.750   2.784 -0.3078  0.4719  0.5034
 7577SOL    HW234365   4.013   3.703   2.852 -1.3228 -1.0648 -0.3112
 7578SOL     OW34366   4.511   3.577   4.458 -0.0975  0.8449 -0.2300
 7578SOL    HW134367   4.577   3.643   4.438 -0.1432  0.8664 -0.3078
 7578SOL    HW234368   4.445   3.595   4.391 -0.4541 -2.5468 -0.7768
 7579SOL     OW34369   2.589   3.454   4.327  0.1176 -0.1708  0.3380
 7579SOL    HW134370   2.517   3.392   4.320  0.1185 -0.4617  2.9601
 7579SOL    HW234371   2.605   3.480   4.236  0.5384 -0.3719  0.3549
 7580SOL     OW34372   3.235   2.464   2.381  0.0082 -0.4163  0.3112
 7580SOL    HW134373   3.327   2.444   2.367  0.1664  0.3292  0.2938
 7580SOL    HW234374   3.207   2.399   2.446  3.8400 -2.8278 -0.4317
 7581SOL     OW34375   0.555   0.188   1.327  0.2078 -0.0250 -0.1511
 7581SOL    HW134376   0.568   0.211   1.419 -1.9450 -1.3577  0.5013
 7581SOL    HW234377   0.462   0.201   1.312  1.3111  3.0544 -4.1374
 7582SOL     OW34378   2.883   2.739   8.177 -0.0202  0.1802  0.1874
 7582SOL    HW134379   2.955   2.798   8.156  0.9872 -0.4789  1.7229
 7582SOL    HW234380   2.861   2.762   8.268 -3.4765 -0.8099 -0.3909
 7583SOL     OW34381   3.681   1.138   1.473  0.2881  0.3540 -0.1992
 7583SOL    HW134382   3.664   1.080   1.398 -0.2516 -0.6561  0.7074
 7583SOL    HW234383   3.706   1.080   1.545  5.0617  2.4540 -0.1971
 7584SOL     OW34384   4.291   4.407   6.351 -0.5122  0.6607  0.0216
 7584SOL    HW134385   4.204   4.437   6.325 -0.3910  0.1186 -1.0278
 7584SOL    HW234386   4.279   4.312   6.353 -1.5809  0.8296  1.1867
 7585SOL     OW34387   1.623   3.205   8.719  0.3530  0.4332 -0.2516
 7585SOL    HW134388   1.552   3.196   8.656 -1.4984  1.1617  1.7090
 7585SOL    HW234389   1.642   3.298   8.709  0.0637  0.5173 -0.0380
 7586SOL     OW34390   0.727   1.059  13.727  0.3185 -0.5561  0.1712
 7586SOL    HW134391   0.662   1.129  13.737  0.2066 -0.8619  1.6313
 7586SOL    HW234392   0.757   1.077  13.638  3.0669  0.0383  1.1999
 7587SOL     OW34393   1.782   1.755  17.616  0.1453  0.2850 -0.3059
 7587SOL    HW134394   1.719   1.710  17.560 -0.3136  1.0628 -0.4160
 7587SOL    HW234395   1.732   1.809  17.678  1.1592 -0.5802  1.2613
 7588SOL     OW34396   0.934   4.640   8.111 -0.3004 -0.2674 -0.5786
 7588SOL    HW134397   0.843   4.666   8.094 -0.4998 -0.6434 -0.1072
 7588SOL    HW234398   0.964   4.727   8.139  0.4057  0.0343 -2.3151
 7589SOL     OW34399   3.673   2.507   6.502  0.1110  0.1514  0.0224
 7589SOL    HW134400   3.719   2.544   6.427 -1.7947  2.7867  0.1377
 7589SOL    HW234401   3.609   2.571   6.534 -0.2124 -2.1353  3.9541
 7590SOL     OW34402   0.934   1.434   3.725 -0.5194 -0.0706 -0.5005
 7590SOL    HW134403   0.971   1.356   3.766 -0.7333 -0.4362 -1.0017
 7590SOL    HW234404   1.010   1.466   3.678  0.7261  0.0912  1.6532
 7591SOL     OW34405   3.234   1.636   5.346 -0.5142 -0.2617 -0.7326
 7591SOL    HW134406   3.303   1.697   5.372 -1.9236  1.4790 -1.1112
 7591SOL    HW234407   3.172   1.696   5.305 -0.6054 -0.9411 -1.5947
 7592SOL     OW34408   3.072   3.677   3.206  0.8526 -0.2687 -0.3656
 7592SOL    HW134409   3.071   3.772   3.219 -0.3084 -0.6396  2.1512
 7592SOL    HW234410   3.129   3.681   3.129 -0.4348 -1.4799 -1.3824
 7593SOL     OW34411   4.170   3.767  10.215 -0.3129  0.1051  1.0712
 7593SOL    HW134412   4.187   3.688  10.265 -2.2312 -0.4044  0.8970
 7593SOL    HW234413   4.154   3.725  10.131 -1.4671  1.5262  0.5828
 7594SOL     OW34414   0.477   2.939   4.396 -1.0212 -0.2702 -0.6748
 7594SOL    HW134415   0.427   2.925   4.477  3.2965  1.1769  2.2395
 7594SOL    HW234416   0.512   2.852   4.378  0.9948  0.2080  1.0081
 7595SOL     OW34417   3.878   1.952  11.248  0.1661 -0.3597  0.6243
 7595SOL    HW134418   3.910   1.883  11.189 -0.6453  1.2574 -1.7309
 7595SOL    HW234419   3.786   1.953  11.220  0.7698 -0.9053 -1.4292
 7596SOL     OW34420   2.316   0.015   2.414 -0.1562  0.1716  0.0750
 7596SOL    HW134421   2.242   4.733   2.358  1.3908 -2.0303 -1.1807
 7596SOL    HW234422   2.384   0.020   2.346 -1.3977  1.9444 -1.0302
 7597SOL     OW34423   2.877   4.036   4.398 -0.0677  0.0511 -0.3132
 7597SOL    HW134424   2.830   3.996   4.471  0.9477  0.5772  0.6372
 7597SOL    HW234425   2.809   4.083   4.350  0.2925  0.8877 -0.0107
 7598SOL     OW34426   2.589   1.012   2.192 -0.8802 -0.2456 -0.1378
 7598SOL    HW134427   2.499   1.045   2.199 -0.6652 -0.1078  1.7685
 7598SOL    HW234428   2.633   1.096   2.196 -4.3215  1.6880 -3.2847
 7599SOL     OW34429   1.248   3.223  12.585  0.1007  0.0961 -0.0153
 7599SOL    HW134430   1.172   3.281  12.591  1.0544  1.3298  0.1803
 7599SOL    HW234431   1.280   3.217  12.675 -0.7012 -3.0169  0.0425
 7600SOL     OW34432   1.377   0.507   2.494 -0.1990  0.0283 -0.0632
 7600SOL    HW134433   1.387   0.591   2.448 -2.3142  2.5188  4.0702
 7600SOL    HW234434   1.465   0.469   2.490 -0.7965 -1.5796  1.9143
 7601SOL     OW34435   1.055   3.882   9.052  0.2587 -0.7023  0.2511
 7601SOL    HW134436   1.015   3.859   8.968  0.1304 -0.6634  0.3001
 7601SOL    HW234437   0.986   3.924   9.103  1.2049  1.7883 -0.4789
 7602SOL     OW34438   3.687   0.303   4.247 -0.6627  0.2223 -0.2058
 7602SOL    HW134439   3.697   0.248   4.324 -2.8912 -0.2859 -0.2706
 7602SOL    HW234440   3.695   0.240   4.175  1.7133  0.0646  0.2057
 7603SOL     OW34441   1.230   0.472  11.804  0.0638  0.0222 -0.3110
 7603SOL    HW134442   1.205   0.547  11.749 -2.3599 -0.9274 -0.5162
 7603SOL    HW234443   1.239   0.398  11.743 -1.8251  0.7426 -1.4892
 7604SOL     OW34444   0.283   1.360   5.937  0.1185  0.8403 -0.9749
 7604SOL    HW134445   0.280   1.266   5.958  0.3743  0.3457 -3.1518
 7604SOL    HW234446   0.220   1.402   5.996  0.2862  0.4523 -0.5126
 7605SOL     OW34447   2.770   3.802  16.105  0.4262 -0.0850 -0.7119
 7605SOL    HW134448   2.711   3.727  16.111  3.0392 -2.0798 -0.2305
 7605SOL    HW234449   2.849   3.776  16.058  0.7210  1.2942 -0.9817
 7606SOL     OW34450   1.530   1.636   3.727  0.4444 -0.2068  0.2247
 7606SOL    HW134451   1.598   1.624   3.793 -0.8330 -2.3718  1.1840
 7606SOL    HW234452   1.446   1.610   3.767  0.4709 -1.4792 -0.5294
 7607SOL     OW34453   1.344   0.806   4.561 -0.5860  0.3878 -0.4494
 7607SOL    HW134454   1.425   0.790   4.513 -0.4075 -1.3153  0.4297
 7607SOL    HW234455   1.355   0.893   4.599  1.0975  0.3055 -0.7545
 7608SOL     OW34456   0.181   0.051   4.335 -0.2001 -0.1392  0.3499
 7608SOL    HW134457   0.251   0.006   4.383  0.0666  0.4450  0.5128
 7608SOL    HW234458   0.155   0.129   4.385 -2.2311 -0.6677  0.0993
 7609SOL     OW34459   2.535   2.177  13.805  0.0083  0.5461 -0.0960
 7609SOL    HW134460   2.497   2.089  13.805 -1.4358  1.1659  1.2671
 7609SOL    HW234461   2.531   2.188  13.900 -0.0694 -0.4943  0.0155
 7610SOL     OW34462   4.224   2.258   2.441  1.0440  0.2620  0.3859
 7610SOL    HW134463   4.268   2.195   2.383  1.0552 -2.2935  3.1656
 7610SOL    HW234464   4.194   2.320   2.374  0.8759 -1.0396 -0.7351
 7611SOL     OW34465   1.045   2.213   8.694  0.1502  0.0507  0.1579
 7611SOL    HW134466   1.112   2.260   8.643  0.4303  1.6991  2.0105
 7611SOL    HW234467   1.084   2.127   8.678  1.8475  0.9940 -0.7868
 7612SOL     OW34468   0.689   2.419  12.925 -0.0368 -0.3815  0.2750
 7612SOL    HW134469   0.654   2.389  12.841  0.9741 -2.0105  0.4303
 7612SOL    HW234470   0.609   2.406  12.976 -0.7054 -1.1154 -0.9464
 7613SOL     OW34471   2.462   0.730   4.548  0.4085  0.4036  0.7876
 7613SOL    HW134472   2.499   0.792   4.611  0.1850 -1.7138  2.9910
 7613SOL    HW234473   2.413   0.795   4.497 -1.7483 -1.0648  0.9995
 7614SOL     OW34474   2.927   2.529   3.542  0.2102 -0.1142  0.1743
 7614SOL    HW134475   3.016   2.563   3.552  0.0004  0.3202  0.5533
 7614SOL    HW234476   2.891   2.550   3.628 -0.7755  1.1509 -0.5497
 7615SOL     OW34477   1.036   2.869   0.102 -0.4308 -0.2214 -0.4123
 7615SOL    HW134478   0.960   2.871   0.160  1.7180  3.1320  2.3514
 7615SOL    HW234479   1.100   2.931   0.138 -2.7239  0.8924  1.8056
 7616SOL     OW34480   2.932   0.660   8.921 -0.7571  0.3676 -0.3763
 7616SOL    HW134481   2.840   0.659   8.894 -1.9825  0.2622  3.9079
 7616SOL    HW234482   2.967   0.746   8.896  2.0026 -0.6730  0.0125
 7617SOL     OW34483   2.485   0.696   7.317  0.9172  0.3222 -0.2929
 7617SOL    HW134484   2.443   0.619   7.355  1.0992  0.1875 -0.3696
 7617SOL    HW234485   2.557   0.654   7.270  1.5531 -0.8962  1.7883
 7618SOL     OW34486   2.386   4.334   7.274  0.6555  0.0504 -0.0236
 7618SOL    HW134487   2.316   4.335   7.208  0.3645 -0.4381  0.2737
 7618SOL    HW234488   2.420   4.245   7.277  3.4143  0.9965 -3.3163
 7619SOL     OW34489   3.628   3.298  12.099  0.1734 -0.0006 -0.1813
 7619SOL    HW134490   3.646   3.333  12.012 -1.6652  0.2143 -0.4718
 7619SOL    HW234491   3.708   3.313  12.149 -0.3063 -0.8908  0.8593
 7620SOL     OW34492   0.010   1.656   3.856  0.2551  0.0471 -0.2153
 7620SOL    HW134493   4.710   1.568   3.853 -1.6186  0.8542 -1.0823
 7620SOL    HW234494   0.086   1.642   3.912  1.6463  0.3628 -2.0421
 7621SOL     OW34495   4.005   0.115   2.251 -0.3198 -0.9545  0.6134
 7621SOL    HW134496   4.027   0.202   2.285  1.3941 -1.1070 -0.0677
 7621SOL    HW234497   3.920   0.086   2.283 -1.2645  1.3381  0.1874
 7622SOL     OW34498   4.115   1.943   6.409  0.8075  0.3764  0.1966
 7622SOL    HW134499   4.083   2.001   6.478  1.3869 -0.1242  0.8910
 7622SOL    HW234500   4.162   2.000   6.349 -0.2634  0.6857 -0.3215
 7623SOL     OW34501   1.647   0.191   9.267 -0.5327  0.4302  0.4429
 7623SOL    HW134502   1.693   0.178   9.350 -1.1316 -0.1244  0.6859
 7623SOL    HW234503   1.690   0.265   9.225  0.1820 -0.5174 -0.4931
 7624SOL     OW34504   2.459   3.622   7.300  0.0332  0.3970  0.1532
 7624SOL    HW134505   2.483   3.572   7.222 -0.3759  0.3331  0.0687
 7624SOL    HW234506   2.364   3.626   7.287 -0.2470 -1.5804  1.4357
 7625SOL     OW34507   2.784   3.019   4.375 -0.8126 -0.6920 -0.3094
 7625SOL    HW134508   2.745   3.075   4.308  0.0354  2.4399  1.8350
 7625SOL    HW234509   2.778   3.061   4.460 -0.1079  0.2638 -0.7303
 7626SOL     OW34510   1.522   3.625   8.993 -0.5534  0.1509 -0.2588
 7626SOL    HW134511   1.475   3.550   9.030 -2.7448  1.9042  0.5269
 7626SOL    HW234512   1.609   3.592   9.014 -1.3211 -2.9742 -1.9150
 7627SOL     OW34513   2.116   3.563   1.378 -0.2273  0.5120  0.1174
 7627SOL    HW134514   2.201   3.548   1.337 -1.1929  0.6008 -1.9411
 7627SOL    HW234515   2.095   3.648   1.338  0.2324  0.3467 -0.4748
 7628SOL     OW34516   4.069   4.130   3.944 -0.3559 -0.1447 -0.1689
 7628SOL    HW134517   4.122   4.208   3.927 -0.1418 -0.0670  0.8959
 7628SOL    HW234518   4.002   4.149   3.878  0.3836 -2.7014 -1.6784
 7629SOL     OW34519   3.086   0.612   2.343 -0.3658  0.3716 -0.4442
 7629SOL    HW134520   2.996   0.580   2.345 -0.9324  2.1885  3.5674
 7629SOL    HW234521   3.086   0.680   2.276  0.7593  2.1539  1.3688
 7630SOL     OW34522   2.129   0.673  13.110 -0.0681 -0.6715  0.4389
 7630SOL    HW134523   2.075   0.752  13.112 -0.9004 -1.2223 -0.9424
 7630SOL    HW234524   2.062   0.608  13.090  1.6033 -2.0361 -0.6066
 7631SOL     OW34525   1.567   4.490  14.331  0.2007  0.2246  1.0637
 7631SOL    HW134526   1.481   4.454  14.310  0.0332  0.9550  0.4548
 7631SOL    HW234527   1.616   4.410  14.350 -0.6819 -1.1020 -2.1983
 7632SOL     OW34528   1.591   2.147   6.867 -0.3903 -0.0785  0.5877
 7632SOL    HW134529   1.571   2.241   6.866  2.9119  0.5944 -1.6510
 7632SOL    HW234530   1.567   2.129   6.776 -2.2900 -0.8353  1.2290
 7633SOL     OW34531   0.789   0.004   6.224  0.1229  0.1023 -0.3522
 7633SOL    HW134532   0.762   4.697   6.144  0.2353  0.9788 -0.8830
 7633SOL    HW234533   0.790   4.667   6.283 -2.8131 -0.1203 -0.6015
 7634SOL     OW34534   2.220   3.110   8.679 -0.1051  0.2425 -0.2047
 7634SOL    HW134535   2.278   3.184   8.699 -1.5462  0.9693  1.3578
 7634SOL    HW234536   2.131   3.141   8.696  0.3237  0.5311  1.5755
 7635SOL     OW34537   2.081   2.820  15.328  0.1586 -0.0865  0.4696
 7635SOL    HW134538   2.168   2.790  15.355  0.2404 -0.4841 -0.2228
 7635SOL    HW234539   2.022   2.749  15.351  0.9369 -1.9618 -3.1814
 7636SOL     OW34540   0.295   1.548   2.977 -0.0698  0.1192  0.4750
 7636SOL    HW134541   0.254   1.538   3.063  0.1762 -1.9153  0.3431
 7636SOL    HW234542   0.387   1.561   2.998 -0.0427  0.5093  0.1179
 7637SOL     OW34543   1.907   0.188   6.534  0.0287 -0.2939  0.0745
 7637SOL    HW134544   1.968   0.150   6.470  1.1111  2.9490 -0.8235
 7637SOL    HW234545   1.821   0.158   6.505 -0.0983  1.3188 -1.2164
 7638SOL     OW34546   0.739   2.977   2.133 -0.0663 -0.9389 -0.2569
 7638SOL    HW134547   0.683   3.043   2.092 -0.4229 -0.5668  0.8262
 7638SOL    HW234548   0.779   3.017   2.210  0.4261 -0.5001 -0.7434
 7639SOL     OW34549   1.822   0.902  10.732 -0.1930 -1.0150 -0.2478
 7639SOL    HW134550   1.837   0.871  10.822  0.7909  1.5874  0.4761
 7639SOL    HW234551   1.842   0.995  10.729  0.3156 -1.0738  1.4641
 7640SOL     OW34552   3.295   2.471   4.417 -0.5428  0.1549  0.5723
 7640SOL    HW134553   3.247   2.417   4.354  1.2081  0.3674 -0.9437
 7640SOL    HW234554   3.368   2.510   4.370 -0.2059 -0.7390  0.3405
 7641SOL     OW34555   4.301   2.788   3.356 -0.0081  0.2430 -0.4426
 7641SOL    HW134556   4.375   2.805   3.299 -0.0358 -2.4381 -1.3049
 7641SOL    HW234557   4.355   2.748   3.424 -1.6361  0.1916  0.8298
 7642SOL     OW34558   2.242   1.231   2.353  0.3919  0.3327  0.0585
 7642SOL    HW134559   2.204   1.270   2.431  1.0933 -1.5190  1.3338
 7642SOL    HW234560   2.180   1.160   2.333 -1.8526  1.7398  1.9753
 7643SOL     OW34561   0.162   0.139   7.303 -0.2264 -0.8868 -0.7821
 7643SOL    HW134562   0.248   0.152   7.343 -0.3166 -2.6976 -0.0054
 7643SOL    HW234563   0.104   0.093   7.364  1.8515 -1.0068  1.1090
 7644SOL     OW34564   4.013   4.535   3.015 -0.2322  0.0224  0.3768
 7644SOL    HW134565   4.048   4.454   2.978  3.0672 -0.2343  3.9589
 7644SOL    HW234566   3.970   4.573   2.939 -0.4529 -0.4360  0.2727
 7645SOL     OW34567   3.926   2.035   9.580 -0.1909  0.1220  0.6310
 7645SOL    HW134568   3.905   2.007   9.669  0.4357 -1.0651  0.3966
 7645SOL    HW234569   3.847   2.088   9.572 -0.7535 -0.9697 -0.9229
 7646SOL     OW34570   4.635   1.425   1.920  0.3512  0.1088 -0.3294
 7646SOL    HW134571   4.640   1.475   2.002  1.0732  0.5203 -0.6178
 7646SOL    HW234572   4.543   1.415   1.897  0.4679  1.8591 -1.5032
 7647SOL     OW34573   0.949   3.661  15.995 -0.2085  0.1413  0.0916
 7647SOL    HW134574   0.999   3.584  15.968 -1.1688  0.0495 -1.4596
 7647SOL    HW234575   0.867   3.624  16.027 -0.0112  2.5262  3.3726
 7648SOL     OW34576   4.610   3.193   6.285 -0.3665  0.1877  0.0956
 7648SOL    HW134577   4.598   3.107   6.244 -0.3501  0.6021 -0.7874
 7648SOL    HW234578   4.523   3.231   6.275 -0.5329  0.0515  1.0699
 7649SOL     OW34579   0.004   3.560   9.211  0.1559  0.3188  0.1813
 7649SOL    HW134580   0.040   3.549   9.299  1.2890 -0.7350 -0.4186
 7649SOL    HW234581   4.648   3.568   9.231 -0.6180 -3.5722 -2.0123
 7650SOL     OW34582   2.242   4.090   4.554  0.4559 -0.2696  0.7494
 7650SOL    HW134583   2.313   4.034   4.522 -0.6745 -1.8738  1.0747
 7650SOL    HW234584   2.170   4.052   4.503 -0.6110  1.5383  0.9031
 7651SOL     OW34585   0.502   2.037   5.576  0.1553 -0.3580 -0.6001
 7651SOL    HW134586   0.422   1.984   5.582  0.0739 -0.2203 -0.4625
 7651SOL    HW234587   0.467   2.105   5.519 -0.1113 -0.5791 -0.7033
 7652SOL     OW34588   2.082   4.654   7.327  0.0908  0.1225 -0.1788
 7652SOL    HW134589   2.176   4.664   7.343 -0.0391 -0.7401  1.1274
 7652SOL    HW234590   2.083   4.660   7.231  0.3455 -0.9526 -0.2436
 7653SOL     OW34591   0.793   0.390   3.209 -0.0484  0.0142  0.5283
 7653SOL    HW134592   0.752   0.318   3.161 -3.0090  1.5626  0.7272
 7653SOL    HW234593   0.844   0.436   3.143  0.2315  0.8960  1.3502
 7654SOL     OW34594   2.932   3.497   6.094  0.2277  0.1608  0.1352
 7654SOL    HW134595   3.010   3.442   6.093  0.7438  0.9396 -2.3699
 7654SOL    HW234596   2.941   3.537   6.007 -0.8267 -0.0087 -0.0506
 7655SOL     OW34597   0.268   3.504   0.386 -0.2977 -0.2932 -0.2499
 7655SOL    HW134598   0.218   3.585   0.389 -0.1844 -0.1253 -3.1233
 7655SOL    HW234599   0.294   3.494   0.295 -1.1184  2.8666 -0.8065
 7656SOL     OW34600   4.653   2.648   1.079  0.5394  0.4462 -0.7038
 7656SOL    HW134601   4.723   2.584   1.090  0.8735  0.9537  0.0861
 7656SOL    HW234602   4.588   2.604   1.023  0.9666  0.6687 -1.3593
 7657SOL     OW34603   4.239   1.287  10.588  0.2641 -0.1704  0.5452
 7657SOL    HW134604   4.323   1.309  10.629  0.3161 -0.9389  0.8530
 7657SOL    HW234605   4.268   1.242  10.508  0.7729  0.3104  0.4592
 7658SOL     OW34606   0.331   4.239   3.509 -0.3839  0.1901 -0.0003
 7658SOL    HW134607   0.272   4.293   3.456  0.3465 -2.3244 -3.4116
 7658SOL    HW234608   0.413   4.286   3.493 -0.4776 -0.0880 -1.3123
 7659SOL     OW34609   0.635   2.812   7.360  0.1348  0.1990  0.3428
 7659SOL    HW134610   0.705   2.856   7.312 -0.7851 -0.9205 -1.9918
 7659SOL    HW234611   0.681   2.805   7.444 -1.6583  1.7824  1.4509
 7660SOL     OW34612   2.420   1.457   7.080  0.1359 -0.3043  0.0999
 7660SOL    HW134613   2.473   1.536   7.092 -1.6106  0.8306  0.2191
 7660SOL    HW234614   2.472   1.410   7.015  0.6046 -0.0138  0.2634
 7661SOL     OW34615   2.817   4.637   4.234 -0.4763  0.1153 -0.0544
 7661SOL    HW134616   2.759   4.562   4.245  1.7168 -1.7550 -1.0824
 7661SOL    HW234617   2.756   4.696   4.191 -0.6054 -0.8182 -1.1383
 7662SOL     OW34618   2.288   0.708   7.125  0.1638 -0.2514  0.0810
 7662SOL    HW134619   2.366   0.737   7.172  0.1891 -0.3922  0.1238
 7662SOL    HW234620   2.333   0.666   7.051  1.1580 -1.5509  1.4366
 7663SOL     OW34621   2.629   4.443  15.186  0.0914  0.7978 -0.7436
 7663SOL    HW134622   2.565   4.513  15.193  0.1152  0.6189  1.2336
 7663SOL    HW234623   2.703   4.490  15.149  0.3462  2.6450  2.0919
 7664SOL     OW34624   2.169   4.455   9.991 -0.2309 -0.1613  0.3253
 7664SOL    HW134625   2.116   4.375   9.982 -1.7612  0.6805  1.9285
 7664SOL    HW234626   2.138   4.490  10.074  2.6332  1.3585  0.7437
 7665SOL     OW34627   3.567   0.212   8.490  0.5282 -0.4270  0.0147
 7665SOL    HW134628   3.602   0.298   8.515  0.3004 -0.1758 -0.5261
 7665SOL    HW234629   3.572   0.161   8.571 -0.6123 -1.5068 -0.5985
 7666SOL     OW34630   2.985   0.463  15.877  0.4935  0.1613  0.0325
 7666SOL    HW134631   3.030   0.504  15.951 -1.6752  1.2246  0.7705
 7666SOL    HW234632   3.065   0.457  15.824  0.0418 -0.2948 -0.5931
 7667SOL     OW34633   2.608   2.023   6.776 -0.1586  0.1577 -0.0350
 7667SOL    HW134634   2.538   2.082   6.803 -0.6945 -1.5324  2.2084
 7667SOL    HW234635   2.628   1.981   6.859  3.3065 -0.0605 -0.9744
 7668SOL     OW34636   1.864   3.105   1.410 -0.4473  0.0522  0.2061
 7668SOL    HW134637   1.877   3.198   1.429  0.3903  0.0843 -0.5184
 7668SOL    HW234638   1.819   3.064   1.484  1.0199 -0.3124  0.8954
 7669SOL     OW34639   1.369   0.703   4.937 -0.5488  0.4743  0.5306
 7669SOL    HW134640   1.463   0.695   4.956 -0.0078  2.6297 -1.2865
 7669SOL    HW234641   1.363   0.628   4.879 -1.4595  2.1671 -1.5504
 7670SOL     OW34642   0.701   1.608  12.538 -0.0879 -0.4832 -0.2650
 7670SOL    HW134643   0.740   1.686  12.577 -2.3704 -0.3695  1.7990
 7670SOL    HW234644   0.742   1.617  12.452  1.8519  0.8916  0.8019
 7671SOL     OW34645   3.370   1.615   1.685  0.3244 -0.9496 -0.3951
 7671SOL    HW134646   3.287   1.577   1.714  0.1047 -0.0910  0.0864
 7671SOL    HW234647   3.423   1.579   1.756 -1.7655 -0.6921  1.2807
 7672SOL     OW34648   0.390   0.617  11.984  0.0062 -0.5836 -0.3416
 7672SOL    HW134649   0.400   0.711  11.965 -1.3268  0.0945  2.3908
 7672SOL    HW234650   0.485   0.605  11.987 -0.1248 -1.6294 -0.6297
 7673SOL     OW34651   4.326   3.989   8.412  0.0032 -0.8002 -0.5465
 7673SOL    HW134652   4.246   3.966   8.460 -0.1233  1.1191  0.1660
 7673SOL    HW234653   4.348   4.066   8.464  1.3692 -2.7946  1.8450
 7674SOL     OW34654   1.832   0.705   6.604  0.4376  0.0321 -0.0564
 7674SOL    HW134655   1.796   0.679   6.519  0.7433 -1.0885  0.1521
 7674SOL    HW234656   1.926   0.716   6.587  0.4238  1.6044  0.8607
 7675SOL     OW34657   0.410   0.267   9.471  0.2880  0.0188  0.1635
 7675SOL    HW134658   0.488   0.273   9.525 -1.6265 -0.4264  3.0278
 7675SOL    HW234659   0.404   0.173   9.453 -0.6477  0.2827 -0.9539
 7676SOL     OW34660   3.637   3.563   3.030  0.2217  0.3479 -0.0922
 7676SOL    HW134661   3.637   3.658   3.040  1.4175  0.4277 -0.9648
 7676SOL    HW234662   3.589   3.538   3.109  0.7188  1.2663  0.4986
 7677SOL     OW34663   2.609   2.575   8.412  0.0984 -0.3289 -0.2496
 7677SOL    HW134664   2.663   2.654   8.417  1.0973 -0.8688 -2.7066
 7677SOL    HW234665   2.523   2.607   8.385  0.8532  0.0244 -2.2391
 7678SOL     OW34666   3.239   2.235   9.479 -0.1526  0.2985  0.1617
 7678SOL    HW134667   3.266   2.322   9.508 -0.1058  1.0881 -2.2686
 7678SOL    HW234668   3.214   2.257   9.390 -2.7062 -0.9770  0.5626
 7679SOL     OW34669   0.042   1.100   3.975 -0.5954  0.0435  0.3096
 7679SOL    HW134670   0.023   1.062   4.061 -0.9755 -0.5645 -0.0473
 7679SOL    HW234671   0.083   1.022   3.938 -2.8948  0.2130 -2.5677
 7680SOL     OW34672   2.445   0.092   5.892 -0.5225  0.2017  0.1353
 7680SOL    HW134673   2.351   0.084   5.873 -0.4400 -0.4345  0.0011
 7680SOL    HW234674   2.445   0.182   5.924  0.3497  0.1636  0.2268
 7681SOL     OW34675   1.230   3.678   3.119 -0.8597 -0.4082 -0.8140
 7681SOL    HW134676   1.324   3.663   3.125 -1.3087 -2.9430 -0.0274
 7681SOL    HW234677   1.229   3.760   3.070 -0.5767 -0.5738 -1.1040
 7682SOL     OW34678   0.436   2.561  10.063 -0.1138  0.3440 -0.2657
 7682SOL    HW134679   0.428   2.597   9.975 -0.6524  1.7779  0.3781
 7682SOL    HW234680   0.347   2.529  10.075  1.3112 -1.8140  4.5146
 7683SOL     OW34681   3.154   3.633   4.741  0.7560  0.3833 -0.6427
 7683SOL    HW134682   3.141   3.698   4.810  0.2750 -0.5717  0.1724
 7683SOL    HW234683   3.141   3.691   4.666 -1.1901 -0.2675 -0.8059
 7684SOL     OW34684   2.965   1.451   9.611 -0.2473 -0.5929  0.0630
 7684SOL    HW134685   2.969   1.364   9.572 -0.1558 -0.7355  0.3896
 7684SOL    HW234686   3.014   1.432   9.691 -2.1686  1.5332  1.7603
 7685SOL     OW34687   3.581   2.734   4.356 -0.3133 -0.2268 -0.1461
 7685SOL    HW134688   3.530   2.683   4.293 -1.1608 -0.2155  0.5355
 7685SOL    HW234689   3.552   2.821   4.329 -0.2525 -0.1453  0.0517
 7686SOL     OW34690   3.627   1.734  17.706 -0.1806 -0.3277  0.1413
 7686SOL    HW134691   3.537   1.717  17.735 -0.5037  1.1946  0.0366
 7686SOL    HW234692   3.618   1.827  17.727  2.0511  0.4526 -2.4406
 7687SOL     OW34693   4.366   3.371   3.631 -0.9187  0.3951  0.1399
 7687SOL    HW134694   4.317   3.405   3.706  0.0503 -1.2428  1.5151
 7687SOL    HW234695   4.326   3.433   3.569 -2.1039 -2.6889 -2.1680
 7688SOL     OW34696   0.819   2.095   8.766 -0.0799 -0.2474  0.7229
 7688SOL    HW134697   0.848   2.006   8.747 -1.2865 -0.4436 -0.1299
 7688SOL    HW234698   0.894   2.144   8.731  0.7056 -2.4569 -0.6429
 7689SOL     OW34699   4.416   3.802  13.661  0.3596  0.0211 -0.2734
 7689SOL    HW134700   4.468   3.871  13.704 -2.8602  1.4436  1.3599
 7689SOL    HW234701   4.429   3.828  13.570  2.4666 -1.0508 -0.2649
 7690SOL     OW34702   2.153   3.509   4.327  0.0699  0.2416  0.1663
 7690SOL    HW134703   2.068   3.527   4.368 -0.3153 -1.2504  0.0211
 7690SOL    HW234704   2.123   3.438   4.270  0.5784 -1.0845  1.5510
 7691SOL     OW34705   4.357   2.542  16.894 -0.0480 -0.1729 -0.5064
 7691SOL    HW134706   4.346   2.518  16.985 -1.3044  1.3845 -0.2353
 7691SOL    HW234707   4.277   2.507  16.856 -0.2035 -1.0376  0.6404
 7692SOL     OW34708   3.329   1.449   7.275 -0.0605 -0.0792 -1.0043
 7692SOL    HW134709   3.355   1.491   7.358 -2.9411  1.1961 -0.7561
 7692SOL    HW234710   3.411   1.451   7.226  0.5772  1.8668  0.1364
 7693SOL     OW34711   0.201   4.660   7.742 -0.6161  0.3230  0.0312
 7693SOL    HW134712   0.147   4.692   7.670  1.2163  3.1392 -0.1077
 7693SOL    HW234713   0.234   4.579   7.704  1.1090  1.7441 -1.5037
 7694SOL     OW34714   1.229   2.326  12.997  0.1146  0.4482  0.0926
 7694SOL    HW134715   1.161   2.392  13.011 -1.5000 -1.2578  0.3274
 7694SOL    HW234716   1.302   2.381  12.969  0.0541  2.0549  3.1356
 7695SOL     OW34717   3.068   2.419   5.169 -0.6181  0.0801 -0.5594
 7695SOL    HW134718   3.004   2.486   5.190 -1.2967 -0.3215 -1.3662
 7695SOL    HW234719   3.021   2.384   5.094  0.0873 -2.9854  0.4282
 7696SOL     OW34720   2.729   0.457  11.963 -0.3834 -0.1796 -0.1013
 7696SOL    HW134721   2.706   0.390  11.899 -1.4332 -0.2666  0.3816
 7696SOL    HW234722   2.819   0.481  11.939 -1.5588  1.6262 -2.6156
 7697SOL     OW34723   0.278   1.309   8.730 -0.4448  0.3604 -0.0881
 7697SOL    HW134724   0.240   1.257   8.800  1.0692 -0.7439 -0.0904
 7697SOL    HW234725   0.235   1.274   8.652  0.3651 -2.0215  0.5405
 7698SOL     OW34726   3.240   1.894   0.225 -0.6404 -0.4354 -0.2667
 7698SOL    HW134727   3.159   1.934   0.257 -0.0946  0.7174 -0.3241
 7698SOL    HW234728   3.305   1.953   0.265  1.0368 -2.7922  0.4808
 7699SOL     OW34729   3.919   3.632   6.521 -0.3366 -0.1453  1.2080
 7699SOL    HW134730   3.931   3.622   6.616  0.6339 -1.6030  0.9366
 7699SOL    HW234731   3.824   3.645   6.519 -0.1787  0.5868 -1.8053
 7700SOL     OW34732   1.022   3.681   0.520 -0.1558  0.0216  0.3967
 7700SOL    HW134733   1.078   3.648   0.590  0.8613  0.3712 -0.2676
 7700SOL    HW234734   0.983   3.759   0.560  1.7477  1.8856 -1.3894
 7701SOL     OW34735   2.690   4.668  10.196 -0.0702 -0.2053 -0.3607
 7701SOL    HW134736   2.750   4.709  10.134  1.0802  0.9586  1.5114
 7701SOL    HW234737   2.604   4.680  10.157 -1.8383  0.2604  3.6165
 7702SOL     OW34738   3.671   4.299   7.938  0.6647  0.1105 -0.3047
 7702SOL    HW134739   3.585   4.328   7.908 -0.5187 -1.8040  1.2701
 7702SOL    HW234740   3.711   4.385   7.951 -1.2945  1.4091 -3.0539
 7703SOL     OW34741   3.446   4.538   9.606 -0.3560  0.0887  0.0262
 7703SOL    HW134742   3.431   4.567   9.516 -1.5877 -2.2386 -0.5143
 7703SOL    HW234743   3.541   4.539   9.612 -0.3901 -0.3616  0.6742
 7704SOL     OW34744   3.449   1.315   5.744  0.2954  0.2993 -0.5395
 7704SOL    HW134745   3.542   1.335   5.740  0.8569 -2.1334  0.1895
 7704SOL    HW234746   3.417   1.364   5.668 -0.6094  0.5604  0.0117
 7705SOL     OW34747   0.488   1.131   3.600  0.3386 -0.5229  0.5595
 7705SOL    HW134748   0.501   1.222   3.572  1.5110 -0.4322  1.4356
 7705SOL    HW234749   0.576   1.094   3.598  0.8352  0.7862 -3.1508
 7706SOL     OW34750   1.563   0.714  12.470  0.3805  0.3681 -0.3436
 7706SOL    HW134751   1.575   0.807  12.451  1.9791  0.1688 -0.3071
 7706SOL    HW234752   1.614   0.686  12.394  0.1355  0.8944 -0.6976
 7707SOL     OW34753   2.088   2.723  15.997 -0.2567  0.2824  0.1368
 7707SOL    HW134754   2.138   2.775  15.934 -0.1122  0.3031  0.2713
 7707SOL    HW234755   2.048   2.787  16.056  0.7368  1.7899 -0.8049
 7708SOL     OW34756   0.253   2.716   1.520  0.0745 -0.2237  0.0114
 7708SOL    HW134757   0.302   2.699   1.601  0.5218  1.1596  0.0333
 7708SOL    HW234758   0.161   2.709   1.544  0.1979 -0.5034  0.4002
 7709SOL     OW34759   2.985   2.251  13.323  0.0638 -0.1729 -0.1214
 7709SOL    HW134760   2.988   2.335  13.278  2.0269 -0.5815 -0.7799
 7709SOL    HW234761   2.927   2.196  13.270  0.0305 -0.7109  0.4590
 7710SOL     OW34762   3.486   0.277   7.170  0.2744 -0.2440 -0.3921
 7710SOL    HW134763   3.568   0.267   7.219  0.4174  0.4294 -0.4937
 7710SOL    HW234764   3.422   0.259   7.238  0.0168 -1.3372 -0.9198
 7711SOL     OW34765   2.625   1.450  13.415 -0.0920  0.2998 -0.6370
 7711SOL    HW134766   2.556   1.510  13.389  0.9294  1.4015 -0.7733
 7711SOL    HW234767   2.680   1.462  13.338  1.6883  1.2998  0.7950
 7712SOL     OW34768   0.176   0.152  11.939 -1.2181 -0.6489 -0.1665
 7712SOL    HW134769   0.172   0.247  11.935 -2.2590 -0.7387 -1.1884
 7712SOL    HW234770   0.266   0.139  11.969 -1.0158  0.9914 -0.0654
 7713SOL     OW34771   0.217   1.549   5.244  0.2384 -0.4745 -0.1847
 7713SOL    HW134772   0.273   1.523   5.172 -1.0578 -2.0946 -0.6181
 7713SOL    HW234773   0.288   1.554   5.308  1.4765 -0.4110 -1.5908
 7714SOL     OW34774   4.117   3.119   6.215  0.1610  0.1954 -0.4798
 7714SOL    HW134775   4.068   3.163   6.145 -1.8685 -1.5316 -0.1325
 7714SOL    HW234776   4.050   3.112   6.283 -0.6093  1.8305 -1.0501
 7715SOL     OW34777   3.754   3.402   4.015  0.2359 -0.0507 -0.0967
 7715SOL    HW134778   3.758   3.491   3.978  0.2380  0.2686  0.6694
 7715SOL    HW234779   3.804   3.349   3.953 -0.4782 -0.0103 -0.7024
 7716SOL     OW34780   1.002   2.236  11.408 -0.0334 -0.1838  0.1081
 7716SOL    HW134781   0.978   2.328  11.395  0.6972  0.2067  1.5187
 7716SOL    HW234782   0.921   2.206  11.449 -1.9549  2.3916 -1.8077
 7717SOL     OW34783   0.635   3.147   6.735  0.7341  0.0523  0.2984
 7717SOL    HW134784   0.728   3.167   6.724  0.2517  1.2300 -1.6323
 7717SOL    HW234785   0.653   3.091   6.810 -0.2567 -0.1927  0.3436
 7718SOL     OW34786   0.989   4.541  11.991  0.7782  0.1650 -0.1112
 7718SOL    HW134787   0.977   4.553  11.897  1.0021  0.5033 -0.0935
 7718SOL    HW234788   0.998   4.445  11.993  2.8909  0.3729 -0.2734
 7719SOL     OW34789   1.504   4.048  12.489  0.3765 -0.7271 -0.1238
 7719SOL    HW134790   1.549   4.018  12.411 -0.7983 -0.5752 -0.8582
 7719SOL    HW234791   1.581   4.076  12.538 -0.2525  1.0496 -0.1529
 7720SOL     OW34792   1.157   3.874  10.550  0.1917  0.1903 -0.6913
 7720SOL    HW134793   1.226   3.933  10.579  1.4750 -1.2789 -0.7995
 7720SOL    HW234794   1.079   3.929  10.561  0.7442  0.8445 -0.0187
 7721SOL     OW34795   2.978   3.902  11.449 -0.0026 -0.3691 -0.0807
 7721SOL    HW134796   3.027   3.878  11.528 -1.3794 -0.8128  0.6302
 7721SOL    HW234797   2.980   3.825  11.391  2.4419 -0.1445 -0.2862
 7722SOL     OW34798   4.172   0.981   9.200 -0.0687 -0.0870 -0.1502
 7722SOL    HW134799   4.212   0.972   9.286 -0.6836  4.4106  0.6041
 7722SOL    HW234800   4.156   1.075   9.206 -0.5459 -0.0818 -1.5407
 7723SOL     OW34801   2.709   3.750   5.756 -0.1093  0.3023 -0.5622
 7723SOL    HW134802   2.790   3.708   5.785  0.4187  0.6987 -1.4441
 7723SOL    HW234803   2.669   3.744   5.842  2.2397 -0.8529  0.4573
 7724SOL     OW34804   1.883   2.189   9.332 -0.6328 -0.0178 -0.6802
 7724SOL    HW134805   1.830   2.236   9.396  0.2258 -0.1900  0.1581
 7724SOL    HW234806   1.834   2.203   9.250 -0.0327 -0.7129 -1.1564
 7725SOL     OW34807   3.863   1.919  16.373  0.0232  0.7102  0.2064
 7725SOL    HW134808   3.786   1.965  16.405  0.3824  1.4792 -0.0286
 7725SOL    HW234809   3.889   1.871  16.452  1.7439  0.8039 -0.2974
 7726SOL     OW34810   4.027   2.499   3.899 -0.2120  0.1198 -0.1622
 7726SOL    HW134811   4.093   2.568   3.912 -1.1675  1.4235 -2.3136
 7726SOL    HW234812   4.025   2.459   3.986  1.1579 -0.8444 -0.5630
 7727SOL     OW34813   3.207   2.672   4.630 -0.3833  0.0632 -0.1582
 7727SOL    HW134814   3.158   2.599   4.666  0.8620 -1.3271 -1.2837
 7727SOL    HW234815   3.222   2.636   4.543  2.5526  2.3628 -0.6236
 7728SOL     OW34816   1.973   4.228   3.695 -0.3999 -0.1880  0.4450
 7728SOL    HW134817   2.016   4.252   3.613 -1.1820 -1.9253 -0.4767
 7728SOL    HW234818   1.938   4.314   3.719 -1.3733 -1.3562  3.1505
 7729SOL     OW34819   1.764   2.716   0.042  0.2005  0.4341 -0.7289
 7729SOL    HW134820   1.792   2.717  17.699 -0.8214  1.9990 -1.0474
 7729SOL    HW234821   1.692   2.779   0.030 -0.8039 -0.9795 -2.0872
 7730SOL     OW34822   2.828   1.255   5.712 -0.3407 -0.2182  0.7198
 7730SOL    HW134823   2.893   1.189   5.686  1.3411  1.5846  0.3695
 7730SOL    HW234824   2.752   1.239   5.656 -0.0954 -0.3583  0.4231
 7731SOL     OW34825   3.985   3.065  14.035  0.1650 -0.5172 -0.3203
 7731SOL    HW134826   3.917   3.065  14.102 -0.4351  0.8888 -0.9350
 7731SOL    HW234827   4.049   3.126  14.073  0.1321 -0.1014 -0.9475
 7732SOL     OW34828   1.290   1.770   5.442 -0.1272  0.8460 -0.1810
 7732SOL    HW134829   1.235   1.839   5.404 -0.6965  2.1336  2.9988
 7732SOL    HW234830   1.231   1.739   5.511 -0.7847  0.7221 -0.7971
 7733SOL     OW34831   1.993   0.871   9.549 -0.9351  0.2498  0.3228
 7733SOL    HW134832   2.008   0.910   9.635 -2.9121  1.1612  0.2612
 7733SOL    HW234833   2.067   0.899   9.497  1.0561 -3.2298  1.2675
 7734SOL     OW34834   0.098   4.662   8.994 -0.1779 -0.4332 -0.0298
 7734SOL    HW134835   0.025   4.637   9.051 -0.8400  2.9267  0.5923
 7734SOL    HW234836   0.070   4.601   8.925  1.2506 -0.0871 -0.9174
 7735SOL     OW34837   0.929   3.955  16.842  1.0594  0.2446  0.3496
 7735SOL    HW134838   0.988   3.880  16.853  0.1255  0.0042  3.7837
 7735SOL    HW234839   0.860   3.925  16.901  0.8420  3.3385  1.6352
 7736SOL     OW34840   0.009   3.553   6.568 -0.3380 -0.4298  0.2335
 7736SOL    HW134841   4.653   3.561   6.583 -0.6711 -1.3947 -1.4187
 7736SOL    HW234842   0.041   3.588   6.651 -0.7805  0.3446  0.0733
 7737SOL     OW34843   4.038   1.130   6.732  0.5324  0.6720 -0.2187
 7737SOL    HW134844   4.071   1.186   6.662  1.4631  0.7256  0.2610
 7737SOL    HW234845   4.091   1.050   6.727 -0.6307 -0.0821 -0.6355
 7738SOL     OW34846   0.963   4.570  15.356 -0.4677 -0.3161  0.0413
 7738SOL    HW134847   1.032   4.506  15.371 -1.1479 -0.9534  0.4890
 7738SOL    HW234848   1.012   4.646  15.387 -2.0826 -0.1285  2.1956
 7739SOL     OW34849   1.382   1.738   5.960 -0.1812 -0.0232 -0.1066
 7739SOL    HW134850   1.454   1.729   6.022 -0.2471 -1.8325 -0.3032
 7739SOL    HW234851   1.390   1.831   5.938  1.1327 -0.4294 -1.3101
 7740SOL     OW34852   2.851   1.127   1.173 -0.1761 -0.4030  0.1555
 7740SOL    HW134853   2.878   1.181   1.247  1.9339 -1.1268 -0.0814
 7740SOL    HW234854   2.876   1.178   1.095 -0.5403  0.3968  0.5632
 7741SOL     OW34855   2.517   1.631  13.987  0.4240 -0.1586 -0.4088
 7741SOL    HW134856   2.590   1.570  13.977 -0.1242 -0.9673  0.4817
 7741SOL    HW234857   2.447   1.569  14.009 -0.6549  1.1824 -0.0732
 7742SOL     OW34858   1.326   0.093   9.127 -0.0284 -0.5430  0.1259
 7742SOL    HW134859   1.313   0.145   9.206 -1.4126 -3.3411  1.7680
 7742SOL    HW234860   1.334   0.002   9.156  0.3243 -0.5896 -0.1222
 7743SOL     OW34861   1.213   2.288   6.451 -0.1128 -0.6771  0.3672
 7743SOL    HW134862   1.181   2.240   6.528  1.5195 -1.7269  0.3675
 7743SOL    HW234863   1.254   2.361   6.498 -2.2192  0.0479  1.0935
 7744SOL     OW34864   3.026   3.968   8.668 -0.2342  0.4086 -0.1041
 7744SOL    HW134865   3.066   3.911   8.602 -0.1024 -0.7231  0.9412
 7744SOL    HW234866   2.932   3.950   8.663 -0.3393  0.3649  1.8240
 7745SOL     OW34867   3.920   2.645   8.448 -0.1882 -0.6598  0.2712
 7745SOL    HW134868   3.991   2.695   8.407 -0.8266  1.2278  1.4695
 7745SOL    HW234869   3.881   2.713   8.503 -0.4808 -2.2627  2.0073
 7746SOL     OW34870   3.894   2.045   5.636  0.3811 -0.2643 -0.1157
 7746SOL    HW134871   3.928   1.964   5.596 -3.4762 -2.1571  0.4055
 7746SOL    HW234872   3.974   2.097   5.639  0.9374 -1.0848 -0.6249
 7747SOL     OW34873   1.237   3.785  10.911  0.8487  0.2331 -0.2895
 7747SOL    HW134874   1.197   3.699  10.903  2.0073 -0.3704  0.4689
 7747SOL    HW234875   1.268   3.812  10.824  1.8059 -0.0129 -0.0317
 7748SOL     OW34876   2.568   2.948   7.718  0.1405 -0.1065  0.1557
 7748SOL    HW134877   2.521   2.865   7.722  0.1061 -0.1480 -1.0058
 7748SOL    HW234878   2.641   2.936   7.656 -1.9073 -2.4819 -1.7986
 7749SOL     OW34879   0.234   1.237   9.513 -0.0610  0.5351  0.0048
 7749SOL    HW134880   0.149   1.257   9.554 -1.1643  0.1111 -2.0442
 7749SOL    HW234881   0.273   1.324   9.503  0.5403  0.0213 -2.1428
 7750SOL     OW34882   4.133   3.137   8.474  0.2543  0.4253  0.0575
 7750SOL    HW134883   4.172   3.207   8.421  1.1165 -1.0011 -1.1689
 7750SOL    HW234884   4.085   3.187   8.540 -1.7999 -2.1131  0.4453
 7751SOL     OW34885   2.830   2.410   5.913 -0.0947  0.2470 -0.1974
 7751SOL    HW134886   2.759   2.444   5.858 -0.0777  1.9133  0.8285
 7751SOL    HW234887   2.777   2.356   5.970  0.4770 -0.4920 -0.3723
 7752SOL     OW34888   3.315   1.803   6.159 -0.4168 -0.5273  0.4322
 7752SOL    HW134889   3.354   1.857   6.229  1.2497 -1.8317  0.5181
 7752SOL    HW234890   3.389   1.772   6.107 -1.1489 -0.0306 -0.9064
 7753SOL     OW34891   2.971   2.530  11.218 -0.4614 -0.4361  0.2139
 7753SOL    HW134892   3.011   2.617  11.221  0.7847 -1.0359  1.1428
 7753SOL    HW234893   2.984   2.499  11.129  0.0640  1.9522 -0.5383
 7754SOL     OW34894   4.223   1.663   7.393  0.2356  0.2648 -0.5941
 7754SOL    HW134895   4.170   1.731   7.434  0.7221 -0.1039  0.6419
 7754SOL    HW234896   4.249   1.691   7.305  1.9403 -0.0846 -0.1972
 7755SOL     OW34897   0.871   4.530   2.256 -0.1018  0.1056 -0.1302
 7755SOL    HW134898   0.887   4.623   2.274  0.0279 -0.2452  1.5698
 7755SOL    HW234899   0.929   4.484   2.318  1.2814  2.4316  0.2966
 7756SOL     OW34900   2.566   0.540  17.316  0.1377 -0.3011  0.9137
 7756SOL    HW134901   2.643   0.585  17.350  0.0915 -0.5054  1.2878
 7756SOL    HW234902   2.504   0.612  17.299  0.3767 -0.8392 -2.1740
 7757SOL     OW34903   1.172   0.179   7.697  0.0791  0.1841 -0.1138
 7757SOL    HW134904   1.114   0.162   7.770 -0.2005 -0.3501 -0.4603
 7757SOL    HW234905   1.178   0.096   7.650  3.1435  0.2261  0.1679
 7758SOL     OW34906   2.428   0.115  11.585 -0.0986 -0.3859 -0.0796
 7758SOL    HW134907   2.483   0.039  11.603  1.0229  0.8283  1.6603
 7758SOL    HW234908   2.492   0.180  11.556 -1.6308  1.2897  0.3176
 7759SOL     OW34909   2.475   3.315  17.389  0.2537 -0.1593  0.2038
 7759SOL    HW134910   2.385   3.287  17.403 -0.1656  1.1979  0.1476
 7759SOL    HW234911   2.486   3.286  17.298  0.8269  2.8259 -0.6668
 7760SOL     OW34912   1.527   1.555   6.419  0.0145 -0.2987  0.3574
 7760SOL    HW134913   1.613   1.518   6.400 -0.2960 -1.0876  0.4890
 7760SOL    HW234914   1.493   1.537   6.331 -0.1488 -0.2591  0.4125
 7761SOL     OW34915   4.419   2.058  12.454  0.4876 -0.0703 -0.4189
 7761SOL    HW134916   4.348   2.001  12.424 -1.2143  2.3386 -0.9778
 7761SOL    HW234917   4.475   2.061  12.376 -0.5232  0.0651 -1.1428
 7762SOL     OW34918   0.026   2.515   8.750 -0.2084  0.4028 -0.4509
 7762SOL    HW134919   4.710   2.439   8.775  1.4478  0.2535  2.6610
 7762SOL    HW234920   4.719   2.551   8.673 -3.6325 -0.6620  1.0002
 7763SOL     OW34921   3.050   2.270   8.832  0.1852  0.4253  0.0520
 7763SOL    HW134922   3.068   2.364   8.826  0.5854  0.2205 -2.1999
 7763SOL    HW234923   2.959   2.265   8.801  0.5479 -1.2982 -0.7356
 7764SOL     OW34924   0.577   2.699  16.934 -0.0588 -0.3807  0.1712
 7764SOL    HW134925   0.669   2.681  16.917 -0.3188 -2.3448  0.7685
 7764SOL    HW234926   0.536   2.648  16.864 -0.9022  1.1566 -0.4563
 7765SOL     OW34927   0.591   3.868   4.183  0.3048  0.1330  0.2329
 7765SOL    HW134928   0.505   3.883   4.144 -0.9021 -0.0427  2.8190
 7765SOL    HW234929   0.632   3.803   4.126  0.7464  0.5517  0.0780
 7766SOL     OW34930   1.398   0.519  11.554  0.4815 -0.2103 -0.3467
 7766SOL    HW134931   1.383   0.427  11.574 -0.1045 -0.3833 -1.6313
 7766SOL    HW234932   1.422   0.510  11.462 -1.6432 -0.7496 -0.8269
 7767SOL     OW34933   4.645   3.530   8.566  0.1142 -0.3048 -0.2514
 7767SOL    HW134934   4.608   3.571   8.487  0.9353  2.3043  0.7479
 7767SOL    HW234935   4.708   3.475   8.519  0.4128  2.4118 -3.0182
 7768SOL     OW34936   0.085   3.756   0.346 -0.0797 -0.5548  0.6547
 7768SOL    HW134937   0.129   3.758   0.261 -1.0827 -2.4283  0.0825
 7768SOL    HW234938   0.121   3.832   0.392 -0.2056 -0.5623  0.7661
 7769SOL     OW34939   1.287   0.955   1.461 -0.6317  0.6153 -0.4027
 7769SOL    HW134940   1.376   0.924   1.442 -0.6075 -0.2343  1.0743
 7769SOL    HW234941   1.302   1.032   1.516  0.4661 -1.2255  1.8550
 7770SOL     OW34942   3.793   3.752   7.478 -0.1958 -0.0519  0.9294
 7770SOL    HW134943   3.888   3.744   7.486 -0.1617 -0.7892 -0.2701
 7770SOL    HW234944   3.777   3.707   7.395 -1.7833 -0.7496  1.6123
 7771SOL     OW34945   2.936   0.890  12.026 -0.6654 -0.5696 -0.2806
 7771SOL    HW134946   2.992   0.921  12.097  0.3695 -0.1714 -1.2710
 7771SOL    HW234947   2.952   0.958  11.961 -2.5675 -0.4634 -0.6629
 7772SOL     OW34948   2.508   4.086   7.297 -0.2515  0.0021  0.2289
 7772SOL    HW134949   2.486   4.025   7.367  1.4488  0.8984  1.5195
 7772SOL    HW234950   2.601   4.071   7.280 -0.4263 -1.7915  0.8110
 7773SOL     OW34951   2.537   1.476  12.758 -0.4082  0.3785  0.2135
 7773SOL    HW134952   2.553   1.459  12.851  0.9645  2.0336  0.2879
 7773SOL    HW234953   2.629   1.495  12.738 -0.2142 -0.2521  0.4905
 7774SOL     OW34954   3.254   1.672  14.595  0.7306  0.7757 -0.1019
 7774SOL    HW134955   3.182   1.659  14.657  0.6441  0.8260 -0.1921
 7774SOL    HW234956   3.274   1.580  14.577  1.9917  0.8174  1.1343
 7775SOL     OW34957   2.803   2.176  17.175  0.0969 -0.4426  0.1907
 7775SOL    HW134958   2.719   2.183  17.129 -1.1184 -4.4251  1.8323
 7775SOL    HW234959   2.877   2.208  17.124 -1.0154  2.8933  0.6418
 7776SOL     OW34960   1.273   2.233  12.672 -0.1894  0.0681 -0.2480
 7776SOL    HW134961   1.253   2.316  12.628  2.7705  0.5404 -0.7162
 7776SOL    HW234962   1.274   2.258  12.764  0.5834  0.0834 -0.2572
 7777SOL     OW34963   3.522   1.146   2.244 -0.0748  0.2159 -1.0349
 7777SOL    HW134964   3.449   1.087   2.262 -0.3513  1.0136  0.4640
 7777SOL    HW234965   3.494   1.178   2.158 -2.3085  0.1735 -0.3300
 7778SOL     OW34966   3.334   1.852   1.802  0.2224  0.4231 -1.0724
 7778SOL    HW134967   3.299   1.920   1.744 -2.2529  1.3374  1.5202
 7778SOL    HW234968   3.343   1.777   1.742  2.7085  0.6276 -0.9630
 7779SOL     OW34969   2.493   1.229  16.734 -0.0453  0.2298 -0.3918
 7779SOL    HW134970   2.468   1.233  16.826  0.5797 -1.3890 -0.1551
 7779SOL    HW234971   2.497   1.320  16.704 -1.8846  0.7336  0.9467
 7780SOL     OW34972   2.251   2.397  16.700  0.2357  0.3241  0.0138
 7780SOL    HW134973   2.238   2.441  16.784 -0.3668 -0.6139  0.4136
 7780SOL    HW234974   2.335   2.438  16.677  0.3036  1.5759  2.5118
 7781SOL     OW34975   0.226   3.325   6.740 -0.1442 -0.1032 -0.3254
 7781SOL    HW134976   0.162   3.287   6.679  1.5045 -1.4803 -1.2367
 7781SOL    HW234977   0.205   3.416   6.756  0.5327 -0.3470  1.9771
 7782SOL     OW34978   2.718   0.980   3.635 -0.1243 -0.2471 -0.0710
 7782SOL    HW134979   2.702   0.886   3.631  1.5745 -0.5456 -0.0445
 7782SOL    HW234980   2.663   1.009   3.563  1.0612 -1.2129 -1.3609
 7783SOL     OW34981   0.574   1.799   4.903  0.0016  0.3935  0.0990
 7783SOL    HW134982   0.577   1.827   4.812  4.6701  0.0365  0.1155
 7783SOL    HW234983   0.661   1.767   4.928  0.0069 -0.7966 -1.4094
 7784SOL     OW34984   4.428   0.408   2.332 -0.4288  0.2723 -0.1454
 7784SOL    HW134985   4.442   0.323   2.289  0.6720  0.9868 -1.1726
 7784SOL    HW234986   4.366   0.381   2.401 -1.0950 -0.5910 -1.0744
 7785SOL     OW34987   0.504   3.529   5.156 -0.3046 -0.3242 -0.2928
 7785SOL    HW134988   0.463   3.530   5.242 -1.5573  1.2227 -0.9189
 7785SOL    HW234989   0.570   3.460   5.167  0.1773  0.0797 -0.6469
 7786SOL     OW34990   4.415   4.241   0.729  0.2295 -0.0246 -0.5374
 7786SOL    HW134991   4.324   4.271   0.735  0.2570  0.4281 -2.2969
 7786SOL    HW234992   4.415   4.204   0.640 -1.0846 -1.1064 -0.0939
 7787SOL     OW34993   0.965   4.275  12.879  0.3931  0.1356 -0.0095
 7787SOL    HW134994   0.980   4.279  12.784  0.6737 -1.5520 -0.0252
 7787SOL    HW234995   0.945   4.369  12.883  0.8541  0.2356 -0.1324
 7788SOL     OW34996   4.333   2.297   2.977 -0.2572  0.2400  0.0989
 7788SOL    HW134997   4.329   2.380   3.023 -1.9321 -0.0789  0.5383
 7788SOL    HW234998   4.280   2.248   3.040 -2.6408 -1.3739 -3.1140
 7789SOL     OW34999   3.784   1.178  16.296 -0.0086  0.2886  0.0684
 7789SOL    HW135000   3.776   1.106  16.357 -0.7949  0.4902  0.2091
 7789SOL    HW235001   3.726   1.245  16.333 -1.8380 -1.4891  0.4359
 7790SOL     OW35002   3.960   4.050   2.416  0.0186 -0.4799 -0.3041
 7790SOL    HW135003   4.002   4.136   2.418  0.9584 -0.9615  0.6528
 7790SOL    HW235004   3.890   4.085   2.472 -0.0556 -2.2657  0.7122
 7791SOL     OW35005   2.538   0.207  12.591  0.7393  0.1505  0.1268
 7791SOL    HW135006   2.619   0.216  12.541  0.0898 -1.4350 -1.1976
 7791SOL    HW235007   2.470   0.230  12.527  0.6797 -0.7439 -0.1228
 7792SOL     OW35008   0.131   0.765  12.896  0.0256  0.3229 -0.6090
 7792SOL    HW135009   0.045   0.755  12.936  0.2160  0.3807 -0.1767
 7792SOL    HW235010   0.107   0.727  12.812  2.0368 -1.1432 -0.5303
 7793SOL     OW35011   0.032   2.181  13.197  0.7479  0.3604  0.2410
 7793SOL    HW135012   0.004   2.091  13.217 -0.1348  0.7089  0.5771
 7793SOL    HW235013   4.685   2.213  13.166 -0.2695 -0.7647  1.8162
 7794SOL     OW35014   0.941   4.426   6.036 -0.2893 -0.0946 -0.2577
 7794SOL    HW135015   0.859   4.476   6.036  0.1874  0.7342 -3.4177
 7794SOL    HW235016   0.962   4.416   5.943  0.4922 -0.4978 -0.0319
 7795SOL     OW35017   2.839   4.031   4.814  0.3407 -0.2857  0.0405
 7795SOL    HW135018   2.827   4.119   4.780  2.6047 -0.6469 -1.6831
 7795SOL    HW235019   2.749   3.998   4.817  0.6770 -0.9959  2.1848
 7796SOL     OW35020   4.030   4.630   9.886  0.1558 -0.3580  0.1215
 7796SOL    HW135021   3.963   4.688   9.849 -0.7048 -1.3496  0.1392
 7796SOL    HW235022   4.110   4.674   9.857  1.1158 -1.4146  1.1933
 7797SOL     OW35023   4.315   1.329  15.681 -0.2291 -0.5769  0.0709
 7797SOL    HW135024   4.248   1.333  15.612 -3.7435  0.2041  3.5306
 7797SOL    HW235025   4.263   1.302  15.757  1.2186  3.7364  2.5532
 7798SOL     OW35026   2.589   4.146   6.345  0.2523 -0.4205  0.1680
 7798SOL    HW135027   2.524   4.202   6.386  0.5482 -0.4888  0.7269
 7798SOL    HW235028   2.584   4.062   6.391  0.5461  0.5755  1.9923
 7799SOL     OW35029   3.601   3.593   6.237 -0.6341 -0.0070  0.6998
 7799SOL    HW135030   3.683   3.625   6.273  0.7595 -0.8079 -1.7525
 7799SOL    HW235031   3.536   3.655   6.270 -0.0918  1.1688 -0.4306
 7800SOL     OW35032   3.050   1.114   7.637 -0.0093 -0.3446 -0.4549
 7800SOL    HW135033   3.096   1.066   7.706 -1.6103  1.1184  1.6501
 7800SOL    HW235034   3.112   1.187   7.632  1.1734 -1.1859  2.2864
 7801SOL     OW35035   4.588   0.677   3.513 -0.0137  0.3897  0.2881
 7801SOL    HW135036   4.644   0.717   3.447  0.4510 -1.8065 -0.6761
 7801SOL    HW235037   4.537   0.625   3.451  0.5696 -0.1351  0.2489
 7802SOL     OW35038   2.215   1.312   5.470 -0.0803  0.1960  0.2738
 7802SOL    HW135039   2.253   1.380   5.526  1.5162  0.1173 -0.7103
 7802SOL    HW235040   2.175   1.255   5.535 -1.8480 -0.9933 -1.8604
 7803SOL     OW35041   0.314   4.315   8.780  0.0653  0.1002  0.3069
 7803SOL    HW135042   0.345   4.228   8.807 -1.4980 -0.3538  0.6699
 7803SOL    HW235043   0.227   4.311   8.822 -0.1372  0.9587 -0.0470
 7804SOL     OW35044   4.098   0.913   8.816 -0.0167  0.2812  0.1413
 7804SOL    HW135045   4.153   0.899   8.739 -0.9596 -2.6638  0.0327
 7804SOL    HW235046   4.125   0.843   8.876 -1.0620  1.3884  1.9173
 7805SOL     OW35047   0.642   0.725   1.185  0.1866 -0.5768  0.1335
 7805SOL    HW135048   0.610   0.712   1.096 -1.2936  1.3278  0.4057
 7805SOL    HW235049   0.590   0.795   1.224  0.8282 -0.0349  0.0263
 7806SOL     OW35050   3.458   3.307  10.031  0.7652  0.2530 -0.2232
 7806SOL    HW135051   3.527   3.327  10.094 -0.0339  0.6601  0.5196
 7806SOL    HW235052   3.408   3.388  10.036  1.3324  0.5237  0.9165
 7807SOL     OW35053   4.542   0.745   5.249 -0.0088 -0.8326  0.7496
 7807SOL    HW135054   4.450   0.721   5.246 -0.1222 -0.2092 -0.8060
 7807SOL    HW235055   4.538   0.830   5.292  1.5268 -0.6894  0.6138
 7808SOL     OW35056   0.592   4.606  16.416 -1.0222  0.1674  0.0602
 7808SOL    HW135057   0.559   4.541  16.355  0.0080  1.3542 -1.7473
 7808SOL    HW235058   0.598   4.679  16.354 -1.8052 -1.7517 -2.2596
 7809SOL     OW35059   0.203   1.324   4.178 -0.4979  0.1646 -0.2099
 7809SOL    HW135060   0.125   1.303   4.127 -1.6565  3.7462  0.0984
 7809SOL    HW235061   0.162   1.330   4.264 -0.3051  2.0287 -0.2606
 7810SOL     OW35062   0.207   2.424   7.733 -0.3760  0.3734  0.2295
 7810SOL    HW135063   0.242   2.396   7.648  1.9582  0.7382  1.0828
 7810SOL    HW235064   0.203   2.519   7.736 -1.0716  0.3975 -1.5622
 7811SOL     OW35065   1.206   0.568  11.209 -0.3373 -0.0811 -1.0077
 7811SOL    HW135066   1.223   0.474  11.211 -1.9327 -0.3453 -0.1775
 7811SOL    HW235067   1.296   0.591  11.236 -0.6367 -0.1638  0.0573
 7812SOL     OW35068   0.614   4.369   3.048 -0.3983  0.2046  0.0495
 7812SOL    HW135069   0.599   4.286   3.003 -1.4509  0.9461 -0.9568
 7812SOL    HW235070   0.638   4.334   3.134 -3.9028 -0.1275  0.8942
 7813SOL     OW35071   4.118   1.483   0.605 -0.2996  0.4088  0.7648
 7813SOL    HW135072   4.209   1.470   0.634 -0.1969  0.5713  0.5132
 7813SOL    HW235073   4.124   1.576   0.628  0.5289  0.9556 -1.6414
 7814SOL     OW35074   0.629   1.706   9.783 -0.2422 -0.3010  0.2240
 7814SOL    HW135075   0.681   1.693   9.703  1.3547  0.3323  1.1528
 7814SOL    HW235076   0.550   1.747   9.749 -0.1293 -0.8008 -0.6284
 7815SOL     OW35077   2.815   3.960  10.629 -0.2944 -0.3350 -0.4981
 7815SOL    HW135078   2.796   3.996  10.543  3.8976  0.2398 -1.1841
 7815SOL    HW235079   2.726   3.951  10.664  0.3858  0.0538  1.3573
 7816SOL     OW35080   2.024   3.969  12.717  0.5619 -0.0842  0.0658
 7816SOL    HW135081   2.008   3.885  12.759  0.4227 -0.4161 -0.6494
 7816SOL    HW235082   2.010   4.029  12.791  0.4513 -0.4344  0.3256
 7817SOL     OW35083   4.490   1.177   4.513 -0.3274 -0.5252  0.5066
 7817SOL    HW135084   4.433   1.241   4.555  0.9049  1.3465 -0.6542
 7817SOL    HW235085   4.449   1.170   4.427  0.0399  2.0486  0.1350
 7818SOL     OW35086   1.955   4.609   4.158  0.0593  1.1420  0.1958
 7818SOL    HW135087   2.015   4.559   4.213 -0.2282 -0.1907 -0.6933
 7818SOL    HW235088   1.868   4.572   4.170 -0.2756  1.9803  0.3432
 7819SOL     OW35089   1.768   0.162  16.004 -0.2071 -0.1019  0.0977
 7819SOL    HW135090   1.805   0.124  15.925  0.6364 -0.6156  0.7518
 7819SOL    HW235091   1.836   0.148  16.070  0.3371 -0.9874 -0.6652
 7820SOL     OW35092   0.885   1.246   3.421  0.1458  0.3173 -0.3515
 7820SOL    HW135093   0.849   1.335   3.418  1.7400  1.0021  0.6557
 7820SOL    HW235094   0.811   1.189   3.403  2.2733 -2.4803 -0.2129
 7821SOL     OW35095   2.178   1.764   4.963  0.6549 -0.2646 -0.2849
 7821SOL    HW135096   2.084   1.776   4.963  0.9014  1.5910 -0.6323
 7821SOL    HW235097   2.178   1.669   4.977 -1.0528 -0.4627 -1.6120
 7822SOL     OW35098   2.265   2.157   6.358  0.0497 -0.8027 -0.5647
 7822SOL    HW135099   2.337   2.114   6.405  1.1623  0.9088 -0.7034
 7822SOL    HW235100   2.296   2.159   6.267  1.3904 -0.7410 -0.1100
 7823SOL     OW35101   3.612   1.381  11.876 -0.6056  0.6469  0.4215
 7823SOL    HW135102   3.693   1.335  11.899  0.2689  1.4525 -1.0186
 7823SOL    HW235103   3.549   1.309  11.879 -2.0808  1.8042 -2.6516
 7824SOL     OW35104   1.985   0.471   2.138 -0.5395 -0.0876 -0.4279
 7824SOL    HW135105   2.072   0.447   2.107 -0.6129 -0.9457  0.0255
 7824SOL    HW235106   1.942   0.467   2.053 -0.2154 -2.0414 -0.5030
 7825SOL     OW35107   1.665   3.704   4.548  0.7633 -0.2253  0.3094
 7825SOL    HW135108   1.586   3.727   4.498  2.3456  1.0004 -1.6365
 7825SOL    HW235109   1.732   3.735   4.486  0.4958  0.9429  0.6014
 7826SOL     OW35110   0.514   0.633  11.076  0.1294 -0.2696  0.1080
 7826SOL    HW135111   0.486   0.721  11.102 -1.6048 -0.4613 -1.0686
 7826SOL    HW235112   0.609   0.632  11.085  0.1899 -0.2455 -0.4854
 7827SOL     OW35113   3.451   2.664  14.812  0.4630  0.8947 -0.0130
 7827SOL    HW135114   3.422   2.580  14.848 -0.9209  0.9550 -0.9772
 7827SOL    HW235115   3.364   2.701  14.801 -0.5141 -1.3202  0.1432
 7828SOL     OW35116   1.409   4.213   2.872 -0.1502 -0.0964 -0.3163
 7828SOL    HW135117   1.429   4.260   2.953  0.5420 -0.2206 -0.4132
 7828SOL    HW235118   1.329   4.257   2.843 -0.5011  1.0190  2.3348
 7829SOL     OW35119   2.157   4.320   4.642  0.0764 -0.2642  0.3426
 7829SOL    HW135120   2.178   4.372   4.564 -2.0244  0.7287  0.4318
 7829SOL    HW235121   2.188   4.234   4.616  1.9999  0.8169 -0.8687
 7830SOL     OW35122   3.544   3.757   4.596  0.1197  0.3680 -0.3249
 7830SOL    HW135123   3.588   3.840   4.578  0.7904  0.8908  3.8710
 7830SOL    HW235124   3.488   3.774   4.671 -0.6736  0.1666 -0.8765
 7831SOL     OW35125   1.196   4.054   7.928  0.3514 -0.3443  0.3360
 7831SOL    HW135126   1.223   3.977   7.978 -3.1268 -2.4445 -1.0655
 7831SOL    HW235127   1.243   4.120   7.980  1.2208  0.0825 -0.9908
 7832SOL     OW35128   1.635   4.208  10.104 -0.4979  0.0817  0.0255
 7832SOL    HW135129   1.712   4.160  10.135 -0.1201  1.0392  0.5686
 7832SOL    HW235130   1.687   4.279  10.066 -1.5582  1.4393  1.1157
 7833SOL     OW35131   3.637   3.214   3.776 -0.6191  0.6307 -0.0492
 7833SOL    HW135132   3.647   3.285   3.713  0.2320 -0.8773 -1.6009
 7833SOL    HW235133   3.689   3.146   3.733 -1.3327  0.3230 -0.4304
 7834SOL     OW35134   2.431   0.972   5.682 -0.2756 -0.1714  0.2412
 7834SOL    HW135135   2.343   0.981   5.719 -0.1379 -1.0847  0.8048
 7834SOL    HW235136   2.410   0.909   5.612 -1.5488 -1.2777  1.6042
 7835SOL     OW35137   0.319   2.023   9.120  0.1178  0.2943 -0.1920
 7835SOL    HW135138   0.252   2.068   9.172 -0.1786  0.4117 -0.6702
 7835SOL    HW235139   0.400   2.041   9.167  0.1872 -0.8899  0.1339
 7836SOL     OW35140   4.344   2.078   0.561 -0.1932 -0.5632 -0.2417
 7836SOL    HW135141   4.345   2.167   0.597  0.5075 -0.5532 -0.2890
 7836SOL    HW235142   4.281   2.076   0.489 -0.8011 -1.0454  0.3043
 7837SOL     OW35143   0.731   0.391  15.249  0.4318  0.1796 -0.4204
 7837SOL    HW135144   0.771   0.412  15.164 -1.2296  1.0621 -0.9904
 7837SOL    HW235145   0.797   0.438  15.300  1.6246 -1.8511 -0.0947
 7838SOL     OW35146   0.425   0.889   4.744 -0.4765  0.4929 -0.5460
 7838SOL    HW135147   0.516   0.917   4.737  0.5575 -2.8735 -0.0790
 7838SOL    HW235148   0.394   0.963   4.692  0.0111  2.5623  2.1020
 7839SOL     OW35149   0.679   4.330   7.557  0.1205 -0.2035  0.0122
 7839SOL    HW135150   0.747   4.392   7.584  3.3632 -2.9890 -1.8517
 7839SOL    HW235151   0.600   4.383   7.571  0.3545 -0.4238  2.1809
 7840SOL     OW35152   3.378   0.297   2.341 -0.4839  0.1219  0.2416
 7840SOL    HW135153   3.374   0.392   2.351  1.1032 -0.0228  2.2713
 7840SOL    HW235154   3.296   0.268   2.379  0.3148 -1.7113  0.5990
 7841SOL     OW35155   2.849   3.265  15.642 -0.4119  0.2251 -0.4278
 7841SOL    HW135156   2.892   3.323  15.578  1.3369  0.0431  0.6006
 7841SOL    HW235157   2.792   3.212  15.586 -1.6439  0.4847  0.5885
 7842SOL     OW35158   1.573   3.785   4.810 -0.0743 -0.0553 -0.3277
 7842SOL    HW135159   1.601   3.875   4.823  1.8983 -0.8911  1.0975
 7842SOL    HW235160   1.591   3.783   4.716  2.3202 -0.7983  0.1648
 7843SOL     OW35161   2.676   3.948   4.563  0.0455  0.4257  0.1893
 7843SOL    HW135162   2.607   3.892   4.527  0.7363 -0.6535  0.5402
 7843SOL    HW235163   2.626   4.027   4.580 -1.5865 -0.7160  0.7675
 7844SOL     OW35164   0.544   1.409  17.561  0.0080  0.5685 -0.8102
 7844SOL    HW135165   0.512   1.470  17.627  1.2477  0.1587  0.1576
 7844SOL    HW235166   0.614   1.372  17.614 -0.0721  0.4329 -0.7996
 7845SOL     OW35167   2.829   4.182   5.406  0.0189 -0.0952 -0.7452
 7845SOL    HW135168   2.774   4.106   5.383  0.9515 -1.2158  0.7126
 7845SOL    HW235169   2.764   4.236   5.450 -0.6403 -0.5957 -1.0932
 7846SOL     OW35170   0.883   2.113   6.083  0.2091 -0.1599 -0.0219
 7846SOL    HW135171   0.884   2.139   6.175 -2.1270  0.3257 -0.1596
 7846SOL    HW235172   0.972   2.131   6.050 -0.2748  2.7812  0.2814
 7847SOL     OW35173   1.779   2.867   8.343  0.2322 -0.2476  0.1404
 7847SOL    HW135174   1.728   2.897   8.267 -1.4711  0.2638  1.4998
 7847SOL    HW235175   1.712   2.853   8.410  0.8087 -0.5486  0.6512
 7848SOL     OW35176   2.011   2.830   5.170 -0.3471  0.5140 -0.6502
 7848SOL    HW135177   1.951   2.904   5.179 -1.0130 -0.1665  0.4408
 7848SOL    HW235178   2.088   2.871   5.211 -0.1110  1.9688 -2.5399
 7849SOL     OW35179   4.199   2.771   0.495  0.7787 -0.2140 -0.0633
 7849SOL    HW135180   4.127   2.757   0.557  1.8226 -1.4203  0.8905
 7849SOL    HW235181   4.273   2.791   0.553  0.0254  1.8398  0.1726
 7850SOL     OW35182   4.157   1.970  16.385 -0.1841  0.4834 -0.2278
 7850SOL    HW135183   4.155   2.032  16.458  0.1519 -0.2144  0.3755
 7850SOL    HW235184   4.069   1.945  16.356 -0.5187 -0.8053  1.8509
 7851SOL     OW35185   2.834   2.060  10.480 -0.0480 -0.4850  0.5770
 7851SOL    HW135186   2.845   2.015  10.397 -2.4671  0.1682 -0.0911
 7851SOL    HW235187   2.815   1.990  10.542 -1.4035 -0.3624  0.2979
 7852SOL     OW35188   1.174   0.465   7.857 -0.0818  0.0252  0.2342
 7852SOL    HW135189   1.142   0.519   7.930 -1.9053 -0.5073 -0.1649
 7852SOL    HW235190   1.136   0.380   7.880 -0.3972  0.6669  2.0982
 7853SOL     OW35191   2.186   0.646   5.895 -0.2922 -0.2550 -0.1569
 7853SOL    HW135192   2.193   0.658   5.801 -0.7677  1.8258  0.0698
 7853SOL    HW235193   2.204   0.733   5.932 -0.5626  0.5411 -1.8888
 7854SOL     OW35194   2.921   1.281   3.645 -0.5770 -0.2458 -0.4753
 7854SOL    HW135195   2.996   1.271   3.587  0.9748 -0.1596  1.5028
 7854SOL    HW235196   2.935   1.366   3.687 -2.7363  0.2177 -0.7312
 7855SOL     OW35197   3.963   4.575   7.726  0.8053  0.7162 -0.1944
 7855SOL    HW135198   3.926   4.487   7.715 -1.1306  1.7099 -1.5228
 7855SOL    HW235199   4.051   4.553   7.696  0.5952  0.6220 -0.7310
 7856SOL     OW35200   2.280   3.684   1.983  0.1479 -0.2875  0.3984
 7856SOL    HW135201   2.283   3.728   2.068  0.3941 -0.1850  0.3380
 7856SOL    HW235202   2.335   3.744   1.933  0.8453 -0.1915  1.2737
 7857SOL     OW35203   3.438   2.929   6.513  0.2231  0.6212 -0.6597
 7857SOL    HW135204   3.461   2.854   6.457 -0.2488 -1.4714  1.9268
 7857SOL    HW235205   3.418   2.887   6.597 -0.9033 -0.0421 -1.2587
 7858SOL     OW35206   2.151   3.568  16.728  0.4508 -0.4661 -0.1785
 7858SOL    HW135207   2.118   3.600  16.812 -0.6245 -1.4382 -0.2302
 7858SOL    HW235208   2.124   3.640  16.672 -1.3944 -1.2856 -0.3437
 7859SOL     OW35209   3.698   4.605   4.358  0.8924  0.5708  0.5471
 7859SOL    HW135210   3.687   4.589   4.264 -1.0452  1.1161  0.6607
 7859SOL    HW235211   3.767   4.543   4.381  0.7838 -0.5238 -2.0392
 7860SOL     OW35212   1.693   3.878  15.648  0.6749 -0.4543 -0.3782
 7860SOL    HW135213   1.758   3.944  15.671 -0.1819  0.5616 -0.8432
 7860SOL    HW235214   1.703   3.822  15.725  0.1732  0.9434  0.7030
 7861SOL     OW35215   1.296   4.324   7.559  0.2142 -0.2147 -0.3819
 7861SOL    HW135216   1.309   4.315   7.465  0.9133  2.0788 -0.4986
 7861SOL    HW235217   1.389   4.334   7.580 -0.1764  1.0136  0.7532
 7862SOL     OW35218   4.014   1.821   5.578  0.3178  0.0463 -0.2798
 7862SOL    HW135219   4.076   1.816   5.506  0.3273  1.8041 -0.3900
 7862SOL    HW235220   4.072   1.782   5.643 -1.2824 -1.1445  0.4452
 7863SOL     OW35221   3.680   1.278   0.462  0.4034  0.5791 -0.1882
 7863SOL    HW135222   3.758   1.332   0.476 -0.7581  1.8239  1.4329
 7863SOL    HW235223   3.654   1.320   0.380  2.1218  3.2215  0.6299
 7864SOL     OW35224   1.275   4.513   8.096 -0.5581  0.2856  0.0840
 7864SOL    HW135225   1.309   4.548   8.178 -0.5157  1.6285 -0.5078
 7864SOL    HW235226   1.189   4.550   8.076  0.5737  2.7974 -0.2164
 7865SOL     OW35227   0.096   3.014   5.167  0.1306  0.3569  0.4524
 7865SOL    HW135228   0.084   3.109   5.173  2.5825  0.4778  3.4451
 7865SOL    HW235229   0.190   3.011   5.188  0.2136  0.0949  0.0339
 7866SOL     OW35230   0.541   4.110   2.929  0.0888 -0.1539  0.1770
 7866SOL    HW135231   0.467   4.058   2.898 -0.3340 -0.6060  1.9519
 7866SOL    HW235232   0.608   4.043   2.944  1.5779  1.5241  1.0842
 7867SOL     OW35233   2.042   0.698   3.714 -0.0531 -0.3892 -0.2369
 7867SOL    HW135234   2.106   0.642   3.670 -0.8450 -2.8699  1.7901
 7867SOL    HW235235   1.969   0.638   3.696 -0.6907 -0.5924  3.0178
 7868SOL     OW35236   2.954   1.432  14.726 -0.0856 -0.2293 -0.1949
 7868SOL    HW135237   2.877   1.379  14.745 -0.2210  0.8195  2.1712
 7868SOL    HW235238   2.975   1.401  14.638  2.0293  1.6250 -0.3404
 7869SOL     OW35239   3.084   2.130  15.277  0.3155 -0.5796  0.0590
 7869SOL    HW135240   3.005   2.079  15.295 -1.4891  3.3751  3.0368
 7869SOL    HW235241   3.155   2.089  15.326 -0.0555 -0.4056  0.7441
 7870SOL     OW35242   1.887   0.292   4.786 -0.6270  0.0542 -0.6892
 7870SOL    HW135243   1.894   0.299   4.882  0.1044  1.8323 -0.8742
 7870SOL    HW235244   1.875   0.380   4.753  0.7508  0.0688 -1.1304
 7871SOL     OW35245   0.350   1.315   6.733  0.0684  0.2125 -0.8693
 7871SOL    HW135246   0.299   1.267   6.666  1.4448 -2.8254  0.2558
 7871SOL    HW235247   0.313   1.280   6.814  2.2347 -1.4647 -0.6035
 7872SOL     OW35248   4.305   1.708  10.163  0.4921 -0.2416  1.1279
 7872SOL    HW135249   4.325   1.615  10.176  2.1016  0.0401  0.7510
 7872SOL    HW235250   4.213   1.700  10.185 -0.1232  1.1405 -1.0501
 7873SOL     OW35251   1.620   0.902   5.588 -0.0897 -0.1768 -0.4538
 7873SOL    HW135252   1.650   0.817   5.556 -0.3509 -0.4506  0.0258
 7873SOL    HW235253   1.526   0.904   5.571 -0.4742  0.6418  1.7502
 7874SOL     OW35254   3.171   2.693  17.374 -0.3591  0.3668  0.0905
 7874SOL    HW135255   3.128   2.747  17.308  1.0372 -0.5343 -1.5512
 7874SOL    HW235256   3.128   2.721  17.455 -1.5731  1.3920 -0.8999
 7875SOL     OW35257   3.132   3.041   3.294  0.0980  0.2122 -0.0922
 7875SOL    HW135258   3.184   2.969   3.330  0.1891  0.9123  1.2074
 7875SOL    HW235259   3.062   2.994   3.249  1.4514  0.4968 -2.4533
 7876SOL     OW35260   3.134   2.732   9.016 -0.0708 -0.4639  0.2777
 7876SOL    HW135261   3.218   2.734   9.062 -1.4382  1.5517  2.7175
 7876SOL    HW235262   3.105   2.819   9.045 -0.9037 -0.0579 -1.7619
 7877SOL     OW35263   0.640   4.388   9.472 -0.4071  0.2287 -0.4478
 7877SOL    HW135264   0.605   4.310   9.515 -0.4548 -0.4308 -1.7142
 7877SOL    HW235265   0.616   4.458   9.534  1.6067 -0.9813  1.7217
 7878SOL     OW35266   0.011   2.302   3.510  0.1133  0.7238 -0.6840
 7878SOL    HW135267   4.709   2.323   3.595 -0.9486  0.0040 -0.9931
 7878SOL    HW235268   0.099   2.336   3.523 -0.0172  0.8301 -0.0723
 7879SOL     OW35269   0.393   1.562   5.446  0.2793  0.1712  0.1933
 7879SOL    HW135270   0.423   1.489   5.500  0.6472 -0.4997 -0.9160
 7879SOL    HW235271   0.469   1.621   5.442 -1.8868  3.1087  2.2823
 7880SOL     OW35272   1.451   4.513   4.219  0.1752 -0.3048 -0.0615
 7880SOL    HW135273   1.402   4.460   4.282  0.9427 -1.5231 -0.4885
 7880SOL    HW235274   1.385   4.533   4.154  1.1359  0.3914 -0.8211
 7881SOL     OW35275   0.959   0.479   1.245 -0.2209  0.5644  0.1957
 7881SOL    HW135276   0.928   0.541   1.310  2.4983  2.3295 -0.1887
 7881SOL    HW235277   0.883   0.434   1.208  1.4082 -0.7168 -1.6503
 7882SOL     OW35278   3.909   2.575   3.408 -0.0667 -0.8857 -0.3164
 7882SOL    HW135279   3.845   2.642   3.430  0.2931 -1.3975  2.2416
 7882SOL    HW235280   3.980   2.581   3.472 -0.9541 -1.1546  0.6924
 7883SOL     OW35281   0.679   0.316  10.839 -0.2411  0.9071 -0.5198
 7883SOL    HW135282   0.611   0.286  10.899  0.1518 -0.0286 -0.5467
 7883SOL    HW235283   0.716   0.235  10.803 -0.6991  0.0766  0.8941
 7884SOL     OW35284   3.104   4.548   6.620 -0.0221 -0.1522 -0.2053
 7884SOL    HW135285   3.062   4.581   6.541  1.8880 -1.6004 -1.8187
 7884SOL    HW235286   3.110   4.456   6.593 -1.5561 -0.1335 -0.5911
 7885SOL     OW35287   2.063   1.271  12.880 -0.3748 -0.0811 -0.4016
 7885SOL    HW135288   2.152   1.272  12.845 -0.0434 -1.2332  0.3648
 7885SOL    HW235289   2.086   1.280  12.973  0.3337  0.1994 -0.6052
 7886SOL     OW35290   3.708   2.174   1.445 -0.3983 -0.0580  0.4693
 7886SOL    HW135291   3.683   2.092   1.489 -1.0923 -0.4013 -0.5618
 7886SOL    HW235292   3.634   2.234   1.452 -0.0412  0.3703  0.5274
 7887SOL     OW35293   2.560   1.427   5.728 -0.0738 -0.2018  0.3674
 7887SOL    HW135294   2.556   1.374   5.648 -0.1072 -1.7548  1.3903
 7887SOL    HW235295   2.655   1.436   5.730 -0.0937  0.0287  0.2469
 7888SOL     OW35296   3.715   1.824  17.302 -0.5194 -0.5493 -0.1453
 7888SOL    HW135297   3.664   1.761  17.352  1.2288 -1.0964  0.9795
 7888SOL    HW235298   3.735   1.888  17.370 -1.2052  2.1674 -2.5169
 7889SOL     OW35299   2.156   1.929   0.843  0.4066 -0.0463  0.2604
 7889SOL    HW135300   2.130   1.843   0.876  1.2137 -0.4844 -0.2339
 7889SOL    HW235301   2.198   1.964   0.921 -0.5820 -0.9028  1.1606
 7890SOL     OW35302   0.684   3.556   9.617  0.0425  0.2875  0.0865
 7890SOL    HW135303   0.686   3.547   9.522 -1.0774 -0.4755  0.1350
 7890SOL    HW235304   0.719   3.645   9.618  1.8358 -0.4533  2.4212
 7891SOL     OW35305   2.916   4.385   0.647 -0.5084 -0.3071 -0.5237
 7891SOL    HW135306   2.995   4.439   0.645 -1.3157  0.9432  1.4020
 7891SOL    HW235307   2.874   4.424   0.570 -1.0365 -0.7361 -0.4545
 7892SOL     OW35308   3.981   4.152   7.915  0.3557  0.3421 -0.0885
 7892SOL    HW135309   4.009   4.149   8.007  0.3235 -0.4530 -0.1081
 7892SOL    HW235310   3.890   4.177   7.931  0.1965 -1.5010  1.8549
 7893SOL     OW35311   3.898   2.867  13.865 -0.5022  0.3926  0.0372
 7893SOL    HW135312   3.957   2.800  13.897 -0.5205  1.3108  1.9682
 7893SOL    HW235313   3.923   2.942  13.919 -1.0292  1.3921 -1.0889
 7894SOL     OW35314   1.350   3.801   1.437 -0.6731  0.7484  0.0936
 7894SOL    HW135315   1.411   3.872   1.418  0.1791  0.1836  0.7533
 7894SOL    HW235316   1.312   3.843   1.515  0.4523 -2.2828  2.2982
 7895SOL     OW35317   3.552   2.890   8.729  0.0406 -0.3521 -0.0501
 7895SOL    HW135318   3.571   2.979   8.700 -2.8890  0.2552 -0.0750
 7895SOL    HW235319   3.474   2.914   8.779  1.4927  0.9563  1.5759
 7896SOL     OW35320   0.620   2.937   1.588 -0.4255  0.1033  0.8845
 7896SOL    HW135321   0.714   2.918   1.588 -0.2577  0.9430  1.8847
 7896SOL    HW235322   0.607   2.931   1.683  1.4613 -3.5025  0.9152
 7897SOL     OW35323   3.037   2.555  12.831 -0.2052  0.0717 -0.2394
 7897SOL    HW135324   3.044   2.569  12.925 -0.0020 -0.8827 -0.1148
 7897SOL    HW235325   2.943   2.563  12.811 -0.3454  0.0490  0.4324
 7898SOL     OW35326   1.544   0.304   4.083  0.1229  0.3342  0.5004
 7898SOL    HW135327   1.606   0.233   4.100 -1.5782 -1.2235  0.1964
 7898SOL    HW235328   1.459   0.263   4.069  1.0222 -1.7890  1.3611
 7899SOL     OW35329   4.095   3.396   7.298  0.7413  0.4889 -0.6163
 7899SOL    HW135330   4.027   3.436   7.245 -0.2191 -0.3051  0.0171
 7899SOL    HW235331   4.176   3.409   7.248  0.6361 -2.1782 -1.4968
 7900SOL     OW35332   4.608   2.385   6.662  0.2051  0.5480  0.0397
 7900SOL    HW135333   4.647   2.385   6.749  1.5572 -0.1417 -0.5548
 7900SOL    HW235334   4.663   2.318   6.620 -0.4383  0.0782 -0.0579
 7901SOL     OW35335   0.749   0.020   7.738  0.0939 -0.1226 -0.8685
 7901SOL    HW135336   0.780   0.056   7.821 -1.6773 -1.1760  0.2585
 7901SOL    HW235337   0.767   0.095   7.681 -0.3062  0.0464 -0.7734
 7902SOL     OW35338   3.801   1.657   5.441  0.5432 -0.4261 -0.1511
 7902SOL    HW135339   3.843   1.571   5.439 -0.5774 -0.9217 -2.3232
 7902SOL    HW235340   3.840   1.686   5.523 -0.5407  0.9871 -0.1205
 7903SOL     OW35341   4.214   2.775   5.319 -0.5488 -0.3893 -0.0710
 7903SOL    HW135342   4.122   2.790   5.300 -0.7435 -1.9075 -0.3507
 7903SOL    HW235343   4.245   2.730   5.240  1.3421  1.6927 -0.5179
 7904SOL     OW35344   2.364   4.129   4.198 -0.2640  0.2242  0.1459
 7904SOL    HW135345   2.334   4.212   4.236 -2.9702 -0.6068 -0.1815
 7904SOL    HW235346   2.379   4.077   4.277 -1.3887 -0.9697 -0.4360
 7905SOL     OW35347   1.094   0.099  13.171  0.2301 -0.1011  0.2475
 7905SOL    HW135348   1.182   0.138  13.167  1.8158 -3.7757 -0.0212
 7905SOL    HW235349   1.041   0.177  13.154 -0.8905 -0.9436 -0.0720
 7906SOL     OW35350   3.362   3.822   3.395 -0.3267  0.2885  0.4168
 7906SOL    HW135351   3.428   3.888   3.417  1.8586 -1.7769  0.1345
 7906SOL    HW235352   3.398   3.745   3.439  1.2186  0.2254 -0.9179
 7907SOL     OW35353   2.196   4.226  10.894 -0.2038  0.0575  0.6247
 7907SOL    HW135354   2.267   4.162  10.904 -1.9328 -1.9165  0.0666
 7907SOL    HW235355   2.238   4.299  10.940  2.1104 -1.0485  0.2845
 7908SOL     OW35356   3.638   3.343   6.655 -0.0656  0.1182  0.0865
 7908SOL    HW135357   3.585   3.410   6.612  1.1929 -0.7554 -2.8804
 7908SOL    HW235358   3.689   3.389   6.722 -1.8015  2.0725  0.0698
 7909SOL     OW35359   3.823   2.861  10.850 -0.1507 -0.4313 -0.3185
 7909SOL    HW135360   3.746   2.811  10.878  0.2953 -1.3810 -0.7795
 7909SOL    HW235361   3.838   2.934  10.911  1.2601 -1.2488  0.3308
 7910SOL     OW35362   2.047   0.088   3.996  0.2785  0.3657  0.1246
 7910SOL    HW135363   2.001   0.009   4.026  2.4289 -1.2384 -0.7810
 7910SOL    HW235364   2.072   0.130   4.078  1.3431  0.7996 -0.4231
 7911SOL     OW35365   1.447   3.229   3.610  0.1234  0.4588 -0.2843
 7911SOL    HW135366   1.518   3.228   3.546 -0.9025 -1.0416 -1.3892
 7911SOL    HW235367   1.462   3.303   3.670 -0.7449  0.7432 -0.4190
 7912SOL     OW35368   0.906   0.785  10.899 -0.1046  0.3224  0.4449
 7912SOL    HW135369   0.863   0.711  10.856  0.2877  0.2180  0.2329
 7912SOL    HW235370   0.929   0.754  10.986 -0.2932  0.3995  0.5211
 7913SOL     OW35371   3.993   1.064   5.600 -0.5052 -0.2664  0.0929
 7913SOL    HW135372   4.020   1.060   5.692 -1.4974  0.1436  0.4116
 7913SOL    HW235373   3.939   1.144   5.604 -0.7241 -0.4233  0.2524
 7914SOL     OW35374   1.666   0.698  15.533  1.1438  0.3097  0.1086
 7914SOL    HW135375   1.665   0.699  15.628  1.6492  2.3138  0.1026
 7914SOL    HW235376   1.748   0.741  15.510  1.6204  0.6338  2.4464
 7915SOL     OW35377   1.827   2.776  10.150 -0.2517 -0.2918  0.2338
 7915SOL    HW135378   1.833   2.759  10.244 -2.2785 -0.9017  0.2531
 7915SOL    HW235379   1.898   2.840  10.148  1.4831 -2.1451  1.7335
 7916SOL     OW35380   2.216   3.079   7.777  0.5199 -0.1465  0.7862
 7916SOL    HW135381   2.148   3.020   7.809 -1.4417 -0.2975 -3.6554
 7916SOL    HW235382   2.293   3.025   7.793  0.7268  0.8001  3.0202
 7917SOL     OW35383   2.527   3.845   7.749 -0.0207  0.6744  0.1774
 7917SOL    HW135384   2.617   3.812   7.759  0.2549  1.6088  0.7879
 7917SOL    HW235385   2.467   3.795   7.804  0.9940 -0.4066  0.3108
 7918SOL     OW35386   3.579   1.338   3.530 -0.2011  0.0179  0.1623
 7918SOL    HW135387   3.653   1.383   3.573  0.0038 -0.0630 -0.1056
 7918SOL    HW235388   3.509   1.403   3.535 -1.4716 -1.4484  1.4502
 7919SOL     OW35389   1.033   4.242   4.649 -0.3675  0.1229 -1.0495
 7919SOL    HW135390   1.002   4.296   4.722 -1.1130 -2.1320  0.3265
 7919SOL    HW235391   0.971   4.171   4.666  0.1660  0.0139  0.4366
 7920SOL     OW35392   0.402   3.987   1.734  0.1065  0.0775 -0.5966
 7920SOL    HW135393   0.412   4.045   1.659 -0.7360  0.2935 -0.5347
 7920SOL    HW235394   0.459   4.006   1.809 -0.3398  1.4740 -0.6104
 7921SOL     OW35395   0.165   1.533  12.912  0.1332 -0.1108 -0.6283
 7921SOL    HW135396   0.229   1.475  12.872  0.4363  0.5487 -1.1133
 7921SOL    HW235397   0.079   1.506  12.878 -1.2067  0.9336  1.9929
 7922SOL     OW35398   3.644   1.789   2.867  0.1016  0.0056 -0.6990
 7922SOL    HW135399   3.720   1.735   2.886 -1.4935 -2.0519 -0.1992
 7922SOL    HW235400   3.592   1.717   2.830 -1.5970 -0.0231  1.6850
 7923SOL     OW35401   0.728   3.947   3.048 -0.2496  0.0292 -0.5201
 7923SOL    HW135402   0.708   3.853   3.050  1.3072 -0.3089 -0.3837
 7923SOL    HW235403   0.822   3.941   3.026  0.1140  0.7656  0.8433
 7924SOL     OW35404   3.832   0.127   7.114  0.4406  0.6481  0.3144
 7924SOL    HW135405   3.813   0.040   7.079 -0.9018  0.0301  2.6163
 7924SOL    HW235406   3.788   0.179   7.047  1.1548 -0.2818 -0.8732
 7925SOL     OW35407   2.365   0.205   7.470 -0.4817 -0.7697  0.4592
 7925SOL    HW135408   2.385   0.122   7.426  0.2265 -0.6190  0.4973
 7925SOL    HW235409   2.386   0.188   7.562  0.6624  0.1972  0.3647
 7926SOL     OW35410   2.696   1.570   4.298  0.2140 -0.1976  0.3549
 7926SOL    HW135411   2.695   1.534   4.210 -0.1920 -0.3622  0.4259
 7926SOL    HW235412   2.604   1.557   4.321  0.3123 -2.2368 -0.4339
 7927SOL     OW35413   3.755   0.370   8.971 -0.4775 -0.5833  0.4157
 7927SOL    HW135414   3.784   0.461   8.974  0.8364 -1.0907  3.0503
 7927SOL    HW235415   3.818   0.332   8.911  1.1864  2.1269  0.4364
 7928SOL     OW35416   2.030   3.941   3.393 -0.2146  0.1617 -0.1465
 7928SOL    HW135417   1.940   3.911   3.403 -0.3368  0.2554 -0.9384
 7928SOL    HW235418   2.072   3.938   3.478 -0.1549 -0.3413 -0.1972
 7929SOL     OW35419   0.440   4.291   9.743 -0.1358  0.0696 -0.5683
 7929SOL    HW135420   0.351   4.258   9.733  0.3327 -1.1710 -0.6029
 7929SOL    HW235421   0.490   4.210   9.728  2.8372  1.7003  0.4485
 7930SOL     OW35422   2.987   2.962   8.627 -0.0019 -0.0508 -0.2410
 7930SOL    HW135423   2.906   3.011   8.643  0.2830  0.5102 -0.5165
 7930SOL    HW235424   3.039   3.012   8.690 -2.7239 -0.6905  2.5357
 7931SOL     OW35425   1.507   0.175   5.726 -0.3642 -0.2270  0.3302
 7931SOL    HW135426   1.478   0.265   5.743 -1.2605 -1.0982  3.2859
 7931SOL    HW235427   1.551   0.154   5.808  2.3887  0.5218 -0.9297
 7932SOL     OW35428   0.389   2.879   6.058  0.2462  0.0110  0.3884
 7932SOL    HW135429   0.464   2.900   6.114 -1.0924  0.6455  1.9431
 7932SOL    HW235430   0.318   2.887   6.122 -0.2684  1.2175 -0.3262
 7933SOL     OW35431   4.229   1.046   2.501 -0.1708 -0.0597  0.0064
 7933SOL    HW135432   4.225   0.996   2.419 -0.4671 -1.3374  0.7985
 7933SOL    HW235433   4.284   0.991   2.557  0.1081 -1.1071 -1.2696
 7934SOL     OW35434   2.936   3.141   8.991  0.1479 -0.1833  0.0022
 7934SOL    HW135435   2.852   3.117   9.031  0.4053 -1.5111 -0.2380
 7934SOL    HW235436   2.899   3.186   8.915  0.5354 -1.7770 -1.1385
 7935SOL     OW35437   1.297   4.595  10.458  0.6905 -0.8080  0.5158
 7935SOL    HW135438   1.349   4.530  10.505  0.9585 -1.7301 -1.0639
 7935SOL    HW235439   1.239   4.534  10.414 -0.9593  1.9839 -1.1566
 7936SOL     OW35440   4.264   3.480   5.344 -0.3133 -0.1397 -0.0056
 7936SOL    HW135441   4.252   3.385   5.344  0.2812 -0.2159 -0.8483
 7936SOL    HW235442   4.232   3.514   5.261  0.7101 -0.0115 -0.3508
 7937SOL     OW35443   1.757   3.708   0.762 -0.1130 -0.0365  0.3344
 7937SOL    HW135444   1.774   3.615   0.776  0.8579  0.0158 -0.5226
 7937SOL    HW235445   1.771   3.722   0.668 -0.9430 -0.3755  0.1598
 7938SOL     OW35446   1.852   1.685   5.605  0.1045  0.6688  0.1273
 7938SOL    HW135447   1.837   1.591   5.602  1.8398  0.3261  2.1800
 7938SOL    HW235448   1.813   1.702   5.691  1.2585 -0.1230  0.7952
 7939SOL     OW35449   1.988   0.905   2.646  0.9725 -0.4680  0.1686
 7939SOL    HW135450   2.050   0.943   2.709 -0.2701 -0.7545  1.5661
 7939SOL    HW235451   2.052   0.888   2.576  0.4648 -0.7457 -0.2210
 7940SOL     OW35452   0.746   1.298   1.471  0.4153  0.4404  0.4742
 7940SOL    HW135453   0.799   1.366   1.511 -1.3190  1.7162  0.5891
 7940SOL    HW235454   0.679   1.273   1.535  0.8056  2.1075  1.5326
 7941SOL     OW35455   3.552   0.003  10.935  0.4204  0.2481 -0.2056
 7941SOL    HW135456   3.473   4.727  10.884  0.5042 -2.6875  0.4427
 7941SOL    HW235457   3.608   4.685  10.881 -0.1720  0.6288 -1.2074
 7942SOL     OW35458   4.464   0.250   7.881  0.2032  0.5996 -0.4228
 7942SOL    HW135459   4.381   0.203   7.866  1.0634  0.4561 -4.5312
 7942SOL    HW235460   4.469   0.243   7.977  0.5996 -1.7614 -0.6237
 7943SOL     OW35461   0.741   3.505  12.152 -0.5361  0.2490  0.9776
 7943SOL    HW135462   0.730   3.600  12.164 -2.4797  0.3300 -1.4568
 7943SOL    HW235463   0.837   3.509  12.147 -0.5550 -1.7176 -0.7310
 7944SOL     OW35464   3.736   2.789   3.450 -0.3716 -0.4974  0.3455
 7944SOL    HW135465   3.724   2.884   3.451  1.2258 -0.2905  0.6700
 7944SOL    HW235466   3.683   2.764   3.526  1.1773  0.7621  1.8397
 7945SOL     OW35467   2.225   1.399   2.147 -0.4346  0.2332 -0.2024
 7945SOL    HW135468   2.256   1.353   2.225  0.9107  1.2770 -0.1226
 7945SOL    HW235469   2.189   1.483   2.174  2.8083  1.7950 -0.7593
 7946SOL     OW35470   0.905   3.060   8.511  0.8393  0.0417  0.0077
 7946SOL    HW135471   0.966   3.029   8.445 -0.4254  1.8207 -1.9946
 7946SOL    HW235472   0.928   3.006   8.587  2.2455  0.4012 -0.1693
 7947SOL     OW35473   1.388   4.701   7.605 -0.1207 -0.4324  0.9552
 7947SOL    HW135474   1.362   4.681   7.695 -0.4948 -2.6718  0.3648
 7947SOL    HW235475   1.459   4.636   7.601  0.7435  0.5099  1.1718
 7948SOL     OW35476   2.411   2.340   5.622 -0.1440  0.8190  0.1046
 7948SOL    HW135477   2.353   2.369   5.552 -0.6731  0.3420  0.3442
 7948SOL    HW235478   2.349   2.349   5.695  0.5712 -2.1069  1.0895
 7949SOL     OW35479   1.622   1.662   9.156  0.0707  0.1416 -0.5514
 7949SOL    HW135480   1.687   1.630   9.217  1.6767 -0.4674 -2.5842
 7949SOL    HW235481   1.552   1.694   9.213  1.0085  0.9988  0.0989
 7950SOL     OW35482   1.385   3.977   9.457  0.1574 -0.3367  0.4518
 7950SOL    HW135483   1.342   3.907   9.408 -1.3546  0.2612  0.9175
 7950SOL    HW235484   1.361   4.046   9.396 -2.4945 -0.6357  1.1477
 7951SOL     OW35485   3.053   2.086   0.028  0.1099 -0.1650 -0.0992
 7951SOL    HW135486   3.028   2.119   0.114  1.3292  1.2802 -0.3077
 7951SOL    HW235487   3.083   1.996   0.039  2.5017  0.3435 -2.4574
 7952SOL     OW35488   3.970   1.481   2.993  0.0813 -0.0675 -0.4369
 7952SOL    HW135489   4.023   1.511   3.067 -2.6442  3.5213  0.0680
 7952SOL    HW235490   3.933   1.396   3.016  1.2717 -0.0625  1.4911
 7953SOL     OW35491   2.125   3.403  15.067 -0.1645  0.4433 -0.2873
 7953SOL    HW135492   2.106   3.485  15.022  0.9960  0.0630 -1.4511
 7953SOL    HW235493   2.206   3.377  15.023 -0.0936 -1.0005  0.7030
 7954SOL     OW35494   3.662   2.138   9.892 -0.1411 -0.0705  0.2823
 7954SOL    HW135495   3.715   2.062   9.867 -2.5325 -1.2041 -1.3018
 7954SOL    HW235496   3.723   2.211   9.877  0.7461 -0.2313  3.1744
 7955SOL     OW35497   1.802   2.422   7.924 -0.3357  0.7258 -0.2861
 7955SOL    HW135498   1.778   2.498   7.871  1.3434  0.9387 -0.7218
 7955SOL    HW235499   1.896   2.437   7.921 -0.0635 -1.2210 -1.6172
 7956SOL     OW35500   1.800   2.060   0.959  0.1120 -0.3871  0.1968
 7956SOL    HW135501   1.798   1.965   0.974  1.0205 -0.0521  2.4781
 7956SOL    HW235502   1.890   2.081   0.987  0.3184 -0.8175 -0.1449
 7957SOL     OW35503   3.780   1.849   5.837 -0.0175  0.7402  0.6118
 7957SOL    HW135504   3.805   1.908   5.908  2.4674  2.2286 -1.4758
 7957SOL    HW235505   3.818   1.893   5.761  1.7866 -0.8146  0.6104
 7958SOL     OW35506   0.868   0.667   9.018 -0.0913 -0.2797  0.6377
 7958SOL    HW135507   0.842   0.575   9.020 -0.5204 -0.1615  0.3951
 7958SOL    HW235508   0.803   0.705   9.077  0.8384  3.1334 -0.5706
 7959SOL     OW35509   2.837   2.434  15.823  0.5498 -0.2134  0.3950
 7959SOL    HW135510   2.749   2.396  15.831 -0.5293  1.5677 -2.9664
 7959SOL    HW235511   2.838   2.483  15.905 -0.8551 -1.0003  0.8985
 7960SOL     OW35512   0.801   2.118   1.450 -0.6594  0.1569 -1.0305
 7960SOL    HW135513   0.883   2.100   1.405  0.2142  1.2166  0.1303
 7960SOL    HW235514   0.743   2.143   1.378  0.4508 -0.4662 -2.1371
 7961SOL     OW35515   0.653   1.781   2.379  0.2203  0.2143 -0.1320
 7961SOL    HW135516   0.704   1.740   2.309  0.5184  1.1496 -0.4607
 7961SOL    HW235517   0.703   1.863   2.379  0.4422  0.0801 -0.1692
 7962SOL     OW35518   2.866   1.218   2.086  0.1116 -0.3028  0.1526
 7962SOL    HW135519   2.781   1.255   2.109  1.0372  0.4490  2.4518
 7962SOL    HW235520   2.902   1.202   2.173  1.1688  3.0856  0.3338
 7963SOL     OW35521   0.998   3.982  10.287 -0.4135  0.6014 -0.4741
 7963SOL    HW135522   1.018   3.903  10.238  0.0010 -0.2719  1.0974
 7963SOL    HW235523   1.015   3.958  10.378  1.6073 -3.0402 -1.8338
 7964SOL     OW35524   4.045   0.665   4.062 -0.1747 -0.0327  0.3009
 7964SOL    HW135525   4.033   0.589   4.118 -2.0962  0.4330  0.5161
 7964SOL    HW235526   3.971   0.711   4.102  0.2345 -0.7136  1.8242
 7965SOL     OW35527   2.425   2.465  11.334  0.0971  0.0180  0.3497
 7965SOL    HW135528   2.512   2.495  11.307 -0.9245  2.0958 -0.5631
 7965SOL    HW235529   2.451   2.382  11.373 -0.8652 -0.4920 -0.0931
 7966SOL     OW35530   4.698   3.264   2.973 -0.3932  0.3233 -0.2033
 7966SOL    HW135531   4.645   3.277   3.052  2.7149 -1.1087  2.1384
 7966SOL    HW235532   4.683   3.340   2.918 -1.7132  0.3963  0.2511
 7967SOL     OW35533   0.683   3.574  17.102 -0.2617 -0.9071  0.5634
 7967SOL    HW135534   0.605   3.627  17.116  0.2254 -0.5187  1.7271
 7967SOL    HW235535   0.730   3.611  17.176  0.8736 -0.3232 -0.4408
 7968SOL     OW35536   2.515   2.625  13.977 -0.4137 -0.3069  0.2082
 7968SOL    HW135537   2.493   2.555  13.916 -1.1761 -0.1528  0.3018
 7968SOL    HW235538   2.430   2.652  14.010 -0.3339  1.4437 -1.0084
 7969SOL     OW35539   0.710   3.885   5.090  0.1574  0.1263 -0.2015
 7969SOL    HW135540   0.730   3.804   5.137  2.1081  0.3811 -0.5577
 7969SOL    HW235541   0.618   3.884   5.065  0.1241  1.3711 -0.1380
 7970SOL     OW35542   0.242   3.987  17.363  0.1007 -0.5436  0.2098
 7970SOL    HW135543   0.280   3.966  17.277  2.6827  1.3355  0.8769
 7970SOL    HW235544   0.312   4.041  17.400  0.4318 -0.2520 -0.8185
 7971SOL     OW35545   1.869   0.423  17.406 -0.5889 -0.1141 -0.4448
 7971SOL    HW135546   1.949   0.456  17.365 -1.2563  3.1252  0.9406
 7971SOL    HW235547   1.876   0.340  17.359 -0.6286 -1.1298  1.3341
 7972SOL     OW35548   1.322   0.744   3.097 -0.1330 -0.7547 -0.1640
 7972SOL    HW135549   1.293   0.749   3.188 -0.3269 -0.1681 -0.2564
 7972SOL    HW235550   1.263   0.811   3.061 -0.7825 -0.8249  0.7829
 7973SOL     OW35551   1.992   4.264   6.055 -0.1054 -0.0696  1.0348
 7973SOL    HW135552   2.030   4.219   5.979 -1.0654 -0.4978  0.8026
 7973SOL    HW235553   2.041   4.221   6.125  1.9803  0.2179 -0.2533
 7974SOL     OW35554   2.786   1.135  14.555 -0.1570  0.1601  0.4655
 7974SOL    HW135555   2.749   1.184  14.627  0.9006  0.0620  1.0822
 7974SOL    HW235556   2.809   1.206  14.495 -1.3434 -1.6469 -2.1248
 7975SOL     OW35557   3.661   0.476   2.030 -0.0158 -0.4469  0.2907
 7975SOL    HW135558   3.653   0.392   2.074 -0.5125 -1.0003 -0.8490
 7975SOL    HW235559   3.757   0.476   2.023  0.0942  0.9554  1.7106
 7976SOL     OW35560   3.366   0.234   3.437 -0.0115 -0.0259  0.6026
 7976SOL    HW135561   3.369   0.163   3.373  1.2693  0.5325  0.0335
 7976SOL    HW235562   3.325   0.307   3.389  0.7012  0.9013  1.4175
 7977SOL     OW35563   2.674   1.746   5.848  0.4703  0.6100  0.3250
 7977SOL    HW135564   2.593   1.754   5.799  1.1713  1.4792 -0.6965
 7977SOL    HW235565   2.728   1.692   5.790 -0.1602  1.3785 -0.9866
 7978SOL     OW35566   2.791   0.803   1.048 -0.0740  0.1235 -0.0644
 7978SOL    HW135567   2.841   0.837   1.121  0.9437 -2.2072  0.3433
 7978SOL    HW235568   2.807   0.878   0.991  3.3110 -0.3578  0.2689
 7979SOL     OW35569   3.478   0.874   0.638  0.7146  0.1758 -0.5638
 7979SOL    HW135570   3.570   0.873   0.613  1.1629  0.3523  1.0306
 7979SOL    HW235571   3.455   0.964   0.614 -0.3988 -0.0321 -0.2635
 7980SOL     OW35572   3.370   3.781   8.361  0.6598  0.0320 -0.5793
 7980SOL    HW135573   3.434   3.756   8.428 -1.3413 -4.3484 -0.3268
 7980SOL    HW235574   3.416   3.845   8.307 -3.0623  1.3356 -2.1334
 7981SOL     OW35575   1.185   0.189   8.649  0.2068  0.5629  0.0592
 7981SOL    HW135576   1.101   0.149   8.674  0.0056 -0.0019 -1.5300
 7981SOL    HW235577   1.205   0.229   8.733 -0.5748  0.2407  0.4074
 7982SOL     OW35578   2.258   2.317   8.675 -0.1860 -0.0052 -0.0484
 7982SOL    HW135579   2.340   2.336   8.630  0.2375  0.0062  0.7334
 7982SOL    HW235580   2.207   2.392   8.643  0.2617  0.8508  1.2177
 7983SOL     OW35581   2.145   2.466  10.778 -0.3653 -0.5603 -0.2865
 7983SOL    HW135582   2.092   2.533  10.736  0.7040  0.0469 -0.6525
 7983SOL    HW235583   2.229   2.505  10.756 -0.8593  1.2589  1.0959
 7984SOL     OW35584   3.200   0.742   1.921  0.0721 -0.3587  0.2621
 7984SOL    HW135585   3.132   0.795   1.880 -0.4063 -1.2633 -0.0979
 7984SOL    HW235586   3.192   0.653   1.887 -0.8557 -0.0698 -0.2657
 7985SOL     OW35587   0.211   4.415   4.417  0.2014  0.1184 -0.0911
 7985SOL    HW135588   0.130   4.427   4.367  0.1084 -0.1325 -0.0027
 7985SOL    HW235589   0.287   4.448   4.369 -0.9495 -0.1924 -2.1417
 7986SOL     OW35590   2.289   1.294  12.724 -0.6211  0.5223  0.1956
 7986SOL    HW135591   2.357   1.240  12.767 -0.4494 -0.1803 -0.9620
 7986SOL    HW235592   2.324   1.383  12.726 -2.2882  1.1973 -1.5974
 7987SOL     OW35593   4.083   1.600   3.218  0.3173  0.0286  0.6583
 7987SOL    HW135594   4.013   1.538   3.242  1.3616 -1.7386 -0.8468
 7987SOL    HW235595   4.165   1.552   3.228 -0.5136 -1.5118  0.2093
 7988SOL     OW35596   4.020   0.351   2.361  0.3473  0.1896 -0.1688
 7988SOL    HW135597   3.949   0.403   2.323 -0.4360  0.8414  2.2135
 7988SOL    HW235598   4.083   0.419   2.385 -0.6578  1.4867 -1.2027
 7989SOL     OW35599   0.727   0.705   6.846  0.4589 -0.1051  0.0911
 7989SOL    HW135600   0.797   0.767   6.824  1.0659 -0.9381 -0.3455
 7989SOL    HW235601   0.699   0.734   6.933  0.5848  2.5959 -0.8001
 7990SOL     OW35602   3.996   2.702  14.847  0.2110 -0.5203 -0.1823
 7990SOL    HW135603   3.956   2.741  14.924  0.0200  0.3213 -0.7141
 7990SOL    HW235604   3.920   2.663  14.804 -0.3882 -0.2200  0.6147
 7991SOL     OW35605   2.052   4.105   5.589  0.0742 -0.1363 -0.4192
 7991SOL    HW135606   1.989   4.074   5.524 -0.9831  1.8923 -0.3757
 7991SOL    HW235607   2.031   4.198   5.584 -0.0186 -0.1316  0.0453
 7992SOL     OW35608   3.435   0.279   5.940 -0.2094  0.5801  0.0699
 7992SOL    HW135609   3.458   0.372   5.944  3.9183 -0.4140 -0.0420
 7992SOL    HW235610   3.373   0.286   5.868  1.2879 -2.3841 -1.5004
 7993SOL     OW35611   2.256   1.232   3.176  0.2531 -0.2496 -0.1420
 7993SOL    HW135612   2.339   1.255   3.135 -0.5423  1.8738 -0.5387
 7993SOL    HW235613   2.210   1.218   3.093 -1.5381  0.6724  0.6937
 7994SOL     OW35614   2.069   3.594   2.937 -0.0512 -0.9335 -0.4077
 7994SOL    HW135615   2.160   3.597   2.909  0.0074 -3.4731 -0.5399
 7994SOL    HW235616   2.068   3.526   3.005 -0.2105  1.1946  1.6812
 7995SOL     OW35617   3.906   1.368   4.370  0.4089  0.3687 -0.1788
 7995SOL    HW135618   3.811   1.365   4.383  0.6821 -2.9723  1.1500
 7995SOL    HW235619   3.905   1.451   4.323 -0.5057  0.2500 -0.3788
 7996SOL     OW35620   3.392   3.847   3.825  0.1462 -0.1331  0.3761
 7996SOL    HW135621   3.406   3.939   3.801  1.9700 -0.7465 -0.9082
 7996SOL    HW235622   3.364   3.810   3.741  1.3752 -0.7780  0.2499
 7997SOL     OW35623   1.342   0.975   7.956 -0.1150 -0.4586  0.2253
 7997SOL    HW135624   1.352   0.884   7.927 -0.3437 -0.8770  1.4305
 7997SOL    HW235625   1.384   0.979   8.042  1.6573  0.2847 -0.6959
 7998SOL     OW35626   2.711   1.701   3.431  0.0779 -0.2584 -0.5139
 7998SOL    HW135627   2.669   1.632   3.482  0.9965 -1.9226 -2.0125
 7998SOL    HW235628   2.774   1.738   3.493  0.5151 -1.1654 -0.4165
 7999SOL     OW35629   4.336   4.273   2.294  0.0592 -0.2425  0.6642
 7999SOL    HW135630   4.368   4.207   2.356  0.7228  0.3552  0.9567
 7999SOL    HW235631   4.313   4.331   2.366 -0.6938  0.0481  0.1798
 8000SOL     OW35632   0.532   4.190  16.954  0.7670 -0.3639 -0.0997
 8000SOL    HW135633   0.606   4.177  16.894 -0.2494 -0.7366 -1.2916
 8000SOL    HW235634   0.521   4.104  16.994  0.1656 -1.9709 -3.6625
 8001SOL     OW35635   0.783   4.302   2.607 -0.2551 -0.2368 -0.1344
 8001SOL    HW135636   0.794   4.209   2.626  0.2643 -0.2033 -0.2765
 8001SOL    HW235637   0.747   4.298   2.519 -0.3471  1.2721 -0.1628
 8002SOL     OW35638   3.668   4.547   4.070 -0.4933  0.3996 -0.1514
 8002SOL    HW135639   3.589   4.593   4.041  0.4752  2.3512  0.2900
 8002SOL    HW235640   3.711   4.543   3.984 -1.4516 -1.8576 -0.5305
 8003SOL     OW35641   3.328   2.127   2.790  0.2606 -0.4139  0.3179
 8003SOL    HW135642   3.343   2.221   2.800  2.3930 -0.6944 -0.1863
 8003SOL    HW235643   3.335   2.107   2.697 -1.6985  3.2934 -0.6094
 8004SOL     OW35644   0.341   1.431   1.912 -0.6832 -0.1752  0.0715
 8004SOL    HW135645   0.371   1.453   2.000 -2.2595  0.0773  0.5603
 8004SOL    HW235646   0.356   1.509   1.858  1.1826 -0.1344  0.6744
 8005SOL     OW35647   0.398   2.826   6.613  0.0905 -0.0323 -0.0836
 8005SOL    HW135648   0.372   2.918   6.614 -0.1752 -0.0954 -0.9443
 8005SOL    HW235649   0.485   2.836   6.574  0.6539  0.5271  1.3299
 8006SOL     OW35650   4.544   1.548   1.392  0.3620 -0.2806 -0.0374
 8006SOL    HW135651   4.627   1.512   1.361  0.4505  1.5815 -2.0178
 8006SOL    HW235652   4.492   1.468   1.395 -0.3521  0.2045  0.5313
 8007SOL     OW35653   4.029   0.789   2.172 -0.0458  0.1409 -0.7140
 8007SOL    HW135654   4.000   0.698   2.176  1.0865  0.0222  4.3944
 8007SOL    HW235655   3.977   0.822   2.245 -0.4314  1.7711 -1.7373
 8008SOL     OW35656   1.157   2.121   2.691 -0.1484 -0.4732  0.2809
 8008SOL    HW135657   1.168   2.213   2.666 -0.5217 -0.6843 -0.6674
 8008SOL    HW235658   1.067   2.115   2.723 -0.7599  1.9763 -0.9473
 8009SOL     OW35659   1.951   2.794  12.377  0.7175 -0.1590  0.1563
 8009SOL    HW135660   1.943   2.707  12.337 -1.3934  0.8975 -1.7646
 8009SOL    HW235661   2.019   2.830  12.319  0.0307 -0.5227 -0.8792
 8010SOL     OW35662   2.697   0.953  16.684 -0.1394 -0.1453 -0.1710
 8010SOL    HW135663   2.791   0.968  16.671  0.1233 -1.1276  0.5301
 8010SOL    HW235664   2.693   0.910  16.769  1.7798 -0.2107 -0.1114
 8011SOL     OW35665   4.690   3.999   8.773  0.2924 -0.0095 -0.7110
 8011SOL    HW135666   4.727   4.080   8.738  1.4371 -0.2027  0.0233
 8011SOL    HW235667   4.623   3.981   8.707 -1.7966 -1.0597  1.7047
 8012SOL     OW35668   3.110   2.698   8.588  0.0500  0.4474  0.0930
 8012SOL    HW135669   3.195   2.742   8.581 -0.8111  1.8173 -1.7776
 8012SOL    HW235670   3.059   2.765   8.634  0.0042  0.8511 -0.5382
 8013SOL     OW35671   3.731   3.752   4.947  0.1623  0.2265  0.0439
 8013SOL    HW135672   3.726   3.841   4.912 -0.7881 -0.8238 -2.5416
 8013SOL    HW235673   3.691   3.760   5.033  3.9765  2.8813  1.5550
 8014SOL     OW35674   4.069   1.708   3.478  0.5838  0.4081 -0.2254
 8014SOL    HW135675   4.063   1.663   3.393 -1.5451  0.5500 -0.1409
 8014SOL    HW235676   4.118   1.787   3.456 -2.7069  2.3873 -0.5459
 8015SOL     OW35677   3.966   1.318   8.598 -0.9920  0.0236  0.2269
 8015SOL    HW135678   4.057   1.315   8.569 -0.7705  0.1326  0.8985
 8015SOL    HW235679   3.945   1.397   8.549 -1.8161 -0.6248 -0.4625
 8016SOL     OW35680   4.355   3.669   7.316 -0.5387 -0.1339 -0.5199
 8016SOL    HW135681   4.268   3.705   7.302 -1.6601 -2.5493  0.2044
 8016SOL    HW235682   4.421   3.738   7.307 -0.7430 -0.1895 -2.5599
 8017SOL     OW35683   2.980   4.476   4.942 -0.2646  0.2375  0.1057
 8017SOL    HW135684   2.993   4.383   4.964 -0.5032  0.4989  1.3367
 8017SOL    HW235685   2.944   4.497   5.028 -0.0573  2.2648 -0.3079
 8018SOL     OW35686   1.874   0.094  10.256 -0.2732  0.3405 -0.0853
 8018SOL    HW135687   1.845   0.123  10.342 -1.6181 -1.2004 -0.0246
 8018SOL    HW235688   1.797   0.122  10.206 -1.1752  1.2684  1.8467
 8019SOL     OW35689   4.011   1.682   1.569  0.0288 -0.6563  1.1305
 8019SOL    HW135690   4.029   1.594   1.537 -3.2304 -1.3254  1.1090
 8019SOL    HW235691   3.977   1.720   1.489  1.6150  1.0402  1.2649
 8020SOL     OW35692   4.603   2.873   4.127  0.4826  0.5341 -0.5175
 8020SOL    HW135693   4.600   2.861   4.222 -0.0066 -1.5552 -0.8149
 8020SOL    HW235694   4.572   2.963   4.113  0.4807  0.3333 -1.8355
 8021SOL     OW35695   2.346   0.217   1.755  0.2754 -0.4752 -0.4655
 8021SOL    HW135696   2.433   0.186   1.779  0.5543  1.3561  0.8966
 8021SOL    HW235697   2.363   0.298   1.708  0.0100  1.0853  2.1274
 8022SOL     OW35698   2.184   0.236   4.175 -0.5920  0.0643 -0.9818
 8022SOL    HW135699   2.274   0.205   4.186 -0.3095  0.4672 -2.1481
 8022SOL    HW235700   2.209   0.328   4.168 -0.1438  0.0919  0.9531
 8023SOL     OW35701   0.867   2.760   2.030 -0.8338 -0.1674  0.3311
 8023SOL    HW135702   0.953   2.787   2.062  0.0349 -0.2140 -1.9751
 8023SOL    HW235703   0.807   2.834   2.040 -1.4986 -0.9913  2.3317
 8024SOL     OW35704   3.481   2.041  12.239 -0.9715  0.1446 -0.5008
 8024SOL    HW135705   3.541   2.083  12.300  0.0906 -1.4600 -0.4268
 8024SOL    HW235706   3.437   2.123  12.215  0.0517  0.4249 -1.4077
 8025SOL     OW35707   0.030   1.097  17.363 -0.0332 -0.6055 -0.0990
 8025SOL    HW135708   0.057   1.108  17.271  0.4143  3.8671  0.5421
 8025SOL    HW235709   4.692   1.041  17.346  0.5339 -1.5694  0.6098
 8026SOL     OW35710   1.545   3.177   7.914  0.1754 -0.6278  0.1660
 8026SOL    HW135711   1.458   3.140   7.905  0.9590 -2.5196  0.4190
 8026SOL    HW235712   1.560   3.210   7.825 -0.8807  0.0277  0.2351
 8027SOL     OW35713   4.620   1.230   8.837  0.7736  0.0270 -0.2061
 8027SOL    HW135714   4.620   1.165   8.766 -0.8241 -1.0401  0.7711
 8027SOL    HW235715   4.564   1.303   8.810  1.3211  0.2995 -0.5952
 8028SOL     OW35716   2.675   1.340   4.684  0.0594  0.8750 -0.2638
 8028SOL    HW135717   2.709   1.338   4.773 -1.7994 -0.3961  0.3994
 8028SOL    HW235718   2.587   1.305   4.697 -0.4081  1.7745 -1.0014
 8029SOL     OW35719   3.910   0.572  13.559 -0.5141  0.4454  0.3330
 8029SOL    HW135720   3.849   0.519  13.508 -0.9099  0.3710  0.8902
 8029SOL    HW235721   3.952   0.623  13.490  0.7995 -0.0914  0.7339
 8030SOL     OW35722   3.518   0.246   5.553  0.3501  0.2884  0.3234
 8030SOL    HW135723   3.453   0.184   5.520 -0.2041  0.6772  0.6842
 8030SOL    HW235724   3.479   0.331   5.535  1.7471  0.3939 -2.2266
 8031SOL     OW35725   1.438   3.699   1.824  0.2833 -0.6870 -0.2886
 8031SOL    HW135726   1.391   3.774   1.788  0.1018 -0.8366 -0.3659
 8031SOL    HW235727   1.527   3.732   1.811 -0.0657  1.0176  1.8291
 8032SOL     OW35728   3.679   3.403   7.161  0.2470 -0.4035  0.1142
 8032SOL    HW135729   3.722   3.385   7.244  1.6965 -0.2809 -0.5971
 8032SOL    HW235730   3.615   3.469   7.188 -1.0436 -1.2059 -1.0065
 8033SOL     OW35731   2.017   2.240   7.634 -0.7040 -0.1875 -0.6557
 8033SOL    HW135732   1.949   2.250   7.567 -0.4595 -0.4946 -0.9512
 8033SOL    HW235733   2.088   2.284   7.588 -2.2166  2.0420 -0.8673
 8034SOL     OW35734   1.198   3.600   7.309 -0.4540  0.1379 -0.1834
 8034SOL    HW135735   1.161   3.629   7.393  1.3338 -1.1399  1.0526
 8034SOL    HW235736   1.276   3.555   7.343 -0.5408 -0.9565 -1.4223
 8035SOL     OW35737   1.438   2.054   9.696  0.0881  0.7112  0.2040
 8035SOL    HW135738   1.369   1.988   9.698  0.7268  0.0491  0.2714
 8035SOL    HW235739   1.496   1.985   9.728 -1.1426 -0.4039  0.0283
 8036SOL     OW35740   3.762   3.259  13.475 -0.3656  0.4641  0.3876
 8036SOL    HW135741   3.857   3.261  13.460 -0.2405  2.1447  1.3222
 8036SOL    HW235742   3.746   3.207  13.554 -1.6497  0.4502  0.1203
 8037SOL     OW35743   2.284   2.277   8.386 -0.1549 -0.1989  0.0651
 8037SOL    HW135744   2.246   2.203   8.434 -0.0745  1.3880  2.5770
 8037SOL    HW235745   2.203   2.319   8.359 -0.2263 -1.9349 -2.4062
 8038SOL     OW35746   0.428   1.226   5.410 -0.4287  0.3124 -0.6132
 8038SOL    HW135747   0.491   1.290   5.444  1.2226  0.1120 -3.3041
 8038SOL    HW235748   0.429   1.251   5.318  0.4373 -0.3250 -0.7810
 8039SOL     OW35749   0.292   2.480   7.266  0.6486 -0.7355 -0.4595
 8039SOL    HW135750   0.200   2.498   7.249  0.6866  1.9476  2.1402
 8039SOL    HW235751   0.317   2.417   7.199 -0.3217  0.7325 -2.2150
 8040SOL     OW35752   0.456   4.485   7.659 -0.1353 -0.2692  0.2038
 8040SOL    HW135753   0.502   4.552   7.610  0.1914 -2.0476 -1.9542
 8040SOL    HW235754   0.373   4.492   7.611  1.4037 -0.0747 -2.4486
 8041SOL     OW35755   4.245   0.115  10.110 -0.2038 -0.2500 -0.4592
 8041SOL    HW135756   4.312   0.081  10.051  0.7851  0.9938 -0.0396
 8041SOL    HW235757   4.197   0.036  10.134 -1.0878  0.1852 -0.7849
 8042SOL     OW35758   4.147   4.062   5.041  0.8329  0.3710  0.5750
 8042SOL    HW135759   4.161   4.105   5.126 -3.2765 -0.6898  1.7923
 8042SOL    HW235760   4.231   4.083   5.000 -0.0827 -1.6449 -2.3486
 8043SOL     OW35761   3.360   1.731   0.038 -0.1302  0.2101 -0.4776
 8043SOL    HW135762   3.313   1.772   0.111 -3.7532 -2.7929 -1.1618
 8043SOL    HW235763   3.366   1.812  17.735  0.6236  0.4408 -0.0380
 8044SOL     OW35764   3.077   0.438   9.024 -0.2677  0.1908 -0.1111
 8044SOL    HW135765   3.153   0.494   9.038 -0.1814  1.1334 -4.2297
 8044SOL    HW235766   3.021   0.498   8.975 -1.0169  0.4487  1.0795
 8045SOL     OW35767   2.821   2.460   1.387 -0.5701  0.6232 -0.2380
 8045SOL    HW135768   2.890   2.394   1.377 -0.9381  0.3120 -0.7267
 8045SOL    HW235769   2.814   2.478   1.481  0.8026 -1.5729  0.2937
 8046SOL     OW35770   4.066   4.449  12.259  0.2996  0.1248 -0.2283
 8046SOL    HW135771   4.047   4.537  12.289  0.6505 -0.0888  0.6305
 8046SOL    HW235772   4.147   4.431  12.307  1.0001  1.2368 -1.0253
 8047SOL     OW35773   3.267   3.629   6.303 -0.1975 -0.2017  0.2709
 8047SOL    HW135774   3.182   3.629   6.347 -0.3471 -2.1228 -0.0065
 8047SOL    HW235775   3.282   3.723   6.312  1.9757 -0.6046  0.7404
 8048SOL     OW35776   0.427   3.175   3.983  0.4701 -0.4043 -0.1186
 8048SOL    HW135777   0.378   3.099   4.013  0.1225 -0.5314 -1.0018
 8048SOL    HW235778   0.520   3.150   3.987  0.9711  1.2326 -1.2669
 8049SOL     OW35779   2.473   2.521  16.894  0.1665 -0.0222 -0.2021
 8049SOL    HW135780   2.482   2.471  16.813  1.9065 -1.2968  0.7928
 8049SOL    HW235781   2.388   2.564  16.884 -0.4903 -1.1487  0.6214
 8050SOL     OW35782   1.072   2.214   5.736  0.0776 -0.8077 -0.4476
 8050SOL    HW135783   1.050   2.259   5.818  0.5723  0.6660 -1.1135
 8050SOL    HW235784   1.126   2.275   5.685 -1.5165  0.7313 -0.2856
 8051SOL     OW35785   0.138   3.635   1.992  0.1794 -0.2020 -0.6758
 8051SOL    HW135786   0.223   3.680   1.991  1.2046 -2.0538  3.6585
 8051SOL    HW235787   0.159   3.582   2.069 -1.3402  1.0033  0.5861
 8052SOL     OW35788   1.503   1.022   3.770 -0.3383  0.3522  0.0937
 8052SOL    HW135789   1.408   1.026   3.769 -0.3914 -0.7706  1.2266
 8052SOL    HW235790   1.512   0.961   3.697 -2.1096 -0.4865  0.5790
 8053SOL     OW35791   1.315   4.336   1.321  0.2021 -0.0179  0.1460
 8053SOL    HW135792   1.369   4.263   1.291  1.4011  1.5236 -1.4548
 8053SOL    HW235793   1.371   4.365   1.393  0.3699  2.2944 -0.8899
 8054SOL     OW35794   2.440   0.021   8.311 -0.3554  0.3021 -0.4147
 8054SOL    HW135795   2.527   4.719   8.306 -0.4615  0.2366 -1.6736
 8054SOL    HW235796   2.401   4.703   8.379  0.2284 -0.4353 -0.6774
 8055SOL     OW35797   0.069   1.985   7.526 -0.2666 -0.2595 -0.4545
 8055SOL    HW135798   0.044   2.078   7.519  3.0856  0.6253 -0.4367
 8055SOL    HW235799   0.105   1.982   7.615  0.2227  0.1219 -0.6415
 8056SOL     OW35800   2.229   2.554   4.777  0.1083 -0.3612 -0.0070
 8056SOL    HW135801   2.157   2.492   4.789  1.8831 -1.6624  4.1108
 8056SOL    HW235802   2.268   2.554   4.864  0.9461 -0.1897 -0.3887
 8057SOL     OW35803   2.699   1.093   4.406 -0.1544  0.0778 -0.0091
 8057SOL    HW135804   2.663   1.168   4.454 -2.3095 -1.9022  1.4245
 8057SOL    HW235805   2.741   1.134   4.330  1.6230  3.6807  2.8629
 8058SOL     OW35806   0.636   4.620   7.030 -0.0502  0.1792  0.0711
 8058SOL    HW135807   0.618   4.615   7.123 -1.0581 -0.3056 -0.1509
 8058SOL    HW235808   0.607   4.534   7.000 -0.4022  0.8553 -1.5212
 8059SOL     OW35809   3.252   1.885  14.224  0.0523 -0.0151 -0.1151
 8059SOL    HW135810   3.255   1.796  14.188  0.4562 -1.1723  2.7997
 8059SOL    HW235811   3.205   1.932  14.155  2.8898  0.6137 -1.5805
 8060SOL     OW35812   4.209   3.325   5.059 -0.5535 -0.1330  0.3793
 8060SOL    HW135813   4.162   3.303   4.979  0.8352 -1.9860  0.0628
 8060SOL    HW235814   4.155   3.399   5.087  0.7128  1.0061 -0.1502
 8061SOL     OW35815   2.529   2.225   1.639 -0.3079  0.4121  0.1962
 8061SOL    HW135816   2.458   2.187   1.587  0.1226 -0.8689  0.5604
 8061SOL    HW235817   2.606   2.184   1.600  1.2874 -1.0482  4.9881
 8062SOL     OW35818   2.474   2.074  15.940 -0.2829 -0.8388 -0.4588
 8062SOL    HW135819   2.545   2.010  15.934  0.0389 -0.5218 -0.0729
 8062SOL    HW235820   2.467   2.097  15.847 -1.4489 -0.8364 -0.3726
 8063SOL     OW35821   3.594   3.802   9.579  0.0731  0.1008 -0.4578
 8063SOL    HW135822   3.509   3.831   9.544 -0.1143 -0.3727 -0.3921
 8063SOL    HW235823   3.573   3.735   9.643  0.2746  0.7781  0.3226
 8064SOL     OW35824   2.819   3.649   3.861 -0.3709 -0.8102  0.4518
 8064SOL    HW135825   2.805   3.743   3.856  0.5531 -0.6281  1.4962
 8064SOL    HW235826   2.786   3.618   3.776  1.9791 -0.4497 -0.5913
 8065SOL     OW35827   4.555   0.893   7.786 -0.2384  0.1511 -0.0650
 8065SOL    HW135828   4.599   0.812   7.762 -1.3922 -0.6406  0.4894
 8065SOL    HW235829   4.631   0.945   7.812  1.5579 -0.7840 -3.4328
 8066SOL     OW35830   0.428   0.778   3.628 -0.0130  0.0422 -0.1666
 8066SOL    HW135831   0.416   0.869   3.604  0.9263 -0.7092 -3.4100
 8066SOL    HW235832   0.522   0.765   3.618  0.1718  0.8854  0.4680
 8067SOL     OW35833   2.086   0.075   8.518  0.2021 -0.2883  0.3260
 8067SOL    HW135834   2.020   0.076   8.449  1.0890  0.8474 -0.4834
 8067SOL    HW235835   2.036   0.093   8.598  0.7494  1.6414  0.2269
 8068SOL     OW35836   4.149   3.005   2.736 -0.3631  0.2517  0.0818
 8068SOL    HW135837   4.093   2.945   2.687  0.8335 -1.1174  0.3942
 8068SOL    HW235838   4.172   3.079   2.680  0.9770  0.5262  0.9766
 8069SOL     OW35839   1.540   3.345   8.140 -0.1993  0.0419  0.3425
 8069SOL    HW135840   1.532   3.286   8.066 -4.3215 -1.2186  1.8204
 8069SOL    HW235841   1.453   3.383   8.129 -0.2184 -0.4755 -1.2498
 8070SOL     OW35842   2.028   4.653   5.092 -0.0998 -0.4172  0.4922
 8070SOL    HW135843   1.955   4.593   5.077 -0.3509 -0.0156  0.1174
 8070SOL    HW235844   2.089   4.620   5.026 -0.5438 -0.6858  0.2168
 8071SOL     OW35845   4.492   1.089   6.603 -0.1935  0.0565  0.1080
 8071SOL    HW135846   4.491   1.168   6.657  3.7113 -0.0071  0.2345
 8071SOL    HW235847   4.504   1.132   6.518  1.3692  1.4526  1.0423
 8072SOL     OW35848   0.329   0.270   5.152  0.2441 -0.2252  0.3139
 8072SOL    HW135849   0.317   0.217   5.074  1.8136  0.6034 -0.4841
 8072SOL    HW235850   0.296   0.356   5.125  0.1578 -0.8414 -1.5234
 8073SOL     OW35851   2.266   2.694  14.023 -0.4981 -0.0482 -0.4872
 8073SOL    HW135852   2.211   2.770  14.004 -1.4533 -0.2901  1.2711
 8073SOL    HW235853   2.231   2.635  13.957 -1.1983  0.9119 -0.9685
 8074SOL     OW35854   1.532   4.021   1.465 -0.3729 -0.8248  0.6159
 8074SOL    HW135855   1.605   3.965   1.438 -0.6253  0.2167 -2.2522
 8074SOL    HW235856   1.514   4.084   1.395  1.7279  0.9260  1.6417
 8075SOL     OW35857   3.767   0.424  12.656  0.2551  0.3343 -0.6353
 8075SOL    HW135858   3.688   0.370  12.654  0.6709 -0.3073  0.4815
 8075SOL    HW235859   3.773   0.449  12.748  1.2118 -0.8910 -0.3689
 8076SOL     OW35860   0.381   3.645   6.978  0.6709  0.3660 -0.4080
 8076SOL    HW135861   0.462   3.692   6.957  0.4838  0.3237 -1.2234
 8076SOL    HW235862   0.416   3.557   6.987  1.9152  1.1918  3.0673
 8077SOL     OW35863   2.039   2.567  17.350  0.5484 -0.7006 -0.2299
 8077SOL    HW135864   2.050   2.623  17.428  1.5541 -1.3135  0.0746
 8077SOL    HW235865   2.129   2.570  17.318  1.0846 -0.6824  1.2445
 8078SOL     OW35866   3.000   0.444  11.750  0.3784  0.0819 -0.1673
 8078SOL    HW135867   2.996   0.492  11.667  0.0081 -1.1051 -0.8435
 8078SOL    HW235868   3.005   0.518  11.810 -0.2036 -0.4495  0.5378
 8079SOL     OW35869   2.506   2.540   3.278  0.2260  0.0889 -0.5636
 8079SOL    HW135870   2.430   2.590   3.248  1.3883  2.1829 -0.0633
 8079SOL    HW235871   2.470   2.452   3.279  0.4048  0.0375  1.0728
 8080SOL     OW35872   4.243   0.045  13.790 -0.0710  0.6027  0.2628
 8080SOL    HW135873   4.329   0.004  13.804 -1.0847 -1.1585  1.3664
 8080SOL    HW235874   4.205   0.031  13.877 -1.4259 -3.3418 -0.9623
 8081SOL     OW35875   0.507   3.430   4.504  0.2319 -0.0407 -0.3432
 8081SOL    HW135876   0.430   3.422   4.559  1.7916 -0.9981  1.6899
 8081SOL    HW235877   0.490   3.383   4.422 -1.4854 -1.1907  0.6858
 8082SOL     OW35878   3.027   4.498   5.892 -0.0271 -0.2203  0.7248
 8082SOL    HW135879   2.970   4.470   5.820  2.1944 -2.3200 -0.2239
 8082SOL    HW235880   2.977   4.565   5.938  2.2420  0.9041  1.5783
 8083SOL     OW35881   2.805   2.494   5.252 -0.1026 -0.1687 -0.1343
 8083SOL    HW135882   2.802   2.412   5.301 -1.9073  0.9881  1.6653
 8083SOL    HW235883   2.739   2.479   5.185  2.5507 -0.1277 -2.7839
 8084SOL     OW35884   2.042   4.236   1.480  0.9900  0.4402 -0.0240
 8084SOL    HW135885   2.073   4.147   1.469  2.7252  1.2004 -1.3392
 8084SOL    HW235886   1.948   4.222   1.485  0.7007  2.8362  1.4892
 8085SOL     OW35887   3.157   4.653   2.575 -0.1760 -0.7100 -0.0051
 8085SOL    HW135888   3.118   4.567   2.558  1.6610 -1.2766 -1.2510
 8085SOL    HW235889   3.174   4.663   2.482  1.9093 -0.1553  0.4378
 8086SOL     OW35890   4.291   4.381   5.945  0.0048 -0.1947 -0.4885
 8086SOL    HW135891   4.213   4.406   5.897 -0.7081 -1.1439  0.1838
 8086SOL    HW235892   4.306   4.452   6.008  3.2530  0.3212 -1.8536
 8087SOL     OW35893   2.986   0.559   0.146  0.3314 -0.2300 -0.6155
 8087SOL    HW135894   3.023   0.473   0.128  1.3156 -0.1087  0.8205
 8087SOL    HW235895   3.059   0.598   0.195  0.4046  0.2651 -1.1171
 8088SOL     OW35896   3.793   4.480   1.800  0.2319  0.0753  0.1798
 8088SOL    HW135897   3.759   4.428   1.873  1.7076 -1.2760 -0.0870
 8088SOL    HW235898   3.875   4.520   1.830 -0.0872  0.0082  1.1534
 8089SOL     OW35899   1.846   0.641   1.254  0.1521  0.2108  0.0644
 8089SOL    HW135900   1.796   0.706   1.203 -0.1457 -0.9643 -1.1500
 8089SOL    HW235901   1.796   0.561   1.234 -1.7024  1.3988 -0.1199
 8090SOL     OW35902   4.444   1.952  12.056 -0.2224 -0.3857  0.4866
 8090SOL    HW135903   4.519   1.908  12.095  0.5154 -0.7862 -1.3569
 8090SOL    HW235904   4.430   1.890  11.984 -5.2657  2.3692 -0.9634
 8091SOL     OW35905   3.622   3.822   2.267  0.5855 -0.4945  0.5253
 8091SOL    HW135906   3.698   3.770   2.293  0.1794 -2.0727 -1.4147
 8091SOL    HW235907   3.652   3.860   2.184 -1.5532 -0.2427 -0.1301
 8092SOL     OW35908   3.261   2.963  16.892 -0.5929 -0.1047  0.1470
 8092SOL    HW135909   3.295   3.001  16.811 -0.5983  0.5333  0.4470
 8092SOL    HW235910   3.230   3.044  16.932  0.9989  0.5822 -0.0012
 8093SOL     OW35911   2.692   0.443  12.758 -0.2700 -0.3603 -0.0304
 8093SOL    HW135912   2.685   0.347  12.754  2.4808 -0.5778 -0.0991
 8093SOL    HW235913   2.784   0.463  12.739 -0.8033  2.6087  0.5170
 8094SOL     OW35914   0.686   0.211   6.011  0.1619  0.4956  0.2567
 8094SOL    HW135915   0.630   0.138   6.035 -0.0600  0.6971  0.3534
 8094SOL    HW235916   0.752   0.206   6.081  2.1776  0.1671 -1.6577
 8095SOL     OW35917   1.709   0.778  11.739  0.5545 -0.0714 -0.3475
 8095SOL    HW135918   1.797   0.783  11.703  0.4083 -1.1456 -0.8429
 8095SOL    HW235919   1.700   0.683  11.744  2.7712 -0.1984  1.0551
 8096SOL     OW35920   3.941   2.004  10.878 -0.8151 -0.4637  0.6607
 8096SOL    HW135921   4.017   1.979  10.826 -1.2993 -0.3215 -0.1235
 8096SOL    HW235922   3.869   1.996  10.815  2.2507  0.3305 -2.9824
 8097SOL     OW35923   0.630   3.169   9.311 -0.4190 -0.4155  0.1765
 8097SOL    HW135924   0.573   3.233   9.268  1.9160  1.5016 -0.1475
 8097SOL    HW235925   0.716   3.207   9.290 -1.1914  1.7736  1.0234
 8098SOL     OW35926   2.198   3.160  11.241 -0.6572 -0.5328 -0.5366
 8098SOL    HW135927   2.104   3.168  11.259 -0.6489 -1.0116 -0.2950
 8098SOL    HW235928   2.243   3.119  11.315  0.4433  1.7949  0.1122
 8099SOL     OW35929   3.321   0.935   2.362  0.2949 -0.2925 -0.6759
 8099SOL    HW135930   3.399   0.881   2.374  1.9629  1.6665 -2.6268
 8099SOL    HW235931   3.294   0.899   2.278 -1.7740 -2.5053  0.9208
 8100SOL     OW35932   4.197   3.258  14.703 -0.2320  0.1079 -0.1970
 8100SOL    HW135933   4.204   3.209  14.621  0.7881 -0.1054  0.0157
 8100SOL    HW235934   4.244   3.338  14.678 -1.2774  0.6939 -0.2791
 8101SOL     OW35935   1.326   4.230   5.597  0.1674  0.2189  0.2924
 8101SOL    HW135936   1.283   4.277   5.669  2.0741  2.8247 -0.2685
 8101SOL    HW235937   1.269   4.245   5.522 -1.1392  2.0607  1.6388
 8102SOL     OW35938   2.697   1.035  15.590  0.6165 -0.1982 -0.4164
 8102SOL    HW135939   2.730   0.962  15.537 -0.2280  1.5075 -3.2558
 8102SOL    HW235940   2.776   1.069  15.633 -1.4323  0.8696  2.4634
 8103SOL     OW35941   0.164   1.444  11.102 -0.5266 -0.2517  0.1771
 8103SOL    HW135942   0.164   1.470  11.194  1.0913  0.4081 -0.0150
 8103SOL    HW235943   0.135   1.354  11.114  0.9404 -0.8417 -0.7065
 8104SOL     OW35944   0.314   1.841  17.185  1.2852  0.3155  0.2110
 8104SOL    HW135945   0.331   1.814  17.275  1.3793 -1.4173 -0.3264
 8104SOL    HW235946   0.313   1.936  17.197  0.1490  0.1150  1.6482
 8105SOL     OW35947   1.209   3.868   7.224 -0.5848 -0.3323  0.7994
 8105SOL    HW135948   1.250   3.782   7.231 -0.7571 -0.2299  3.1210
 8105SOL    HW235949   1.222   3.905   7.312  0.0838  3.5081 -0.9046
 8106SOL     OW35950   3.821   2.050   6.069  0.3691 -0.0788  0.3293
 8106SOL    HW135951   3.760   2.123   6.081  0.4443  0.1120 -0.4706
 8106SOL    HW235952   3.896   2.093   6.028  0.3580 -0.7400 -0.3806
 8107SOL     OW35953   4.644   1.206   5.417 -0.3808 -0.1187  0.8803
 8107SOL    HW135954   4.664   1.277   5.477  1.4391 -0.2648  0.4557
 8107SOL    HW235955   4.726   1.212   5.367 -1.1930 -0.9550 -0.5361
 8108SOL     OW35956   1.330   4.592   4.867  0.5847 -0.9318  0.0968
 8108SOL    HW135957   1.316   4.499   4.849  1.9433 -0.5726 -2.8707
 8108SOL    HW235958   1.351   4.619   4.777 -0.2007  0.7456  0.4210
 8109SOL     OW35959   3.927   1.233   3.087 -0.0189 -0.3523  0.3054
 8109SOL    HW135960   3.838   1.243   3.053  0.7661  2.5762 -0.9095
 8109SOL    HW235961   3.907   1.219   3.179  0.2751 -2.3393  0.0675
 8110SOL     OW35962   3.553   3.034   8.353 -0.3744  0.1852 -0.2495
 8110SOL    HW135963   3.529   2.945   8.327  1.1297  0.2131 -1.6873
 8110SOL    HW235964   3.494   3.084   8.297 -0.0505  1.3974  0.4791
 8111SOL     OW35965   2.191   3.667   7.222 -0.1657 -0.2389  0.3426
 8111SOL    HW135966   2.182   3.711   7.138 -3.4526 -0.7719  0.4027
 8111SOL    HW235967   2.195   3.749   7.272 -1.9566 -0.7467  1.3201
 8112SOL     OW35968   2.210   1.584   0.291  0.5638 -0.0583 -0.1202
 8112SOL    HW135969   2.221   1.490   0.275 -0.5466 -0.3457  0.8981
 8112SOL    HW235970   2.119   1.596   0.265  0.7476  1.2306 -0.1465
 8113SOL     OW35971   1.978   1.855   8.452  0.0355  0.2898 -0.2615
 8113SOL    HW135972   1.976   1.808   8.369 -1.1711 -0.5961  0.2592
 8113SOL    HW235973   1.890   1.894   8.458 -0.2313 -0.3343  0.0074
 8114SOL     OW35974   2.486   2.212   7.022  0.2723  0.5491 -0.1591
 8114SOL    HW135975   2.413   2.257   6.979 -1.5212 -1.9690  0.2822
 8114SOL    HW235976   2.496   2.267   7.100  2.0150  2.5554 -1.7867
 8115SOL     OW35977   4.031   2.314   4.120 -0.0882  0.4541 -0.0145
 8115SOL    HW135978   3.979   2.234   4.121  1.1488 -0.3504 -0.6374
 8115SOL    HW235979   4.034   2.340   4.212  1.6511 -2.8408  0.8578
 8116SOL     OW35980   2.797   2.261  14.531  0.3644  0.1421 -0.0724
 8116SOL    HW135981   2.891   2.245  14.531  0.6522  1.8208 -2.4925
 8116SOL    HW235982   2.791   2.347  14.574  0.8420 -0.6023  1.4931
 8117SOL     OW35983   3.970   1.094   2.548  0.0309 -0.5347 -0.1893
 8117SOL    HW135984   3.969   1.069   2.640 -0.9665 -0.4331 -0.1715
 8117SOL    HW235985   4.063   1.110   2.534  0.0256  1.0190  1.6227
 8118SOL     OW35986   4.266   3.605   9.108  0.6560  0.3063 -0.1705
 8118SOL    HW135987   4.316   3.656   9.171 -1.6086  1.4808  0.6882
 8118SOL    HW235988   4.264   3.660   9.030  0.0493  1.5832  0.7431
 8119SOL     OW35989   0.033   1.751   3.333 -0.1767 -0.2018 -0.8999
 8119SOL    HW135990   0.068   1.763   3.421 -0.1758 -1.0977 -0.7750
 8119SOL    HW235991   0.002   1.837   3.306 -1.2991 -0.8146 -1.5511
 8120SOL     OW35992   2.049   4.242  12.520  0.4815 -0.1194 -0.6223
 8120SOL    HW135993   2.083   4.174  12.578  1.1797  2.6875  2.2986
 8120SOL    HW235994   2.105   4.234  12.443 -1.0184 -0.7512 -1.6393
 8121SOL     OW35995   0.575   1.917   7.411 -0.0482 -0.1935 -0.4589
 8121SOL    HW135996   0.536   1.882   7.491  1.3755  3.3955  1.8329
 8121SOL    HW235997   0.602   1.843   7.357 -0.1969  0.0177 -0.8268
 8122SOL     OW35998   4.383   4.573   3.438 -0.2578 -0.1385 -0.2528
 8122SOL    HW135999   4.353   4.537   3.354  2.1887 -1.0051 -0.7571
 8122SOL    HW236000   4.318   4.641   3.456  0.6862  0.4728  0.8048
 8123SOL     OW36001   3.376   1.283  15.702 -0.3986 -0.0746  0.0923
 8123SOL    HW136002   3.438   1.323  15.763 -0.3852  1.0983 -0.6864
 8123SOL    HW236003   3.384   1.190  15.725 -0.7129 -0.0395  0.3299
 8124SOL     OW36004   4.484   4.104   9.678 -0.5919  0.0774  0.6564
 8124SOL    HW136005   4.419   4.115   9.608 -1.5940 -0.0569  1.5526
 8124SOL    HW236006   4.491   4.185   9.729  0.0783 -0.4867  1.4619
 8125SOL     OW36007   2.525   1.484   2.324  0.4630  0.4820 -0.3302
 8125SOL    HW136008   2.453   1.518   2.378  1.0747  0.8564  0.2477
 8125SOL    HW236009   2.562   1.571   2.310  0.7881 -0.1242 -3.1502
 8126SOL     OW36010   3.686   0.983   6.291  0.0018  0.4814  0.5643
 8126SOL    HW136011   3.681   1.036   6.211  0.0167 -1.0238 -0.4282
 8126SOL    HW236012   3.742   1.038   6.346  2.4305 -0.4494 -0.9802
 8127SOL     OW36013   2.249   0.575   5.624  0.2819  0.5664  0.4765
 8127SOL    HW136014   2.227   0.524   5.546  1.5468  0.8231 -0.0464
 8127SOL    HW236015   2.272   0.653   5.575 -2.2866  1.3447  0.4808
 8128SOL     OW36016   2.485   3.217   7.741 -0.6958  0.0573 -0.5296
 8128SOL    HW136017   2.475   3.246   7.650 -0.6926 -0.3267 -0.6545
 8128SOL    HW236018   2.532   3.134   7.733  0.1052  0.5746 -1.1740
 8129SOL     OW36019   1.825   3.072   7.641 -0.4804  0.2333  0.3399
 8129SOL    HW136020   1.887   3.134   7.678 -0.9123 -0.0764  1.5756
 8129SOL    HW236021   1.812   3.006   7.709 -1.5911 -0.3509 -0.4373
 8130SOL     OW36022   1.281   3.318   8.320 -0.3488  0.2539  0.0347
 8130SOL    HW136023   1.235   3.257   8.262  2.4940 -3.2091  1.3874
 8130SOL    HW236024   1.202   3.360   8.353  0.7466  1.9220  0.5163
 8131SOL     OW36025   4.679   3.272   8.432  0.2963 -0.0479 -0.2649
 8131SOL    HW136026   4.594   3.229   8.423  1.0056 -1.2724 -1.0906
 8131SOL    HW236027   4.709   3.250   8.520  0.0325 -2.2997 -0.7323
 8132SOL     OW36028   2.204   3.088  14.949  0.1959 -0.4325 -0.2905
 8132SOL    HW136029   2.230   3.177  14.973  0.8583 -0.0413 -2.4901
 8132SOL    HW236030   2.150   3.110  14.873  0.2270 -0.9529 -0.4657
 8133SOL     OW36031   2.868   1.491   2.295 -0.3427  0.2688 -0.0816
 8133SOL    HW136032   2.793   1.549   2.314  0.6600  1.4242  0.3909
 8133SOL    HW236033   2.882   1.514   2.203 -1.1929  0.6820 -0.1177
 8134SOL     OW36034   1.791   0.744   3.964 -0.2033  0.5156  1.0061
 8134SOL    HW136035   1.859   0.679   3.980 -0.1618  0.4895  0.7110
 8134SOL    HW236036   1.722   0.687   3.931 -0.9509  1.6957  0.5120
 8135SOL     OW36037   4.171   0.884  10.955 -0.3848 -0.2188 -0.7372
 8135SOL    HW136038   4.200   0.960  10.904 -0.5592  0.9001  0.8307
 8135SOL    HW236039   4.092   0.865  10.904 -1.3407  2.4231 -0.2288
 8136SOL     OW36040   3.340   0.026   9.422  0.0791 -0.2866 -0.7941
 8136SOL    HW136041   3.287   0.105   9.425  1.8199  0.8267  0.5462
 8136SOL    HW236042   3.427   0.054   9.450 -0.3332 -0.8504  1.0568
 8137SOL     OW36043   2.182   0.106   4.831 -0.0584 -0.5448 -0.1827
 8137SOL    HW136044   2.099   0.082   4.790 -1.4158  1.5193  1.3534
 8137SOL    HW236045   2.185   0.032   4.893  1.1042 -0.1269  0.2644
 8138SOL     OW36046   0.801   2.214   4.497  0.4848 -0.4873  0.7116
 8138SOL    HW136047   0.849   2.297   4.492 -0.2406 -0.1134  0.0561
 8138SOL    HW236048   0.727   2.231   4.439  1.4121  0.7831 -0.1014
 8139SOL     OW36049   3.328   1.689   6.929 -0.2456  0.2688 -0.5539
 8139SOL    HW136050   3.310   1.779   6.904  1.8204  1.0913  0.9097
 8139SOL    HW236051   3.270   1.679   7.005  0.0398 -0.4963 -0.4369
 8140SOL     OW36052   4.157   1.749   4.435 -0.3255 -0.0944  0.7056
 8140SOL    HW136053   4.090   1.719   4.373  0.7776  1.0840 -1.0576
 8140SOL    HW236054   4.227   1.690   4.408 -0.1795  1.0088 -1.3445
 8141SOL     OW36055   0.567   3.919  17.045  0.5074 -0.0065  0.5999
 8141SOL    HW136056   0.621   3.891  16.971 -1.4745 -2.8143  0.2324
 8141SOL    HW236057   0.604   3.865  17.115  1.0438  1.5998  1.5785
 8142SOL     OW36058   4.433   4.302   4.627  0.4777 -0.0473  0.4425
 8142SOL    HW136059   4.454   4.333   4.539  0.1147  0.2701  0.4684
 8142SOL    HW236060   4.504   4.238   4.633  0.7108  0.4122  2.6569
 8143SOL     OW36061   3.900   1.436   0.441  0.2343  0.1083  0.0928
 8143SOL    HW136062   3.978   1.449   0.495 -0.4588  0.3584  1.0281
 8143SOL    HW236063   3.902   1.513   0.384  2.4239 -0.8627 -1.1444
 8144SOL     OW36064   1.808   2.086   0.234  0.0830 -0.2408  0.6236
 8144SOL    HW136065   1.756   2.108   0.311  1.7966  2.5668  0.9733
 8144SOL    HW236066   1.757   2.127   0.164  0.5716  0.2514  0.5644
 8145SOL     OW36067   2.956   3.606   5.847 -0.4620  0.2745  0.0051
 8145SOL    HW136068   3.040   3.648   5.833  0.5481 -1.8933 -0.4210
 8145SOL    HW236069   2.943   3.557   5.765  1.7026 -0.3462  0.0354
 8146SOL     OW36070   4.563   0.774  17.633  0.1672 -0.1981  0.0463
 8146SOL    HW136071   4.514   0.809  17.707  1.0129 -0.8290  0.9061
 8146SOL    HW236072   4.552   0.850  17.576  0.1498 -0.9070 -0.9085
 8147SOL     OW36073   2.118   2.862   1.434 -0.3302 -0.0660 -0.1740
 8147SOL    HW136074   2.140   2.779   1.476  1.8487  0.6565  0.1271
 8147SOL    HW236075   2.039   2.843   1.385 -1.3988 -1.4956  2.0954
 8148SOL     OW36076   0.966   3.306  12.686 -0.6638 -0.3830 -0.2257
 8148SOL    HW136077   1.001   3.323  12.773  0.0399  0.6099 -0.7017
 8148SOL    HW236078   0.880   3.271  12.706 -1.0743 -0.5982 -2.4078
 8149SOL     OW36079   4.011   4.686   4.859  0.7628  0.1234 -0.2257
 8149SOL    HW136080   3.956   0.025   4.871  0.9448  0.3025 -0.5579
 8149SOL    HW236081   4.064   4.726   4.791  0.3322 -1.4507 -1.4887
 8150SOL     OW36082   2.423   1.912   4.001 -0.0856  0.1684 -0.3331
 8150SOL    HW136083   2.452   1.821   3.997  0.5315  0.3943 -1.0520
 8150SOL    HW236084   2.444   1.938   3.912 -0.0897 -1.5843 -0.8480
 8151SOL     OW36085   3.780   1.755   3.386  0.7237  0.0894  0.2553
 8151SOL    HW136086   3.716   1.740   3.456  1.8672 -0.6870  1.1144
 8151SOL    HW236087   3.865   1.755   3.429  0.6132 -1.7801  0.4668
 8152SOL     OW36088   3.876   0.405  15.413 -0.5457  0.1932  0.5841
 8152SOL    HW136089   3.808   0.453  15.459 -1.1316 -0.5447  0.4930
 8152SOL    HW236090   3.860   0.413  15.319 -1.6411  1.4600  0.8814
 8153SOL     OW36091   3.433   2.757   5.825  0.3636 -0.4921  0.7385
 8153SOL    HW136092   3.367   2.693   5.799 -0.8329  1.1148 -0.1770
 8153SOL    HW236093   3.479   2.748   5.742 -1.9756  1.3099 -0.7504
 8154SOL     OW36094   3.497   3.179  13.188 -0.2642  0.7399  0.1135
 8154SOL    HW136095   3.519   3.173  13.095  0.7877 -0.0719  0.4129
 8154SOL    HW236096   3.567   3.231  13.229 -1.4165  0.9396  1.8329
 8155SOL     OW36097   3.450   3.494   8.686  0.3273  0.0807  0.1074
 8155SOL    HW136098   3.401   3.521   8.764  0.6632  1.1746 -0.0603
 8155SOL    HW236099   3.505   3.572   8.679  0.4330 -0.1293 -1.3786
 8156SOL     OW36100   0.906   0.836   5.871  0.0140 -0.2361  0.4819
 8156SOL    HW136101   0.862   0.806   5.950  0.8077 -0.8738  0.6861
 8156SOL    HW236102   0.904   0.932   5.871  0.7672 -0.2234  0.2568
 8157SOL     OW36103   1.035   4.416   9.855  0.1374 -0.4524 -0.1825
 8157SOL    HW136104   1.037   4.510   9.873  1.4214 -0.3509 -0.8303
 8157SOL    HW236105   1.116   4.405   9.806 -0.8307  2.0579 -2.3705
 8158SOL     OW36106   4.104   1.856   2.197 -0.1887 -0.3619  0.2749
 8158SOL    HW136107   4.152   1.890   2.121  0.0499 -0.6258  0.3055
 8158SOL    HW236108   4.096   1.939   2.244  1.1520 -1.0000  1.6257
 8159SOL     OW36109   2.961   1.561   2.056  0.1486 -0.4499  0.0403
 8159SOL    HW136110   2.906   1.614   1.999 -1.1276 -2.1421 -0.2988
 8159SOL    HW236111   2.981   1.486   1.999  1.2051 -1.7033  2.0750
 8160SOL     OW36112   3.043   2.036   2.247  0.0584 -0.1290  0.0732
 8160SOL    HW136113   2.950   2.044   2.227  0.0863 -1.1265 -0.4319
 8160SOL    HW236114   3.060   1.944   2.269 -0.0883 -0.4471 -1.1716
 8161SOL     OW36115   1.218   2.414   5.590  1.0580 -0.3910 -0.4037
 8161SOL    HW136116   1.184   2.502   5.573 -0.4650 -0.9207 -0.1597
 8161SOL    HW236117   1.219   2.375   5.503  0.4485 -1.4838  0.0729
 8162SOL     OW36118   3.654   1.408   4.470  0.0392 -0.3641 -0.2269
 8162SOL    HW136119   3.567   1.427   4.436 -0.3855  0.0477  1.0579
 8162SOL    HW236120   3.627   1.342   4.534  1.3161 -0.8401 -0.1730
 8163SOL     OW36121   4.094   4.550   3.828  0.0711 -0.1553 -0.0361
 8163SOL    HW136122   4.025   4.615   3.842  1.3926  1.4299 -0.8548
 8163SOL    HW236123   4.163   4.604   3.790 -1.9807  1.9674 -0.8011
 8164SOL     OW36124   3.900   4.228   5.924  0.3002  0.3581 -0.7054
 8164SOL    HW136125   3.962   4.301   5.915 -0.8454  0.9619 -3.6093
 8164SOL    HW236126   3.914   4.209   6.017  1.2899 -0.6746 -1.0540
 8165SOL     OW36127   1.462   1.162   7.058 -0.2443 -0.0404  0.5282
 8165SOL    HW136128   1.509   1.183   6.978 -1.3839 -0.0615 -0.1465
 8165SOL    HW236129   1.534   1.149   7.120 -0.1079  0.9799  0.5811
 8166SOL     OW36130   0.437   0.006   6.569  0.1239  0.2855 -0.0394
 8166SOL    HW136131   0.416   0.022   6.661 -0.3861  3.2418 -0.6501
 8166SOL    HW236132   0.479   4.658   6.567  1.7897  1.1069 -0.4460
 8167SOL     OW36133   4.263   1.557   9.365 -0.0685  0.2484 -0.4184
 8167SOL    HW136134   4.188   1.504   9.395 -0.8663  0.6719 -1.6335
 8167SOL    HW236135   4.217   1.632   9.328  1.0011 -0.8029 -3.9132
 8168SOL     OW36136   3.201   4.021  13.011  0.4186  0.1192  0.4128
 8168SOL    HW136137   3.200   4.096  12.952 -1.5168 -0.3619 -0.1434
 8168SOL    HW236138   3.289   3.988  12.993 -0.0155 -0.8293  0.0692
 8169SOL     OW36139   4.540   2.014  16.280 -0.8937 -0.3575  0.1915
 8169SOL    HW136140   4.619   1.961  16.276 -0.6842 -0.1655  1.8461
 8169SOL    HW236141   4.567   2.105  16.264 -3.3380 -0.2259 -3.2307
 8170SOL     OW36142   2.987   4.619   8.583 -0.0847  0.2596 -0.2586
 8170SOL    HW136143   2.955   4.709   8.574 -1.5434 -0.0220  2.1333
 8170SOL    HW236144   3.081   4.632   8.598 -0.4386  1.1612  1.1821
 8171SOL     OW36145   3.132   2.234   6.813 -0.0470 -0.4887 -0.2354
 8171SOL    HW136146   3.199   2.168   6.829 -0.5789 -1.0502 -0.3371
 8171SOL    HW236147   3.183   2.308   6.847 -2.5821  1.5765 -0.9194
 8172SOL     OW36148   2.682   1.974   6.337  0.1163 -0.2075 -0.3770
 8172SOL    HW136149   2.694   2.045   6.275 -1.6603  1.5036  1.2375
 8172SOL    HW236150   2.737   1.904   6.302 -2.3493 -1.6943 -1.2888
 8173SOL     OW36151   4.669   3.141  14.037 -0.2743 -0.5468 -0.5078
 8173SOL    HW136152   4.663   3.216  13.977  0.6824 -0.2015 -0.1799
 8173SOL    HW236153   4.713   3.073  13.986  1.0681  0.0395 -0.1405
 8174SOL     OW36154   0.758   0.776   3.127  0.3082 -0.1171 -0.0821
 8174SOL    HW136155   0.776   0.701   3.070  2.2279  1.0417 -0.9918
 8174SOL    HW236156   0.822   0.830   3.080  0.9803  0.6880  1.7519
 8175SOL     OW36157   2.815   3.595   3.174  0.0797  0.1574 -0.0062
 8175SOL    HW136158   2.814   3.511   3.128  2.0733  0.7529 -1.1506
 8175SOL    HW236159   2.908   3.603   3.194 -0.1118  0.0661  0.9313
 8176SOL     OW36160   2.752   0.820   6.878  0.1086  0.1208 -0.0160
 8176SOL    HW136161   2.826   0.758   6.881 -0.6638 -0.8549 -1.1769
 8176SOL    HW236162   2.779   0.902   6.839 -1.1016  0.2281 -0.6223
 8177SOL     OW36163   3.753   0.133   7.546  0.3237 -0.1395  0.4191
 8177SOL    HW136164   3.712   0.185   7.615 -1.0069 -0.1359 -0.3774
 8177SOL    HW236165   3.729   0.182   7.467 -2.8070 -1.5672  0.5013
 8178SOL     OW36166   0.126   3.371   8.246  0.3181 -0.6364  0.1498
 8178SOL    HW136167   0.046   3.359   8.296  0.8890  2.7245  1.8551
 8178SOL    HW236168   0.194   3.407   8.303  0.1558  0.0650 -0.1061
 8179SOL     OW36169   3.056   3.088   2.147 -0.1515 -0.3653  0.1394
 8179SOL    HW136170   3.095   3.007   2.114 -0.0588 -0.1133 -0.3831
 8179SOL    HW236171   3.081   3.153   2.080 -0.3803 -0.9442 -0.5058
 8180SOL     OW36172   0.130   3.321   7.215 -0.1475 -0.3745  0.8744
 8180SOL    HW136173   0.214   3.366   7.225 -0.5133 -0.0452  2.3532
 8180SOL    HW236174   0.071   3.395   7.211 -0.7484 -0.8378  1.1880
 8181SOL     OW36175   0.083   0.867   7.178  0.4970 -0.0798 -0.0105
 8181SOL    HW136176   0.097   0.839   7.088  1.6792  1.7928 -0.4083
 8181SOL    HW236177   0.077   0.962   7.175  0.1917 -0.1022 -0.0661
 8182SOL     OW36178   1.958   1.528   8.516  0.3590  0.3066 -0.0739
 8182SOL    HW136179   1.958   1.624   8.517 -0.3548  0.3199 -1.0312
 8182SOL    HW236180   2.054   1.522   8.524  0.2693  1.0872  1.5710
 8183SOL     OW36181   1.322   4.708   3.147  0.2463 -0.1882  0.3975
 8183SOL    HW136182   1.347   4.642   3.082  0.3981 -1.7136  1.9872
 8183SOL    HW236183   1.399   0.027   3.156  0.2769  0.0124 -1.2395
 8184SOL     OW36184   3.021   2.138   9.625  0.0253  0.2882  0.4402
 8184SOL    HW136185   3.085   2.154   9.557 -1.6222  0.7261 -0.9979
 8184SOL    HW236186   3.045   2.198   9.696  0.7560  0.8400 -0.2754
 8185SOL     OW36187   4.319   4.728   0.978 -0.4734 -0.6284  0.2998
 8185SOL    HW136188   4.338   4.640   0.945 -0.0434 -0.8863  1.2251
 8185SOL    HW236189   4.300   4.708   1.070  0.4031  2.0397  1.0562
 8186SOL     OW36190   3.418   0.489  11.719 -0.0901  0.5378  0.6047
 8186SOL    HW136191   3.474   0.443  11.656 -0.8972  0.3446  0.0401
 8186SOL    HW236192   3.336   0.459  11.680  0.1386 -0.6236  1.0020
 8187SOL     OW36193   0.277   3.515   9.343  0.0777 -0.0811  0.3983
 8187SOL    HW136194   0.351   3.510   9.404  0.3143  2.2701  0.3101
 8187SOL    HW236195   0.210   3.545   9.404 -0.1666  0.1904 -0.0057
 8188SOL     OW36196   4.568   3.360   5.340  0.1313  0.1176 -0.2699
 8188SOL    HW136197   4.594   3.449   5.363  3.9601 -1.1779  0.3840
 8188SOL    HW236198   4.474   3.366   5.324  0.0001  2.6911  1.3652
 8189SOL     OW36199   3.362   3.321   2.506 -0.1289  0.2220 -0.2321
 8189SOL    HW136200   3.384   3.415   2.503 -3.5498  1.0691  0.8013
 8189SOL    HW236201   3.363   3.310   2.411  1.3232 -0.6213 -0.1085
 8190SOL     OW36202   3.059   1.021  11.767 -0.5299 -0.0083 -0.0496
 8190SOL    HW136203   3.041   1.112  11.789 -0.0024 -0.1411  0.9378
 8190SOL    HW236204   3.148   1.023  11.731 -0.0023 -0.5645  1.2451
 8191SOL     OW36205   1.342   3.346  14.937  0.5785 -0.2121  0.3041
 8191SOL    HW136206   1.370   3.335  14.846 -1.1659  0.0632 -0.2842
 8191SOL    HW236207   1.380   3.432  14.955 -0.5392  0.4696 -0.5389
 8192SOL     OW36208   1.640   1.120   8.050  0.1328 -0.2937 -0.1651
 8192SOL    HW136209   1.715   1.117   8.110  1.8555  0.9958 -2.2291
 8192SOL    HW236210   1.572   1.095   8.112 -0.7802 -1.8372 -1.7674
 8193SOL     OW36211   1.972   3.432  17.075 -0.3169  0.5415 -0.4052
 8193SOL    HW136212   1.913   3.360  17.097 -3.1276  3.2109  0.7790
 8193SOL    HW236213   2.048   3.430  17.132 -2.2925  0.5119  2.2047
 8194SOL     OW36214   0.602   0.042  17.429 -0.4137 -0.0270  0.0623
 8194SOL    HW136215   0.673   0.058  17.491  0.6143  0.7520 -1.3217
 8194SOL    HW236216   0.592   0.126  17.384 -1.9207 -1.4150 -2.1991
 8195SOL     OW36217   0.035   3.158   4.707 -0.2666 -0.6476  0.5623
 8195SOL    HW136218   0.014   3.143   4.615  1.5486  0.1579  0.0095
 8195SOL    HW236219   0.067   3.073   4.736  0.6335  0.2640  2.2091
 8196SOL     OW36220   1.248   0.742   3.630  0.1765 -0.5523 -0.3974
 8196SOL    HW136221   1.268   0.834   3.647 -0.0241 -0.2868 -1.6164
 8196SOL    HW236222   1.225   0.705   3.716  0.4827 -0.2084 -0.1675
 8197SOL     OW36223   2.912   3.549   0.484  0.0113 -0.0578 -0.2754
 8197SOL    HW136224   2.990   3.541   0.537  0.4469  0.0246 -0.9021
 8197SOL    HW236225   2.890   3.640   0.505 -1.3618  0.0844 -2.2946
 8198SOL     OW36226   2.162   3.749   3.284 -0.1572 -0.3291  0.0988
 8198SOL    HW136227   2.118   3.819   3.331  0.0404 -1.1381  1.5143
 8198SOL    HW236228   2.100   3.676   3.277  1.2696 -1.7991  2.7318
 8199SOL     OW36229   0.988   4.403   5.571 -0.5628  0.2862  0.5283
 8199SOL    HW136230   1.030   4.371   5.491  1.9539 -0.0785  1.9811
 8199SOL    HW236231   1.016   4.492   5.551  1.2242 -0.4515 -0.3037
 8200SOL     OW36232   1.324   1.976   5.760  0.2096  0.6010 -0.8421
 8200SOL    HW136233   1.230   1.969   5.745  0.4390 -0.5829 -1.7414
 8200SOL    HW236234   1.320   2.016   5.847 -2.2141  0.7225 -1.0229
 8201SOL     OW36235   4.197   4.374   8.471  0.4831  0.0792  0.2640
 8201SOL    HW136236   4.113   4.386   8.428 -0.4183  1.1506  2.3417
 8201SOL    HW236237   4.201   4.460   8.513 -1.4399  0.2913  0.0123
 8202SOL     OW36238   2.630   2.588   2.975 -0.3891 -0.1397  0.2438
 8202SOL    HW136239   2.553   2.569   2.921  1.1568 -4.1081 -0.5959
 8202SOL    HW236240   2.690   2.627   2.912 -0.3546  1.4932  1.2814
 8203SOL     OW36241   1.534   4.197  10.839  0.0984  0.0931 -0.1466
 8203SOL    HW136242   1.583   4.176  10.918 -0.4239  0.7294  0.3402
 8203SOL    HW236243   1.582   4.279  10.826  1.4359 -0.8241 -1.0656
 8204SOL     OW36244   1.618   4.690  11.284 -0.1265  0.1918 -0.0415
 8204SOL    HW136245   1.547   4.656  11.338 -0.4397  0.9394  0.0218
 8204SOL    HW236246   1.587   0.043  11.276 -3.5555 -1.2244 -2.5330
 8205SOL     OW36247   1.785   3.201   5.027 -0.2351 -0.1972 -0.2285
 8205SOL    HW136248   1.816   3.288   5.053 -0.7864  0.0829 -0.5250
 8205SOL    HW236249   1.848   3.185   4.956  1.3165  0.3722  1.0109
 8206SOL     OW36250   4.175   0.395   4.092  0.7364 -0.1942  0.0982
 8206SOL    HW136251   4.083   0.404   4.117  1.0668 -0.0879  1.3175
 8206SOL    HW236252   4.171   0.323   4.028 -0.6992  0.5201 -0.6089
 8207SOL     OW36253   1.925   3.076   0.233  0.6945 -0.2764 -0.2030
 8207SOL    HW136254   2.004   3.029   0.260  2.3163  1.2629 -2.3141
 8207SOL    HW236255   1.851   3.017   0.241  0.5703 -0.0724  0.1489
 8208SOL     OW36256   3.597   1.175   6.935  0.8672 -0.5981  0.6656
 8208SOL    HW136257   3.669   1.186   6.873 -0.5932  1.4868 -0.6450
 8208SOL    HW236258   3.607   1.081   6.951 -0.5589 -0.7424  0.6768
 8209SOL     OW36259   0.995   0.987   5.339 -0.1862 -0.2638 -0.0560
 8209SOL    HW136260   1.058   1.013   5.406 -0.6671 -0.0486  0.3214
 8209SOL    HW236261   1.044   0.999   5.258 -1.5854  2.1489 -0.5537
 8210SOL     OW36262   1.973   0.348  10.605  0.2195  0.5505 -0.2170
 8210SOL    HW136263   1.915   0.423  10.611 -0.1563  0.1771  0.9486
 8210SOL    HW236264   2.010   0.356  10.693  3.0903 -0.6002 -1.3269
 8211SOL     OW36265   3.202   2.933   9.339 -0.2588  0.1199  0.1310
 8211SOL    HW136266   3.210   2.960   9.248 -0.5131  0.0353  0.0824
 8211SOL    HW236267   3.295   2.917   9.357  0.3022  2.8996 -0.3885
 8212SOL     OW36268   4.190   2.159   4.407  0.0984  0.2232 -0.2338
 8212SOL    HW136269   4.151   2.111   4.334  1.6810 -0.2227 -0.7759
 8212SOL    HW236270   4.253   2.218   4.365  0.3317  1.7804  2.2794
 8213SOL     OW36271   1.428   2.565  16.519 -0.4204 -0.4892  0.0018
 8213SOL    HW136272   1.343   2.528  16.544  0.2808 -2.2897 -0.2983
 8213SOL    HW236273   1.460   2.482  16.484  0.2138 -0.1169 -0.2971
 8214SOL     OW36274   2.472   1.059   0.064 -0.2170  0.0473  0.7830
 8214SOL    HW136275   2.462   1.001   0.140 -2.2921 -1.2794 -0.5106
 8214SOL    HW236276   2.496   1.145   0.099  0.1056  0.4220 -0.3608
 8215SOL     OW36277   2.099   3.740   7.974 -0.3502 -0.0486 -0.5235
 8215SOL    HW136278   2.038   3.780   8.036 -1.0057 -0.6337 -0.7879
 8215SOL    HW236279   2.046   3.674   7.929  0.2652 -1.6882  1.1272
 8216SOL     OW36280   1.683   4.373   3.989  0.2525  0.3587 -0.0832
 8216SOL    HW136281   1.656   4.411   4.073  2.0094  0.0327  0.6346
 8216SOL    HW236282   1.773   4.346   4.006 -0.5752 -1.7583  0.9531
 8217SOL     OW36283   0.911   2.476   6.363 -0.3997  0.3864 -0.6846
 8217SOL    HW136284   0.890   2.393   6.319 -0.3313  0.3251 -0.6035
 8217SOL    HW236285   0.918   2.441   6.452  2.8633 -0.4260 -1.2334
 8218SOL     OW36286   1.833   1.691   8.792  0.6177  0.7084  0.2447
 8218SOL    HW136287   1.865   1.779   8.771  0.7853  0.3469 -1.0207
 8218SOL    HW236288   1.908   1.641   8.761  1.4841  2.3168 -0.2901
 8219SOL     OW36289   3.077   2.314  16.937 -0.4332 -0.0542 -0.0966
 8219SOL    HW136290   2.999   2.281  16.893  0.4261 -0.1240 -1.5587
 8219SOL    HW236291   3.056   2.393  16.986  1.3435  0.1772  0.3050
 8220SOL     OW36292   2.536   4.171   7.669  0.0308  0.1293 -0.4883
 8220SOL    HW136293   2.509   4.082   7.648 -0.5078 -0.3933  2.4391
 8220SOL    HW236294   2.611   4.144   7.722 -1.3587 -0.8476  0.9660
 8221SOL     OW36295   4.489   4.582   2.936  0.5789 -0.1281  0.3525
 8221SOL    HW136296   4.492   4.642   3.011 -0.1276  0.1795  0.1266
 8221SOL    HW236297   4.459   4.629   2.859 -1.8449 -0.7936  0.9046
 8222SOL     OW36298   1.458   0.037   3.722  0.5060  0.1439 -0.1029
 8222SOL    HW136299   1.519   4.733   3.783 -0.5629  0.4974  1.1933
 8222SOL    HW236300   1.378   0.018   3.771  0.4503  1.9978  0.5521
 8223SOL     OW36301   3.319   1.350   2.032  0.0420  0.0865 -0.1017
 8223SOL    HW136302   3.302   1.262   1.999  0.0647 -0.2474  0.7656
 8223SOL    HW236303   3.265   1.355   2.112 -0.7845 -1.5564 -0.5537
 8224SOL     OW36304   4.307   0.516   1.771 -0.1450  0.0803  0.0701
 8224SOL    HW136305   4.354   0.582   1.821 -1.0019 -0.2773  1.3438
 8224SOL    HW236306   4.215   0.526   1.795  0.2837  0.1189  1.7095
 8225SOL     OW36307   2.623   3.253  17.117 -0.3350  0.1189  0.4008
 8225SOL    HW136308   2.551   3.243  17.055  0.4547  0.6990 -0.6136
 8225SOL    HW236309   2.651   3.163  17.130 -0.2665  0.4045  2.3173
 8226SOL     OW36310   0.912   2.332   6.747 -0.0651  0.3639 -0.5635
 8226SOL    HW136311   0.827   2.335   6.703 -1.5721 -0.0649  2.2833
 8226SOL    HW236312   0.922   2.241   6.774  1.3362  0.8621  0.5802
 8227SOL     OW36313   3.326   2.167   7.032  0.5950 -0.1089  0.2932
 8227SOL    HW136314   3.381   2.203   6.963  0.1556 -0.8599 -0.4450
 8227SOL    HW236315   3.317   2.240   7.093  0.0029 -1.0473  1.3464
 8228SOL     OW36316   3.925   1.720  12.386 -0.6281  0.0600  0.4783
 8228SOL    HW136317   3.862   1.651  12.368 -0.8471  0.4900 -0.4308
 8228SOL    HW236318   3.866   1.793  12.405 -1.3908 -0.5316  0.4081
 8229SOL     OW36319   1.641   3.797   9.464 -0.6008 -0.0088  0.1448
 8229SOL    HW136320   1.703   3.742   9.417  0.6182  1.7359 -0.2754
 8229SOL    HW236321   1.558   3.748   9.464  0.1641 -1.3195  1.7584
 8230SOL     OW36322   0.246   3.292  13.939 -0.8381 -0.4839  0.1912
 8230SOL    HW136323   0.235   3.201  13.913  5.9140 -1.3110  0.1998
 8230SOL    HW236324   0.293   3.334  13.867 -2.1425  0.5716 -0.0462
 8231SOL     OW36325   2.133   0.344   6.351 -0.4326  0.3388 -0.2417
 8231SOL    HW136326   2.116   0.427   6.307  0.6371  0.0377 -1.2218
 8231SOL    HW236327   2.082   0.275   6.309  1.0584 -0.6641 -0.3876
 8232SOL     OW36328   3.969   0.092  13.167 -0.4735  0.0845 -0.2797
 8232SOL    HW136329   3.925   0.015  13.202 -0.5954 -0.1425 -0.9162
 8232SOL    HW236330   4.050   0.092  13.217 -0.8103  0.9078  0.2760
 8233SOL     OW36331   0.990   0.097  16.252 -0.0427 -0.6046 -0.1821
 8233SOL    HW136332   0.963   0.144  16.173 -1.9610 -0.1084  0.7958
 8233SOL    HW236333   0.935   0.020  16.244 -1.6416  0.6185 -1.0459
 8234SOL     OW36334   2.013   1.817  15.408 -0.3846 -0.0798  0.7073
 8234SOL    HW136335   2.019   1.722  15.420  0.4439  0.0135  1.0216
 8234SOL    HW236336   1.929   1.822  15.363  0.1675  0.7433 -0.2458
 8235SOL     OW36337   1.515   4.264   2.284 -0.4488 -0.5813  0.3937
 8235SOL    HW136338   1.586   4.205   2.258 -1.1558 -2.0630  1.8347
 8235SOL    HW236339   1.563   4.295   2.361 -0.6125 -3.3752  1.6313
 8236SOL     OW36340   0.913   0.073   8.642  0.0800 -0.5717 -1.3993
 8236SOL    HW136341   0.863   0.007   8.593 -2.0201 -0.2471  0.2736
 8236SOL    HW236342   0.937   0.134   8.572  0.5480  0.5097 -0.2905
 8237SOL     OW36343   1.062   0.351   7.483 -0.5129 -0.0574 -0.3154
 8237SOL    HW136344   0.967   0.360   7.479 -0.4139  1.1967  0.2742
 8237SOL    HW236345   1.079   0.336   7.576  2.3092 -1.1565 -0.9914
 8238SOL     OW36346   4.094   0.098   5.909  0.3282  0.2113 -0.0823
 8238SOL    HW136347   4.015   0.152   5.906 -0.7711 -1.4975 -1.8876
 8238SOL    HW236348   4.121   0.115   5.818  0.4408 -0.3295 -0.1482
 8239SOL     OW36349   0.446   4.052   2.219  0.2950 -0.4525  0.0008
 8239SOL    HW136350   0.396   4.011   2.290 -0.6239  1.3648  0.4102
 8239SOL    HW236351   0.475   4.129   2.268 -2.1866  0.4699  0.0431
 8240SOL     OW36352   4.060   1.903   8.547 -0.1607 -0.5700  0.7213
 8240SOL    HW136353   4.013   1.949   8.478  0.7801 -2.1567 -0.9503
 8240SOL    HW236354   4.126   1.967   8.577 -0.0429  0.6096 -2.0948
 8241SOL     OW36355   1.019   0.252   1.413  0.6360 -0.3886 -0.8280
 8241SOL    HW136356   0.996   0.332   1.365 -2.0206 -0.4068  0.4242
 8241SOL    HW236357   1.001   0.295   1.497 -0.5907 -1.6172 -0.4762
 8242SOL     OW36358   0.470   4.248  14.819 -0.6411 -0.3496  0.3395
 8242SOL    HW136359   0.491   4.278  14.908 -1.8546  1.2088  0.1077
 8242SOL    HW236360   0.555   4.268  14.780  0.2052 -0.9263  1.8779
 8243SOL     OW36361   4.553   3.024  13.018 -0.3343 -0.2286 -0.4116
 8243SOL    HW136362   4.648   3.029  13.016 -0.2700 -1.4774 -0.7823
 8243SOL    HW236363   4.546   3.069  13.102  0.3251  3.0922 -2.1187
 8244SOL     OW36364   0.344   1.085   4.552 -0.1908 -0.2374 -0.1007
 8244SOL    HW136365   0.307   1.173   4.557  0.0531 -0.2655  2.0889
 8244SOL    HW236366   0.378   1.094   4.463  1.1818 -0.0628  0.4538
 8245SOL     OW36367   0.140   0.333   2.113  0.1967  0.0793  0.0656
 8245SOL    HW136368   0.078   0.294   2.051 -0.3130  0.5588  0.2713
 8245SOL    HW236369   0.180   0.398   2.055  1.2009 -0.6109 -0.0164
 8246SOL     OW36370   2.711   2.998  17.486  0.1425  0.8091  0.1262
 8246SOL    HW136371   2.617   2.988  17.493  0.2539 -0.2825  0.0354
 8246SOL    HW236372   2.749   2.934  17.546  3.3054  1.4690 -1.1554
 8247SOL     OW36373   1.064   4.729   5.199 -0.6534 -0.1631 -0.0333
 8247SOL    HW136374   1.008   0.039   5.260 -1.3257  1.4482 -1.9035
 8247SOL    HW236375   1.013   4.649   5.183 -3.0346  1.8848 -2.5298
 8248SOL     OW36376   3.987   1.186   6.089 -0.0040  0.1854 -0.0661
 8248SOL    HW136377   3.957   1.269   6.126  0.3359 -0.5663  1.9076
 8248SOL    HW236378   4.015   1.124   6.156  0.0332  2.8201  2.3550
 8249SOL     OW36379   0.814   2.769   4.678 -0.3301 -0.4206  0.2881
 8249SOL    HW136380   0.856   2.747   4.761 -1.7544  1.3281  1.4793
 8249SOL    HW236381   0.726   2.731   4.687  0.5528 -2.7082 -0.7445
 8250SOL     OW36382   2.013   3.184   4.334  0.3444  0.3266 -0.2119
 8250SOL    HW136383   1.965   3.263   4.306  0.2939  1.3015  2.6282
 8250SOL    HW236384   1.996   3.173   4.427  0.1075 -1.9625 -0.5333
 8251SOL     OW36385   1.732   0.926   6.784  0.0142 -0.0930 -0.1119
 8251SOL    HW136386   1.803   0.914   6.848  0.6048  0.2006 -0.7108
 8251SOL    HW236387   1.751   0.851   6.729 -0.7713  0.3557 -1.0007
 8252SOL     OW36388   3.301   1.474   3.875  1.4631  0.2211 -0.2244
 8252SOL    HW136389   3.232   1.418   3.911  0.6802  0.7504 -0.8835
 8252SOL    HW236390   3.261   1.558   3.851  1.0625 -0.5180 -2.1245
 8253SOL     OW36391   0.828   1.308   9.168 -0.6222  0.1223 -0.4416
 8253SOL    HW136392   0.739   1.298   9.135 -0.3317 -0.0728 -1.1588
 8253SOL    HW236393   0.881   1.333   9.092  1.3179  0.0342  0.8848
 8254SOL     OW36394   0.537   3.306   3.027 -0.0279 -0.5043 -0.1401
 8254SOL    HW136395   0.452   3.331   2.992 -0.5977  0.0949  1.6829
 8254SOL    HW236396   0.554   3.362   3.103  0.2509  1.2380 -1.4897
 8255SOL     OW36397   1.185   4.354   3.307 -0.1621 -0.0202 -0.0765
 8255SOL    HW136398   1.182   4.287   3.239  0.5711 -0.5240  0.3878
 8255SOL    HW236399   1.188   4.438   3.260  1.6669 -0.8518 -1.4312
 8256SOL     OW36400   4.735   2.218   6.476 -0.1950 -0.4183  0.6593
 8256SOL    HW136401   4.698   2.181   6.395  0.7140 -0.2805  0.1787
 8256SOL    HW236402   0.044   2.139   6.506  0.6827 -0.7221 -1.4699
 8257SOL     OW36403   0.714   3.217   3.673  0.2800 -0.3549  0.3233
 8257SOL    HW136404   0.720   3.304   3.712  0.0986 -1.2482  2.3335
 8257SOL    HW236405   0.667   3.251   3.597  1.7825 -0.8445 -0.8047
 8258SOL     OW36406   4.239   2.027   1.620  0.5300  0.7420 -0.0995
 8258SOL    HW136407   4.234   2.100   1.682 -0.8215  0.2359  0.3970
 8258SOL    HW236408   4.324   2.049   1.582  0.4775  0.2214 -0.5233
 8259SOL     OW36409   1.009   0.132   9.134  0.1343  0.2778  0.4303
 8259SOL    HW136410   1.084   0.082   9.166  0.3411  1.6444  2.0681
 8259SOL    HW236411   0.943   0.082   9.182  0.0637 -0.0614 -0.0148
 8260SOL     OW36412   2.288   3.299  15.889  0.1818 -0.4170 -0.2543
 8260SOL    HW136413   2.313   3.252  15.968  3.4320  1.5236 -0.1319
 8260SOL    HW236414   2.202   3.262  15.864 -1.7357  1.2688  3.9305
 8261SOL     OW36415   2.802   0.846  13.951 -0.1037 -0.2759 -0.3487
 8261SOL    HW136416   2.848   0.762  13.958 -1.1046 -0.7511  0.4692
 8261SOL    HW236417   2.728   0.829  14.008  1.0584 -2.0214  0.6361
 8262SOL     OW36418   4.100   3.417   8.958 -0.5342  0.4296 -0.3895
 8262SOL    HW136419   4.170   3.451   9.013 -0.6644 -1.2912  0.8218
 8262SOL    HW236420   4.145   3.355   8.900 -0.2244  0.6167 -0.3493
 8263SOL     OW36421   1.121   0.838   6.914  0.0169 -0.1075  0.2175
 8263SOL    HW136422   1.037   0.834   6.959 -0.9655  0.5619 -1.5818
 8263SOL    HW236423   1.178   0.884   6.976  0.7334  1.6823 -1.7734
 8264SOL     OW36424   0.441   3.399   6.455  0.3638  0.0902  0.4998
 8264SOL    HW136425   0.399   3.316   6.479  0.0019  0.5635  1.5003
 8264SOL    HW236426   0.453   3.427   6.545  0.2271  2.1931 -0.1341
 8265SOL     OW36427   0.794   0.950   8.527  0.4284  0.6174  0.3325
 8265SOL    HW136428   0.877   0.962   8.483  0.4187 -0.7681 -0.0582
 8265SOL    HW236429   0.760   1.038   8.511 -1.1815  0.0438  0.5720
 8266SOL     OW36430   4.485   2.689  12.755  0.3536  0.0203  0.3896
 8266SOL    HW136431   4.453   2.779  12.749  1.5404  0.3404 -1.0371
 8266SOL    HW236432   4.467   2.661  12.845 -2.7391 -1.3839 -0.6417
 8267SOL     OW36433   2.756   0.320   4.293 -0.1660 -0.1312  0.4326
 8267SOL    HW136434   2.720   0.277   4.371  0.3981 -0.9556  0.2358
 8267SOL    HW236435   2.754   0.248   4.230 -2.4800  0.3660 -0.0566
 8268SOL     OW36436   1.043   3.367  12.961  0.2268  0.4270  0.0981
 8268SOL    HW136437   1.002   3.322  13.034  1.1964  0.4429  0.6419
 8268SOL    HW236438   1.111   3.427  12.993  1.7590 -1.0531 -0.4002
 8269SOL     OW36439   1.200   2.954   9.943 -0.3031 -0.3080 -0.6375
 8269SOL    HW136440   1.145   2.912   9.877 -1.4514  2.0544 -1.1716
 8269SOL    HW236441   1.247   2.877   9.974 -0.8361 -0.2200  0.3892
 8270SOL     OW36442   0.658   1.451  14.020 -0.5732  0.7478  0.0161
 8270SOL    HW136443   0.717   1.376  14.030 -1.2582  0.2982  0.6741
 8270SOL    HW236444   0.635   1.439  13.928  0.6425  2.3726 -0.5010
 8271SOL     OW36445   0.556   1.273   7.725 -0.0941  0.2336  0.4048
 8271SOL    HW136446   0.607   1.343   7.766 -0.1518  0.5294 -0.0263
 8271SOL    HW236447   0.621   1.231   7.670 -0.6427 -0.7042  0.4750
 8272SOL     OW36448   0.582   4.668  14.110  0.6217  0.4993  0.4260
 8272SOL    HW136449   0.494   4.702  14.125 -0.3882 -1.3462 -1.3295
 8272SOL    HW236450   0.616   4.664  14.199 -2.3923  0.2092  1.5596
 8273SOL     OW36451   2.433   1.660   9.125  0.0109  0.1012  0.1624
 8273SOL    HW136452   2.485   1.644   9.204 -3.1765 -0.2547  2.1847
 8273SOL    HW236453   2.386   1.578   9.111 -0.8096  0.3591  1.3853
 8274SOL     OW36454   4.617   0.565   5.071  0.3938  0.2969 -0.4326
 8274SOL    HW136455   4.644   0.485   5.115 -1.6139 -0.4478 -0.5712
 8274SOL    HW236456   4.599   0.627   5.141 -0.0282 -1.3304  0.8895
 8275SOL     OW36457   0.062   2.920   3.597 -0.4106  0.0072  0.2111
 8275SOL    HW136458   0.156   2.931   3.594 -0.1662 -1.8745  0.5561
 8275SOL    HW236459   0.054   2.824   3.602  1.0664 -0.1938 -1.5139
 8276SOL     OW36460   2.202   0.937   5.906 -0.8847  0.1819  0.3692
 8276SOL    HW136461   2.255   1.013   5.931  2.3680 -1.5044 -1.4047
 8276SOL    HW236462   2.153   0.914   5.985  2.0469 -1.1506  1.8091
 8277SOL     OW36463   0.489   3.557   9.085 -0.0658 -0.2823  0.0310
 8277SOL    HW136464   0.496   3.511   9.001  2.3804 -0.7462  0.4825
 8277SOL    HW236465   0.506   3.646   9.054 -1.2599  0.2048  0.7769
 8278SOL     OW36466   2.712   0.742   9.145 -0.0744 -0.0237  0.1741
 8278SOL    HW136467   2.750   0.825   9.115 -1.5173  1.0640  1.3755
 8278SOL    HW236468   2.710   0.745   9.241  3.8741  1.6904  0.1900
 8279SOL     OW36469   0.224   1.386  17.051  0.1697  0.3282 -0.2237
 8279SOL    HW136470   0.257   1.317  17.110  1.3156 -0.1469 -1.3927
 8279SOL    HW236471   0.150   1.333  17.020 -0.7895  0.2798  2.1663
 8280SOL     OW36472   3.328   3.830  14.299 -0.0887  0.2617 -0.6387
 8280SOL    HW136473   3.250   3.774  14.304  1.3324 -1.5847  0.6800
 8280SOL    HW236474   3.395   3.764  14.316 -0.5078 -0.7931 -3.1604
 8281SOL     OW36475   1.308   0.836   5.225  0.1115 -0.2947  0.5202
 8281SOL    HW136476   1.340   0.747   5.219  2.7271  0.5309  2.1677
 8281SOL    HW236477   1.220   0.821   5.190  0.9570  0.6506 -1.9470
 8282SOL     OW36478   0.340   0.582  10.881 -0.0062 -0.0125  0.1061
 8282SOL    HW136479   0.297   0.517  10.937  0.7087 -0.2917  0.3400
 8282SOL    HW236480   0.408   0.611  10.943 -0.9079  1.9958  0.1484
 8283SOL     OW36481   3.059   2.080  14.389 -0.0933 -0.0693  0.8282
 8283SOL    HW136482   3.108   2.161  14.404 -0.4570  0.1901  0.5943
 8283SOL    HW236483   3.115   2.016  14.344  1.3983  1.2708  0.7868
 8284SOL     OW36484   4.381   1.825   9.130  0.1068 -0.8104 -0.0061
 8284SOL    HW136485   4.332   1.743   9.136 -0.8503 -0.2436  0.0531
 8284SOL    HW236486   4.375   1.855   9.221  1.5961  0.1142 -0.2232
 8285SOL     OW36487   2.694   4.148   4.217 -0.1466 -0.0549  0.0794
 8285SOL    HW136488   2.659   4.224   4.263  2.3466  0.8704  0.4051
 8285SOL    HW236489   2.620   4.111   4.168  0.1785  0.1369 -0.5581
 8286SOL     OW36490   1.066   3.573   2.014 -0.0909 -0.5680 -0.1895
 8286SOL    HW136491   1.000   3.608   1.955  1.0229 -0.1739 -1.2106
 8286SOL    HW236492   1.023   3.564   2.099 -0.4864  2.2210 -0.0810
 8287SOL     OW36493   0.656   0.013   4.738  0.4776  0.2914  0.1996
 8287SOL    HW136494   0.617   4.668   4.708  0.7698 -0.1197  0.9554
 8287SOL    HW236495   0.742   4.709   4.735  0.4400  0.2134  0.2149
 8288SOL     OW36496   1.096   0.172   6.127  0.3497 -0.4976  0.6626
 8288SOL    HW136497   1.069   0.180   6.219 -1.2204 -1.1906  0.2387
 8288SOL    HW236498   1.073   0.083   6.102  1.2999  0.0724 -2.2803
 8289SOL     OW36499   1.183   3.884  13.324  0.0145 -0.2209  0.0559
 8289SOL    HW136500   1.162   3.793  13.302  1.0151 -0.4204 -0.0911
 8289SOL    HW236501   1.152   3.936  13.250 -0.9454 -1.2691 -0.2750
 8290SOL     OW36502   3.101   4.639  15.066  0.2858  0.5034 -0.2081
 8290SOL    HW136503   3.160   4.602  15.000  2.2363  0.2382  1.6720
 8290SOL    HW236504   3.150   4.605  15.140 -0.1760  1.8857  0.7262
 8291SOL     OW36505   4.063   3.961   6.029  0.6163 -0.2448  0.3568
 8291SOL    HW136506   4.130   4.003   6.082 -0.2943 -0.0901  1.3872
 8291SOL    HW236507   4.035   4.034   5.974 -0.3556  1.7915  3.5500
 8292SOL     OW36508   1.713   1.931   8.592  0.2418  0.2986 -0.1960
 8292SOL    HW136509   1.740   2.023   8.588  0.9721  0.0847 -0.1498
 8292SOL    HW236510   1.698   1.922   8.686  0.6324  1.9780  0.0276
 8293SOL     OW36511   1.145   3.569   5.941 -0.1106 -0.7636  0.0976
 8293SOL    HW136512   1.115   3.658   5.926  0.3437 -0.8374 -1.2663
 8293SOL    HW236513   1.202   3.571   6.018  0.3202  1.5793 -0.2838
 8294SOL     OW36514   3.963   1.283   1.917  0.1629 -0.4082  0.9720
 8294SOL    HW136515   3.897   1.221   1.945 -0.0324 -0.4099  0.5110
 8294SOL    HW236516   4.004   1.305   2.001 -1.8302  1.0376  1.5590
 8295SOL     OW36517   3.817   0.950   8.484  0.3762 -0.0045  0.1194
 8295SOL    HW136518   3.782   0.961   8.396 -0.2462 -0.9764  0.2400
 8295SOL    HW236519   3.903   0.993   8.479 -0.0011  0.5701 -1.4624
 8296SOL     OW36520   3.504   0.534   1.822 -0.0297  0.2647  0.0269
 8296SOL    HW136521   3.511   0.469   1.752 -2.4681  1.8368 -1.6986
 8296SOL    HW236522   3.568   0.510   1.888 -1.0376 -0.6511  0.6711
 8297SOL     OW36523   2.945   0.660   3.612 -0.6835 -0.2731 -0.3842
 8297SOL    HW136524   2.891   0.618   3.545  2.0473 -1.7932 -1.6208
 8297SOL    HW236525   2.992   0.720   3.554 -3.3199  2.5357  0.3477
 8298SOL     OW36526   3.691   4.039   8.836  0.2575 -0.2791 -0.8729
 8298SOL    HW136527   3.645   4.117   8.865 -0.9780 -1.5339  0.4887
 8298SOL    HW236528   3.709   4.059   8.744 -0.8570 -1.8264 -1.4171
 8299SOL     OW36529   2.666   3.612   6.517 -0.2067  0.1337 -0.1990
 8299SOL    HW136530   2.651   3.518   6.502 -1.6922  0.5278 -1.2170
 8299SOL    HW236531   2.600   3.618   6.586 -1.0040  2.7775 -1.2018
 8300SOL     OW36532   0.445   2.086   6.774 -0.3220 -0.0303 -0.2292
 8300SOL    HW136533   0.467   2.110   6.864 -1.2297 -0.8210  0.1999
 8300SOL    HW236534   0.456   2.168   6.726 -0.2766 -0.7030 -1.3681
 8301SOL     OW36535   4.144   2.276   5.236 -0.3887 -0.7033  0.3164
 8301SOL    HW136536   4.066   2.322   5.206 -0.7310 -0.1761  1.9833
 8301SOL    HW236537   4.119   2.268   5.328 -0.2661 -1.9001  0.2501
 8302SOL     OW36538   2.126   1.470   5.040 -0.0332 -0.0608  0.0132
 8302SOL    HW136539   2.125   1.382   5.003  0.1986 -1.2822  2.9181
 8302SOL    HW236540   2.157   1.449   5.128  0.2114  1.6430  0.3323
 8303SOL     OW36541   0.549   1.008   4.014 -0.0094 -0.6034  0.1438
 8303SOL    HW136542   0.486   0.949   4.055 -1.4105  1.4805  0.9798
 8303SOL    HW236543   0.545   1.088   4.066 -0.2614 -0.1583 -0.5551
 8304SOL     OW36544   0.392   2.702   8.998 -0.6905 -1.0586 -0.7272
 8304SOL    HW136545   0.349   2.787   9.010  0.0331 -0.8945  0.7221
 8304SOL    HW236546   0.351   2.641   9.060 -2.1375 -0.6686 -1.2925
 8305SOL     OW36547   0.628   1.121   9.502  0.6074 -0.3160  0.0936
 8305SOL    HW136548   0.606   1.161   9.418 -0.2523  1.8971  1.3652
 8305SOL    HW236549   0.543   1.092   9.536 -0.2586  2.1225 -0.0079
 8306SOL     OW36550   0.498   1.026  12.853  0.1919  0.2454 -0.0410
 8306SOL    HW136551   0.439   0.950  12.858  0.1281  0.3772  1.1717
 8306SOL    HW236552   0.489   1.039  12.758  1.7248 -0.2718 -0.2540
 8307SOL     OW36553   3.678   2.345   0.007  0.4520  1.0551  0.6261
 8307SOL    HW136554   3.730   2.266   0.018  3.2300  2.9618  1.2737
 8307SOL    HW236555   3.734   2.399  17.700  1.4959 -0.4344  0.2526
 8308SOL     OW36556   3.577   1.633   4.132  0.0574 -0.1174 -0.0979
 8308SOL    HW136557   3.548   1.721   4.109 -1.4193 -0.7294 -0.5807
 8308SOL    HW236558   3.642   1.653   4.199 -0.4018  1.8546 -0.2416
 8309SOL     OW36559   1.113   3.683  12.948  0.2843  0.1293 -0.4609
 8309SOL    HW136560   1.162   3.763  12.929 -0.4692  0.3023 -1.7022
 8309SOL    HW236561   1.130   3.667  13.041 -1.7496 -1.2432 -0.3123
 8310SOL     OW36562   3.567   3.733   8.564 -0.2902  0.1637  0.0809
 8310SOL    HW136563   3.581   3.827   8.569 -0.8965  0.2146  0.7855
 8310SOL    HW236564   3.645   3.703   8.516 -0.7220  0.8671 -1.0486
 8311SOL     OW36565   3.184   1.096   6.092 -0.3555  0.6013  0.0885
 8311SOL    HW136566   3.188   1.099   6.188 -1.3923 -0.9571  0.1885
 8311SOL    HW236567   3.276   1.089   6.069 -0.4436 -1.3769  0.3475
 8312SOL     OW36568   4.686   1.528   4.846  0.2334  0.1029  0.3511
 8312SOL    HW136569   4.727   1.614   4.851  0.8095 -0.0437 -1.9895
 8312SOL    HW236570   0.004   1.479   4.907 -0.5831 -3.6613 -1.9563
 8313SOL     OW36571   4.463   3.352   4.977  0.4512  0.1921 -0.1928
 8313SOL    HW136572   4.378   3.340   5.019  1.3196  0.2289  1.5793
 8313SOL    HW236573   4.442   3.384   4.889  2.1336 -3.1988 -1.8394
 8314SOL     OW36574   0.653   1.734  16.394  0.2622  0.0881  0.3611
 8314SOL    HW136575   0.701   1.672  16.340 -1.5482 -0.1559 -0.9257
 8314SOL    HW236576   0.576   1.681  16.413 -0.1365  0.2967 -0.6766
 8315SOL     OW36577   3.454   0.273   6.612  0.3402  0.3132 -0.1105
 8315SOL    HW136578   3.386   0.329   6.576  0.8474 -0.7021 -2.6739
 8315SOL    HW236579   3.410   0.246   6.692  0.8004  0.9421  0.3594
 8316SOL     OW36580   2.963   3.537   8.821  0.4528 -0.5210  0.4372
 8316SOL    HW136581   2.880   3.557   8.865  0.9503 -0.7374  1.4677
 8316SOL    HW236582   2.951   3.587   8.741 -1.4307  0.4402  1.3272
 8317SOL     OW36583   3.720   3.443   8.654  0.3579  0.9606  0.4260
 8317SOL    HW136584   3.731   3.428   8.748  4.4137 -0.5360 -0.2717
 8317SOL    HW236585   3.627   3.422   8.645  0.6586 -0.6939  1.2433
 8318SOL     OW36586   3.657   3.829   3.134 -0.0832  0.1242  0.1651
 8318SOL    HW136587   3.703   3.885   3.072  2.1909 -2.2011 -0.2465
 8318SOL    HW236588   3.629   3.896   3.196  0.4115  0.8167 -0.3740
 8319SOL     OW36589   3.943   1.497  11.840 -0.1958  0.0635  0.0693
 8319SOL    HW136590   4.035   1.511  11.820  0.1614 -1.3180  0.7852
 8319SOL    HW236591   3.912   1.438  11.772 -1.4658 -1.1722  1.7054
 8320SOL     OW36592   2.333   1.897   8.635 -0.6489 -0.0972 -0.0929
 8320SOL    HW136593   2.410   1.940   8.598  1.6654 -3.3624  1.0172
 8320SOL    HW236594   2.373   1.851   8.709  0.7768 -2.1164 -2.1422
 8321SOL     OW36595   1.239   2.879   5.574  0.4189  0.0867  0.3593
 8321SOL    HW136596   1.285   2.955   5.537  1.0498 -0.2055  0.5403
 8321SOL    HW236597   1.194   2.924   5.645 -0.3423  1.0129 -0.7004
 8322SOL     OW36598   4.500   2.652   3.981 -0.1214  0.2721 -0.1748
 8322SOL    HW136599   4.547   2.721   4.027  0.6975  0.9799 -2.1034
 8322SOL    HW236600   4.563   2.580   3.989 -0.6399 -0.2837 -1.0366
 8323SOL     OW36601   3.307   3.878  16.294  0.2165 -0.3648  0.5184
 8323SOL    HW136602   3.377   3.895  16.358 -0.7853 -0.1491  1.5537
 8323SOL    HW236603   3.362   3.868  16.216  2.8024  1.0333  2.1481
 8324SOL     OW36604   0.563   2.134   8.926  0.2497 -0.3270 -0.1228
 8324SOL    HW136605   0.590   2.216   8.883  1.0604 -1.3013 -1.4769
 8324SOL    HW236606   0.469   2.134   8.909 -0.3389  0.1405  3.1787
 8325SOL     OW36607   0.968   3.692   3.195 -0.2354 -0.1951 -0.3526
 8325SOL    HW136608   1.061   3.681   3.176 -0.4049 -0.8323 -0.8420
 8325SOL    HW236609   0.927   3.636   3.129 -0.1796  0.1194 -0.6595
 8326SOL     OW36610   3.381   1.505  17.631  0.6617  0.2690 -0.0173
 8326SOL    HW136611   3.336   1.456  17.699  0.4893 -1.9456 -1.7344
 8326SOL    HW236612   3.381   1.588  17.679  0.6330 -0.1102  0.6300
 8327SOL     OW36613   3.492   2.220  17.137 -0.4191 -0.3662 -0.4801
 8327SOL    HW136614   3.520   2.299  17.090  1.5191  0.0352  1.3509
 8327SOL    HW236615   3.443   2.260  17.210 -1.3235  1.7269 -2.2507
 8328SOL     OW36616   2.693   3.299   6.172 -0.1866 -0.1641  0.0514
 8328SOL    HW136617   2.754   3.232   6.202 -1.8156 -1.4572  0.3883
 8328SOL    HW236618   2.756   3.368   6.150  0.4648  0.3982  3.7568
 8329SOL     OW36619   3.615   1.969   2.606  0.0296  0.0877 -0.2182
 8329SOL    HW136620   3.693   1.989   2.555  1.2300 -0.9780  1.2094
 8329SOL    HW236621   3.656   1.967   2.693  0.6163  0.4911 -0.4890
 8330SOL     OW36622   3.048   0.985   4.770 -0.2984  0.0561 -0.0282
 8330SOL    HW136623   3.015   1.026   4.851  0.6654 -0.6128  0.7009
 8330SOL    HW236624   2.966   0.980   4.721  0.8589 -1.7250 -1.7518
 8331SOL     OW36625   4.617   4.732   9.208  0.0077 -0.0038 -0.0195
 8331SOL    HW136626   4.582   4.694   9.289 -0.3764 -3.0591 -1.6039
 8331SOL    HW236627   4.603   0.089   9.213  0.6380  0.1864 -2.0557
 8332SOL     OW36628   0.429   2.668  15.383  0.1492  0.5128 -0.3193
 8332SOL    HW136629   0.489   2.601  15.350 -1.4037 -1.3644  0.6387
 8332SOL    HW236630   0.451   2.739  15.322  1.0281  0.1223 -0.4646
 8333SOL     OW36631   4.428   1.611   7.547 -0.5204  0.6291  0.0739
 8333SOL    HW136632   4.461   1.701   7.551 -0.1967  0.5807 -1.7428
 8333SOL    HW236633   4.364   1.614   7.476 -2.0066  1.0337  1.4217
 8334SOL     OW36634   4.359   0.621   2.988  0.4263 -0.6316  0.0629
 8334SOL    HW136635   4.293   0.646   2.923 -0.4580  0.3025  1.3015
 8334SOL    HW236636   4.361   0.526   2.976  0.3268 -0.7779  1.2503
 8335SOL     OW36637   3.966   1.830   7.367 -1.1435 -0.2435  0.0836
 8335SOL    HW136638   3.893   1.890   7.352 -0.1186  0.2213 -2.9733
 8335SOL    HW236639   4.038   1.848   7.306 -0.1441 -0.2926  1.2383
 8336SOL     OW36640   1.515   3.428  10.510  0.5957  0.0216 -0.5809
 8336SOL    HW136641   1.512   3.396  10.600 -0.9135 -0.7216 -0.9058
 8336SOL    HW236642   1.553   3.515  10.527  1.9287 -0.1014 -2.9788
 8337SOL     OW36643   2.232   4.624  15.181 -0.2459  0.4662 -0.1219
 8337SOL    HW136644   2.180   4.556  15.137  1.7114 -0.5106 -0.9279
 8337SOL    HW236645   2.202   4.708  15.149  2.5977  1.9651  1.1277
 8338SOL     OW36646   1.754   3.741   7.375  0.0817 -0.1654  0.4226
 8338SOL    HW136647   1.818   3.805   7.404  0.4922 -0.6949  0.7001
 8338SOL    HW236648   1.816   3.668   7.378  1.1090  0.6582 -1.1714
 8339SOL     OW36649   3.227   0.238  11.668  0.1607  0.0297 -0.1264
 8339SOL    HW136650   3.240   0.187  11.588 -1.0933 -0.7471  0.1561
 8339SOL    HW236651   3.143   0.278  11.642  1.9491  2.1963 -2.5915
 8340SOL     OW36652   0.993   0.717  11.137  0.2366  0.0145 -0.4048
 8340SOL    HW136653   0.936   0.701  11.211 -0.1155  3.1377  0.0183
 8340SOL    HW236654   1.064   0.661  11.168 -0.1929 -1.2527 -1.6782
 8341SOL     OW36655   0.170   2.901   6.472  0.6353 -0.3550  0.1306
 8341SOL    HW136656   0.080   2.900   6.506 -0.1997 -4.3555 -2.1860
 8341SOL    HW236657   0.214   2.843   6.534  0.2116 -1.8824 -1.0028
 8342SOL     OW36658   0.386   1.793   3.773  0.3313 -0.3891  0.3642
 8342SOL    HW136659   0.363   1.700   3.760 -1.6016  0.2725 -0.9722
 8342SOL    HW236660   0.334   1.807   3.851  0.4980  0.1305  0.3767
 8343SOL     OW36661   1.700   3.242   6.273  0.0399  0.4688 -0.4913
 8343SOL    HW136662   1.683   3.283   6.188  0.5915  1.4103 -0.1552
 8343SOL    HW236663   1.774   3.294   6.306 -1.7548  2.2791  0.6894
 8344SOL     OW36664   0.604   2.792  13.313  0.4105 -0.3378  0.5469
 8344SOL    HW136665   0.540   2.758  13.376 -0.6233  0.5546 -0.0167
 8344SOL    HW236666   0.597   2.888  13.319  1.4860 -0.1881 -0.6505
 8345SOL     OW36667   1.521   4.070   1.975  0.4787  0.2261  0.1294
 8345SOL    HW136668   1.538   4.164   1.987  0.6050  0.1088  0.8526
 8345SOL    HW236669   1.540   4.064   1.881 -0.5755  1.2658 -0.1483
 8346SOL     OW36670   3.231   3.926   6.339  0.9497 -0.1111  0.0469
 8346SOL    HW136671   3.313   3.968   6.364  0.5707  0.6920 -0.0462
 8346SOL    HW236672   3.171   3.978   6.393  1.7124  2.8069 -1.9519
 8347SOL     OW36673   4.529   4.498  16.196  0.3589  0.2064  0.6484
 8347SOL    HW136674   4.551   4.512  16.104  1.3625 -0.7208  0.7443
 8347SOL    HW236675   4.582   4.557  16.250  0.2496  1.1877 -0.3171
 8348SOL     OW36676   0.780   0.207  14.155  0.3867 -0.1669  0.0799
 8348SOL    HW136677   0.774   0.263  14.233 -0.2743  1.4633 -1.1395
 8348SOL    HW236678   0.770   0.123  14.200  3.3712  1.2765  3.5022
 8349SOL     OW36679   2.078   1.186   8.748 -0.2054  0.0266 -0.1531
 8349SOL    HW136680   2.070   1.208   8.655  0.7952  4.0852  0.7319
 8349SOL    HW236681   1.986   1.170   8.766  0.1006 -3.0894 -1.2264
 8350SOL     OW36682   1.705   0.104   4.151 -0.2808 -0.7936  0.2817
 8350SOL    HW136683   1.793   0.068   4.142 -0.0485 -0.1187 -0.1088
 8350SOL    HW236684   1.675   0.078   4.238 -2.8476 -1.4313 -0.7735
 8351SOL     OW36685   1.018   3.504   8.222 -0.4625 -0.6206 -0.4557
 8351SOL    HW136686   1.005   3.423   8.271 -0.5414  0.4111  1.1987
 8351SOL    HW236687   0.944   3.518   8.163 -0.4732  1.4603  0.0661
 8352SOL     OW36688   3.397   2.885   7.816  0.0487  0.2890  0.0035
 8352SOL    HW136689   3.488   2.911   7.804  0.0789 -0.6319 -1.7729
 8352SOL    HW236690   3.391   2.853   7.906 -1.7636  1.5910  0.3423
 8353SOL     OW36691   4.271   2.670   8.835 -0.2152  0.3849  0.0264
 8353SOL    HW136692   4.235   2.621   8.762  0.0114 -2.3358  1.7355
 8353SOL    HW236693   4.324   2.602   8.877 -1.9230 -1.0888 -0.2241
 8354SOL     OW36694   2.334   1.269  14.739  0.2963 -0.2828  0.0282
 8354SOL    HW136695   2.403   1.204  14.723  1.0344  0.7267 -0.8861
 8354SOL    HW236696   2.311   1.298  14.651  0.2991 -0.1351  0.0758
 8355SOL     OW36697   3.267   4.039   1.200  0.3594  0.0086 -0.6510
 8355SOL    HW136698   3.286   3.957   1.154 -0.3576 -0.5099 -0.0467
 8355SOL    HW236699   3.184   4.017   1.244 -0.3250  0.2037 -1.8589
 8356SOL     OW36700   3.395   3.069  12.127  0.3543  0.9172 -0.0060
 8356SOL    HW136701   3.402   3.053  12.032  0.8384  0.8429  0.0393
 8356SOL    HW236702   3.467   3.131  12.141 -0.6081  1.2027  3.5644
 8357SOL     OW36703   0.478   0.837   7.883 -0.0346 -0.3806 -0.1015
 8357SOL    HW136704   0.414   0.901   7.915  3.2211  2.3264  1.1017
 8357SOL    HW236705   0.556   0.880   7.920 -1.6025  1.7409  0.7493
 8358SOL     OW36706   1.626   0.028   0.167  0.8175 -0.1426  0.9618
 8358SOL    HW136707   1.585   0.015   0.252 -2.8369 -1.4270 -0.9614
 8358SOL    HW236708   1.712   4.724   0.168  0.3244 -1.2257 -0.7231
 8359SOL     OW36709   3.462   4.475  10.473 -0.9867 -0.0894  0.9375
 8359SOL    HW136710   3.451   4.452  10.381 -3.5599 -1.4732  1.6153
 8359SOL    HW236711   3.399   4.416  10.513 -0.6353 -2.0737 -1.3927
 8360SOL     OW36712   3.316   3.848   6.081 -0.4245  0.6014 -0.0303
 8360SOL    HW136713   3.334   3.886   6.167 -0.8967  0.9476 -0.0854
 8360SOL    HW236714   3.322   3.927   6.026  1.4140  0.8699  0.5515
 8361SOL     OW36715   1.227   4.235   5.120  0.7049 -0.1692  0.3319
 8361SOL    HW136716   1.310   4.187   5.125  0.1427 -1.2946 -1.2717
 8361SOL    HW236717   1.192   4.182   5.049 -0.3742 -0.8314  1.3422
 8362SOL     OW36718   3.766   3.606   7.904 -0.2409  0.5918  0.2732
 8362SOL    HW136719   3.787   3.593   7.997 -0.0346  0.0414  0.1479
 8362SOL    HW236720   3.809   3.527   7.873 -3.0118 -1.4735  1.5996
 8363SOL     OW36721   2.995   2.882   2.981 -0.2319  0.2381  0.0183
 8363SOL    HW136722   2.942   2.862   3.057  0.6615 -1.0073  0.3148
 8363SOL    HW236723   3.082   2.868   3.019 -0.7786  0.3317  1.3038
 8364SOL     OW36724   0.526   4.477   8.861  0.9319 -0.0366 -0.1481
 8364SOL    HW136725   0.453   4.415   8.853 -0.1239  1.3381 -1.2292
 8364SOL    HW236726   0.571   4.451   8.941 -0.1128 -0.6743  0.2265
 8365SOL     OW36727   1.639   3.811   6.750 -0.0309 -0.0183 -0.4132
 8365SOL    HW136728   1.549   3.836   6.730  0.3237  0.9416 -0.8787
 8365SOL    HW236729   1.651   3.843   6.839 -0.2843  1.5134 -0.9167
 8366SOL     OW36730   3.205   3.758   6.922 -0.0230 -0.0921 -0.3502
 8366SOL    HW136731   3.167   3.804   6.997 -0.3397  0.7829 -1.0440
 8366SOL    HW236732   3.293   3.794   6.912  0.0648 -0.1145  0.3779
 8367SOL     OW36733   0.281   4.047   8.265  0.4229 -0.7204  0.0136
 8367SOL    HW136734   0.256   3.977   8.325 -2.7197 -0.7167 -1.3270
 8367SOL    HW236735   0.214   4.044   8.197 -1.7765  0.6397  2.1352
 8368SOL     OW36736   2.817   0.975   4.648 -0.2917  0.4201  0.2742
 8368SOL    HW136737   2.751   0.908   4.669 -0.3409  1.2815  2.8186
 8368SOL    HW236738   2.781   1.022   4.573 -3.2514 -1.5935  0.4065
 8369SOL     OW36739   0.761   2.695   6.269  0.0628  0.4875  0.2680
 8369SOL    HW136740   0.677   2.656   6.295  0.5888 -1.6205 -1.1121
 8369SOL    HW236741   0.820   2.626   6.298  1.5292  0.9194 -1.6609
 8370SOL     OW36742   1.275   0.665  10.412  0.4596 -0.0666  0.2270
 8370SOL    HW136743   1.358   0.658  10.458 -0.6582 -2.5812  1.8601
 8370SOL    HW236744   1.218   0.684  10.487 -2.3355  0.1682 -1.9340
 8371SOL     OW36745   0.979   0.319  12.873  0.3614 -0.2260 -0.3599
 8371SOL    HW136746   0.941   0.305  12.959 -0.2419  0.3051 -0.5459
 8371SOL    HW236747   1.070   0.345  12.888  0.6341 -2.1637  1.2963
 8372SOL     OW36748   3.215   1.920  10.314 -0.3866 -0.0605 -0.5752
 8372SOL    HW136749   3.188   2.012  10.315 -0.7541 -0.1728 -0.3667
 8372SOL    HW236750   3.135   1.879  10.347 -0.8520 -0.5256 -2.2941
 8373SOL     OW36751   4.033   3.252   3.729  0.5030 -0.1746  0.2058
 8373SOL    HW136752   4.083   3.300   3.795 -0.5705  1.2761 -0.0303
 8373SOL    HW236753   4.055   3.165   3.762 -0.3080 -0.0194  1.1733
 8374SOL     OW36754   0.947   0.062   2.277 -0.1947 -0.3178 -0.7743
 8374SOL    HW136755   0.876   0.125   2.292  0.3434 -0.4030  2.2629
 8374SOL    HW236756   1.013   0.125   2.248  0.4755 -0.3975  0.5419
 8375SOL     OW36757   0.336   2.217   4.524 -0.7175 -0.2370  0.0547
 8375SOL    HW136758   0.248   2.188   4.546 -0.2865 -0.0562  2.0598
 8375SOL    HW236759   0.329   2.288   4.459 -0.8679 -0.3211 -0.0202
 8376SOL     OW36760   1.043   4.337   6.566  0.5326  0.1093  0.0358
 8376SOL    HW136761   1.107   4.365   6.632 -1.9134  1.7666  1.6550
 8376SOL    HW236762   1.063   4.243   6.570  0.0188  0.0163  0.3679
 8377SOL     OW36763   0.614   2.417  11.028  0.9950  0.7723 -0.0605
 8377SOL    HW136764   0.524   2.450  11.037  1.3592  2.1765 -1.5017
 8377SOL    HW236765   0.617   2.395  10.935 -2.3731  1.6965 -0.3991
 8378SOL     OW36766   1.510   0.063  12.705  0.6505 -0.5782 -0.4208
 8378SOL    HW136767   1.545   4.731  12.760 -0.2033  0.3242  1.2580
 8378SOL    HW236768   1.449   0.109  12.762 -0.2829  0.1604 -2.0125
 8379SOL     OW36769   2.384   0.055   4.201 -0.2739 -0.2089 -0.6401
 8379SOL    HW136770   2.306   0.006   4.226 -0.4248  1.2476  1.7797
 8379SOL    HW236771   2.412   0.016   4.118  0.6403 -0.2371 -0.3238
 8380SOL     OW36772   3.426   2.220  13.929  0.2585  0.0400 -0.2867
 8380SOL    HW136773   3.372   2.188  13.857 -1.2902 -0.4474  1.0905
 8380SOL    HW236774   3.366   2.241  14.000  1.6055  1.3923  0.4449
 8381SOL     OW36775   0.914   4.022   4.999  0.4921 -0.0803  0.9043
 8381SOL    HW136776   0.950   3.940   5.030 -0.0526 -0.8678 -0.5419
 8381SOL    HW236777   0.823   4.007   5.024 -0.0434  1.9327  0.2225
 8382SOL     OW36778   2.590   4.548   7.622  0.3895 -0.1011 -0.2399
 8382SOL    HW136779   2.604   4.484   7.692 -2.3601  0.8610  1.1596
 8382SOL    HW236780   2.499   4.573   7.637  0.5191 -0.2177  0.6907
 8383SOL     OW36781   0.710   2.694   3.843  0.9892  0.1778  0.0828
 8383SOL    HW136782   0.718   2.781   3.804 -0.7143 -0.2999 -1.3342
 8383SOL    HW236783   0.638   2.701   3.905  1.9733 -1.5764  1.4125
 8384SOL     OW36784   1.720   1.333   9.485  0.1076 -0.0224  0.5463
 8384SOL    HW136785   1.714   1.297   9.397  0.8445 -0.3642  0.6315
 8384SOL    HW236786   1.678   1.260   9.531 -0.7173 -0.4105 -0.8375
 8385SOL     OW36787   4.605   2.519   6.327  0.2912 -0.0770  0.2786
 8385SOL    HW136788   4.525   2.532   6.377  0.4936 -0.8290  0.7987
 8385SOL    HW236789   4.662   2.468   6.384 -0.1338 -1.1435 -0.2524
 8386SOL     OW36790   4.225   2.138   4.866  0.0465  0.0838  0.1327
 8386SOL    HW136791   4.160   2.191   4.821 -1.0248 -1.2883  0.0627
 8386SOL    HW236792   4.194   2.047   4.864 -2.1216  0.8833 -2.4422
 8387SOL     OW36793   1.092   3.910  15.958 -0.2124 -0.1682  0.4454
 8387SOL    HW136794   1.057   3.829  15.995 -0.5618  0.7324  2.0766
 8387SOL    HW236795   1.183   3.887  15.979  0.2328 -1.3633 -2.8735
 8388SOL     OW36796   4.519   3.796   3.978  0.0247 -0.4744  0.2932
 8388SOL    HW136797   4.521   3.800   4.073  1.1806 -2.3497  0.3363
 8388SOL    HW236798   4.565   3.715   3.957  1.9428  1.0563 -1.3881
 8389SOL     OW36799   2.681   4.188  14.633  0.5361 -0.5908  0.6889
 8389SOL    HW136800   2.631   4.269  14.636 -1.7312 -1.8021 -2.8398
 8389SOL    HW236801   2.613   4.126  14.605  0.8487 -1.5568  2.0682
 8390SOL     OW36802   1.765   4.057   8.603  0.2312  0.2592  0.4952
 8390SOL    HW136803   1.688   4.114   8.600 -0.9523 -1.3233  0.6333
 8390SOL    HW236804   1.833   4.119   8.628  2.0372 -1.3496 -0.4038
 8391SOL     OW36805   1.459   3.947   4.178  0.2452 -0.0342  0.1513
 8391SOL    HW136806   1.364   3.941   4.185  0.2456  0.1871  0.3877
 8391SOL    HW236807   1.479   3.974   4.089 -1.2352  0.5899  0.0176
 8392SOL     OW36808   2.288   1.897   9.088  0.0756  0.0814 -0.3138
 8392SOL    HW136809   2.333   1.963   9.141 -1.7365 -1.3628  3.0260
 8392SOL    HW236810   2.333   1.817   9.117  1.2373  0.5427 -0.8533
 8393SOL     OW36811   0.919   4.056  15.793 -0.0629 -0.3144 -0.1255
 8393SOL    HW136812   0.962   3.991  15.848  2.1282  0.6410 -0.6976
 8393SOL    HW236813   0.951   4.038  15.704  1.2943  2.9026 -0.3292
 8394SOL     OW36814   1.209   1.263   7.452 -0.5934 -0.0671  0.1851
 8394SOL    HW136815   1.175   1.175   7.432  0.4867 -0.0180 -1.8050
 8394SOL    HW236816   1.303   1.246   7.451 -0.2853  1.7785 -1.4624
 8395SOL     OW36817   2.351   3.602   3.139 -0.0204 -0.5039 -0.3447
 8395SOL    HW136818   2.334   3.522   3.189  1.2189  0.5336  1.7691
 8395SOL    HW236819   2.297   3.661   3.191  0.4263 -0.2845 -0.1237
 8396SOL     OW36820   4.430   1.230  12.578  0.5003 -0.5284 -0.1634
 8396SOL    HW136821   4.465   1.253  12.492  0.3473 -0.3407 -0.1765
 8396SOL    HW236822   4.358   1.168  12.562 -0.3823  0.0843  1.5142
 8397SOL     OW36823   0.068   2.872   4.661 -0.3324  0.3360 -0.1304
 8397SOL    HW136824   4.723   2.823   4.659  1.1216 -2.1133 -0.8263
 8397SOL    HW236825   0.100   2.844   4.747 -1.3842 -0.4410  0.0084
 8398SOL     OW36826   2.349   3.109   2.965  0.0835  0.8947  0.5395
 8398SOL    HW136827   2.318   3.021   2.988  0.2239  1.1577  1.7285
 8398SOL    HW236828   2.422   3.082   2.909 -0.0072  0.5567  0.5839
 8399SOL     OW36829   3.523   4.009   8.570 -0.3761 -0.3096 -0.5822
 8399SOL    HW136830   3.509   4.035   8.479 -0.0765 -0.6999 -0.7400
 8399SOL    HW236831   3.585   4.078   8.596 -0.2349 -0.2412 -1.0923
 8400SOL     OW36832   0.773   1.102  12.491  0.2115  0.0694  0.2961
 8400SOL    HW136833   0.761   1.193  12.463 -0.7631 -0.4478 -0.9597
 8400SOL    HW236834   0.838   1.079  12.426 -0.9914 -1.3722 -0.4047
 8401SOL     OW36835   2.864   1.812   6.216  0.6253 -0.8674  0.3213
 8401SOL    HW136836   2.862   1.749   6.144 -0.0911 -0.1784 -0.2573
 8401SOL    HW236837   2.940   1.771   6.258  0.5176 -1.0813  0.3057
 8402SOL     OW36838   0.052   0.803  15.892 -0.1555 -0.0615  0.0382
 8402SOL    HW136839   0.077   0.757  15.812 -0.0997 -0.4597  0.2830
 8402SOL    HW236840   0.106   0.882  15.889 -0.6574  0.2248 -1.2042
 8403SOL     OW36841   1.037   0.486  10.892 -0.4720  0.1950  0.9202
 8403SOL    HW136842   0.953   0.511  10.853 -0.4701 -0.6770  0.3696
 8403SOL    HW236843   1.007   0.438  10.969 -1.5965  1.3932  1.2435
 8404SOL     OW36844   0.365   4.683   8.138  0.2232 -0.2022  0.1135
 8404SOL    HW136845   0.305   4.609   8.145 -0.2121 -0.1060 -2.7544
 8404SOL    HW236846   0.444   4.658   8.187 -0.6256 -0.5611  1.3032
 8405SOL     OW36847   0.011   1.559   7.499 -0.0970  0.1205 -0.1141
 8405SOL    HW136848   4.697   1.592   7.572  0.4520 -1.7207  1.0952
 8405SOL    HW236849   0.096   1.603   7.503 -0.9696  1.6288  1.5432
 8406SOL     OW36850   2.981   0.574   9.780  0.0773 -0.3557  0.0507
 8406SOL    HW136851   3.006   0.666   9.780  0.3990 -0.4398 -1.4603
 8406SOL    HW236852   3.035   0.540   9.851  1.9106 -0.2076 -1.2731
 8407SOL     OW36853   4.506   1.137  14.374  0.0391  0.4217 -0.3592
 8407SOL    HW136854   4.582   1.166  14.325 -0.1817 -1.4769 -1.8136
 8407SOL    HW236855   4.520   1.173  14.462  0.9577 -2.4955  0.7000
 8408SOL     OW36856   0.144   1.120   6.053  0.8472 -0.7752 -0.4486
 8408SOL    HW136857   0.096   1.150   6.130  0.4335 -1.5533 -0.4035
 8408SOL    HW236858   0.081   1.125   5.981 -0.3350 -0.7421  0.5865
 8409SOL     OW36859   3.291   2.840  12.221  0.3452  0.2321 -0.7201
 8409SOL    HW136860   3.237   2.856  12.298  0.9744  0.1293 -0.2653
 8409SOL    HW236861   3.303   2.933  12.202  0.1570 -0.6666 -5.3048
 8410SOL     OW36862   1.767   1.917  16.849  0.1416 -0.1124  0.5963
 8410SOL    HW136863   1.680   1.944  16.821  0.0359 -1.0325  0.0512
 8410SOL    HW236864   1.803   1.973  16.918 -0.2126  0.2321  0.5001
 8411SOL     OW36865   2.881   0.968   3.920  0.3024 -0.4476  0.2905
 8411SOL    HW136866   2.959   1.024   3.918 -0.5693  0.7012 -1.6007
 8411SOL    HW236867   2.882   0.955   3.825  0.4905  1.3354  0.0364
 8412SOL     OW36868   3.458   2.092   1.039 -0.5723  0.0958 -0.0767
 8412SOL    HW136869   3.535   2.065   1.089 -0.9072  0.6200  0.7185
 8412SOL    HW236870   3.405   2.095   1.119  0.6213 -2.8939  0.8222
 8413SOL     OW36871   3.930   0.977  10.703 -0.6515 -0.1364  0.0043
 8413SOL    HW136872   3.991   0.904  10.705 -2.4388 -1.6669 -1.0930
 8413SOL    HW236873   3.850   0.929  10.680 -0.5783  0.2375 -1.0582
 8414SOL     OW36874   0.987   3.153  12.180 -0.1273  0.3209  0.3537
 8414SOL    HW136875   0.987   3.229  12.122 -2.1188  0.0122 -0.0327
 8414SOL    HW236876   0.998   3.198  12.264 -0.4937 -2.8710  2.1178
 8415SOL     OW36877   2.353   3.992   8.199 -0.3870  0.3922 -0.3028
 8415SOL    HW136878   2.265   4.010   8.233 -1.4271 -1.8103 -1.7963
 8415SOL    HW236879   2.396   4.073   8.225 -1.3303  0.3748  1.3065
 8416SOL     OW36880   0.196   1.874   8.671 -0.5426 -1.0155 -0.1882
 8416SOL    HW136881   0.174   1.896   8.762 -1.2901  1.2890 -0.9115
 8416SOL    HW236882   0.115   1.839   8.635 -1.9909  0.7799  1.2894
 8417SOL     OW36883   0.686   3.921  13.414  0.4479  0.1686  0.4467
 8417SOL    HW136884   0.622   3.868  13.367  1.7768 -0.2761 -0.8712
 8417SOL    HW236885   0.697   3.871  13.495 -1.5012 -0.8958  0.0485
 8418SOL     OW36886   1.824   1.122   7.490 -0.1198  0.1877 -0.1416
 8418SOL    HW136887   1.812   1.099   7.582 -1.6700 -0.5328 -0.5208
 8418SOL    HW236888   1.910   1.165   7.495 -0.9477  1.7714  0.4815
 8419SOL     OW36889   4.111   1.748   9.200 -0.1163  0.0814 -0.1205
 8419SOL    HW136890   4.098   1.680   9.133  3.4148 -1.1366  0.4098
 8419SOL    HW236891   4.024   1.786   9.210  0.4921  1.7454 -1.1061
 8420SOL     OW36892   1.275   0.193  16.784 -0.3804 -0.9061 -0.4038
 8420SOL    HW136893   1.313   0.242  16.858 -1.4498  0.0466 -0.4807
 8420SOL    HW236894   1.186   0.181  16.818 -0.1446 -0.8188  0.2468
 8421SOL     OW36895   3.659   1.474  17.075 -0.1754  0.0090 -0.0933
 8421SOL    HW136896   3.660   1.568  17.090  2.3570 -0.0734  0.2854
 8421SOL    HW236897   3.572   1.441  17.097  0.3608 -0.8281  0.8145
 8422SOL     OW36898   3.658   3.890  13.826  0.8785  0.1385  0.9965
 8422SOL    HW136899   3.726   3.862  13.765  0.2739  0.3414  0.2082
 8422SOL    HW236900   3.609   3.950  13.768 -0.8039 -1.1915  1.0292
 8423SOL     OW36901   3.269   2.613   1.262  0.0875  0.1666  0.4550
 8423SOL    HW136902   3.296   2.575   1.346 -2.7404  1.0714  1.7609
 8423SOL    HW236903   3.249   2.704   1.280 -1.0097  0.1562 -0.6102
 8424SOL     OW36904   4.636   1.533  13.217 -0.0308  0.0733  0.1700
 8424SOL    HW136905   4.671   1.537  13.128  0.0282 -2.8619  0.0876
 8424SOL    HW236906   4.595   1.620  13.219 -0.0174  0.0468  1.7210
 8425SOL     OW36907   0.112   1.102   5.741  0.4653 -0.4471  0.0905
 8425SOL    HW136908   0.105   1.033   5.675 -1.2119  0.2596 -0.4439
 8425SOL    HW236909   0.205   1.124   5.729  0.4033 -0.0308  0.3846
 8426SOL     OW36910   0.387   3.704   1.987  0.4021 -0.4751  0.9180
 8426SOL    HW136911   0.431   3.785   1.963  0.2390 -1.2388 -1.8997
 8426SOL    HW236912   0.443   3.667   2.056  3.6060  0.0543 -1.4088
 8427SOL     OW36913   3.109   0.406   1.592  0.0625  0.4749  0.1585
 8427SOL    HW136914   3.045   0.346   1.631 -0.8342  0.9323 -0.6189
 8427SOL    HW236915   3.170   0.422   1.663 -0.2051  0.1067  0.4718
 8428SOL     OW36916   4.606   0.638   8.323 -0.0310  0.1934  0.1445
 8428SOL    HW136917   4.538   0.620   8.388 -0.8121 -2.2902 -1.3839
 8428SOL    HW236918   4.576   0.715   8.275  2.4135  2.5867  2.4030
 8429SOL     OW36919   0.369   4.544   2.901  0.4575 -0.1614  0.1382
 8429SOL    HW136920   0.454   4.566   2.941  0.0676  0.7444  0.4787
 8429SOL    HW236921   0.405   4.487   2.834  0.0510 -0.5032  0.2188
 8430SOL     OW36922   0.541   1.883  16.818 -0.3914  0.0123  0.4766
 8430SOL    HW136923   0.579   1.963  16.853  2.9621 -1.7698  0.9061
 8430SOL    HW236924   0.610   1.816  16.819  0.0723  0.4814 -0.3672
 8431SOL     OW36925   2.620   0.114   8.881 -0.2052  0.3108  0.4517
 8431SOL    HW136926   2.642   0.073   8.798 -3.2583  0.2173 -0.2997
 8431SOL    HW236927   2.664   0.198   8.868  2.3357 -0.7890  1.9891
 8432SOL     OW36928   3.209   0.314   5.727  0.2844  0.5973 -0.1959
 8432SOL    HW136929   3.159   0.253   5.781  1.3450 -0.0528  0.0381
 8432SOL    HW236930   3.164   0.392   5.759 -0.0786  1.5148 -2.9002
 8433SOL     OW36931   3.965   1.415   1.509 -0.4562 -0.7350  0.0676
 8433SOL    HW136932   3.897   1.444   1.447 -1.1730 -1.2721  0.6041
 8433SOL    HW236933   3.994   1.338   1.461 -3.5355 -1.6236 -0.3853
 8434SOL     OW36934   3.261   0.809   6.979 -0.2501 -0.4979  0.2234
 8434SOL    HW136935   3.176   0.852   6.988  0.2258  0.5049 -0.0873
 8434SOL    HW236936   3.254   0.775   6.889  1.1129 -0.3879  0.0705
 8435SOL     OW36937   3.078   3.716  13.009  0.4424 -0.0524 -0.1437
 8435SOL    HW136938   3.128   3.746  13.085 -0.4918  2.2371 -0.4357
 8435SOL    HW236939   3.069   3.621  13.015  0.5952  0.1895  3.8448
 8436SOL     OW36940   0.063   3.070   3.378 -0.1696  0.1510  0.2894
 8436SOL    HW136941   4.710   3.089   3.355 -0.5622 -1.0610  0.8473
 8436SOL    HW236942   0.058   3.012   3.454 -0.6642 -0.4840 -0.2269
 8437SOL     OW36943   2.779   3.547   0.022 -0.3486 -0.6002  0.1034
 8437SOL    HW136944   2.814   3.604  17.702 -0.6310 -0.0178  0.4396
 8437SOL    HW236945   2.791   3.460  17.731 -0.3654  0.1779 -1.6283
 8438SOL     OW36946   2.266   2.628   8.607 -0.0184  0.2079  0.0164
 8438SOL    HW136947   2.310   2.651   8.526  1.0858 -2.3253 -0.0807
 8438SOL    HW236948   2.171   2.638   8.593 -0.4214 -0.3989  2.3188
 8439SOL     OW36949   2.366   2.343  12.154 -0.0582 -0.0218  0.6787
 8439SOL    HW136950   2.344   2.297  12.072 -1.4600  0.1488  0.9591
 8439SOL    HW236951   2.460   2.333  12.170 -0.1619  1.9684  2.5281
 8440SOL     OW36952   1.053   2.580   9.459  0.0011  0.0194 -0.1389
 8440SOL    HW136953   1.129   2.585   9.518  1.3080 -0.8502 -1.7537
 8440SOL    HW236954   1.056   2.486   9.441 -1.4067  0.1684 -1.0869
 8441SOL     OW36955   1.421   3.897  11.105 -0.1251 -0.5471 -0.3975
 8441SOL    HW136956   1.379   3.914  11.189 -0.4368 -3.9492  0.1234
 8441SOL    HW236957   1.348   3.863  11.054 -1.2245 -0.2023  0.9497
 8442SOL     OW36958   4.590   3.319   0.178  0.4072  0.5362  0.2452
 8442SOL    HW136959   4.614   3.231   0.204  0.4882  0.4757 -0.0360
 8442SOL    HW236960   4.609   3.308   0.085 -1.2234 -0.3534  0.0112
 8443SOL     OW36961   4.294   3.554   5.618  0.4233 -0.2898  0.1130
 8443SOL    HW136962   4.268   3.545   5.526  0.2145 -2.1461  0.3708
 8443SOL    HW236963   4.344   3.473   5.626 -1.7251 -1.3555  2.4953
 8444SOL     OW36964   2.353   3.067  10.984  0.1995 -0.1461 -0.0527
 8444SOL    HW136965   2.282   3.027  11.034 -0.4227  0.0702 -0.7629
 8444SOL    HW236966   2.301   3.133  10.938 -1.5417 -0.5357  1.3574
 8445SOL     OW36967   2.247   2.987   6.433 -0.5220 -0.1397  0.3097
 8445SOL    HW136968   2.194   2.960   6.508 -1.0932  1.4352  0.4744
 8445SOL    HW236969   2.203   2.941   6.361  0.2941 -1.6127  0.7625
 8446SOL     OW36970   1.516   2.341   7.108  0.3181  0.9400 -0.2668
 8446SOL    HW136971   1.475   2.352   7.194  2.5891  1.1218  0.8059
 8446SOL    HW236972   1.542   2.430   7.084 -0.2137  1.9288  2.8586
 8447SOL     OW36973   3.386   1.491   5.923 -0.3151  0.3778 -0.3460
 8447SOL    HW136974   3.464   1.541   5.947 -2.0772  1.7347  2.4984
 8447SOL    HW236975   3.426   1.431   5.860 -0.5632  0.5370 -0.6534
 8448SOL     OW36976   3.244   2.471   6.906  0.6049 -0.1061  0.4087
 8448SOL    HW136977   3.254   2.467   7.001  3.3671  0.0084  0.1316
 8448SOL    HW236978   3.193   2.551   6.898  1.3725  0.0713 -2.8029
 8449SOL     OW36979   4.399   0.530  14.040 -0.1234 -0.2054 -0.2204
 8449SOL    HW136980   4.450   0.567  14.112  1.2285 -1.1981 -0.6476
 8449SOL    HW236981   4.408   0.436  14.057  0.8932 -0.1795 -0.5719
 8450SOL     OW36982   0.545   1.375  12.602  0.2180 -0.2235  0.4649
 8450SOL    HW136983   0.498   1.395  12.521  1.1998  1.3334  0.2848
 8450SOL    HW236984   0.587   1.461  12.612  1.4190 -0.6263 -1.1148
 8451SOL     OW36985   1.807   2.266   6.328  0.3872 -0.0036 -0.5192
 8451SOL    HW136986   1.894   2.300   6.350 -0.4155  0.1213  2.5258
 8451SOL    HW236987   1.768   2.330   6.269  0.9947 -0.6733 -1.6380
 8452SOL     OW36988   2.515   2.302  13.288 -0.4095  0.0593 -0.2069
 8452SOL    HW136989   2.444   2.312  13.352  0.6048 -2.3181  1.2807
 8452SOL    HW236990   2.582   2.348  13.339 -0.2059  0.9586 -1.2870
 8453SOL     OW36991   2.620   0.357  13.997  0.0211  0.5619 -0.4133
 8453SOL    HW136992   2.549   0.420  13.979 -0.5040  0.1563  0.2465
 8453SOL    HW236993   2.663   0.414  14.061  0.5491  1.0762 -1.2141
 8454SOL     OW36994   1.835   0.437   6.436 -0.0479  0.2715 -0.0333
 8454SOL    HW136995   1.864   0.356   6.479 -0.7402 -1.0341 -2.0169
 8454SOL    HW236996   1.918   0.458   6.392  0.6870  0.2238  1.3373
 8455SOL     OW36997   2.453   0.887   2.947  0.3562 -0.3708  0.5935
 8455SOL    HW136998   2.449   0.807   3.000  0.4523 -1.0858 -0.4850
 8455SOL    HW236999   2.544   0.886   2.919  1.0538 -2.5508  2.9722
 8456SOL     OW37000   2.837   2.100   5.806  0.1972 -0.2600  0.6360
 8456SOL    HW137001   2.891   2.171   5.772 -0.9882 -0.0627 -0.8592
 8456SOL    HW237002   2.891   2.023   5.786  0.9914  0.7780 -1.2462
 8457SOL     OW37003   3.909   2.293  12.232 -0.8390  0.2164  0.1215
 8457SOL    HW137004   3.949   2.359  12.289 -1.6807  1.1832 -0.4055
 8457SOL    HW237005   3.949   2.215  12.270 -1.1487 -0.6396 -1.3422
 8458SOL     OW37006   1.288   3.206   5.559  0.4435  0.5137 -0.7135
 8458SOL    HW137007   1.284   3.270   5.630 -0.9668 -0.1896 -0.1564
 8458SOL    HW237008   1.377   3.174   5.576  0.5778  0.8992 -0.7016
 8459SOL     OW37009   0.277   2.597   8.256  0.0552  0.2579  0.0572
 8459SOL    HW137010   0.223   2.529   8.297  0.3495 -1.4248 -2.3121
 8459SOL    HW237011   0.362   2.558   8.277 -0.0692 -0.8049 -1.3753
 8460SOL     OW37012   0.403   3.739  17.532 -0.5298  0.3821  0.5359
 8460SOL    HW137013   0.329   3.687  17.502  0.0670 -0.6884  0.9406
 8460SOL    HW237014   0.357   3.792  17.596 -2.1852  0.3831 -0.6662
 8461SOL     OW37015   2.141   3.470   1.900  0.0131  0.2125  0.0964
 8461SOL    HW137016   2.221   3.418   1.896 -0.3762 -0.4439  0.7326
 8461SOL    HW237017   2.172   3.553   1.937  2.2207 -0.5154 -0.1085
 8462SOL     OW37018   1.089   4.299   5.343  0.2330 -0.2405 -0.4841
 8462SOL    HW137019   1.021   4.233   5.355  0.7584 -1.0000 -1.7388
 8462SOL    HW237020   1.123   4.283   5.255 -1.8581  0.6674 -1.4475
 8463SOL     OW37021   0.892   3.998   5.320  0.1310  0.0956 -0.3824
 8463SOL    HW137022   0.950   3.931   5.284  1.8457  0.0773  2.4236
 8463SOL    HW237023   0.809   3.965   5.285  0.2879 -1.3573  0.6368
 8464SOL     OW37024   4.057   2.127  12.360 -0.5828 -0.0751  0.3206
 8464SOL    HW137025   4.116   2.053  12.345 -2.4822 -1.7875  1.2823
 8464SOL    HW237026   4.109   2.184  12.417  0.6054 -0.8454  0.0041
 8465SOL     OW37027   2.130   4.066   6.192  0.2805  0.2539 -0.4268
 8465SOL    HW137028   2.152   3.996   6.254  1.1773  1.0043  0.1164
 8465SOL    HW237029   2.165   4.035   6.109 -0.6108 -2.4689  0.2146
 8466SOL     OW37030   0.936   2.952   4.476  0.1260 -0.1198 -0.2168
 8466SOL    HW137031   1.025   2.921   4.493  0.3109 -0.1940 -1.2852
 8466SOL    HW237032   0.886   2.891   4.529  0.1004  0.9559  1.0033
 8467SOL     OW37033   2.846   0.445   8.036 -0.0202  0.0446 -0.0040
 8467SOL    HW137034   2.771   0.390   8.058  0.3357 -1.0625 -1.4624
 8467SOL    HW237035   2.858   0.412   7.947  0.1615  0.4162 -0.1191
 8468SOL     OW37036   1.446   0.692   3.425 -0.7041  0.5506  0.1243
 8468SOL    HW137037   1.439   0.596   3.425  2.2992  0.3297 -2.3055
 8468SOL    HW237038   1.412   0.713   3.512 -1.4418  2.4082 -0.6125
 8469SOL     OW37039   4.191   1.827   7.157  0.3740  0.1751  0.1500
 8469SOL    HW137040   4.226   1.860   7.074  0.4280  2.3048  1.0184
 8469SOL    HW237041   4.178   1.737   7.126  2.1328  0.6406 -1.9434
 8470SOL     OW37042   1.266   4.058   8.336 -0.0777  0.1397  0.4273
 8470SOL    HW137043   1.264   3.981   8.279  0.5484  0.4154  0.0391
 8470SOL    HW237044   1.212   4.037   8.413  0.7190  0.1109  0.9794
 8471SOL     OW37045   4.588   4.489   9.651  0.1752 -0.0358  0.5927
 8471SOL    HW137046   4.574   4.567   9.597  0.6516  0.1157  0.6871
 8471SOL    HW237047   4.499   4.453   9.653 -0.4078  1.4240  0.8883
 8472SOL     OW37048   2.983   0.615  11.970 -0.1015  0.8695 -0.0771
 8472SOL    HW137049   3.013   0.588  12.057  0.6941  0.1541 -0.5712
 8472SOL    HW237050   2.949   0.700  11.996 -0.2648  1.0261 -0.8148
 8473SOL     OW37051   0.860   4.707   2.906  0.2601  0.2981 -0.1895
 8473SOL    HW137052   0.888   4.662   2.826  3.1376  2.3231 -0.3328
 8473SOL    HW237053   0.943   4.723   2.951  2.0020 -0.7925 -3.0051
 8474SOL     OW37054   1.069   3.652   6.423 -0.7391 -0.1012  0.4758
 8474SOL    HW137055   1.001   3.657   6.355  0.2821 -0.3467 -0.5793
 8474SOL    HW237056   1.040   3.613   6.505  0.1084 -0.7233  0.4854
 8475SOL     OW37057   4.590   4.138   2.684  0.4090  0.5323 -0.0756
 8475SOL    HW137058   4.496   4.156   2.686  0.7195  2.1284  0.2648
 8475SOL    HW237059   4.622   4.223   2.654  0.6952 -0.7866 -3.4842
 8476SOL     OW37060   1.318   1.437   9.832 -0.3421 -0.1702 -0.4358
 8476SOL    HW137061   1.230   1.471   9.818  0.1317  0.8382 -0.9915
 8476SOL    HW237062   1.303   1.343   9.839  1.1567 -0.3769  0.0566
 8477SOL     OW37063   0.049   0.293  17.660 -0.1087  0.0761 -0.8173
 8477SOL    HW137064   4.712   0.266  17.607 -1.6348 -1.2444  1.9997
 8477SOL    HW237065   0.086   0.352  17.594  2.6032 -1.6219 -0.8076
 8478SOL     OW37066   0.392   0.962   9.039 -0.2986 -0.1871 -0.3019
 8478SOL    HW137067   0.357   0.902   9.105 -2.2937  1.7543  0.3950
 8478SOL    HW237068   0.350   1.046   9.057 -0.7348 -0.6557  0.8467
 8479SOL     OW37069   1.034   2.879   8.680 -0.5450  0.1554 -0.0474
 8479SOL    HW137070   0.945   2.861   8.710 -0.5453  0.6057  0.2379
 8479SOL    HW237071   1.069   2.790   8.687 -1.8025 -0.4732 -1.7040
 8480SOL     OW37072   4.266   2.328   8.849 -0.7434  0.1961 -0.1728
 8480SOL    HW137073   4.201   2.316   8.918  1.2385 -1.1070  1.4459
 8480SOL    HW237074   4.217   2.369   8.777  3.9002  0.4185 -3.2127
 8481SOL     OW37075   2.996   2.844  15.535 -0.2778 -0.1855 -0.2084
 8481SOL    HW137076   2.997   2.930  15.493  0.8713  1.0832  2.3991
 8481SOL    HW237077   2.987   2.872  15.626  1.9400  0.7457 -0.2883
 8482SOL     OW37078   3.484   3.217   7.970  0.4968 -0.3964 -0.4632
 8482SOL    HW137079   3.555   3.195   8.030  0.5948  2.7420  0.5273
 8482SOL    HW237080   3.404   3.214   8.022  0.5231  1.2774 -0.3350
 8483SOL     OW37081   2.484   3.082   6.321  0.0982  0.1398  0.2067
 8483SOL    HW137082   2.522   3.125   6.398 -0.5592  1.9017 -0.4696
 8483SOL    HW237083   2.391   3.084   6.343 -0.1008  2.2539 -0.8907
 8484SOL     OW37084   1.442   2.743   0.929 -0.3207  0.3650 -0.5404
 8484SOL    HW137085   1.491   2.662   0.918  2.4109  1.6017  2.7998
 8484SOL    HW237086   1.372   2.734   0.863 -0.9915 -3.8525  0.7538
 8485SOL     OW37087   3.467   1.844   7.215 -0.5521 -0.5074  0.2034
 8485SOL    HW137088   3.469   1.938   7.232 -0.1644 -0.5068  0.1583
 8485SOL    HW237089   3.501   1.847   7.126  1.3957 -0.9610  0.9168
 8486SOL     OW37090   0.450   1.365   5.119 -0.2793 -0.3517  0.0767
 8486SOL    HW137091   0.459   1.391   5.028 -1.9062 -2.2601 -0.6485
 8486SOL    HW237092   0.498   1.282   5.117  0.3934  0.0135  0.9974
 8487SOL     OW37093   3.585   1.818   6.954  0.1466 -0.5816 -0.0368
 8487SOL    HW137094   3.645   1.751   6.921 -0.4694 -1.9132  1.5496
 8487SOL    HW237095   3.507   1.764   6.944 -0.3130  0.1531 -0.4422
 8488SOL     OW37096   4.101   4.582  16.423 -0.3713  0.4688 -0.0183
 8488SOL    HW137097   4.194   4.595  16.407  0.2199 -2.3225  1.1839
 8488SOL    HW237098   4.108   4.495  16.461 -0.3204 -1.1001 -3.6251
 8489SOL     OW37099   1.156   0.345  15.477  0.0092 -0.7404  0.0377
 8489SOL    HW137100   1.191   0.400  15.407 -1.9633  0.5370  0.0415
 8489SOL    HW237101   1.223   0.326  15.543 -0.1836 -1.7425 -0.0594
 8490SOL     OW37102   0.393   4.717   9.495 -0.3101  0.4249  0.3447
 8490SOL    HW137103   0.303   4.712   9.527  0.9943 -3.0881  3.5795
 8490SOL    HW237104   0.439   4.660   9.558  1.5283  0.7814 -0.6881
 8491SOL     OW37105   3.435   0.568   9.445 -1.0025  0.4394  0.1735
 8491SOL    HW137106   3.341   0.573   9.463 -0.6588 -0.2254  2.1388
 8491SOL    HW237107   3.460   0.490   9.494 -1.0555  0.8028  0.7849
 8492SOL     OW37108   0.743   1.060   6.614  0.1824  0.1334  0.3083
 8492SOL    HW137109   0.657   1.019   6.613  0.0829  0.3731 -1.5120
 8492SOL    HW237110   0.776   1.029   6.699 -0.1385 -0.2229  0.3037
 8493SOL     OW37111   0.533   1.109   6.951  0.3168 -0.3202  0.3591
 8493SOL    HW137112   0.625   1.105   6.978 -0.1248  1.9103  2.1860
 8493SOL    HW237113   0.549   1.157   6.870  1.6433  1.5693  1.7426
 8494SOL     OW37114   3.200   1.589   2.419  0.1800  0.6152  0.3778
 8494SOL    HW137115   3.282   1.637   2.406  0.1406  0.7224  0.5333
 8494SOL    HW237116   3.226   1.512   2.367 -1.6073  0.0420  0.3602
 8495SOL     OW37117   1.361   1.660   7.062 -0.3184  0.0975 -0.5162
 8495SOL    HW137118   1.358   1.718   7.138  0.5846  0.4353 -0.7276
 8495SOL    HW237119   1.432   1.703   7.013 -1.5157  2.2459 -0.3503
 8496SOL     OW37120   2.906   4.507   7.607 -0.2973 -0.1693 -0.0653
 8496SOL    HW137121   2.943   4.422   7.586  1.4870 -0.0586  2.5619
 8496SOL    HW237122   2.811   4.494   7.603 -0.4513 -0.0623  2.9102
 8497SOL     OW37123   0.512   4.241   5.109 -0.4188  0.2619  0.1598
 8497SOL    HW137124   0.424   4.260   5.076 -0.7054  0.5314  1.0801
 8497SOL    HW237125   0.487   4.197   5.190 -0.1991  1.0202  0.6371
 8498SOL     OW37126   3.006   4.249   7.535 -0.1969 -0.2691 -0.0502
 8498SOL    HW137127   3.093   4.247   7.495 -0.8425 -3.1718 -1.2880
 8498SOL    HW237128   2.950   4.219   7.463 -0.4197  0.6195 -0.2584
 8499SOL     OW37129   0.423   3.882   5.545 -0.7084  0.5917 -0.1960
 8499SOL    HW137130   0.431   3.914   5.635 -0.6388 -2.1206  0.7655
 8499SOL    HW237131   0.504   3.832   5.537 -0.0238  1.3791  1.9442
 8500SOL     OW37132   0.763   3.506   3.746 -0.0808  0.2150 -0.2388
 8500SOL    HW137133   0.748   3.601   3.745 -1.1284  0.0515  0.9560
 8500SOL    HW237134   0.680   3.475   3.781 -1.6830  1.1027 -3.3096
 8501SOL     OW37135   1.815   3.444   5.140 -0.3824  0.1663  0.0639
 8501SOL    HW137136   1.903   3.446   5.176  0.7188 -1.8739 -2.4952
 8501SOL    HW237137   1.811   3.527   5.092  1.8907  0.1623 -0.1284
 8502SOL     OW37138   4.564   4.300   0.257 -0.3799  0.2361 -0.5018
 8502SOL    HW137139   4.561   4.373   0.196  2.2108 -0.3769 -1.3340
 8502SOL    HW237140   4.565   4.231   0.190 -1.3088 -0.0667 -0.2103
 8503SOL     OW37141   4.296   1.392   9.725  0.1798 -0.3935 -0.1156
 8503SOL    HW137142   4.322   1.393   9.817  1.2565  0.8871 -0.4437
 8503SOL    HW237143   4.207   1.428   9.723  0.5481  0.4557 -0.8151
 8504SOL     OW37144   1.852   3.724   3.053  0.1564 -0.4910  0.4285
 8504SOL    HW137145   1.926   3.672   3.022  0.2176  0.5942 -1.2199
 8504SOL    HW237146   1.801   3.715   2.973  1.7315 -1.4076 -0.4841
 8505SOL     OW37147   0.445   4.153   8.517 -0.1824 -0.1342 -0.1868
 8505SOL    HW137148   0.400   4.149   8.432 -0.7046 -2.0187  0.1823
 8505SOL    HW237149   0.388   4.206   8.573  0.3663 -2.2892  2.3898
 8506SOL     OW37150   4.462   3.151   2.580 -0.6068 -0.3262 -0.0357
 8506SOL    HW137151   4.539   3.118   2.626 -0.8377 -1.4795 -0.4843
 8506SOL    HW237152   4.480   3.245   2.576 -0.9457 -0.3315 -1.6187
 8507SOL     OW37153   0.813   4.036   2.677 -0.3172 -0.0392  0.0733
 8507SOL    HW137154   0.728   4.000   2.654  0.5515 -2.1224  0.1596
 8507SOL    HW237155   0.871   3.986   2.619  1.5448  1.4472  0.6538
 8508SOL     OW37156   0.354   3.479   8.430  0.2963  0.1517  0.4869
 8508SOL    HW137157   0.430   3.532   8.454 -0.4203  1.6446 -0.4655
 8508SOL    HW237158   0.282   3.537   8.457  1.0930  0.6645  1.4925
 8509SOL     OW37159   0.179   1.722   1.981 -0.2031 -0.1078  0.0175
 8509SOL    HW137160   0.162   1.815   1.994 -1.3024 -0.2701 -0.2358
 8509SOL    HW237161   0.150   1.664   2.052 -1.2762 -1.7569 -1.7451
 8510SOL     OW37162   1.339   4.567   9.921  0.5018  0.0284  0.2157
 8510SOL    HW137163   1.357   4.477   9.947  2.4588 -0.2570 -2.0538
 8510SOL    HW237164   1.323   4.561   9.826 -1.2678  4.2541  0.2460
 8511SOL     OW37165   4.573   4.676   3.835 -0.0388 -0.2747  0.2311
 8511SOL    HW137166   4.626   4.684   3.915  1.0581  3.2045 -0.8521
 8511SOL    HW237167   4.637   4.627   3.783  0.7035  0.1023  0.7885
 8512SOL     OW37168   0.925   2.250   2.524 -0.5807 -0.6712 -0.1495
 8512SOL    HW137169   0.895   2.273   2.436 -1.4926 -1.5983 -0.0699
 8512SOL    HW237170   0.989   2.320   2.538 -0.5187 -0.7242 -0.1688
 8513SOL     OW37171   2.940   3.817   7.960 -0.3780  0.5088 -0.0425
 8513SOL    HW137172   2.994   3.770   8.024 -0.6313 -2.8291 -2.2946
 8513SOL    HW237173   2.976   3.905   7.973 -0.8129  0.5477  0.9274
 8514SOL     OW37174   3.651   0.923   6.988  0.0527  0.1955  0.0577
 8514SOL    HW137175   3.743   0.930   7.014 -0.0418  2.7468 -0.3545
 8514SOL    HW237176   3.651   0.830   6.962 -1.1453  0.1806  0.1162
 8515SOL     OW37177   0.409   2.396   7.491 -0.6288  0.2363 -0.6568
 8515SOL    HW137178   0.441   2.329   7.431  0.6616  0.0736  0.2137
 8515SOL    HW237179   0.364   2.452   7.427 -1.9370  0.9451  0.8596
 8516SOL     OW37180   2.126   3.709  10.309  0.2667  0.0817  0.4820
 8516SOL    HW137181   2.170   3.642  10.257  1.9661  1.2880  0.3689
 8516SOL    HW237182   2.124   3.653  10.386 -0.7234  0.8012  0.9865
 8517SOL     OW37183   4.679   0.563   1.830  0.2938 -0.2104 -0.0351
 8517SOL    HW137184   0.012   0.622   1.857 -0.0543  0.8064 -1.3918
 8517SOL    HW237185   4.725   0.481   1.810 -0.4867 -0.5649 -0.3838
 8518SOL     OW37186   3.546   4.498   5.406 -0.0172  0.2045  0.3501
 8518SOL    HW137187   3.641   4.487   5.404 -0.2164 -2.0139  2.9549
 8518SOL    HW237188   3.527   4.446   5.484 -2.2063  0.3694 -0.0766
 8519SOL     OW37189   2.813   0.742   7.226 -0.3830  0.2241  0.1710
 8519SOL    HW137190   2.783   0.652   7.210 -0.7602  0.2599  0.7127
 8519SOL    HW237191   2.784   0.758   7.315 -1.1278 -1.6936  0.2708
 8520SOL     OW37192   4.608   3.182  14.469  0.1901  1.5088 -0.5069
 8520SOL    HW137193   4.520   3.175  14.433 -1.1967  0.4744  3.1655
 8520SOL    HW237194   4.664   3.154  14.396 -1.9017  0.3501 -1.6510
 8521SOL     OW37195   1.391   3.037   1.031 -1.3243 -0.1574 -0.0054
 8521SOL    HW137196   1.466   3.042   1.090 -0.7163  0.5948 -0.8360
 8521SOL    HW237197   1.331   3.003   1.097 -2.6732 -1.0758 -1.7125
 8522SOL     OW37198   3.969   0.038   3.904  0.0154  0.3662  0.1135
 8522SOL    HW137199   4.054   0.078   3.923  0.0431  0.1581  0.4105
 8522SOL    HW237200   3.910   0.114   3.906 -1.5464 -0.7593 -2.2831
 8523SOL     OW37201   1.619   3.126  16.935 -0.0916  0.3813 -0.3496
 8523SOL    HW137202   1.615   3.058  17.001  2.0229 -1.5924 -2.2652
 8523SOL    HW237203   1.602   3.077  16.854 -1.1583  0.8546 -0.4175
 8524SOL     OW37204   4.412   0.309   5.358 -0.1897  0.6749  0.0824
 8524SOL    HW137205   4.479   0.314   5.427  1.0258 -0.5283 -0.9968
 8524SOL    HW237206   4.465   0.341   5.284  0.6858  0.2576  0.5247
 8525SOL     OW37207   3.085   0.545   5.801 -0.7128 -0.1598  0.1291
 8525SOL    HW137208   3.032   0.582   5.731 -0.4115 -0.7462 -0.4049
 8525SOL    HW237209   3.039   0.574   5.879  0.8661  2.3205  0.1472
 8526SOL     OW37210   1.273   4.543  13.625 -0.4543  0.1551 -0.3990
 8526SOL    HW137211   1.212   4.565  13.555 -0.6008  1.4417  0.1326
 8526SOL    HW237212   1.207   4.557  13.693  0.8511 -0.5175  1.0041
 8527SOL     OW37213   0.931   1.849   8.650  0.1093 -0.3799 -0.6815
 8527SOL    HW137214   0.958   1.826   8.739 -1.7593 -0.9892 -0.2570
 8527SOL    HW237215   0.874   1.775   8.628 -2.3791  1.0408  0.8791
 8528SOL     OW37216   4.396   2.379   3.784 -0.0892  0.2686  0.2572
 8528SOL    HW137217   4.356   2.338   3.860 -0.4515 -1.9133 -1.1296
 8528SOL    HW237218   4.329   2.438   3.749 -0.6826  0.2686  1.4083
 8529SOL     OW37219   1.026   0.402   1.666  0.2499  0.3544  0.3845
 8529SOL    HW137220   1.007   0.495   1.678  0.7722  0.3048  1.5887
 8529SOL    HW237221   0.958   0.357   1.716 -0.7867  0.1694 -1.1965
 8530SOL     OW37222   2.700   0.709   7.728  0.1871 -0.2938 -0.2779
 8530SOL    HW137223   2.706   0.736   7.820 -1.0302  0.1526 -0.3309
 8530SOL    HW237224   2.612   0.735   7.701  0.6338  1.1998 -0.2636
 8531SOL     OW37225   0.557   3.200   5.434 -0.1491 -0.2849 -0.1383
 8531SOL    HW137226   0.517   3.118   5.464 -0.9114  0.2371  0.2677
 8531SOL    HW237227   0.545   3.262   5.505 -1.6550  0.4418 -1.0241
 8532SOL     OW37228   0.679   0.304   1.606 -0.2303 -0.4279  0.0730
 8532SOL    HW137229   0.609   0.251   1.645 -1.4881  0.6027 -0.7975
 8532SOL    HW237230   0.757   0.262   1.644  0.0882 -0.1124 -0.2308
 8533SOL     OW37231   2.109   4.437  15.034  0.5099  0.2957 -0.6973
 8533SOL    HW137232   2.094   4.349  15.070 -1.6069  1.5557  1.4699
 8533SOL    HW237233   2.174   4.421  14.965  2.6164  0.2973  1.2878
 8534SOL     OW37234   0.222   0.507  17.439 -0.0485 -0.3482  0.3031
 8534SOL    HW137235   0.197   0.535  17.527  0.8927  3.3697 -0.6539
 8534SOL    HW237236   0.162   0.561  17.388  0.5199 -1.4173 -1.5156
 8535SOL     OW37237   1.129   3.462  10.120  0.8625 -0.0304  0.1934
 8535SOL    HW137238   1.177   3.409  10.057  1.9260 -0.2300  1.1576
 8535SOL    HW237239   1.191   3.445  10.192  1.5670 -1.3072 -0.7188
 8536SOL     OW37240   3.735   4.654   9.311  0.9331 -0.1521  0.2226
 8536SOL    HW137241   3.810   4.699   9.272 -0.5768  2.2240  0.0706
 8536SOL    HW237242   3.777   4.624   9.392  2.5117 -1.4427 -1.0822
 8537SOL     OW37243   3.118   0.105   7.130  0.3431  0.0475  0.1527
 8537SOL    HW137244   3.111   0.188   7.177 -1.0495  0.5635 -0.9919
 8537SOL    HW237245   3.103   0.041   7.199 -2.4863  1.6219  0.9538
 8538SOL     OW37246   3.010   1.794  11.870 -0.5881  0.4725  0.0956
 8538SOL    HW137247   2.991   1.714  11.918  3.1206 -0.8813 -0.6749
 8538SOL    HW237248   3.077   1.830  11.928 -0.4822  0.1541  0.1715
 8539SOL     OW37249   1.915   3.807   5.330  0.1209 -0.1089  0.0795
 8539SOL    HW137250   1.842   3.807   5.269  0.3037  1.2418 -0.1463
 8539SOL    HW237251   1.896   3.894   5.366 -2.8347 -0.7881  0.1985
 8540SOL     OW37252   0.161   2.457   2.153  0.4955  0.1127 -0.2316
 8540SOL    HW137253   0.236   2.516   2.143 -0.0611  0.3463 -2.9592
 8540SOL    HW237254   0.187   2.410   2.232 -0.7697  0.5004  0.4235
 8541SOL     OW37255   3.833   3.882   6.230  0.4021  0.1467  0.2302
 8541SOL    HW137256   3.922   3.869   6.196 -0.1985  0.0968 -1.3525
 8541SOL    HW237257   3.844   3.805   6.286  0.3268 -0.2633 -0.3153
 8542SOL     OW37258   0.558   3.388   6.977 -0.2554 -0.1480 -0.3526
 8542SOL    HW137259   0.521   3.300   6.978 -0.2551 -0.1644 -1.8579
 8542SOL    HW237260   0.597   3.386   7.065 -1.4283 -1.7491  0.1161
 8543SOL     OW37261   4.151   1.974   4.598 -0.1721 -0.1322 -0.3967
 8543SOL    HW137262   4.138   1.905   4.534  1.7353 -0.8664  0.0130
 8543SOL    HW237263   4.156   2.050   4.539  2.8360 -0.2579 -0.2830
 8544SOL     OW37264   4.063   0.455   4.400  0.4909 -0.0794  0.1518
 8544SOL    HW137265   3.997   0.483   4.336 -0.8790 -2.7833  0.3741
 8544SOL    HW237266   4.019   0.385   4.447 -0.8922  0.0022 -1.0201
 8545SOL     OW37267   1.220   1.596   2.387 -0.4124 -0.3266  0.3954
 8545SOL    HW137268   1.286   1.658   2.357 -0.7357  0.4686  1.3152
 8545SOL    HW237269   1.155   1.656   2.424  1.6793  1.7826  0.6278
 8546SOL     OW37270   2.668   3.020  12.091 -0.0542 -0.1604  0.9218
 8546SOL    HW137271   2.592   2.962  12.081 -1.0333  1.7650 -2.8808
 8546SOL    HW237272   2.622   3.104  12.098 -1.3926 -0.8839  0.8811
 8547SOL     OW37273   0.045   3.356   2.614 -0.0226  0.0057 -0.4154
 8547SOL    HW137274   0.110   3.363   2.545 -0.6963 -0.5015 -1.1008
 8547SOL    HW237275   0.096   3.393   2.686 -0.6361  2.9489 -1.4854
 8548SOL     OW37276   0.449   4.543   4.694 -0.0263 -0.4525  0.3241
 8548SOL    HW137277   0.458   4.453   4.662  1.6869 -0.1773  0.0316
 8548SOL    HW237278   0.410   4.523   4.779 -0.8356 -2.2191 -0.4507
 8549SOL     OW37279   0.322   0.453   6.196 -0.0058  0.0018  0.3325
 8549SOL    HW137280   0.306   0.527   6.137  4.1993 -0.4666 -1.4672
 8549SOL    HW237281   0.295   0.487   6.281 -2.3215 -2.8401  0.7143
 8550SOL     OW37282   2.778   1.504  12.660  0.1645  0.3952 -0.3042
 8550SOL    HW137283   2.801   1.412  12.677 -1.2922  0.2261  0.7203
 8550SOL    HW237284   2.854   1.544  12.617 -0.5755  0.9779 -1.0595
 8551SOL     OW37285   1.375   1.142   1.637  0.0402  0.3836 -0.0009
 8551SOL    HW137286   1.376   1.078   1.708  2.1744  0.2100 -0.1814
 8551SOL    HW237287   1.362   1.223   1.686  0.9273  1.4758 -1.5683
 8552SOL     OW37288   2.487   0.430   4.041 -0.7508 -0.7384 -0.2065
 8552SOL    HW137289   2.531   0.471   3.967  2.0024 -1.7133  0.8579
 8552SOL    HW237290   2.546   0.443   4.116  1.2526 -3.0760 -1.3861
 8553SOL     OW37291   2.472   3.734   8.933  0.5046  0.1779 -0.5200
 8553SOL    HW137292   2.441   3.824   8.917  0.7601  0.3313 -0.1576
 8553SOL    HW237293   2.489   3.736   9.027  1.5405 -1.5452 -0.6799
 8554SOL     OW37294   4.615   0.142   7.027  0.4115 -0.0253 -0.8057
 8554SOL    HW137295   4.599   0.082   7.100 -2.6765 -1.1388 -2.4127
 8554SOL    HW237296   4.710   0.133   7.024  0.4111 -0.9986  1.6711
 8555SOL     OW37297   1.987   0.089   3.612 -0.2925 -0.1396 -0.4611
 8555SOL    HW137298   2.036   0.008   3.620  0.6887  0.3728 -1.3247
 8555SOL    HW237299   1.955   0.096   3.702 -0.1877 -0.3791 -0.4069
 8556SOL     OW37300   4.452   0.538   7.252  0.1601 -0.4200 -0.4649
 8556SOL    HW137301   4.534   0.533   7.204  0.2736  1.0522 -0.4352
 8556SOL    HW237302   4.398   0.495   7.186  1.5178 -0.0507 -1.8165
 8557SOL     OW37303   1.791   0.444  15.780  0.5923 -0.1007 -0.1041
 8557SOL    HW137304   1.814   0.439  15.688  1.0218  1.9998 -0.0935
 8557SOL    HW237305   1.730   0.516  15.796  0.1037 -0.6790  0.6774
 8558SOL     OW37306   2.527   2.911   7.241 -0.4080 -0.0516  0.0728
 8558SOL    HW137307   2.519   2.886   7.149  0.6952  1.3046 -0.3911
 8558SOL    HW237308   2.432   2.903   7.253 -0.5710  0.1586 -0.9908
 8559SOL     OW37309   1.754   3.260   2.836 -0.0549  0.5990 -0.0596
 8559SOL    HW137310   1.824   3.315   2.799 -0.7287  1.9781  0.7281
 8559SOL    HW237311   1.797   3.178   2.809  1.0511  2.0791 -2.7864
 8560SOL     OW37312   2.746   1.617   2.774 -0.2786 -0.1197  0.3172
 8560SOL    HW137313   2.828   1.650   2.812 -0.2056  0.6602 -0.5105
 8560SOL    HW237314   2.724   1.695   2.723 -1.0904 -1.3179 -1.1448
 8561SOL     OW37315   4.068   0.963   7.357 -0.0683  0.3083 -0.2933
 8561SOL    HW137316   4.086   1.056   7.372 -1.2930  0.7920 -1.7944
 8561SOL    HW237317   4.139   0.948   7.294 -0.1348 -1.2835  0.0280
 8562SOL     OW37318   3.683   1.124   5.120  0.7621 -0.1648  0.1635
 8562SOL    HW137319   3.659   1.111   5.028  3.7673 -0.8927 -0.5038
 8562SOL    HW237320   3.746   1.194   5.106  0.6820  0.0086  0.6613
 8563SOL     OW37321   2.513   2.485  12.357 -0.0219  0.1875  0.6036
 8563SOL    HW137322   2.463   2.451  12.283 -1.4782 -1.7513  2.4905
 8563SOL    HW237323   2.490   2.578  12.347  1.1281  0.3949 -0.1092
 8564SOL     OW37324   3.081   2.638   1.554  0.1505  0.2951  0.2079
 8564SOL    HW137325   3.012   2.573   1.560  0.1604  0.4428  1.8376
 8564SOL    HW237326   3.065   2.676   1.467 -0.2608 -0.6250 -0.1203
 8565SOL     OW37327   1.522   2.246   1.421 -0.0366 -0.2081 -0.2693
 8565SOL    HW137328   1.548   2.162   1.457 -1.0812  0.1160  1.2271
 8565SOL    HW237329   1.426   2.240   1.422 -0.2951  3.3093 -1.7295
 8566SOL     OW37330   4.155   0.103  10.607 -0.4694  0.3064  0.2886
 8566SOL    HW137331   4.125   0.100  10.516  0.8557  0.3341 -0.1414
 8566SOL    HW237332   4.076   0.117  10.659 -0.1795  1.3010  0.4530
 8567SOL     OW37333   1.689   4.026   4.551 -0.2793 -0.2996 -0.3364
 8567SOL    HW137334   1.681   4.042   4.645 -0.4965  0.1152 -0.4249
 8567SOL    HW237335   1.760   3.962   4.551  1.0304  1.1688  3.5560
 8568SOL     OW37336   3.040   4.061   9.578  0.3382  0.5659  0.0903
 8568SOL    HW137337   3.129   4.091   9.562 -0.0753  0.8269 -1.6533
 8568SOL    HW237338   3.039   3.981   9.525 -0.8266  0.9314 -0.4436
 8569SOL     OW37339   4.506   4.352   5.009  0.0258 -0.2471  0.0352
 8569SOL    HW137340   4.425   4.386   4.969 -2.1209 -3.0665  1.9751
 8569SOL    HW237341   4.518   4.405   5.088 -0.0065 -0.3442  0.1055
 8570SOL     OW37342   4.043   2.146   7.510 -0.3541 -0.0806  0.8617
 8570SOL    HW137343   4.099   2.224   7.509 -2.0558  1.1016 -1.8152
 8570SOL    HW237344   4.055   2.122   7.418 -1.7486  0.5801  0.5077
 8571SOL     OW37345   3.853   0.718  17.081  0.0834  0.1059 -0.0966
 8571SOL    HW137346   3.929   0.758  17.123 -1.2226  2.9073 -0.3961
 8571SOL    HW237347   3.805   0.685  17.157  1.7834  1.1656  1.4516
 8572SOL     OW37348   0.652   2.486   4.871  0.4955  0.3189  0.0842
 8572SOL    HW137349   0.582   2.443   4.822  2.1069 -0.9368 -1.0999
 8572SOL    HW237350   0.612   2.554   4.925 -1.0524 -0.0259 -0.6315
 8573SOL     OW37351   3.596   0.528   6.416  0.3681 -0.5136 -0.4570
 8573SOL    HW137352   3.588   0.531   6.512  0.4045 -1.2903 -0.4354
 8573SOL    HW237353   3.563   0.616   6.398 -1.1688 -1.5174 -2.4310
 8574SOL     OW37354   3.556   3.974   9.213  0.3258  0.0527 -0.8078
 8574SOL    HW137355   3.503   3.917   9.158 -0.1525  2.6230 -3.0302
 8574SOL    HW237356   3.645   3.940   9.204 -0.7193 -2.7605 -0.5997
 8575SOL     OW37357   2.346   3.615   2.871 -0.3851 -0.1359 -0.1116
 8575SOL    HW137358   2.435   3.632   2.841 -0.4167  0.6965  0.2814
 8575SOL    HW237359   2.356   3.616   2.966 -0.8411  0.1256 -0.0676
 8576SOL     OW37360   0.460   1.990   1.990 -0.1211 -0.0958 -0.5128
 8576SOL    HW137361   0.555   2.004   1.994 -0.1173  0.0645 -1.2200
 8576SOL    HW237362   0.442   2.057   1.925  0.4296  0.6371  0.0813
 8577SOL     OW37363   0.457   3.596   2.879 -0.5590 -0.6810  0.8435
 8577SOL    HW137364   0.383   3.647   2.911 -0.9381 -0.6352 -0.1007
 8577SOL    HW237365   0.526   3.628   2.937  0.8874  1.1586 -1.8961
 8578SOL     OW37366   1.916   4.434   4.671 -0.1930  0.4300  0.0648
 8578SOL    HW137367   1.914   4.489   4.749 -2.1314 -0.3218  0.5378
 8578SOL    HW237368   2.006   4.401   4.673  0.4903  2.1102 -2.7744
 8579SOL     OW37369   3.402   4.350   9.249 -1.0339  0.2252 -0.3082
 8579SOL    HW137370   3.361   4.315   9.170  0.6257 -1.6635 -0.3427
 8579SOL    HW237371   3.425   4.270   9.297 -3.0767  0.1775  0.5871
 8580SOL     OW37372   0.869   3.054   5.735 -0.1365  0.1717 -1.1505
 8580SOL    HW137373   0.904   3.109   5.665 -1.6394  1.1362 -1.1648
 8580SOL    HW237374   0.949   3.002   5.740 -0.6367 -0.8758 -3.9005
 8581SOL     OW37375   2.113   2.629   8.127 -0.7388 -0.7484 -0.1987
 8581SOL    HW137376   2.100   2.717   8.092 -0.0108 -1.1270 -1.4106
 8581SOL    HW237377   2.172   2.593   8.061 -2.3151 -1.0152 -1.4497
 8582SOL     OW37378   0.193   0.388  13.918 -0.3722 -0.0618  0.1921
 8582SOL    HW137379   0.257   0.318  13.933 -2.3993 -1.6135  1.6600
 8582SOL    HW237380   0.247   0.467  13.915 -0.1028 -0.2985 -1.3994
 8583SOL     OW37381   0.158   1.580   8.387  0.1923  1.1259  0.3924
 8583SOL    HW137382   0.076   1.557   8.430 -0.1135  1.1506 -0.1833
 8583SOL    HW237383   0.140   1.670   8.361  1.5845  0.5279 -2.6694
 8584SOL     OW37384   2.577   0.261   5.546 -0.1180  0.5991 -0.4162
 8584SOL    HW137385   2.630   0.206   5.604  2.4183  1.9989 -1.3583
 8584SOL    HW237386   2.512   0.302   5.602 -1.2665 -0.3313 -1.0772
 8585SOL     OW37387   3.666   3.974   7.152 -0.2552 -0.0419  0.1630
 8585SOL    HW137388   3.730   4.006   7.216 -1.8011  0.1287  1.6473
 8585SOL    HW237389   3.675   4.039   7.082  2.4987 -0.2416  0.3229
 8586SOL     OW37390   1.459   1.863   4.767 -0.1671  0.2634  0.3164
 8586SOL    HW137391   1.432   1.889   4.679  0.4751  0.8502  0.2976
 8586SOL    HW237392   1.544   1.829   4.738  0.6006  2.1977  0.2798
 8587SOL     OW37393   1.888   2.267   3.427 -0.4696  0.1227  0.5949
 8587SOL    HW137394   1.843   2.200   3.478  0.2347  1.6826  3.2483
 8587SOL    HW237395   1.939   2.311   3.495  2.4046 -0.7758 -0.9428
 8588SOL     OW37396   2.424   1.779   8.851  0.0048 -0.5474  0.6266
 8588SOL    HW137397   2.378   1.757   8.932  0.4086 -0.2361  0.9430
 8588SOL    HW237398   2.481   1.843   8.895 -1.0805  2.0545 -1.7071
 8589SOL     OW37399   4.665   0.941   6.733 -0.0651 -0.3332  0.0074
 8589SOL    HW137400   4.690   1.012   6.791  1.5365 -0.7850 -0.1250
 8589SOL    HW237401   4.601   0.982   6.674 -0.0647  0.3630  0.4950
 8590SOL     OW37402   1.665   1.921   4.986 -0.1419  0.4691 -0.1966
 8590SOL    HW137403   1.643   1.895   5.075 -0.7569  0.2582 -0.4114
 8590SOL    HW237404   1.588   1.887   4.940  0.2940 -2.0909  0.9576
 8591SOL     OW37405   3.085   4.350   8.868 -0.4498 -0.5294 -0.1265
 8591SOL    HW137406   3.090   4.307   8.783 -2.1092 -1.9704  0.4942
 8591SOL    HW237407   3.029   4.425   8.851 -0.2030 -0.1913  0.5426
 8592SOL     OW37408   2.431   1.093  12.885 -0.2213 -0.1197 -0.3301
 8592SOL    HW137409   2.432   1.020  12.822 -0.8005 -0.5029  0.1021
 8592SOL    HW237410   2.403   1.039  12.959  3.3816  0.2785  1.2724
 8593SOL     OW37411   3.421   3.296   4.521 -0.3923 -0.4250  0.0337
 8593SOL    HW137412   3.328   3.275   4.515 -0.3491 -0.1317 -1.5888
 8593SOL    HW237413   3.459   3.210   4.505 -1.2263 -0.8951  0.5872
 8594SOL     OW37414   1.721   4.093  11.021 -0.0040  0.4523  0.3956
 8594SOL    HW137415   1.687   4.015  11.066  0.0089 -1.0119 -2.1588
 8594SOL    HW237416   1.795   4.104  11.081 -0.6868 -0.4619  1.4201
 8595SOL     OW37417   2.499   1.055  16.518  0.2327  0.1415 -0.0686
 8595SOL    HW137418   2.498   1.122  16.587  2.4100  0.7196 -0.5772
 8595SOL    HW237419   2.569   1.000  16.554  0.2623  0.7009  0.7257
 8596SOL     OW37420   3.827   0.115   2.016  0.0930 -0.2863  0.0883
 8596SOL    HW137421   3.892   0.121   2.086 -1.5542  1.4678  1.4703
 8596SOL    HW237422   3.742   0.134   2.057  0.7349  1.1615  0.7586
 8597SOL     OW37423   2.332   0.228   4.598  0.1190  0.3176  0.5033
 8597SOL    HW137424   2.266   0.271   4.544  0.6573  0.3839 -0.1007
 8597SOL    HW237425   2.272   0.210   4.671  0.8393  1.8336  1.4853
 8598SOL     OW37426   3.143   2.025   7.191 -0.4869  0.3708  0.9361
 8598SOL    HW137427   3.059   2.068   7.179 -1.2150 -0.7717  1.9500
 8598SOL    HW237428   3.208   2.056   7.128  0.5363  0.2824  1.9504
 8599SOL     OW37429   1.804   2.768   2.713  0.4700 -0.0894  0.2493
 8599SOL    HW137430   1.780   2.773   2.620 -2.7419  0.7430  1.1025
 8599SOL    HW237431   1.891   2.731   2.699  1.6818  1.8548  2.7951
 8600SOL     OW37432   2.396   4.275   6.497 -0.0527 -0.1071  0.1464
 8600SOL    HW137433   2.469   4.335   6.509  0.4909 -0.9527  1.0453
 8600SOL    HW237434   2.364   4.259   6.585  1.1468  1.2842  0.8298
 8601SOL     OW37435   2.699   0.909   2.887 -0.0919 -0.1597 -0.7150
 8601SOL    HW137436   2.720   0.823   2.849 -0.0901 -0.1483 -0.7394
 8601SOL    HW237437   2.736   0.976   2.830 -1.1734  0.7301 -0.3692
 8602SOL     OW37438   4.138   3.804  13.688  0.1862 -0.0179 -0.5395
 8602SOL    HW137439   4.155   3.807  13.593  0.1993 -0.5186 -0.5569
 8602SOL    HW237440   4.229   3.798  13.719 -1.0220 -1.4134  2.6182
 8603SOL     OW37441   2.136   0.621  16.911  0.0163  0.3027 -0.1113
 8603SOL    HW137442   2.103   0.692  16.968  0.3720  1.4066 -1.2845
 8603SOL    HW237443   2.225   0.653  16.897  1.4213 -1.9990  3.4786
 8604SOL     OW37444   0.115   1.473   1.756  0.4765 -0.3381 -0.0225
 8604SOL    HW137445   0.046   1.464   1.822  0.5097  1.7454  0.2814
 8604SOL    HW237446   0.194   1.460   1.809 -0.6090 -1.0372  1.4233
 8605SOL     OW37447   3.824   3.906   9.453  0.6999  0.4646  0.2008
 8605SOL    HW137448   3.746   3.871   9.497  1.1668  0.3122  0.8943
 8605SOL    HW237449   3.814   3.858   9.371 -1.3943 -0.5922  1.0636
 8606SOL     OW37450   2.667   4.321   7.472 -0.6414  0.1079  0.7591
 8606SOL    HW137451   2.626   4.261   7.534 -2.1192  2.1088  1.7052
 8606SOL    HW237452   2.634   4.407   7.498  0.6103  0.8206  0.0367
 8607SOL     OW37453   3.913   1.684   6.055  0.1163 -0.0250 -0.2889
 8607SOL    HW137454   3.905   1.746   6.128  0.6836 -1.6946  1.1873
 8607SOL    HW237455   3.944   1.732   5.979  0.1955  0.1374 -0.1541
 8608SOL     OW37456   1.575   4.361   5.808  0.3100  0.0541  0.1330
 8608SOL    HW137457   1.523   4.403   5.739  0.3268  0.0885  0.1407
 8608SOL    HW237458   1.614   4.438   5.850 -0.4373 -0.3286  1.5094
 8609SOL     OW37459   0.644   3.840  16.786  0.2028 -0.1692 -0.1487
 8609SOL    HW137460   0.553   3.869  16.783  0.1240 -0.1677  2.1057
 8609SOL    HW237461   0.669   3.826  16.694  3.8384  0.7182  0.7152
 8610SOL     OW37462   4.247   3.112   8.067 -0.3822  0.0293  0.0309
 8610SOL    HW137463   4.252   3.169   7.990 -0.1754 -0.2890 -0.1901
 8610SOL    HW237464   4.326   3.137   8.116 -0.8952  1.9541 -0.1116
 8611SOL     OW37465   2.719   3.181   3.906 -0.2511  0.2144 -0.2094
 8611SOL    HW137466   2.698   3.269   3.873  1.3671  0.5494 -0.3232
 8611SOL    HW237467   2.630   3.144   3.909 -0.4846  0.7825 -0.0300
 8612SOL     OW37468   1.708   0.376   8.908  0.4826  0.3223  0.3464
 8612SOL    HW137469   1.767   0.332   8.969 -0.3659 -0.9181  0.2911
 8612SOL    HW237470   1.634   0.394   8.966  0.8403 -0.1886  0.9566
 8613SOL     OW37471   3.341   0.134  11.410  0.5417  0.2759 -0.1065
 8613SOL    HW137472   3.391   0.201  11.363  0.3098  0.2409 -0.4017
 8613SOL    HW237473   3.332   0.056  11.355  2.8289 -0.1158  0.0749
 8614SOL     OW37474   0.662   1.880   5.765 -0.1099 -0.3386 -0.1223
 8614SOL    HW137475   0.639   1.809   5.705 -0.0261 -0.0448 -0.5069
 8614SOL    HW237476   0.630   1.959   5.721  1.0711 -0.8330 -1.8819
 8615SOL     OW37477   1.131   0.730   4.373 -0.1959  0.5699 -0.1675
 8615SOL    HW137478   1.175   0.769   4.449  1.7800 -0.2267 -0.9123
 8615SOL    HW237479   1.160   0.639   4.368  2.2342  1.3879 -1.1807
 8616SOL     OW37480   3.055   0.061   3.340 -0.1521  0.7786 -0.0357
 8616SOL    HW137481   2.987   0.003   3.376 -0.7147  2.1831  1.1733
 8616SOL    HW237482   3.084   0.009   3.265 -2.0788 -0.5103  0.0992
 8617SOL     OW37483   3.202   4.672   4.948 -0.4376 -0.3782 -0.2663
 8617SOL    HW137484   3.182   4.735   4.879 -0.1603  0.3229  0.2937
 8617SOL    HW237485   3.191   4.587   4.906 -1.3093 -0.9070  1.0412
 8618SOL     OW37486   1.340   3.420  11.983 -0.3871 -0.3427 -0.6584
 8618SOL    HW137487   1.298   3.366  11.916  1.6910 -1.1398 -1.3099
 8618SOL    HW237488   1.292   3.393  12.061  0.2752  1.6857  0.4347
 8619SOL     OW37489   0.173   0.737  13.420  0.5270  0.2352 -0.3206
 8619SOL    HW137490   0.123   0.659  13.444  0.7006  0.7440  1.6686
 8619SOL    HW237491   0.229   0.697  13.354  0.6889  0.3862 -0.2736
 8620SOL     OW37492   3.360   2.088   5.173  0.0648  0.1689 -0.3398
 8620SOL    HW137493   3.440   2.075   5.122  0.4122  0.4412  0.1342
 8620SOL    HW237494   3.292   2.047   5.120 -0.0358  0.7869 -0.6910
 8621SOL     OW37495   2.354   1.748   5.895  0.0375 -0.5458 -0.4985
 8621SOL    HW137496   2.373   1.663   5.935  1.0489 -0.8988 -1.7399
 8621SOL    HW237497   2.425   1.805   5.923 -0.3990 -0.4382  0.3835
 8622SOL     OW37498   2.234   2.396   7.652  0.1844 -0.7596 -0.3573
 8622SOL    HW137499   2.320   2.438   7.662 -1.1706  1.7234  0.9130
 8622SOL    HW237500   2.208   2.391   7.744  0.2016 -0.0695 -0.3159
 8623SOL     OW37501   1.103   1.641   1.627 -0.2923  0.4883 -0.4201
 8623SOL    HW137502   1.171   1.611   1.568 -1.1099  0.3154 -1.2781
 8623SOL    HW237503   1.136   1.626   1.716 -1.5393  1.7526  0.2750
 8624SOL     OW37504   2.025   2.596   7.612  0.1111 -0.3104  0.1658
 8624SOL    HW137505   1.993   2.572   7.525  0.5372 -1.7968  0.4169
 8624SOL    HW237506   2.090   2.526   7.622 -2.3849 -2.5624  0.6499
 8625SOL     OW37507   3.798   3.599  17.433  0.1797 -0.4006 -0.2228
 8625SOL    HW137508   3.714   3.559  17.456  1.1244 -1.0991  2.0768
 8625SOL    HW237509   3.842   3.532  17.381  0.1302 -1.2853  0.8618
 8626SOL     OW37510   0.302   0.582   9.686  0.6133 -0.2227  0.1423
 8626SOL    HW137511   0.345   0.592   9.601  1.3043 -1.4016  0.3476
 8626SOL    HW237512   0.349   0.503   9.715 -1.6198 -1.3794  0.5525
 8627SOL     OW37513   1.713   2.095   2.531  0.6922 -0.3521  0.3430
 8627SOL    HW137514   1.784   2.102   2.595  1.5967  3.9061 -1.1165
 8627SOL    HW237515   1.636   2.114   2.585  1.0454  0.3323  0.6068
 8628SOL     OW37516   1.615   1.059  14.407 -0.2722 -0.0011  0.1389
 8628SOL    HW137517   1.609   1.150  14.379 -0.2209 -0.1731 -0.4139
 8628SOL    HW237518   1.618   1.071  14.502 -1.3865  1.4511 -0.0015
 8629SOL     OW37519   2.226   2.890   8.291  0.3264  0.2270 -0.2599
 8629SOL    HW137520   2.176   2.938   8.356 -0.5702 -0.6869 -0.2831
 8629SOL    HW237521   2.147   2.871   8.241  0.9049 -0.7755 -0.7771
 8630SOL     OW37522   2.446   0.237   6.314 -0.8080  0.8569  0.1540
 8630SOL    HW137523   2.415   0.239   6.224  0.2815  2.3379 -0.1845
 8630SOL    HW237524   2.393   0.309   6.350  0.2139  2.0001 -0.6310
 8631SOL     OW37525   0.916   3.902   2.450 -0.2222 -0.1296 -0.2764
 8631SOL    HW137526   0.846   3.955   2.411 -0.5680 -0.4367 -0.0686
 8631SOL    HW237527   0.994   3.958   2.453 -0.0592 -0.4135  0.9712
 8632SOL     OW37528   2.144   1.037  13.248  1.0936 -0.1044  0.3328
 8632SOL    HW137529   2.152   1.132  13.233  2.0647 -0.0354  1.2998
 8632SOL    HW237530   2.163   1.027  13.341  1.9626 -1.0897  0.0512
 8633SOL     OW37531   3.607   1.953   8.151  0.0817  0.7694 -0.5271
 8633SOL    HW137532   3.537   2.017   8.141 -1.6390 -1.1400 -0.5292
 8633SOL    HW237533   3.692   1.999   8.149 -1.2327  3.2583  0.9823
 8634SOL     OW37534   3.176   3.694   0.885  0.2430  0.3040  0.1231
 8634SOL    HW137535   3.215   3.725   0.967  2.8812 -1.0375 -0.6028
 8634SOL    HW237536   3.111   3.763   0.870 -0.9797 -0.6493  1.0454
 8635SOL     OW37537   0.025   1.485   5.577  0.4988 -0.3608  0.1383
 8635SOL    HW137538   0.118   1.490   5.599  0.6307  1.7128 -0.8483
 8635SOL    HW237539   0.026   1.576   5.546 -0.0197 -0.5967 -0.5770
 8636SOL     OW37540   1.750   4.185  12.547  0.0351  1.1313 -0.2131
 8636SOL    HW137541   1.756   4.193  12.452  0.4270 -1.1678 -0.3714
 8636SOL    HW237542   1.751   4.280  12.559 -2.0916  1.0221  0.8102
 8637SOL     OW37543   3.262   2.110   8.740 -0.5971 -0.4310  0.0520
 8637SOL    HW137544   3.188   2.149   8.786 -0.1450  1.0923 -0.5416
 8637SOL    HW237545   3.268   2.167   8.664  0.6871  0.3202  0.7246
 8638SOL     OW37546   0.875   4.655  10.143  0.2111  0.2297  0.2165
 8638SOL    HW137547   0.843   0.006  10.124  3.5454  1.8354  2.1509
 8638SOL    HW237548   0.907   4.662  10.232 -2.1232 -0.6681  1.1210
 8639SOL     OW37549   1.229   1.246  12.920 -0.3751  0.5685  0.0901
 8639SOL    HW137550   1.264   1.279  12.837  0.4168 -0.1728  0.1254
 8639SOL    HW237551   1.252   1.313  12.984 -1.9107  0.4189  0.7804
 8640SOL     OW37552   4.467   2.640   2.401  0.0509  0.5384  0.4273
 8640SOL    HW137553   4.539   2.685   2.445  0.4761  0.2435  0.0360
 8640SOL    HW237554   4.515   2.587   2.336 -0.7783 -1.4687  1.4431
 8641SOL     OW37555   1.201   2.655   4.764 -0.0782 -0.1029 -0.1971
 8641SOL    HW137556   1.176   2.708   4.840 -1.7683  1.8828 -2.1404
 8641SOL    HW237557   1.242   2.577   4.802  0.7308  0.4023 -0.0359
 8642SOL     OW37558   3.902   0.868   2.409 -0.1893 -0.1359 -0.0304
 8642SOL    HW137559   3.889   0.801   2.476 -1.1248 -1.2454 -1.3195
 8642SOL    HW237560   3.924   0.933   2.475  0.7419  0.1878 -0.6577
 8643SOL     OW37561   2.503   1.444   8.227 -0.3625 -0.1056 -0.4581
 8643SOL    HW137562   2.455   1.468   8.148 -1.4477  0.7220  0.4555
 8643SOL    HW237563   2.557   1.522   8.237 -0.3388 -0.3231  1.0542
 8644SOL     OW37564   2.852   4.245   6.349 -0.3330  0.2131  0.8200
 8644SOL    HW137565   2.760   4.230   6.372 -1.3320  2.2820 -1.7852
 8644SOL    HW237566   2.847   4.213   6.259  1.4398  2.0291  0.0870
 8645SOL     OW37567   0.044   0.820   3.361 -0.0788  0.2316  0.2364
 8645SOL    HW137568   0.046   0.897   3.305 -1.6324  1.6405  2.0946
 8645SOL    HW237569   0.124   0.838   3.409 -1.1044 -0.6507  2.2719
 8646SOL     OW37570   3.146   3.538  12.210  0.3579  0.0621 -0.1145
 8646SOL    HW137571   3.216   3.501  12.157 -1.6612 -1.8607 -1.4551
 8646SOL    HW237572   3.138   3.476  12.282 -0.3849  0.3066  0.0096
 8647SOL     OW37573   0.333   0.824   8.280 -0.4774 -0.2619  0.0387
 8647SOL    HW137574   0.388   0.801   8.205  1.1375  0.4820  0.9813
 8647SOL    HW237575   0.361   0.906   8.321  1.3245  0.0394 -1.8198
 8648SOL     OW37576   0.828   4.185   4.025  0.2420  0.6487  0.3956
 8648SOL    HW137577   0.824   4.097   3.988  0.5384  0.6763  0.2955
 8648SOL    HW237578   0.916   4.202   3.992  0.7613 -1.6249  0.5917
 8649SOL     OW37579   0.141   4.371   5.528 -0.1698  0.0067 -0.0665
 8649SOL    HW137580   0.072   4.404   5.584 -0.7419 -2.0043  0.4296
 8649SOL    HW237581   0.094   4.367   5.445  1.4660 -1.6477 -0.9363
 8650SOL     OW37582   1.365   0.606   1.395  0.1385  0.0818  0.3011
 8650SOL    HW137583   1.436   0.594   1.458 -0.7834 -0.7459  1.1659
 8650SOL    HW237584   1.408   0.658   1.326 -1.6191  0.4210 -0.5467
 8651SOL     OW37585   1.890   1.489  11.800  0.2772  0.1527  0.1673
 8651SOL    HW137586   1.913   1.399  11.821 -0.7219 -0.1456 -0.0335
 8651SOL    HW237587   1.946   1.541  11.858  0.7502  1.3359 -1.3350
 8652SOL     OW37588   2.114   4.527   7.847 -0.1473  0.2181  0.0950
 8652SOL    HW137589   2.128   4.485   7.932 -0.2259  1.8850  0.9288
 8652SOL    HW237590   2.058   4.595   7.884  1.9104  1.6152  0.6478
 8653SOL     OW37591   1.239   1.994  15.768 -0.3269  0.0487  0.4589
 8653SOL    HW137592   1.311   2.020  15.826  1.4157 -1.2687 -1.1199
 8653SOL    HW237593   1.236   1.900  15.786  1.4613 -0.0518  0.2784
 8654SOL     OW37594   0.047   3.627   9.485 -0.1390  1.1014  0.0784
 8654SOL    HW137595   4.697   3.666   9.477 -0.6480  0.0621  0.5973
 8654SOL    HW237596   0.083   3.695   9.542 -2.7971  0.9026  1.9929
 8655SOL     OW37597   3.034   4.532   3.943 -0.4529  0.6466  0.6061
 8655SOL    HW137598   2.979   4.457   3.962 -2.2540  1.7188 -0.3517
 8655SOL    HW237599   3.104   4.522   4.008  0.0125  0.8901  0.1469
 8656SOL     OW37600   0.920   2.037   3.088  0.1171  0.0570  0.4134
 8656SOL    HW137601   0.994   2.093   3.064  0.4605 -0.1089  1.1011
 8656SOL    HW237602   0.964   1.971   3.141  1.5094  0.1700 -0.5984
 8657SOL     OW37603   1.386   0.813   3.979  0.5772  0.3915 -0.4389
 8657SOL    HW137604   1.455   0.751   4.003 -1.3746 -1.9842 -0.8999
 8657SOL    HW237605   1.303   0.771   4.001  0.2225  0.0411 -2.3844
 8658SOL     OW37606   0.767   2.081  16.599  0.1253 -0.3854  0.5002
 8658SOL    HW137607   0.675   2.061  16.582  0.5786 -2.6562  0.7281
 8658SOL    HW237608   0.789   2.054  16.688 -0.2857 -3.1754 -0.2607
 8659SOL     OW37609   2.868   1.130   4.943 -0.1319 -0.3044  0.2446
 8659SOL    HW137610   2.792   1.073   4.931 -0.1879  0.1178 -1.4367
 8659SOL    HW237611   2.819   1.212   4.940 -1.5117 -1.1128  0.6011
 8660SOL     OW37612   0.283   3.150   6.456 -0.3973  0.4005 -0.0175
 8660SOL    HW137613   0.246   3.062   6.455 -2.3410  1.1864  1.6604
 8660SOL    HW237614   0.207   3.208   6.463 -0.9950 -0.3148 -0.5849
 8661SOL     OW37615   0.450   2.386   6.910 -0.0421  0.1821  0.1856
 8661SOL    HW137616   0.398   2.352   6.984  0.8247 -0.5840  0.4482
 8661SOL    HW237617   0.415   2.473   6.895  0.8692  0.3391 -1.0113
 8662SOL     OW37618   4.019   2.167   6.961 -0.1518  0.1897 -0.2920
 8662SOL    HW137619   3.976   2.129   6.884 -2.7613  0.9924  0.7955
 8662SOL    HW237620   4.006   2.260   6.943 -3.7721 -0.3203 -0.2967
 8663SOL     OW37621   4.261   4.521   8.063  0.6048 -0.3719 -0.6568
 8663SOL    HW137622   4.251   4.538   7.969  0.0528  0.4388 -0.4522
 8663SOL    HW237623   4.283   4.604   8.104 -1.0878  0.0335 -0.5420
 8664SOL     OW37624   1.464   3.713   8.742 -0.3351 -0.3003  0.2450
 8664SOL    HW137625   1.394   3.777   8.755 -0.2007 -0.5550  2.3203
 8664SOL    HW237626   1.476   3.680   8.831  0.2988  0.2872  0.3762
 8665SOL     OW37627   2.671   1.958  15.750 -0.9653 -0.5012 -0.8469
 8665SOL    HW137628   2.749   1.998  15.713  0.9836 -2.7023  0.9148
 8665SOL    HW237629   2.704   1.896  15.815 -2.1307  0.9455  1.1166
 8666SOL     OW37630   0.725   3.488   9.880 -0.1025  0.3138  0.2081
 8666SOL    HW137631   0.719   3.512   9.787 -0.8832  2.6580  0.8573
 8666SOL    HW237632   0.655   3.538   9.922  1.0953  1.9652  0.2326
 8667SOL     OW37633   3.753   1.082   8.185  0.4422  0.6728 -0.2482
 8667SOL    HW137634   3.692   1.154   8.202 -1.9279 -1.6748  1.2357
 8667SOL    HW237635   3.819   1.129   8.134  1.6432  0.0868  0.7812
 8668SOL     OW37636   3.417   3.921   1.971  0.1819  0.2135  0.0508
 8668SOL    HW137637   3.455   4.007   1.985  1.4796 -0.0229 -2.1107
 8668SOL    HW237638   3.487   3.859   1.991  0.0516  0.7728  2.2712
 8669SOL     OW37639   3.482   1.601  10.506  0.1512 -0.2567 -0.0522
 8669SOL    HW137640   3.421   1.527  10.498 -1.3002  0.9719 -0.4098
 8669SOL    HW237641   3.461   1.666  10.439 -2.4783  2.2276  3.1539
 8670SOL     OW37642   3.536   1.975   3.085 -0.0561  0.2765  0.8577
 8670SOL    HW137643   3.577   2.061   3.097 -1.5160  1.3659 -1.7279
 8670SOL    HW237644   3.573   1.959   2.998 -1.3484 -1.4005  0.6086
 8671SOL     OW37645   0.641   4.135  12.190 -0.2944 -0.1142 -0.5898
 8671SOL    HW137646   0.639   4.218  12.142 -2.1012  0.0422 -0.2429
 8671SOL    HW237647   0.628   4.161  12.281  1.6291  2.3952 -1.0533
 8672SOL     OW37648   4.210   1.460   2.793  0.1735 -0.0685 -0.2139
 8672SOL    HW137649   4.124   1.438   2.830  0.7746 -1.1061  0.5513
 8672SOL    HW237650   4.217   1.408   2.713  1.1233 -0.1426 -0.0749
 8673SOL     OW37651   2.265   0.563  10.628 -0.3996  0.4367  0.1898
 8673SOL    HW137652   2.203   0.625  10.589  1.6006  1.3610 -1.5389
 8673SOL    HW237653   2.272   0.591  10.719  0.0824 -2.0947  0.9424
 8674SOL     OW37654   4.055   4.511   5.857 -0.1144 -0.2826  0.6090
 8674SOL    HW137655   3.967   4.549   5.852 -0.6369 -1.4975  0.3867
 8674SOL    HW237656   4.094   4.588   5.896  0.5076 -2.0154  3.4574
 8675SOL     OW37657   4.097   4.121  11.319  0.5664  0.1442  0.4283
 8675SOL    HW137658   4.141   4.038  11.302  1.8726  0.8863  0.2088
 8675SOL    HW237659   4.152   4.143  11.393 -0.5315  2.7723  0.4972
 8676SOL     OW37660   0.395   0.799   5.792  0.0101  0.0497  0.1806
 8676SOL    HW137661   0.455   0.839   5.855  0.2988  0.4620 -0.3605
 8676SOL    HW237662   0.375   0.873   5.735  1.6752 -1.1947 -2.0081
 8677SOL     OW37663   2.687   4.064   8.123  0.5243  0.2175  0.2033
 8677SOL    HW137664   2.681   4.108   8.208 -2.1162 -0.2530  0.2352
 8677SOL    HW237665   2.649   3.979   8.143  1.7563 -0.1560  0.9752
 8678SOL     OW37666   3.791   0.924   3.959  0.8145  0.3761 -0.2441
 8678SOL    HW137667   3.697   0.921   3.944  0.9046 -0.2537 -0.7019
 8678SOL    HW237668   3.804   1.014   3.988  2.2908  1.0963 -3.1166
 8679SOL     OW37669   1.572   1.890   7.715  0.1479 -0.3522 -0.3518
 8679SOL    HW137670   1.664   1.883   7.690  0.7934  0.9086  1.7322
 8679SOL    HW237671   1.534   1.804   7.702 -2.3248  0.4392  1.6773
 8680SOL     OW37672   4.020   4.408  11.468  0.3610  0.2240 -0.3053
 8680SOL    HW137673   4.094   4.371  11.516 -0.2635 -1.7068 -0.8490
 8680SOL    HW237674   4.003   4.340  11.404 -0.3744  1.2504 -1.1941
 8681SOL     OW37675   1.405   2.614   9.537  0.7238  0.4757 -0.3267
 8681SOL    HW137676   1.432   2.700   9.507  0.0452  1.0317  0.6826
 8681SOL    HW237677   1.414   2.552   9.465  0.5607  0.2166 -0.1245
 8682SOL     OW37678   0.566   1.790   8.519 -0.1304  0.0984  0.1367
 8682SOL    HW137679   0.538   1.705   8.553  2.6861 -1.3486 -1.1470
 8682SOL    HW237680   0.563   1.760   8.428 -3.9235  0.3311  0.1862
 8683SOL     OW37681   1.921   3.355   8.826  0.0003 -0.0591  0.1136
 8683SOL    HW137682   1.855   3.359   8.895 -0.3617  0.4900 -0.2604
 8683SOL    HW237683   1.899   3.431   8.771  0.2255  1.8327  2.6750
 8684SOL     OW37684   3.384   3.422   4.018 -0.2440 -0.4435  0.0688
 8684SOL    HW137685   3.458   3.483   4.011 -2.6314  2.6034  1.3672
 8684SOL    HW237686   3.359   3.435   3.927 -1.2516  0.7794  0.5265
 8685SOL     OW37687   0.015   2.119   5.197 -0.2841  0.2059 -0.8481
 8685SOL    HW137688   4.663   2.119   5.231 -0.2738  0.3014 -0.8232
 8685SOL    HW237689   0.040   2.026   5.204 -0.7314  0.2678  1.6175
 8686SOL     OW37690   2.393   1.138   2.932 -0.8070 -0.0370  0.1524
 8686SOL    HW137691   2.471   1.178   2.895 -1.1387  0.1244 -0.3603
 8686SOL    HW237692   2.422   1.048   2.947 -2.1670 -0.2637  1.4461
 8687SOL     OW37693   0.292   0.668   9.050 -0.1760  0.2194  0.0507
 8687SOL    HW137694   0.318   0.698   9.137  1.6891 -0.8867 -0.1266
 8687SOL    HW237695   0.341   0.585   9.051  0.3047  0.4723 -1.9584
 8688SOL     OW37696   1.647   3.650  10.553 -0.5680 -0.4366  0.1173
 8688SOL    HW137697   1.608   3.689  10.632  0.0400 -1.2211  0.8060
 8688SOL    HW237698   1.736   3.683  10.552 -0.4591 -0.7436 -0.4944
 8689SOL     OW37699   4.185   2.540   3.641  0.0742 -0.0095  0.1578
 8689SOL    HW137700   4.238   2.610   3.678 -0.3624  0.0360  0.6794
 8689SOL    HW237701   4.124   2.604   3.605 -1.5077 -0.6852  1.6938
 8690SOL     OW37702   1.303   3.756   6.473 -0.5060  0.0092 -0.4101
 8690SOL    HW137703   1.216   3.717   6.466  1.1282 -4.0421  1.6831
 8690SOL    HW237704   1.350   3.695   6.416  0.2900 -1.2243  1.5652
 8691SOL     OW37705   2.150   1.163   9.235 -0.1673 -0.3296  0.5926
 8691SOL    HW137706   2.154   1.070   9.258  1.0351 -1.0128 -2.4325
 8691SOL    HW237707   2.057   1.176   9.216  0.3722  0.9452 -1.1054
 8692SOL     OW37708   0.222   2.318  15.895  0.9014 -0.5545  0.2533
 8692SOL    HW137709   0.142   2.270  15.872  0.6757  0.0413 -0.2255
 8692SOL    HW237710   0.261   2.344  15.811  2.5633  2.0123  1.8259
 8693SOL     OW37711   4.640   0.591   0.101 -0.1430 -0.4089 -0.4116
 8693SOL    HW137712   4.546   0.609   0.108 -0.0337  0.4864 -1.2366
 8693SOL    HW237713   4.654   0.620   0.010  0.6001  0.9299  0.1312
 8694SOL     OW37714   3.423   3.394  11.804  0.1426 -0.4087 -0.1388
 8694SOL    HW137715   3.382   3.310  11.821  1.4874 -1.2503 -1.0774
 8694SOL    HW237716   3.362   3.447  11.753 -0.5071 -1.4342 -0.4254
 8695SOL     OW37717   4.016   3.603   9.741  0.0092 -0.8128 -0.1631
 8695SOL    HW137718   3.930   3.569   9.718 -0.1538 -0.5232  0.0151
 8695SOL    HW237719   4.071   3.567   9.672 -2.6942 -1.4440 -1.9800
 8696SOL     OW37720   2.567   2.559  17.613  0.0101 -0.3224  0.3740
 8696SOL    HW137721   2.488   2.604  17.586  1.4563  1.0189 -1.5913
 8696SOL    HW237722   2.532   2.470  17.605  0.8762 -0.5770 -0.7097
 8697SOL     OW37723   3.809   2.682  10.544 -0.2042  0.9281  0.3492
 8697SOL    HW137724   3.825   2.649  10.632  3.9655 -0.9998 -1.1419
 8697SOL    HW237725   3.800   2.598  10.500 -0.4162  1.5407 -0.7911
 8698SOL     OW37726   0.977   1.270   2.562  0.6538 -0.3478  0.2845
 8698SOL    HW137727   1.056   1.291   2.511 -0.7386  2.9650 -0.4935
 8698SOL    HW237728   0.990   1.315   2.645  1.3021  0.0896 -0.0528
 8699SOL     OW37729   4.519   1.721   1.193 -0.0237  0.0319  0.0011
 8699SOL    HW137730   4.541   1.657   1.260 -0.7028  0.1737  0.3683
 8699SOL    HW237731   4.467   1.781   1.247 -0.9423  0.1543 -1.0053
 8700SOL     OW37732   3.218   2.146   3.771  0.4952  1.1983  0.3999
 8700SOL    HW137733   3.308   2.116   3.779  0.8706  1.5064 -2.9018
 8700SOL    HW237734   3.207   2.181   3.683 -2.8164 -0.2466  0.2298
 8701SOL     OW37735   1.811   0.610  10.613  0.2900  0.3113  0.0517
 8701SOL    HW137736   1.731   0.576  10.654 -0.5669 -0.6066 -2.4420
 8701SOL    HW237737   1.792   0.704  10.617 -0.7797  0.1202 -0.4670
 8702SOL     OW37738   0.457   4.548   5.918  0.7589  0.0853  0.3753
 8702SOL    HW137739   0.441   4.579   5.829 -1.3432  0.3453  0.8358
 8702SOL    HW237740   0.377   4.498   5.932 -0.0166  1.1233 -0.3497
 8703SOL     OW37741   4.682   0.841  11.506 -0.0824 -0.1724 -0.2657
 8703SOL    HW137742   4.686   0.811  11.597  1.8935 -0.6557 -0.5019
 8703SOL    HW237743   4.589   0.859  11.494 -0.7899 -2.4077  1.7862
 8704SOL     OW37744   3.756   4.308   5.397 -0.4469 -0.8913  0.3848
 8704SOL    HW137745   3.731   4.228   5.443  0.4036 -0.3281  1.8365
 8704SOL    HW237746   3.809   4.350   5.466 -0.0413  0.1975 -0.5892
 8705SOL     OW37747   1.100   4.539   8.962 -0.4404  0.1013  0.8032
 8705SOL    HW137748   1.027   4.512   8.907 -0.9265  1.2445  0.8894
 8705SOL    HW237749   1.160   4.587   8.905 -0.2841 -2.1235 -0.9098
 8706SOL     OW37750   0.704   3.612   6.854  0.0047  0.2556 -0.5697
 8706SOL    HW137751   0.666   3.524   6.862 -0.3839  0.3987 -0.8164
 8706SOL    HW237752   0.704   3.632   6.948  1.7500  1.3497 -0.8050
 8707SOL     OW37753   1.284   4.029  13.950  0.4761  0.0851 -0.3507
 8707SOL    HW137754   1.197   4.024  13.990  0.0009 -0.1801 -1.4079
 8707SOL    HW237755   1.290   4.121  13.922  1.8858  0.1634  0.2112
 8708SOL     OW37756   3.576   4.193   3.760  1.0264  0.0191  0.0800
 8708SOL    HW137757   3.592   4.205   3.853 -1.6772 -0.4721  0.5843
 8708SOL    HW237758   3.550   4.283   3.738  2.2684  0.1489 -0.9117
 8709SOL     OW37759   1.815   2.990   1.129  0.1650 -0.0550  0.4652
 8709SOL    HW137760   1.805   3.031   1.215  1.4017  1.5974 -0.1952
 8709SOL    HW237761   1.754   2.918   1.147 -0.4413  0.3984  0.2051
 8710SOL     OW37762   3.087   4.710   4.343 -0.4960 -0.0008 -0.2179
 8710SOL    HW137763   3.004   4.670   4.318 -0.6725 -1.4651  2.7908
 8710SOL    HW237764   3.053   0.048   4.390 -1.5887 -0.7953  0.2626
 8711SOL     OW37765   3.383   0.232   5.031  0.2875  0.3727 -0.0527
 8711SOL    HW137766   3.354   0.145   5.058  0.0725  0.8915  1.3784
 8711SOL    HW237767   3.402   0.215   4.939 -1.0465  4.0588 -1.0414
 8712SOL     OW37768   1.032   0.868   6.472  0.1255 -0.2091  0.1706
 8712SOL    HW137769   1.103   0.848   6.533 -2.1967  0.6569  3.0980
 8712SOL    HW237770   0.994   0.780   6.462  1.2956 -0.4269 -2.4798
 8713SOL     OW37771   1.772   0.876   3.071 -0.1125 -0.2573 -0.2137
 8713SOL    HW137772   1.839   0.808   3.081  0.2436 -0.0701 -1.2185
 8713SOL    HW237773   1.724   0.863   3.152 -1.1791 -0.7034 -0.9159
 8714SOL     OW37774   1.583   4.000   2.459  0.5661 -0.3012  0.3366
 8714SOL    HW137775   1.579   4.053   2.539  0.1015  0.1454  0.0227
 8714SOL    HW237776   1.491   3.993   2.434 -0.0864  1.5244  2.1471
 8715SOL     OW37777   3.545   4.068   2.372 -0.2427 -0.4394  0.0005
 8715SOL    HW137778   3.629   4.079   2.417 -0.1935  0.8048 -0.3907
 8715SOL    HW237779   3.548   3.976   2.346 -1.3719 -0.1351 -1.2458
 8716SOL     OW37780   4.551   0.484   7.824  0.0526 -0.0694 -0.1055
 8716SOL    HW137781   4.518   0.399   7.853  1.2291 -0.1565  1.0026
 8716SOL    HW237782   4.565   0.531   7.907 -0.2707 -0.5368  0.2099
 8717SOL     OW37783   4.726   4.435   1.383 -0.5643  0.1328 -0.3880
 8717SOL    HW137784   0.073   4.407   1.417 -0.2760 -0.2341 -1.4153
 8717SOL    HW237785   4.717   4.367   1.316 -2.1678 -2.0130  2.0273
 8718SOL     OW37786   1.597   4.509   5.534 -0.5037 -0.3637 -0.0661
 8718SOL    HW137787   1.523   4.549   5.581  1.2388 -0.5707  2.8330
 8718SOL    HW237788   1.673   4.543   5.581 -0.2089 -2.3202  0.8829
 8719SOL     OW37789   3.637   1.777   6.622  0.3439 -0.3694  0.2526
 8719SOL    HW137790   3.665   1.868   6.633 -0.2672  0.3076 -3.7816
 8719SOL    HW237791   3.638   1.744   6.712  2.3383  1.1412  0.7963
 8720SOL     OW37792   4.602   1.093  10.075 -0.1196  0.5871 -0.1008
 8720SOL    HW137793   4.623   1.055   9.990  0.1156 -0.0210  0.2293
 8720SOL    HW237794   4.510   1.119  10.067  0.9001  4.4703  0.8058
 8721SOL     OW37795   3.775   2.429   4.723 -0.0513 -0.4742 -0.0107
 8721SOL    HW137796   3.731   2.413   4.640 -1.4014  2.5120  0.1490
 8721SOL    HW237797   3.712   2.479   4.776 -0.1227 -1.3376  0.7211
 8722SOL     OW37798   1.847   3.133   6.645  0.0028  0.0009  0.3975
 8722SOL    HW137799   1.767   3.182   6.627 -0.8703 -1.0532  1.3684
 8722SOL    HW237800   1.856   3.072   6.571 -3.4568 -1.1905  0.9812
 8723SOL     OW37801   3.609   0.609   0.870 -0.0928 -0.1408 -0.3217
 8723SOL    HW137802   3.612   0.663   0.791 -0.1418 -3.3117 -2.4791
 8723SOL    HW237803   3.541   0.547   0.843  0.4587 -0.3008 -1.3449
 8724SOL     OW37804   0.950   3.106   3.814  0.6609  0.4679 -0.1841
 8724SOL    HW137805   0.879   3.146   3.763  0.1402  2.6204  2.2481
 8724SOL    HW237806   1.020   3.171   3.807 -1.5700  2.8498 -0.5341
 8725SOL     OW37807   3.328   1.743   9.596 -0.5699 -0.4879 -0.1148
 8725SOL    HW137808   3.325   1.838   9.589  0.5262 -0.4431  0.0009
 8725SOL    HW237809   3.236   1.729   9.574 -1.6116  3.7323  1.4588
 8726SOL     OW37810   2.483   0.753   8.976 -0.3139 -1.0127  0.3154
 8726SOL    HW137811   2.442   0.828   9.018  0.0505 -0.8666  0.4052
 8726SOL    HW237812   2.549   0.721   9.038  1.3661 -1.1811 -1.5875
 8727SOL     OW37813   3.287   1.110   1.961 -0.4489 -0.2288  0.4496
 8727SOL    HW137814   3.362   1.073   1.913 -0.1096 -0.7645  1.3871
 8727SOL    HW237815   3.226   1.037   1.975  1.5436 -1.6697  1.6836
 8728SOL     OW37816   4.447   2.251   5.018  0.2587 -0.1624  0.1520
 8728SOL    HW137817   4.394   2.303   5.077 -2.5707 -0.6508 -1.9851
 8728SOL    HW237818   4.385   2.201   4.965  1.0105 -0.3534 -0.5480
 8729SOL     OW37819   2.790   0.351   6.233 -0.4366  0.1241  0.0516
 8729SOL    HW137820   2.715   0.409   6.226 -0.7270 -0.2911 -0.2474
 8729SOL    HW237821   2.846   0.396   6.296 -2.0518  1.4693  0.4965
 8730SOL     OW37822   2.926   1.616   7.008  0.1832 -0.4701  0.0246
 8730SOL    HW137823   2.971   1.533   7.022  0.0523 -0.3370  1.1795
 8730SOL    HW237824   2.997   1.677   7.025 -0.9026  1.0526 -0.8927
 8731SOL     OW37825   3.675   1.123  14.915 -0.2176 -0.0670 -0.1334
 8731SOL    HW137826   3.697   1.213  14.892 -2.7462  0.8936  1.2642
 8731SOL    HW237827   3.765   1.090  14.905 -0.1358 -0.0586  0.5777
 8732SOL     OW37828   3.852   4.384   6.944 -0.0684  0.1931 -0.1308
 8732SOL    HW137829   3.940   4.390   6.980  0.4870  2.3300 -1.7741
 8732SOL    HW237830   3.859   4.314   6.879 -1.8049  0.6555 -0.8393
 8733SOL     OW37831   0.827   1.315   0.588 -0.0571  0.2940 -0.2287
 8733SOL    HW137832   0.772   1.299   0.512  0.2773  0.2291 -0.4561
 8733SOL    HW237833   0.773   1.276   0.656 -0.3678  0.6613 -0.2646
 8734SOL     OW37834   0.063   1.857   5.226 -0.6233 -0.5095  0.9163
 8734SOL    HW137835   4.715   1.839   5.265 -0.7230 -0.4186  0.7376
 8734SOL    HW237836   0.107   1.775   5.247  2.6275  0.4370 -2.2134
 8735SOL     OW37837   3.966   0.325   3.634  0.0431  0.2032  0.0602
 8735SOL    HW137838   3.910   0.402   3.626 -0.0736  0.2128  0.9585
 8735SOL    HW237839   3.893   0.264   3.639 -0.1728  0.5163  0.7780
 8736SOL     OW37840   0.560   0.973  16.379 -0.5160 -0.1315 -0.3242
 8736SOL    HW137841   0.482   0.940  16.424 -1.4582  1.6441 -0.6441
 8736SOL    HW237842   0.582   0.901  16.320 -0.6035 -1.0630  0.7733
 8737SOL     OW37843   0.315   2.883   8.334  0.6541 -0.6954  0.1500
 8737SOL    HW137844   0.279   2.797   8.314 -0.5621 -0.7181  2.4571
 8737SOL    HW237845   0.240   2.939   8.315  2.2887  1.6102  0.4670
 8738SOL     OW37846   0.577   3.254   4.946 -0.2383 -0.4338  0.7727
 8738SOL    HW137847   0.595   3.279   5.037  0.3239 -1.5977  0.9830
 8738SOL    HW237848   0.482   3.262   4.944 -0.2946 -1.5048 -0.9342
 8739SOL     OW37849   2.550   0.505  11.631  0.5313 -0.5240 -0.2194
 8739SOL    HW137850   2.589   0.442  11.570  0.5248 -0.9575  0.2303
 8739SOL    HW237851   2.616   0.572  11.614  0.3337 -0.4777 -0.8259
 8740SOL     OW37852   0.337   2.918   3.590  0.1865 -0.0293  0.5772
 8740SOL    HW137853   0.390   2.957   3.520  0.5691 -2.0436 -0.2589
 8740SOL    HW237854   0.413   2.923   3.647  0.1250  1.8339  0.4828
 8741SOL     OW37855   1.054   0.529   8.091  0.0598 -0.4719  0.1017
 8741SOL    HW137856   1.033   0.612   8.132 -0.0840  0.3698 -1.6735
 8741SOL    HW237857   1.131   0.501   8.140 -1.0283 -2.5771  0.6060
 8742SOL     OW37858   1.912   3.290   0.082  0.2354  0.0582  0.2141
 8742SOL    HW137859   1.931   3.215   0.138 -1.6367 -1.1066 -0.7068
 8742SOL    HW237860   1.876   3.352   0.145  1.1617 -0.9820  1.7467
 8743SOL     OW37861   4.684   2.494   4.099 -0.2247  0.2148 -0.0623
 8743SOL    HW137862   4.623   2.519   4.168 -0.5943 -2.6798  0.6687
 8743SOL    HW237863   4.724   2.413   4.130  0.4856  0.4552 -0.3327
 8744SOL     OW37864   3.232   4.131   2.714 -0.1135  0.0473  0.1711
 8744SOL    HW137865   3.153   4.171   2.677  0.6601  0.9607 -0.5008
 8744SOL    HW237866   3.227   4.041   2.680 -0.6514 -0.7905  2.4728
 8745SOL     OW37867   3.030   0.648  15.244  0.3385  0.0145 -0.3712
 8745SOL    HW137868   3.049   0.739  15.267  0.3264  0.3043 -1.5498
 8745SOL    HW237869   2.946   0.657  15.200 -1.4569 -1.8847  2.6865
 8746SOL     OW37870   1.661   1.281  17.467  0.4313  0.0741  0.1303
 8746SOL    HW137871   1.636   1.191  17.487 -1.1465 -0.1197 -2.6270
 8746SOL    HW237872   1.696   1.276  17.378  1.5794  4.2182  0.3478
 8747SOL     OW37873   1.307   0.626   0.906 -0.2659  0.6795  0.0753
 8747SOL    HW137874   1.328   0.541   0.867 -0.7807  2.0778 -3.2064
 8747SOL    HW237875   1.257   0.595   0.982 -0.8037  0.3736 -0.4037
 8748SOL     OW37876   1.032   2.281   5.153  0.4923  0.5760  1.0330
 8748SOL    HW137877   1.001   2.343   5.087  0.3529  0.3312  0.8688
 8748SOL    HW237878   0.948   2.239   5.169  1.8162 -2.5024 -0.1636
 8749SOL     OW37879   2.285   3.269   0.921 -0.1578 -0.0438  0.1792
 8749SOL    HW137880   2.262   3.196   0.978 -1.8821  0.3980  0.0341
 8749SOL    HW237881   2.217   3.333   0.939 -1.4612 -1.8243  1.5038
 8750SOL     OW37882   1.470   3.030  10.142 -0.1803  0.5021 -0.2420
 8750SOL    HW137883   1.492   2.955  10.197  1.0183  1.8440  1.1304
 8750SOL    HW237884   1.424   2.971  10.083  1.0468 -0.3203 -0.3810
 8751SOL     OW37885   1.767   4.083   6.213 -0.6135  0.0832 -0.0338
 8751SOL    HW137886   1.727   4.112   6.131 -0.4974 -0.3873 -0.2615
 8751SOL    HW237887   1.861   4.076   6.197 -0.6796 -2.0713  0.4539
 8752SOL     OW37888   0.102   0.072  12.840 -0.2914 -0.6243 -0.3836
 8752SOL    HW137889   0.050   0.145  12.872  0.9555 -1.0786  2.6447
 8752SOL    HW237890   0.184   0.110  12.810  0.2910 -1.8787 -0.3792
 8753SOL     OW37891   2.365   0.907   4.350 -0.2250  0.1323  0.0421
 8753SOL    HW137892   2.347   0.844   4.280  2.4702  2.8449 -3.0573
 8753SOL    HW237893   2.411   0.977   4.304  0.0795  0.0551  0.2308
 8754SOL     OW37894   1.605   4.394   8.047 -0.4706 -0.2986 -0.0947
 8754SOL    HW137895   1.548   4.325   8.013 -0.9359  1.0375 -2.0278
 8754SOL    HW237896   1.559   4.421   8.126  2.0281  2.0734  0.5589
 8755SOL     OW37897   1.085   3.820   4.861  0.2879 -0.1228  0.1093
 8755SOL    HW137898   1.092   3.801   4.767 -0.9181  0.1854 -0.0477
 8755SOL    HW237899   1.088   3.729   4.891  1.8020 -1.1329 -3.0527
 8756SOL     OW37900   3.342   3.355   3.515 -0.5311 -0.1467 -0.7064
 8756SOL    HW137901   3.402   3.299   3.466 -1.7598 -0.4036 -1.9006
 8756SOL    HW237902   3.311   3.423   3.455  0.5484  0.9667 -0.0066
 8757SOL     OW37903   0.554   0.571   1.607 -0.7982 -0.1428 -0.4102
 8757SOL    HW137904   0.465   0.555   1.639 -0.0008 -3.3408  0.1141
 8757SOL    HW237905   0.590   0.483   1.608 -1.6306 -0.4685  0.4592
 8758SOL     OW37906   4.492   0.279   6.826  0.3270 -0.3316 -0.3495
 8758SOL    HW137907   4.530   0.246   6.908 -0.0846  4.4995  1.7974
 8758SOL    HW237908   4.567   0.330   6.794  2.2572 -2.3017  1.0374
 8759SOL     OW37909   2.768   4.032  16.280 -0.4652  0.2830 -0.7456
 8759SOL    HW137910   2.850   4.007  16.323 -1.4619 -0.6992  0.5922
 8759SOL    HW237911   2.770   3.975  16.203 -0.1993 -1.6281  0.6682
 8760SOL     OW37912   0.337   0.632   7.013  0.4368 -0.0556 -0.6513
 8760SOL    HW137913   0.353   0.666   6.925  1.7705 -3.5647 -1.7773
 8760SOL    HW237914   0.264   0.688   7.040  2.6744  2.7440 -0.3656
 8761SOL     OW37915   1.319   0.516   1.678  0.3373  0.6911 -0.1915
 8761SOL    HW137916   1.243   0.460   1.697  0.7427  0.6160  1.2526
 8761SOL    HW237917   1.290   0.544   1.591  0.0086 -0.8883 -0.5874
 8762SOL     OW37918   2.288   2.032  15.372  0.0457 -0.2115 -0.5173
 8762SOL    HW137919   2.259   2.064  15.287 -3.0763  1.6835  1.2670
 8762SOL    HW237920   2.381   2.021  15.352  0.4925  1.4823  0.6965
 8763SOL     OW37921   2.229   1.773   5.333  0.6271 -0.4044 -0.0833
 8763SOL    HW137922   2.137   1.786   5.310  0.5778  0.7038  0.7088
 8763SOL    HW237923   2.243   1.832   5.407  1.3893 -0.7066  0.0125
 8764SOL     OW37924   2.964   0.978   9.382 -0.1391 -0.4432 -0.6171
 8764SOL    HW137925   3.020   1.047   9.346  1.3317 -1.5112 -0.3214
 8764SOL    HW237926   2.930   0.952   9.297  0.9960 -2.8385 -0.3255
 8765SOL     OW37927   0.083   1.367  12.337  0.0198  0.1732  0.0738
 8765SOL    HW137928   0.073   1.305  12.265 -1.2683  0.5596 -0.0907
 8765SOL    HW237929   4.735   1.357  12.381  1.1623 -1.8010  1.8651
 8766SOL     OW37930   0.910   1.256   8.749 -0.1512  0.1902  0.0616
 8766SOL    HW137931   0.877   1.261   8.659  0.7168 -2.3367 -0.3913
 8766SOL    HW237932   0.828   1.225   8.787 -1.7232  3.5743 -0.5201
 8767SOL     OW37933   3.380   3.497   1.058  0.0802  0.0287 -0.3145
 8767SOL    HW137934   3.462   3.448   1.064 -0.9994 -1.7723 -0.1247
 8767SOL    HW237935   3.334   3.449   1.127 -3.5012  2.4221 -0.9957
 8768SOL     OW37936   4.218   3.077   0.408 -0.0979  0.0389  0.2239
 8768SOL    HW137937   4.279   3.038   0.346 -0.4026 -0.1423  0.0342
 8768SOL    HW237938   4.266   3.057   0.489 -3.0674 -1.5417  1.6151
 8769SOL     OW37939   0.018   3.995   5.601 -0.3466  0.5612 -0.1175
 8769SOL    HW137940   4.728   3.913   5.559 -1.5755  0.8306  0.1646
 8769SOL    HW237941   0.005   3.980   5.694  1.5097  0.3854  0.1076
 8770SOL     OW37942   1.764   1.755  12.204 -0.3932  0.5936 -0.0849
 8770SOL    HW137943   1.728   1.750  12.116 -0.6021  0.5113  0.0058
 8770SOL    HW237944   1.845   1.804  12.190 -0.6853  1.1705  0.2372
 8771SOL     OW37945   3.470   2.501  11.857 -0.1853  0.5408  0.6221
 8771SOL    HW137946   3.452   2.502  11.951 -4.4972 -2.6858 -0.1466
 8771SOL    HW237947   3.381   2.502  11.822  0.2456  1.8757 -0.3988
 8772SOL     OW37948   4.493   4.375   6.511 -0.0314 -0.0157 -1.0157
 8772SOL    HW137949   4.577   4.389   6.467  1.2490  0.5673  1.6104
 8772SOL    HW237950   4.427   4.385   6.443  1.5778 -2.9686 -2.9830
 8773SOL     OW37951   1.397   1.570   3.116 -0.0747  0.2366 -0.7720
 8773SOL    HW137952   1.400   1.481   3.152 -2.2094 -0.0068 -1.1845
 8773SOL    HW237953   1.439   1.633   3.174 -0.3350 -1.5913  1.4136
 8774SOL     OW37954   3.799   4.107   9.114 -0.2915  0.1268 -0.1842
 8774SOL    HW137955   3.713   4.107   9.155  0.9123 -1.2001  2.3566
 8774SOL    HW237956   3.776   4.095   9.022 -0.0341  1.1905 -0.3864
 8775SOL     OW37957   0.378   0.086  14.298  0.2721 -0.3608  0.1617
 8775SOL    HW137958   0.382   4.728  14.309 -0.1246 -0.4201 -0.1978
 8775SOL    HW237959   0.291   0.109  14.329  0.2077  0.0916 -0.3687
 8776SOL     OW37960   2.961   3.390   4.096  0.3986  0.1895  0.2251
 8776SOL    HW137961   2.996   3.376   4.008  0.7314  2.1687  0.0373
 8776SOL    HW237962   3.040   3.432   4.129  0.0419 -0.5575  2.0120
 8777SOL     OW37963   0.406   3.287   9.184 -0.2670 -0.3550 -0.7845
 8777SOL    HW137964   0.319   3.325   9.172 -0.4041  0.0946  1.6538
 8777SOL    HW237965   0.443   3.374   9.171  1.1519 -0.2530  3.7271
 8778SOL     OW37966   2.586   2.050   0.613 -0.3205  0.4007 -0.2708
 8778SOL    HW137967   2.576   2.090   0.699  0.1347 -0.5697  0.2361
 8778SOL    HW237968   2.558   1.960   0.629 -0.6085  0.2920 -1.3725
 8779SOL     OW37969   4.417   2.841   9.377  0.4433 -0.3273  0.2298
 8779SOL    HW137970   4.428   2.839   9.472  0.6991 -1.2217  0.1794
 8779SOL    HW237971   4.462   2.924   9.356  1.6727 -0.9614  0.3561
 8780SOL     OW37972   4.585   1.011   9.480 -0.4796  0.1454  0.3157
 8780SOL    HW137973   4.534   1.039   9.404  1.3628  0.9554 -0.6293
 8780SOL    HW237974   4.555   0.923   9.500 -1.4548  0.8651  2.0444
 8781SOL     OW37975   3.185   0.070   2.140 -0.1328 -0.6255  0.2603
 8781SOL    HW137976   3.241   0.136   2.099 -0.7697  1.3393  2.5821
 8781SOL    HW237977   3.101   0.116   2.146 -0.0850 -0.1894 -2.2281
 8782SOL     OW37978   0.143   0.044  10.261 -0.2086  0.3073  0.3567
 8782SOL    HW137979   0.229   0.037  10.302  0.3383  2.6069 -0.3921
 8782SOL    HW237980   0.150   0.011  10.172 -1.3042 -1.3509  0.8823
 8783SOL     OW37981   1.236   4.269   9.045  0.5148  0.1416  0.3608
 8783SOL    HW137982   1.165   4.239   8.989  0.3599 -0.0644  0.6671
 8783SOL    HW237983   1.250   4.363   9.034  2.1023 -0.1209  0.1034
 8784SOL     OW37984   1.700   1.974  13.869  0.3904  0.3864 -0.1181
 8784SOL    HW137985   1.649   1.965  13.950  0.9310 -1.9029 -0.0395
 8784SOL    HW237986   1.767   1.907  13.878  0.7456  1.0339  2.0201
 8785SOL     OW37987   4.414   2.997  14.113  0.2139  0.0478 -0.7342
 8785SOL    HW137988   4.433   2.931  14.180  3.3006  0.5863 -1.0920
 8785SOL    HW237989   4.491   3.052  14.128 -0.4478  0.5836  0.6633
 8786SOL     OW37990   3.135   2.257   7.916  0.5309  0.5220 -0.0670
 8786SOL    HW137991   3.107   2.308   7.992  0.1839 -1.4456  1.1161
 8786SOL    HW237992   3.161   2.318   7.847 -0.2562  1.6510  0.6336
 8787SOL     OW37993   4.057   2.382   1.208  0.0296  0.1025 -0.3215
 8787SOL    HW137994   3.981   2.399   1.152 -1.2152  1.1209  1.6836
 8787SOL    HW237995   4.119   2.362   1.138  0.1050 -1.7481  0.2774
 8788SOL     OW37996   1.160   0.306  10.720 -0.2707 -0.4512  0.0557
 8788SOL    HW137997   1.122   0.381  10.767  1.3253  0.0777  0.4857
 8788SOL    HW237998   1.241   0.338  10.680 -0.3195  0.1404  0.4184
 8789SOL     OW37999   4.507   4.708   9.476  0.4562  0.1888 -0.3584
 8789SOL    HW138000   4.415   4.733   9.481  0.3647  0.3470 -2.7754
 8789SOL    HW238001   4.551   0.050   9.504  0.1799  0.3175 -0.2871
 8790SOL     OW38002   2.774   0.455   9.119  0.1583 -0.8370  0.1819
 8790SOL    HW138003   2.781   0.550   9.131  0.7832 -0.7136 -1.1714
 8790SOL    HW238004   2.838   0.418   9.180 -1.2503 -0.3023  2.0057
 8791SOL     OW38005   0.372   1.635   4.893 -0.5865 -0.3558 -0.3146
 8791SOL    HW138006   0.303   1.699   4.911 -0.7937 -0.4681 -0.7126
 8791SOL    HW238007   0.453   1.686   4.892 -1.1417  0.5637  2.3669
 8792SOL     OW38008   0.783   0.277   2.094 -0.2144  0.3620  0.3164
 8792SOL    HW138009   0.766   0.285   2.000 -1.5997  2.1981  0.7252
 8792SOL    HW238010   0.878   0.289   2.094 -0.2029  0.2033  1.8793
 8793SOL     OW38011   3.510   0.459  10.651 -0.6227  0.0261 -0.2956
 8793SOL    HW138012   3.489   0.397  10.721  0.1318  0.9944  0.7869
 8793SOL    HW238013   3.506   0.539  10.704  0.9570 -0.3763  0.4365
 8794SOL     OW38014   0.001   4.304   6.215 -0.4600  0.0649  0.3085
 8794SOL    HW138015   4.732   4.218   6.257 -1.2955 -0.4757 -0.9047
 8794SOL    HW238016   0.050   4.361   6.273 -3.0214  0.7700  1.7585
 8795SOL     OW38017   2.106   0.913   6.157 -0.0694  0.2171  0.4414
 8795SOL    HW138018   2.072   0.974   6.223 -2.8710  1.2128 -1.9266
 8795SOL    HW238019   2.172   0.868   6.209 -0.8196 -0.3277  0.9165
 8796SOL     OW38020   3.222   0.430  15.705 -0.1896  0.2462 -0.1816
 8796SOL    HW138021   3.223   0.375  15.626 -0.0421  1.1091 -0.7848
 8796SOL    HW238022   3.313   0.423  15.732 -0.1333  1.9047  0.0492
 8797SOL     OW38023   2.577   4.336   1.920 -0.3717  0.2716 -0.7078
 8797SOL    HW138024   2.547   4.270   1.982  0.9245  0.0802 -0.2802
 8797SOL    HW238025   2.497   4.386   1.904 -1.2371 -0.3032  1.9203
 8798SOL     OW38026   2.744   0.514   5.010  0.1329 -0.1821  0.2735
 8798SOL    HW138027   2.824   0.561   5.032 -0.5400  1.8559 -1.5504
 8798SOL    HW238028   2.763   0.424   5.036  2.1840  0.4611  1.0248
 8799SOL     OW38029   4.632   4.064   8.325  0.6728 -0.3734  0.1307
 8799SOL    HW138030   4.641   4.126   8.252 -0.8267 -0.2415  0.0612
 8799SOL    HW238031   4.679   4.110   8.395 -0.0516  1.1665 -0.3898
 8800SOL     OW38032   2.443   4.316   0.912 -0.3729 -0.0712 -0.0787
 8800SOL    HW138033   2.431   4.349   1.002  1.8728 -1.1663  0.6258
 8800SOL    HW238034   2.410   4.396   0.870 -1.1071 -0.5053 -0.3216
 8801SOL     OW38035   0.306   0.892   6.199  0.3092  0.2821 -0.4032
 8801SOL    HW138036   0.326   0.943   6.121 -1.4717  1.0612 -0.3584
 8801SOL    HW238037   0.309   0.807   6.155  1.6460  1.0863 -1.8556
 8802SOL     OW38038   0.055   0.872   5.609  0.1992 -0.0752  0.4602
 8802SOL    HW138039   0.110   0.863   5.532 -0.2251 -0.7006  0.2303
 8802SOL    HW238040   4.725   0.805   5.600 -0.2548  0.2816  1.1497
 8803SOL     OW38041   1.857   1.364   2.633 -0.4808 -0.3886 -0.2222
 8803SOL    HW138042   1.825   1.310   2.561 -1.1102  0.1441 -0.3485
 8803SOL    HW238043   1.806   1.443   2.612  2.8300  1.7313 -0.3698
 8804SOL     OW38044   2.713   3.666   7.257  0.2941  0.2785  0.5385
 8804SOL    HW138045   2.621   3.674   7.282  0.5515  0.6126  1.3709
 8804SOL    HW238046   2.733   3.756   7.232 -0.6166  0.5445  0.7660
 8805SOL     OW38047   4.708   2.702   7.788 -0.4168 -0.7099  0.3538
 8805SOL    HW138048   4.692   2.752   7.708  1.0033  0.2121  0.6496
 8805SOL    HW238049   0.057   2.669   7.763 -0.4195  0.1052 -0.7357
 8806SOL     OW38050   0.289   2.393  15.475 -0.2339  0.0277  0.1838
 8806SOL    HW138051   0.287   2.486  15.455 -2.0212  0.1491  0.9922
 8806SOL    HW238052   0.344   2.407  15.552  1.9419  1.2986 -1.6073
 8807SOL     OW38053   2.678   0.033   9.145  0.2198  0.2907 -0.2710
 8807SOL    HW138054   2.628   0.063   9.069  1.0053  1.5158 -0.3074
 8807SOL    HW238055   2.702   4.683   9.114 -1.2079 -0.2455  0.1772
 8808SOL     OW38056   2.629   1.703   7.228 -0.5662  0.1427 -0.0596
 8808SOL    HW138057   2.674   1.698   7.312  0.5044 -1.0972 -0.7030
 8808SOL    HW238058   2.545   1.745   7.243 -0.5653  0.7354 -1.7881
 8809SOL     OW38059   1.543   2.099   7.346 -0.0899  0.0536 -0.5086
 8809SOL    HW138060   1.608   2.073   7.281  0.4220 -1.1169  0.4610
 8809SOL    HW238061   1.513   2.015   7.380 -0.8790 -1.0929 -4.0624
 8810SOL     OW38062   4.517   3.118   3.295  0.0448 -0.1888 -0.2171
 8810SOL    HW138063   4.487   3.051   3.233 -1.2428  0.4661 -0.2926
 8810SOL    HW238064   4.489   3.199   3.252  0.9814 -0.0249 -0.5338
 8811SOL     OW38065   1.725   3.374  12.240 -0.3928 -0.3087 -0.3338
 8811SOL    HW138066   1.770   3.453  12.270 -2.5417  0.5682  0.6061
 8811SOL    HW238067   1.709   3.322  12.319 -0.2826  0.2419  0.0511
 8812SOL     OW38068   1.828   1.394   5.596  0.7117 -0.2401 -0.5154
 8812SOL    HW138069   1.770   1.348   5.656  0.2720 -0.2493 -0.9427
 8812SOL    HW238070   1.810   1.339   5.519 -1.2120  0.2122 -0.3837
 8813SOL     OW38071   1.014   3.157   5.526  0.2742 -0.1695  0.2439
 8813SOL    HW138072   1.102   3.170   5.561  2.1855  0.8290 -4.9382
 8813SOL    HW238073   0.998   3.225   5.461 -1.7071 -1.3426 -0.4927
 8814SOL     OW38074   3.563   2.617   0.861 -0.3790  0.3600 -0.1681
 8814SOL    HW138075   3.498   2.642   0.926 -0.4147 -0.4482  0.1069
 8814SOL    HW238076   3.507   2.622   0.784  1.3714 -0.2980 -1.4871
 8815SOL     OW38077   1.427   4.043  11.629  0.9641 -0.0933 -0.0440
 8815SOL    HW138078   1.340   4.063  11.664  0.4796 -2.4025  0.0500
 8815SOL    HW238079   1.448   3.961  11.673  0.0929 -0.2095  0.1628
 8816SOL     OW38080   2.102   0.242  10.386 -0.3531  0.0660  0.1306
 8816SOL    HW138081   2.086   0.155  10.423  1.3385 -0.1160  0.4013
 8816SOL    HW238082   2.046   0.296  10.442 -1.0137 -1.5185  1.0006
 8817SOL     OW38083   1.774   3.719   5.727 -0.0546  0.1007  0.5360
 8817SOL    HW138084   1.786   3.659   5.802  0.4068 -1.5322 -0.8431
 8817SOL    HW238085   1.772   3.804   5.770 -0.6301  0.3128  0.0783
 8818SOL     OW38086   4.620   1.530   5.149 -0.1294 -0.3582  0.1914
 8818SOL    HW138087   4.627   1.435   5.135 -4.5242 -0.1686 -2.9547
 8818SOL    HW238088   4.710   1.563   5.156 -0.5734  0.8582  0.1457
 8819SOL     OW38089   2.628   2.976   4.921  0.3815  0.3353  0.0973
 8819SOL    HW138090   2.717   2.981   4.957  0.8579  0.4479 -1.0786
 8819SOL    HW238091   2.646   3.006   4.832  0.2970 -0.9082 -0.3500
 8820SOL     OW38092   1.396   2.825   6.458  0.1181 -0.1214 -0.4766
 8820SOL    HW138093   1.433   2.739   6.438 -2.4833 -1.4766  0.4568
 8820SOL    HW238094   1.306   2.812   6.427  0.1647 -0.1641 -0.5955
 8821SOL     OW38095   1.849   0.145   9.476  0.0002  0.0614  0.2098
 8821SOL    HW138096   1.932   0.102   9.495  0.1422  0.2809  0.0864
 8821SOL    HW238097   1.859   0.237   9.502  2.0896 -0.4626  1.2298
 8822SOL     OW38098   3.575   2.533   7.938 -0.5159  0.1512 -0.2691
 8822SOL    HW138099   3.613   2.560   8.022 -2.4801 -1.1567  1.0384
 8822SOL    HW238100   3.588   2.608   7.879 -1.3165  0.5981  0.1210
 8823SOL     OW38101   3.087   1.480  11.721  0.3511 -0.1266  0.2127
 8823SOL    HW138102   3.037   1.398  11.722  1.7213 -0.9795 -1.6967
 8823SOL    HW238103   3.023   1.533  11.769  0.3050 -0.9226  1.0442
 8824SOL     OW38104   1.167   2.437   0.338  0.6378  0.4101 -0.8209
 8824SOL    HW138105   1.125   2.351   0.329  0.6247  0.1597  1.5805
 8824SOL    HW238106   1.100   2.481   0.288 -0.4175  0.1743  0.3762
 8825SOL     OW38107   2.044   4.400  15.616  0.4588  0.3132  0.1993
 8825SOL    HW138108   2.063   4.338  15.686 -2.3765 -1.9026 -1.0378
 8825SOL    HW238109   1.954   4.407  15.646 -0.0842  0.9993 -1.6308
 8826SOL     OW38110   4.341   3.251   6.317 -0.1898  0.3464 -0.3665
 8826SOL    HW138111   4.301   3.327   6.275 -0.8785  0.1700 -0.0181
 8826SOL    HW238112   4.289   3.180   6.279 -1.2280  0.0881  1.5181
 8827SOL     OW38113   0.166   2.140  17.695  0.0026 -0.2799  0.2844
 8827SOL    HW138114   0.211   2.215  17.657  1.0511 -0.1834  1.6909
 8827SOL    HW238115   0.226   2.121   0.020  1.7981 -2.2320 -1.6742
 8828SOL     OW38116   2.202   0.964   8.833  0.0431 -0.5477 -0.0424
 8828SOL    HW138117   2.162   1.046   8.803  0.4795 -0.2566  0.1692
 8828SOL    HW238118   2.126   0.924   8.873 -0.2221  0.9401  0.9230
 8829SOL     OW38119   1.722   1.233   3.055 -0.2806 -0.5179 -0.2813
 8829SOL    HW138120   1.651   1.173   3.079  0.0955 -1.2939 -1.0562
 8829SOL    HW238121   1.772   1.180   2.992  0.8223 -1.0662  1.0502
 8830SOL     OW38122   3.968   2.330   0.325 -0.4626  0.1092 -0.3008
 8830SOL    HW138123   3.933   2.412   0.290 -2.6050 -1.0332 -0.8808
 8830SOL    HW238124   3.905   2.261   0.303 -1.3525  0.8249 -0.0295
 8831SOL     OW38125   0.620   3.264   0.390  0.4438  0.5436  0.0069
 8831SOL    HW138126   0.607   3.340   0.447  0.2858  1.1666 -0.8640
 8831SOL    HW238127   0.685   3.294   0.326  1.3698  2.3795  1.7914
 8832SOL     OW38128   0.940   4.284   4.944 -0.1137 -0.3490 -0.2344
 8832SOL    HW138129   0.920   4.226   5.017 -1.0323 -0.8085 -0.8556
 8832SOL    HW238130   0.915   4.365   4.988  0.6123 -0.1727 -0.1541
 8833SOL     OW38131   4.618   0.609   5.460 -0.5522  0.1851  0.2528
 8833SOL    HW138132   4.596   0.630   5.369  2.9123  0.0270 -0.6118
 8833SOL    HW238133   4.534   0.618   5.505  0.6302 -1.0651  2.6718
 8834SOL     OW38134   1.113   2.658   5.539  0.7379 -0.4019  0.2023
 8834SOL    HW138135   1.161   2.736   5.565 -0.8424  0.8948 -0.8119
 8834SOL    HW238136   1.041   2.704   5.495 -2.0310 -3.5478  1.3535
 8835SOL     OW38137   4.258   0.264   1.160  0.0153  0.3014 -0.4165
 8835SOL    HW138138   4.167   0.238   1.170 -0.0324  0.3153 -0.7939
 8835SOL    HW238139   4.289   0.174   1.167  0.6092  0.4757 -0.8084
 8836SOL     OW38140   0.148   1.716   5.506  0.1545  0.5616  0.2108
 8836SOL    HW138141   0.240   1.694   5.486  0.6694  1.3256  1.7595
 8836SOL    HW238142   0.141   1.811   5.497 -0.5780  0.6645  2.0347
 8837SOL     OW38143   0.969   1.540  14.203 -0.1173 -0.8656  0.0122
 8837SOL    HW138144   0.974   1.458  14.252  0.2662 -0.9303 -0.1374
 8837SOL    HW238145   0.957   1.514  14.112 -0.3466  1.8131 -0.7255
 8838SOL     OW38146   1.608   4.171   5.998  0.4687  0.0227 -0.6045
 8838SOL    HW138147   1.575   4.239   5.939 -1.2911 -1.0820 -0.9109
 8838SOL    HW238148   1.527   4.151   6.046  0.8679  1.1147  0.5138
 8839SOL     OW38149   3.357   3.424  13.234  0.0373  0.7110  0.1089
 8839SOL    HW138150   3.414   3.443  13.309  0.6845  1.1125 -0.4865
 8839SOL    HW238151   3.401   3.344  13.204  0.5793  1.3942 -0.9210
 8840SOL     OW38152   4.251   2.042   9.973 -0.1697 -0.3916  0.2429
 8840SOL    HW138153   4.333   2.049  10.022  0.0490  0.1806 -0.2006
 8840SOL    HW238154   4.279   2.053   9.882  0.6001  0.6119  0.6053
 8841SOL     OW38155   2.059   1.817  12.229 -0.1172  0.0032 -0.1896
 8841SOL    HW138156   2.048   1.860  12.313  1.1475  2.3847 -1.2591
 8841SOL    HW238157   2.115   1.878  12.181  1.2110 -0.7492  0.4290
 8842SOL     OW38158   2.069   4.207   1.880 -0.4472  0.9918 -0.0170
 8842SOL    HW138159   1.992   4.233   1.930  0.9000  1.6818  1.7084
 8842SOL    HW238160   2.077   4.112   1.885  1.0402  1.1629  0.9128
 8843SOL     OW38161   3.249   1.199   4.640 -0.1848 -0.3892 -0.0733
 8843SOL    HW138162   3.193   1.150   4.701  1.2543 -0.8497  0.8765
 8843SOL    HW238163   3.178   1.238   4.589 -0.0750  0.5729  0.5135
 8844SOL     OW38164   4.255   4.020   8.850  0.2236 -0.2788 -0.2457
 8844SOL    HW138165   4.333   4.025   8.905  1.3671 -1.5092 -1.7712
 8844SOL    HW238166   4.181   4.055   8.900  0.2926 -0.9862  0.3676
 8845SOL     OW38167   2.551   3.708   3.374  0.2925 -0.2313 -0.7972
 8845SOL    HW138168   2.480   3.676   3.318 -0.1562  0.5517 -0.6779
 8845SOL    HW238169   2.596   3.625   3.387  0.1529  0.0640  1.5702
 8846SOL     OW38170   1.578   3.244  12.913  0.0662  0.6119 -0.1784
 8846SOL    HW138171   1.635   3.287  12.849  0.6473  0.5706  0.3141
 8846SOL    HW238172   1.633   3.168  12.932 -0.2577  0.5515  0.5222
 8847SOL     OW38173   2.615   3.646   2.756 -0.6850 -0.3430 -0.3637
 8847SOL    HW138174   2.595   3.682   2.670  0.1233 -0.0064 -0.4052
 8847SOL    HW238175   2.655   3.563   2.728  0.4595  0.9199 -2.5023
 8848SOL     OW38176   4.638   0.955   5.888  0.1930 -0.2261  0.1953
 8848SOL    HW138177   4.714   0.986   5.839  0.6393 -0.2149  0.8959
 8848SOL    HW238178   4.648   0.861   5.881 -0.6324 -0.2772 -0.2857
 8849SOL     OW38179   0.781   4.250   9.098 -0.1560 -0.3042  0.1178
 8849SOL    HW138180   0.836   4.236   9.175  1.3873  0.8997 -0.7602
 8849SOL    HW238181   0.780   4.346   9.091  0.4781 -0.2443  0.8688
 8850SOL     OW38182   3.694   3.590  12.568  0.9767  0.2790  0.0583
 8850SOL    HW138183   3.719   3.588  12.476 -0.0393  2.3392 -0.2680
 8850SOL    HW238184   3.656   3.502  12.573  0.9980  0.3559  1.4373
 8851SOL     OW38185   3.641   4.472   4.719 -0.3055  0.1843 -0.4181
 8851SOL    HW138186   3.733   4.461   4.742 -0.1580  1.0134 -0.6176
 8851SOL    HW238187   3.618   4.561   4.746  0.4591 -0.2016  1.4858
 8852SOL     OW38188   1.644   2.868   8.616 -0.4980  0.0331 -0.1233
 8852SOL    HW138189   1.603   2.936   8.671 -0.9077 -0.2953 -0.0216
 8852SOL    HW238190   1.569   2.809   8.606 -1.4021  1.2091 -0.2968
 8853SOL     OW38191   1.173   2.746   5.036 -0.7242 -0.2346  0.2677
 8853SOL    HW138192   1.181   2.667   5.090 -0.1346 -0.5503 -0.2644
 8853SOL    HW238193   1.198   2.812   5.100  1.8805  0.1864 -1.1771
 8854SOL     OW38194   3.076   2.436   1.220  0.9431  0.3541  0.0676
 8854SOL    HW138195   3.155   2.490   1.221  2.3748 -1.7108  0.2155
 8854SOL    HW238196   3.086   2.397   1.307  0.4387 -1.9684 -0.9237
 8855SOL     OW38197   0.465   4.584   7.272 -0.7247  0.4036  0.7242
 8855SOL    HW138198   0.471   4.659   7.213 -0.0964  0.8148  1.3111
 8855SOL    HW238199   0.534   4.599   7.337 -0.8796  2.1143  0.4879
 8856SOL     OW38200   3.476   1.367   1.192  0.2363  0.1188 -0.2701
 8856SOL    HW138201   3.398   1.330   1.153  0.7521 -0.6572 -0.5604
 8856SOL    HW238202   3.448   1.455   1.219 -0.0368 -0.2884  0.7964
 8857SOL     OW38203   0.048   1.163  12.136  0.4692  0.5002  0.6207
 8857SOL    HW138204   0.024   1.185  12.046 -0.3590 -1.6363  0.3022
 8857SOL    HW238205   4.727   1.088  12.152  0.3226 -0.1066 -2.7761
 8858SOL     OW38206   4.046   4.208   8.215  0.1314 -0.1170  0.0864
 8858SOL    HW138207   4.137   4.238   8.219 -0.8114  2.6581  0.8003
 8858SOL    HW238208   3.993   4.278   8.253 -1.1906 -1.5281  0.8347
 8859SOL     OW38209   3.808   0.898   5.838  0.1640  0.2874 -0.5305
 8859SOL    HW138210   3.825   0.872   5.929 -1.0114 -2.7169 -1.1557
 8859SOL    HW238211   3.873   0.845   5.791 -1.6603 -0.1995 -2.4989
 8860SOL     OW38212   4.000   2.578   2.478 -0.0616 -0.0920 -0.1113
 8860SOL    HW138213   4.095   2.576   2.490  0.0425  0.9377 -0.7143
 8860SOL    HW238214   3.970   2.572   2.569  1.0942 -1.5440  0.1548
 8861SOL     OW38215   3.691   3.377   5.332 -0.2888  0.0491  1.1262
 8861SOL    HW138216   3.665   3.467   5.314 -0.0257 -0.3350 -1.1106
 8861SOL    HW238217   3.643   3.361   5.413  0.2420 -0.9871  1.2434
 8862SOL     OW38218   3.528   3.554  13.456 -0.1832 -0.5950  0.0495
 8862SOL    HW138219   3.502   3.505  13.534 -0.0370  0.6247  0.8591
 8862SOL    HW238220   3.516   3.645  13.483  3.1103  0.1193 -0.8760
 8863SOL     OW38221   0.619   1.649  14.596  0.1969 -0.2878  0.8332
 8863SOL    HW138222   0.657   1.696  14.521  2.2987 -1.3714  1.2172
 8863SOL    HW238223   0.525   1.665  14.587  0.2570 -0.4573 -0.1013
 8864SOL     OW38224   3.381   2.060  12.599  0.7942  0.5676 -0.0823
 8864SOL    HW138225   3.348   2.044  12.687 -0.4587 -0.7667 -0.7959
 8864SOL    HW238226   3.303   2.037  12.548  0.6527  3.3220 -1.0982
 8865SOL     OW38227   0.247   2.298   5.742  0.2985  0.5668 -0.0986
 8865SOL    HW138228   0.214   2.342   5.664  2.3262  1.8404 -0.2331
 8865SOL    HW238229   0.169   2.244   5.757  1.0044 -0.9819 -2.1083
 8866SOL     OW38230   0.733   0.235   2.982 -0.4318  0.1414  0.3650
 8866SOL    HW138231   0.793   0.183   2.928 -1.6950  0.7666 -1.6611
 8866SOL    HW238232   0.651   0.231   2.933 -0.3335 -0.9969  0.2926
 8867SOL     OW38233   3.880   1.874   4.032  0.1190 -0.3045  0.2107
 8867SOL    HW138234   3.908   1.874   3.941 -2.4865 -1.1741 -0.5905
 8867SOL    HW238235   3.952   1.911   4.084  0.7457  0.5087 -1.2366
 8868SOL     OW38236   3.421   0.545   1.362  0.3528 -0.5204  0.5731
 8868SOL    HW138237   3.505   0.526   1.321 -0.4682  0.0528 -1.3538
 8868SOL    HW238238   3.370   0.558   1.282  1.9209  1.6397 -0.0581
 8869SOL     OW38239   3.374   1.186   3.761  0.1345 -0.2919  0.3841
 8869SOL    HW138240   3.365   1.276   3.729  0.4422 -0.5932 -0.5417
 8869SOL    HW238241   3.374   1.138   3.678 -1.5339 -1.7750  1.2272
 8870SOL     OW38242   4.713   1.319   4.400  0.2192 -0.0448 -0.4118
 8870SOL    HW138243   4.686   1.396   4.450  2.7547  0.0525  0.8037
 8870SOL    HW238244   4.654   1.252   4.436 -2.9131  2.0215 -1.7979
 8871SOL     OW38245   3.745   1.240   7.632 -0.1527  0.1071 -0.4472
 8871SOL    HW138246   3.838   1.253   7.648 -0.4095  1.2516  0.1155
 8871SOL    HW238247   3.710   1.316   7.678 -2.4317 -0.6105 -0.9743
 8872SOL     OW38248   3.026   0.314   4.155 -0.1127  0.5319 -0.0365
 8872SOL    HW138249   2.944   0.325   4.203 -0.1374  0.0437  0.0385
 8872SOL    HW238250   3.028   0.221   4.132 -0.7388  0.9303 -1.7006
 8873SOL     OW38251   1.530   1.124  11.780  0.7168 -0.6903  0.2713
 8873SOL    HW138252   1.504   1.115  11.688  1.6523  3.6132 -0.4179
 8873SOL    HW238253   1.541   1.219  11.778 -0.4871 -0.5037  2.3487
 8874SOL     OW38254   3.011   2.275   5.691  0.0232  0.0258  0.6456
 8874SOL    HW138255   3.013   2.358   5.643 -0.4244  0.6964  1.7824
 8874SOL    HW238256   3.100   2.273   5.725  0.2759 -0.9315 -0.0708
 8875SOL     OW38257   0.848   3.649   4.141  0.0338  0.2597  0.4303
 8875SOL    HW138258   0.943   3.638   4.134 -0.1157 -0.0133 -1.0644
 8875SOL    HW238259   0.837   3.645   4.236 -1.9356 -0.3079  0.1646
 8876SOL     OW38260   4.203   3.973   2.011 -0.0670 -0.1747  0.0648
 8876SOL    HW138261   4.246   3.896   2.048 -1.1891 -0.6635  0.3294
 8876SOL    HW238262   4.248   3.992   1.928 -2.9721  1.4974 -1.1298
 8877SOL     OW38263   2.063   3.962   1.540  0.4718 -0.8590 -0.8653
 8877SOL    HW138264   2.141   3.933   1.588 -0.2343 -0.5521  0.4933
 8877SOL    HW238265   2.055   3.901   1.467  1.4218 -0.7897 -1.0375
 8878SOL     OW38266   4.481   3.733   2.578 -0.1230 -0.1246  0.3406
 8878SOL    HW138267   4.553   3.726   2.515  0.3270  0.1609  0.8317
 8878SOL    HW238268   4.413   3.727   2.510  0.8332  0.9748 -0.7276
 8879SOL     OW38269   1.932   3.027  10.783 -0.0581  0.4696 -0.4534
 8879SOL    HW138270   1.891   2.980  10.711  0.4896 -0.2414 -0.2979
 8879SOL    HW238271   1.964   3.106  10.738  1.5240 -0.0170 -0.1786
 8880SOL     OW38272   1.130   1.923   9.071 -0.1535 -0.4601 -0.1112
 8880SOL    HW138273   1.192   1.878   9.128  0.4007 -1.1160 -1.2272
 8880SOL    HW238274   1.177   2.004   9.053 -1.0105 -0.1155 -0.8569
 8881SOL     OW38275   1.090   3.451  15.894  0.5257 -1.0038  0.1516
 8881SOL    HW138276   1.183   3.467  15.909  0.0721  1.3583  0.3384
 8881SOL    HW238277   1.105   3.374  15.838 -0.5029 -0.9132 -0.2449
 8882SOL     OW38278   1.524   3.504   3.655 -0.1520  0.1469 -0.1941
 8882SOL    HW138279   1.511   3.583   3.602 -0.0932  2.2119  2.8937
 8882SOL    HW238280   1.447   3.515   3.710 -1.2890 -1.4770 -1.4846
 8883SOL     OW38281   4.680   3.538  16.443 -0.6262 -0.2755  0.2150
 8883SOL    HW138282   4.692   3.493  16.527 -0.4166 -0.0513  0.3039
 8883SOL    HW238283   4.592   3.509  16.416 -1.4052  2.9135 -0.6535
 8884SOL     OW38284   0.119   3.113   7.993  0.2059  0.2312  0.2639
 8884SOL    HW138285   0.101   3.205   7.973 -3.4492 -0.5789 -0.2125
 8884SOL    HW238286   0.213   3.117   7.977  0.5911 -1.3673  2.0667
 8885SOL     OW38287   3.056   1.937   6.896 -0.2967  0.0140  0.2229
 8885SOL    HW138288   3.145   1.957   6.868 -0.7400 -0.2857 -1.4093
 8885SOL    HW238289   3.030   1.862   6.841  1.6360 -1.9525  1.9854
 8886SOL     OW38290   0.671   0.679   3.703 -0.2262  0.0508  0.0105
 8886SOL    HW138291   0.656   0.588   3.677  1.3549 -0.7397  1.7983
 8886SOL    HW238292   0.607   0.664   3.773 -0.7211 -1.4446 -0.7626
 8887SOL     OW38293   0.922   3.250   6.988  0.1296  0.0470  0.3330
 8887SOL    HW138294   0.845   3.252   7.046 -0.8841  0.2911 -1.0263
 8887SOL    HW238295   0.951   3.335   7.019  0.6987  0.4449 -1.3035
 8888SOL     OW38296   4.287   0.863  13.727  0.7509  0.5147  0.0016
 8888SOL    HW138297   4.308   0.770  13.729  1.6958  0.7627  1.1343
 8888SOL    HW238298   4.207   0.854  13.779  0.7200  0.0544 -0.1324
 8889SOL     OW38299   1.727   0.315  16.954 -0.4326 -0.4849 -0.4725
 8889SOL    HW138300   1.632   0.325  16.964 -0.3998 -0.5901 -0.0447
 8889SOL    HW238301   1.734   0.389  16.894 -0.1439  1.8176  2.4042
 8890SOL     OW38302   0.871   1.048  13.245  0.0458  0.2706 -0.4299
 8890SOL    HW138303   0.882   0.968  13.194  0.5066  0.3835 -0.5081
 8890SOL    HW238304   0.938   1.095  13.196  1.2831 -2.2775 -1.2182
 8891SOL     OW38305   0.736   2.155  11.468  0.4382 -0.7578 -0.0906
 8891SOL    HW138306   0.666   2.219  11.469  1.0364 -0.1205  0.6103
 8891SOL    HW238307   0.706   2.110  11.388 -1.7995  2.2964 -0.9710
 8892SOL     OW38308   0.044   0.499   4.505 -0.3693 -0.6034  0.4277
 8892SOL    HW138309   4.686   0.502   4.500 -0.2414  0.8939 -1.3843
 8892SOL    HW238310   0.046   0.445   4.426  0.0527 -0.7073  0.5080
 8893SOL     OW38311   2.657   4.600   8.346  0.0239 -0.6567  0.3693
 8893SOL    HW138312   2.581   4.546   8.324  0.7127 -1.1610 -0.7897
 8893SOL    HW238313   2.717   4.538   8.387  0.5865 -0.4639 -0.1611
 8894SOL     OW38314   2.165   3.327   2.601 -0.2708  0.3777  1.0336
 8894SOL    HW138315   2.187   3.251   2.547 -1.7526  1.0413 -0.5009
 8894SOL    HW238316   2.177   3.297   2.691  0.4377 -0.0272  0.8074
 8895SOL     OW38317   0.676   1.679   5.608  0.6015 -0.3098 -0.1562
 8895SOL    HW138318   0.713   1.714   5.527 -2.3397 -1.6672 -2.0802
 8895SOL    HW238319   0.744   1.623   5.645  0.9432 -0.1191 -0.4904
 8896SOL     OW38320   4.386   2.257   8.326 -0.1277  0.0576 -0.1157
 8896SOL    HW138321   4.307   2.245   8.274 -2.0589  0.9004  2.5753
 8896SOL    HW238322   4.454   2.261   8.259 -0.4722 -0.1766 -0.4765
 8897SOL     OW38323   0.143   2.435   5.525  0.3941  0.6928  0.2348
 8897SOL    HW138324   0.077   2.462   5.461 -1.4571  0.5538  2.1037
 8897SOL    HW238325   0.112   2.490   5.597 -2.7254 -2.4151  1.2567
 8898SOL     OW38326   0.848   3.914   6.985 -0.4255  0.1004 -0.1376
 8898SOL    HW138327   0.867   3.846   7.049  1.1620  0.1050 -0.6076
 8898SOL    HW238328   0.932   3.958   6.969 -0.2169 -0.0631  0.4957
 8899SOL     OW38329   0.368   3.023  15.080 -0.2624 -0.1233  0.5402
 8899SOL    HW138330   0.367   2.927  15.078 -1.7377 -0.1051  0.3958
 8899SOL    HW238331   0.443   3.045  15.135 -1.2822  1.6048  1.2466
 8900SOL     OW38332   1.963   3.494   2.695 -0.1746  0.0535  0.1664
 8900SOL    HW138333   2.028   3.439   2.651  0.3686  0.6833  0.1926
 8900SOL    HW238334   2.007   3.509   2.779  0.2821 -1.5200  0.2238
 8901SOL     OW38335   4.552   4.250   3.251  0.2578  0.3028  0.0039
 8901SOL    HW138336   4.628   4.290   3.209 -0.6366  0.2861 -1.6239
 8901SOL    HW238337   4.543   4.164   3.211  0.8756  0.0322  0.4465
 8902SOL     OW38338   0.729   1.445   7.819  0.0146 -0.1747  0.4416
 8902SOL    HW138339   0.689   1.530   7.803  1.0582  0.2607  0.1518
 8902SOL    HW238340   0.819   1.478   7.819 -0.3823  0.8937  1.3477
 8903SOL     OW38341   1.731   0.891   2.524  0.1528 -0.0704  0.3870
 8903SOL    HW138342   1.719   0.798   2.506 -1.7865  0.4246 -0.8892
 8903SOL    HW238343   1.811   0.885   2.577  1.8488  1.8403 -2.0080
 8904SOL     OW38344   2.380   1.947   5.051  0.3057  0.2150 -0.5943
 8904SOL    HW138345   2.357   1.989   4.969 -0.1414 -1.1755 -1.1727
 8904SOL    HW238346   2.331   1.865   5.047 -1.1354  1.0529  0.0643
 8905SOL     OW38347   1.236   4.375   6.280  0.0546  0.0659 -0.4347
 8905SOL    HW138348   1.144   4.357   6.258  0.9892 -0.7753 -3.6533
 8905SOL    HW238349   1.238   4.467   6.254  3.2601  0.2110  0.3823
 8906SOL     OW38350   3.668   2.893   5.377  0.2730 -0.5137  0.7386
 8906SOL    HW138351   3.630   2.966   5.426 -0.5495 -0.4402 -0.0001
 8906SOL    HW238352   3.599   2.828   5.392 -2.7774  2.1834 -1.7138
 8907SOL     OW38353   3.810   4.013   9.981  0.3624 -0.0413 -0.2500
 8907SOL    HW138354   3.810   3.957  10.059 -1.9977  0.7292  0.3037
 8907SOL    HW238355   3.874   3.976   9.920 -2.1242 -1.6956 -1.8181
 8908SOL     OW38356   1.075   2.160  10.110  0.1924  0.0804 -0.6379
 8908SOL    HW138357   1.083   2.222  10.183  1.6640 -0.6279 -0.1948
 8908SOL    HW238358   0.990   2.126  10.140  0.0817  2.5072  1.7756
 8909SOL     OW38359   0.195   3.774   4.798  0.2874 -0.0604  0.3166
 8909SOL    HW138360   0.209   3.756   4.705 -1.6239  2.5685 -0.4799
 8909SOL    HW238361   0.223   3.687   4.826  0.3406  0.6942  2.5910
 8910SOL     OW38362   4.717   2.515   5.303  0.3358  0.3573 -0.3998
 8910SOL    HW138363   0.047   2.484   5.242  1.5385 -0.5211  1.3783
 8910SOL    HW238364   4.737   2.608   5.294 -1.1626  0.7865  0.7411
 8911SOL     OW38365   4.177   1.606   6.038  0.2376 -0.5485  0.0816
 8911SOL    HW138366   4.089   1.584   6.007  0.1964 -1.0499  0.5644
 8911SOL    HW238367   4.228   1.550   5.979  0.7108 -0.1251  0.0915
 8912SOL     OW38368   0.582   2.619  12.055 -0.5068 -0.2509 -0.5571
 8912SOL    HW138369   0.529   2.698  12.047  1.1046  0.9958  1.1740
 8912SOL    HW238370   0.506   2.574  12.092  1.0692 -2.2865  0.2453
 8913SOL     OW38371   1.128   4.670   1.021 -0.6571  0.0475 -1.2058
 8913SOL    HW138372   1.105   4.736   0.955 -1.4073  1.6629  0.6945
 8913SOL    HW238373   1.071   4.698   1.092 -0.7296 -1.2053 -0.7661
 8914SOL     OW38374   3.760   3.754   9.251  0.2933 -0.4778 -0.0441
 8914SOL    HW138375   3.673   3.715   9.256  0.0140  0.0683 -0.6266
 8914SOL    HW238376   3.819   3.686   9.220  2.4361  1.6563 -0.6723
 8915SOL     OW38377   1.851   0.312  11.128  0.1116 -0.3995  0.4018
 8915SOL    HW138378   1.906   0.383  11.162  1.1870 -0.4601 -1.2199
 8915SOL    HW238379   1.905   0.241  11.162  1.4866  0.4958  0.0733
 8916SOL     OW38380   4.031   2.323   6.296 -0.1676 -0.0059  0.0028
 8916SOL    HW138381   3.964   2.350   6.359 -1.1113 -2.2115 -0.0404
 8916SOL    HW238382   4.019   2.390   6.229 -2.2665  0.3437  0.7373
 8917SOL     OW38383   1.622   3.310   4.579  1.0790 -0.6932 -0.2367
 8917SOL    HW138384   1.606   3.342   4.667  1.4732  1.6770 -1.0262
 8917SOL    HW238385   1.704   3.262   4.591  0.0288 -1.5781  3.2836
 8918SOL     OW38386   1.825   4.004   7.635 -0.3265  0.9743 -0.1596
 8918SOL    HW138387   1.826   4.034   7.726 -0.5718 -2.7436  1.0591
 8918SOL    HW238388   1.752   3.943   7.640  1.1627 -0.6068  1.8586
 8919SOL     OW38389   2.777   2.313  16.892 -0.6859 -0.5086  0.0705
 8919SOL    HW138390   2.778   2.373  16.817  0.9911  0.9597  1.2789
 8919SOL    HW238391   2.820   2.234  16.859  1.5135  0.5112  0.5244
 8920SOL     OW38392   4.436   1.284   7.271 -0.0703  0.4431  0.1912
 8920SOL    HW138393   4.346   1.251   7.278 -0.5254  1.7940  1.0257
 8920SOL    HW238394   4.444   1.290   7.176  0.4665 -1.5106  0.1329
 8921SOL     OW38395   2.638   1.501   5.444  0.1124 -0.2314 -0.3607
 8921SOL    HW138396   2.699   1.508   5.518 -3.4111  1.5765  2.3784
 8921SOL    HW238397   2.688   1.440   5.389  0.8192 -0.7487  0.8306
 8922SOL     OW38398   2.381   3.675   7.925 -0.3787  0.1025  0.1031
 8922SOL    HW138399   2.300   3.692   7.972 -0.8274 -1.6657 -0.0058
 8922SOL    HW238400   2.361   3.593   7.880  1.2888 -0.2547 -0.0018
 8923SOL     OW38401   1.621   2.075   1.604 -0.3326  0.3892 -0.2833
 8923SOL    HW138402   1.565   2.019   1.659  0.9884  1.1458  1.8268
 8923SOL    HW238403   1.695   2.020   1.577 -2.0938 -1.7103 -0.9119
 8924SOL     OW38404   1.715   2.317   1.720  0.3137 -0.1897 -0.1506
 8924SOL    HW138405   1.669   2.243   1.680  1.3156 -0.0988 -1.4870
 8924SOL    HW238406   1.644   2.348   1.777 -0.0889  0.6101 -1.1000
 8925SOL     OW38407   1.816   1.916   7.636 -0.1360 -0.5394  0.3059
 8925SOL    HW138408   1.891   1.963   7.600 -0.3357  0.5924  1.3681
 8925SOL    HW238409   1.831   1.828   7.603 -0.4566 -1.3949  2.4732
 8926SOL     OW38410   1.079   3.221   8.161 -0.8596 -0.1131 -0.0034
 8926SOL    HW138411   0.988   3.210   8.191 -0.4942  0.1917  1.1988
 8926SOL    HW238412   1.080   3.144   8.105  0.6037 -2.0981  2.7690
 8927SOL     OW38413   3.150   1.714   3.751  0.0981  0.2009  0.4386
 8927SOL    HW138414   3.198   1.797   3.745  1.7851 -0.8041  0.0685
 8927SOL    HW238415   3.168   1.675   3.665 -1.8926 -0.1240  0.1593
 8928SOL     OW38416   2.658   3.212   6.541  0.0908  0.1880 -0.4363
 8928SOL    HW138417   2.665   3.136   6.600 -1.4651  0.0416 -0.4554
 8928SOL    HW238418   2.749   3.238   6.528  0.3477 -1.0856 -1.2553
 8929SOL     OW38419   3.878   0.305   5.877  0.0727 -0.0392  0.1915
 8929SOL    HW138420   3.834   0.388   5.894  0.9571  0.1891  1.3427
 8929SOL    HW238421   3.799   0.261   5.845 -0.0342  1.1494 -1.1794
 8930SOL     OW38422   3.850   0.190   1.621 -0.0632  0.4261 -0.0258
 8930SOL    HW138423   3.826   0.261   1.561 -0.1278 -0.1986 -0.7335
 8930SOL    HW238424   3.782   0.195   1.688 -0.7292  0.3466 -0.7045
 8931SOL     OW38425   3.047   3.086  15.419 -0.0246 -0.0851 -0.2667
 8931SOL    HW138426   3.053   3.125  15.332 -0.8670  1.4025  0.3481
 8931SOL    HW238427   3.044   3.155  15.485  0.9584  1.4836 -1.8504
 8932SOL     OW38428   0.777   3.997   8.997 -0.3261  0.0345  0.2430
 8932SOL    HW138429   0.762   4.079   9.044 -2.3490 -0.1368 -0.1212
 8932SOL    HW238430   0.816   4.033   8.917 -2.5124  0.9514 -0.4108
 8933SOL     OW38431   1.513   2.117   2.087  0.2536  1.0119  0.2070
 8933SOL    HW138432   1.430   2.089   2.126  0.4084  2.0192  1.2479
 8933SOL    HW238433   1.478   2.145   2.002  3.4551  2.7279 -0.5494
 8934SOL     OW38434   3.674   0.748  11.673  0.0752 -0.2617 -0.1124
 8934SOL    HW138435   3.600   0.694  11.702 -1.4946  0.9092 -1.9292
 8934SOL    HW238436   3.634   0.835  11.671 -0.4397 -0.4565  1.5872
 8935SOL     OW38437   1.840   4.552   3.261 -0.5168 -0.2136 -0.0415
 8935SOL    HW138438   1.862   4.627   3.206 -1.0577  0.3038  0.4503
 8935SOL    HW238439   1.758   4.524   3.220  1.8457 -0.3846 -4.6801
 8936SOL     OW38440   0.799   4.042  10.109  0.5679 -0.6771  0.3828
 8936SOL    HW138441   0.876   4.042  10.166  2.1036  1.0463 -1.6884
 8936SOL    HW238442   0.799   4.127  10.066  1.3881  0.3630  2.4496
 8937SOL     OW38443   1.854   1.469  17.567  0.3085  0.0907  0.0417
 8937SOL    HW138444   1.784   1.409  17.542 -0.8886  2.0618 -1.3351
 8937SOL    HW238445   1.808   1.551  17.550 -1.3454 -0.6369  1.0300
 8938SOL     OW38446   4.219   2.663   4.024  0.4638  0.5385 -0.7033
 8938SOL    HW138447   4.314   2.667   4.030  0.3329 -0.1997  1.8929
 8938SOL    HW238448   4.195   2.664   4.117  0.4377  1.1209 -0.7144
 8939SOL     OW38449   4.413   0.695  13.353  0.4272  0.2162 -0.0967
 8939SOL    HW138450   4.479   0.662  13.293  1.5230 -0.8735  1.7087
 8939SOL    HW238451   4.431   0.631  13.422  1.8168 -0.8566 -1.4586
 8940SOL     OW38452   4.694   1.233   0.511  0.1533  0.3433 -0.7073
 8940SOL    HW138453   4.734   1.295   0.573  1.3384  0.2842 -1.4079
 8940SOL    HW238454   4.601   1.243   0.531 -0.0413 -1.8103 -0.5890
 8941SOL     OW38455   4.121   2.885   8.064 -0.0308 -0.0511  0.9848
 8941SOL    HW138456   4.159   2.973   8.058  1.8731 -0.9896 -0.7607
 8941SOL    HW238457   4.101   2.874   7.971  1.8895 -0.4892  0.6212
 8942SOL     OW38458   1.114   1.580   4.743 -0.0306  0.2725 -0.0553
 8942SOL    HW138459   1.084   1.671   4.738  0.7311  0.6293  2.1250
 8942SOL    HW238460   1.204   1.585   4.776  0.5482  0.5487 -1.6463
 8943SOL     OW38461   1.614   2.177   7.725  0.0891 -0.2734 -0.3483
 8943SOL    HW138462   1.601   2.083   7.709  2.1251 -1.0281  2.3436
 8943SOL    HW238463   1.694   2.200   7.677  1.7534 -0.0545  2.5115
 8944SOL     OW38464   1.712   0.855   0.567  0.3105  0.2483  0.5971
 8944SOL    HW138465   1.795   0.816   0.595  0.7778  0.7092 -0.1778
 8944SOL    HW238466   1.704   0.790   0.498 -0.5112 -0.6339  1.5131
 8945SOL     OW38467   2.983   1.458  11.019  0.4514 -0.5852 -0.3210
 8945SOL    HW138468   2.960   1.444  10.927  0.9605  1.8487 -0.8258
 8945SOL    HW238469   3.045   1.529  11.003  0.7514  0.1237  4.0562
 8946SOL     OW38470   3.494   0.727   9.233  0.3907  0.3776  0.1578
 8946SOL    HW138471   3.491   0.797   9.298 -0.7218  0.8585 -0.4119
 8946SOL    HW238472   3.491   0.655   9.297 -0.6085  0.1912 -0.1130
 8947SOL     OW38473   4.673   1.320  12.676  0.2772  0.6637  0.0465
 8947SOL    HW138474   0.011   1.268  12.648  0.0618  0.1647  0.3819
 8947SOL    HW238475   4.601   1.256  12.671  0.7330 -0.0237  2.0250
 8948SOL     OW38476   2.575   2.169   5.829  0.7054  0.0474  0.1936
 8948SOL    HW138477   2.559   2.148   5.737  0.4382  0.5360  0.1329
 8948SOL    HW238478   2.669   2.151   5.834  0.7184 -0.4465 -1.7217
 8949SOL     OW38479   4.486   1.289   9.142 -0.1156 -0.0188 -0.1674
 8949SOL    HW138480   4.480   1.326   9.054  0.4912 -1.1679 -0.6963
 8949SOL    HW238481   4.557   1.339   9.181  1.2697 -1.1666 -1.1812
 8950SOL     OW38482   3.238   3.630   5.699  0.5062 -0.1586  0.1966
 8950SOL    HW138483   3.295   3.707   5.698 -0.8007  0.8298  0.6719
 8950SOL    HW238484   3.195   3.635   5.614  2.3240 -1.4620 -0.7818
 8951SOL     OW38485   3.056   1.691   9.546 -0.0837  0.3233 -0.0530
 8951SOL    HW138486   2.989   1.627   9.569  0.1153 -0.1899 -0.8964
 8951SOL    HW238487   3.064   1.694   9.450 -1.7774 -2.3626 -0.2747
 8952SOL     OW38488   0.653   3.588  16.000 -0.6238  0.1342  0.1980
 8952SOL    HW138489   0.688   3.510  16.043  0.4786  1.1927  1.2005
 8952SOL    HW238490   0.644   3.566  15.907  1.4648 -1.3619  0.3423
 8953SOL     OW38491   0.134   1.173   8.914  0.4791 -0.8013  0.1563
 8953SOL    HW138492   0.055   1.220   8.889 -0.2347 -0.9249  2.2443
 8953SOL    HW238493   0.109   1.081   8.907 -0.8435 -0.4154 -0.1989
 8954SOL     OW38494   2.006   4.617  10.187  0.3584 -0.1342 -0.2782
 8954SOL    HW138495   2.049   4.585  10.266 -0.9681 -2.3200 -0.4619
 8954SOL    HW238496   1.971   4.698  10.225  2.5882  0.3951  0.6209
 8955SOL     OW38497   1.218   1.864   3.072 -0.1792  0.6360  0.2384
 8955SOL    HW138498   1.313   1.854   3.079 -0.4413 -0.7929  1.4926
 8955SOL    HW238499   1.183   1.851   3.160 -0.9372  1.4514  0.0581
 8956SOL     OW38500   4.270   4.172  11.545  0.0496 -0.3667 -0.1716
 8956SOL    HW138501   4.257   4.204  11.635  1.7930 -0.7748  0.2135
 8956SOL    HW238502   4.304   4.085  11.564 -0.0723 -0.7536 -1.7887
 8957SOL     OW38503   0.978   4.055  10.568 -0.0597  0.0135  0.2233
 8957SOL    HW138504   0.893   4.016  10.587 -1.1366  0.1761 -4.1602
 8957SOL    HW238505   0.947   4.138  10.530 -0.8015  0.3637  1.6112
 8958SOL     OW38506   2.622   1.187  14.110  0.1183 -0.1170  0.7216
 8958SOL    HW138507   2.538   1.153  14.143 -0.2467  0.6404  0.5648
 8958SOL    HW238508   2.679   1.118  14.146 -2.8052 -2.2927  1.2663
 8959SOL     OW38509   0.557   1.332   9.054 -0.1939  0.1028  0.4993
 8959SOL    HW138510   0.558   1.427   9.069  1.7159  0.3761 -1.3649
 8959SOL    HW238511   0.469   1.329   9.017  1.6468  5.5131 -4.3875
 8960SOL     OW38512   3.896   1.856   6.266 -0.0187 -0.0777  0.5397
 8960SOL    HW138513   3.968   1.895   6.316  0.9591 -1.1702 -0.0017
 8960SOL    HW238514   3.854   1.929   6.222  2.1338 -0.7684 -2.6553
 8961SOL     OW38515   4.681   4.411   4.809  0.5914 -0.0707  0.1718
 8961SOL    HW138516   4.714   4.332   4.767 -1.6825 -0.5754 -0.6386
 8961SOL    HW238517   4.625   4.375   4.878 -1.7510 -0.9573 -2.1999
 8962SOL     OW38518   3.487   1.994  14.207 -1.0538  0.3892  0.0396
 8962SOL    HW138519   3.499   1.971  14.115 -0.8875 -1.0278  0.4176
 8962SOL    HW238520   3.407   1.944  14.222 -0.7042 -0.0524  0.4760
 8963SOL     OW38521   4.716   1.389   6.689 -0.2784  0.1716  0.2220
 8963SOL    HW138522   4.730   1.481   6.668 -1.8288  0.4858  0.5855
 8963SOL    HW238523   0.031   1.343   6.623 -1.5693  0.1314 -0.7591
 8964SOL     OW38524   1.957   2.759   2.244 -0.1897  0.7888 -0.5389
 8964SOL    HW138525   1.963   2.693   2.175 -0.9422  0.7696 -0.5886
 8964SOL    HW238526   2.000   2.838   2.210  3.1229 -1.4691 -1.6319
 8965SOL     OW38527   0.049   2.722   3.378  0.4965  0.6949 -0.4139
 8965SOL    HW138528   0.114   2.792   3.368  1.9679 -0.2825  2.3990
 8965SOL    HW238529   0.097   2.650   3.418 -0.5527 -0.9221 -2.0901
 8966SOL     OW38530   0.654   4.595  14.972  0.3536  0.6882  0.1992
 8966SOL    HW138531   0.658   4.670  15.031 -0.0098  2.7743 -2.4353
 8966SOL    HW238532   0.613   4.527  15.027  0.7038  0.0146 -0.3742
 8967SOL     OW38533   1.182   4.010   9.629  0.1482 -0.0298  0.4093
 8967SOL    HW138534   1.263   4.000   9.579  1.1909  0.4945  1.9695
 8967SOL    HW238535   1.200   3.999   9.723 -3.4784 -2.9938  0.7797
 8968SOL     OW38536   2.169   2.023  17.620  0.1807  0.0746  0.4811
 8968SOL    HW138537   2.224   1.972  17.680 -1.9516 -3.4308 -0.5684
 8968SOL    HW238538   2.193   2.111  17.649 -0.8692  0.5662 -0.1278
 8969SOL     OW38539   3.801   0.605   5.225 -0.2729  0.1492  0.2873
 8969SOL    HW138540   3.768   0.694   5.210  0.4551  0.4280  0.3467
 8969SOL    HW238541   3.797   0.599   5.320 -0.9507  1.2697  0.3390
 8970SOL     OW38542   1.364   1.604   4.853 -0.6329  0.1229  0.0527
 8970SOL    HW138543   1.395   1.683   4.808  0.5739  0.1743  0.9642
 8970SOL    HW238544   1.443   1.555   4.877 -1.9143 -0.4293  3.0510
 8971SOL     OW38545   3.155   4.278   5.071  0.3861 -0.2575 -1.0866
 8971SOL    HW138546   3.173   4.348   5.134 -2.0177 -0.8478  0.2263
 8971SOL    HW238547   3.077   4.237   5.107  0.9709 -1.2314 -0.9286
 8972SOL     OW38548   4.709   3.310   5.086 -0.3830 -0.3770  0.5277
 8972SOL    HW138549   4.704   3.375   5.156  0.9352  1.1562 -0.7715
 8972SOL    HW238550   4.616   3.304   5.067 -0.3999  2.1343 -0.2435
 8973SOL     OW38551   0.307   0.593   7.343  0.7374 -0.5238 -0.2674
 8973SOL    HW138552   0.325   0.641   7.262 -0.5695  1.0102  0.3579
 8973SOL    HW238553   0.396   0.599   7.378  0.1422 -1.1947  1.3520
 8974SOL     OW38554   2.447   0.857  12.736 -0.1817  0.3758  0.0038
 8974SOL    HW138555   2.429   0.767  12.710  1.0395 -0.2914  1.4816
 8974SOL    HW238556   2.502   0.840  12.813 -1.3727  1.6578  1.1229
 8975SOL     OW38557   2.774   4.284   2.143 -0.3026  0.3551 -0.2827
 8975SOL    HW138558   2.761   4.282   2.048  3.2025 -0.9972 -0.7612
 8975SOL    HW238559   2.813   4.198   2.161 -1.7373 -0.4468 -1.0445
 8976SOL     OW38560   0.147   0.852   8.487 -0.3617 -0.3422  0.3275
 8976SOL    HW138561   0.232   0.862   8.529 -1.5416  2.4434  2.0659
 8976SOL    HW238562   0.165   0.821   8.398 -0.6299  0.3094  0.0461
 8977SOL     OW38563   1.712   1.987   5.902 -0.2746  0.3958 -0.3468
 8977SOL    HW138564   1.737   1.993   5.995 -0.9256  2.0273 -0.2810
 8977SOL    HW238565   1.726   2.079   5.879 -0.7973  0.3333 -0.8985
 8978SOL     OW38566   1.377   0.304   5.414  0.0788  0.2925  0.4104
 8978SOL    HW138567   1.421   0.260   5.342  2.8306  0.8116  1.7920
 8978SOL    HW238568   1.364   0.245   5.488 -0.7204 -0.7703 -0.5731
 8979SOL     OW38569   3.776   1.007   9.656  0.1465  0.0214 -0.6819
 8979SOL    HW138570   3.776   0.968   9.743  1.6380 -2.0410 -1.6134
 8979SOL    HW238571   3.787   0.929   9.601 -0.0035  1.6775 -3.0297
 8980SOL     OW38572   3.247   3.743   4.343  0.5278  0.2677 -0.6522
 8980SOL    HW138573   3.303   3.812   4.307  0.3925  0.8013  0.1623
 8980SOL    HW238574   3.218   3.802   4.413 -0.7648 -5.0680  3.3067
 8981SOL     OW38575   1.519   4.106   7.644  0.2037 -0.4857  0.3461
 8981SOL    HW138576   1.583   4.146   7.702  0.2534 -1.5437  1.0420
 8981SOL    HW238577   1.547   4.142   7.560  0.6772  0.1015  0.7566
 8982SOL     OW38578   2.148   2.024   7.764 -0.1250 -0.1236  0.2632
 8982SOL    HW138579   2.087   2.061   7.700  1.1699  0.4430 -0.6675
 8982SOL    HW238580   2.215   1.984   7.708 -0.0429  0.8455 -0.3350
 8983SOL     OW38581   0.377   2.860  17.346  0.0741 -0.1398  0.4260
 8983SOL    HW138582   0.415   2.795  17.288 -2.1869 -1.8868  0.8924
 8983SOL    HW238583   0.389   2.826  17.434  1.2522  1.1889  0.7818
 8984SOL     OW38584   2.681   0.140   6.075 -0.1820  0.7695  0.8171
 8984SOL    HW138585   2.602   0.171   6.032 -0.4793  0.3401  1.0524
 8984SOL    HW238586   2.726   0.216   6.111 -0.9960  1.1689  0.9819
 8985SOL     OW38587   1.042   2.266   4.088  0.0955 -0.0342 -0.3694
 8985SOL    HW138588   1.088   2.284   4.170 -0.5773  0.2955 -0.0630
 8985SOL    HW238589   1.046   2.353   4.048  1.8722  0.4901  0.9304
 8986SOL     OW38590   0.689   0.069  16.247  0.0531  0.4025 -0.1598
 8986SOL    HW138591   0.754   0.003  16.224 -0.5923  0.3602 -1.9275
 8986SOL    HW238592   0.713   0.132  16.178  0.7502 -0.1763 -0.4356
 8987SOL     OW38593   3.014   3.322  13.968  0.1933 -0.7010  0.0544
 8987SOL    HW138594   2.945   3.336  13.903  1.1087 -2.3392 -1.2837
 8987SOL    HW238595   3.064   3.246  13.937  1.3637 -0.1838  0.6824
 8988SOL     OW38596   0.491   1.156  17.006  0.0653 -0.2281  0.0312
 8988SOL    HW138597   0.491   1.078  16.951  0.5569  0.1206 -0.4595
 8988SOL    HW238598   0.585   1.166  17.019 -0.0469  0.7334  0.0801
 8989SOL     OW38599   1.145   2.021   4.057 -0.6051  0.1766 -0.7118
 8989SOL    HW138600   1.066   1.974   4.084 -0.1877  1.6461  3.0363
 8989SOL    HW238601   1.123   2.114   4.065  0.6934  0.2240  2.1258
 8990SOL     OW38602   1.371   2.973   3.408 -0.3281  0.2931  0.2183
 8990SOL    HW138603   1.344   3.064   3.395  0.8004  0.8430  1.8377
 8990SOL    HW238604   1.464   2.989   3.421 -0.6553  1.6614  0.8534
 8991SOL     OW38605   0.346   0.974   5.244  0.0400 -0.4700  0.2363
 8991SOL    HW138606   0.331   0.913   5.317  1.4412  0.7556  1.5596
 8991SOL    HW238607   0.416   1.026   5.284 -0.3751  1.6760 -1.8868
 8992SOL     OW38608   3.138   4.399   9.312  0.7538  0.6255  0.1491
 8992SOL    HW138609   3.160   4.484   9.274 -0.2262  0.5659 -0.5419
 8992SOL    HW238610   3.228   4.367   9.318 -0.5165 -2.3291  3.4051
 8993SOL     OW38611   0.076   0.086   3.682  1.0836 -0.7411 -0.0177
 8993SOL    HW138612   0.070   0.147   3.756  0.2498 -1.5679  0.5918
 8993SOL    HW238613   0.169   0.087   3.660  0.3375  0.3609 -3.0003
 8994SOL     OW38614   4.270   2.599   2.582 -0.2441  0.2880 -0.6465
 8994SOL    HW138615   4.340   2.615   2.519  0.1101  1.2991  0.0038
 8994SOL    HW238616   4.323   2.549   2.644 -0.0113  0.2199 -0.8984
 8995SOL     OW38617   4.683   2.001   0.036 -0.2245  0.0929  0.6573
 8995SOL    HW138618   0.007   2.061  17.744 -0.2612 -0.0884  0.3343
 8995SOL    HW238619   4.718   1.987   0.124  0.1182 -1.4461  0.2757
 8996SOL     OW38620   3.716   0.986   9.326 -0.1344  0.1733 -0.2677
 8996SOL    HW138621   3.626   0.954   9.335 -0.0193  0.3148  1.4415
 8996SOL    HW238622   3.764   0.949   9.400  0.2921  1.1659 -0.0346
 8997SOL     OW38623   1.247   0.604   6.472  0.3862 -0.0570  0.0816
 8997SOL    HW138624   1.314   0.672   6.474 -2.0773  2.3998 -0.9209
 8997SOL    HW238625   1.249   0.568   6.561 -1.3834 -0.5117 -0.0611
 8998SOL     OW38626   2.818   3.848   2.860 -0.9091  0.6401  0.3683
 8998SOL    HW138627   2.781   3.804   2.784 -0.8961  0.5109  0.4363
 8998SOL    HW238628   2.744   3.822   2.915 -0.2995  0.0100  0.8806
 8999SOL     OW38629   0.562   4.550   9.693  0.0492  0.3340 -0.6164
 8999SOL    HW138630   0.510   4.470   9.703  1.1161 -0.4850 -1.5493
 8999SOL    HW238631   0.631   4.536   9.757  0.3467  0.3587 -0.9279
 9000SOL     OW38632   1.667   0.835   1.647 -0.5156  0.1796 -0.1088
 9000SOL    HW138633   1.739   0.891   1.676 -0.2301 -0.1889 -0.1200
 9000SOL    HW238634   1.593   0.852   1.705 -1.1269  0.1580 -0.8847
 9001SOL     OW38635   0.940   1.632   3.980 -0.3414  0.2912 -0.2479
 9001SOL    HW138636   0.849   1.635   3.952 -1.2225  2.1690  2.8819
 9001SOL    HW238637   0.970   1.571   3.912  0.1292  0.4790 -0.2081
 9002SOL     OW38638   1.328   4.302   7.009  0.2448  0.5365  0.1760
 9002SOL    HW138639   1.338   4.228   6.949 -1.2556  0.2474  0.2775
 9002SOL    HW238640   1.359   4.379   6.962  1.2528  0.0438  0.0285
 9003SOL     OW38641   2.421   3.483  11.315 -0.1921  0.1890 -0.9339
 9003SOL    HW138642   2.356   3.496  11.383  1.7185  3.3110  0.2839
 9003SOL    HW238643   2.464   3.400  11.336  2.4304  2.1199  1.4064
 9004SOL     OW38644   3.649   1.014   6.658 -0.3700 -0.2787 -0.3947
 9004SOL    HW138645   3.656   1.104   6.689 -1.8737 -0.4762  0.5033
 9004SOL    HW238646   3.731   0.973   6.684 -0.1184  0.5665  0.1289
 9005SOL     OW38647   1.436   3.158   6.721 -0.2415 -0.1544 -0.2512
 9005SOL    HW138648   1.504   3.219   6.691  0.1114 -1.4069 -2.0205
 9005SOL    HW238649   1.388   3.156   6.638  0.9100 -1.0961 -0.8960
 9006SOL     OW38650   3.508   2.115   2.148  0.6228  0.1514 -0.3771
 9006SOL    HW138651   3.525   2.062   2.070 -1.4918 -0.0638 -0.6835
 9006SOL    HW238652   3.575   2.086   2.210 -0.6602  2.5964  2.1473
 9007SOL     OW38653   3.960   2.221   5.933 -0.4422 -0.0328  0.1398
 9007SOL    HW138654   3.987   2.294   5.989  1.5681 -0.2877 -0.5193
 9007SOL    HW238655   3.956   2.258   5.845  2.0518  5.5331  2.3916
 9008SOL     OW38656   4.162   1.230   4.470  0.1348  0.1330  0.2999
 9008SOL    HW138657   4.168   1.137   4.448  0.5357 -0.2494  2.0993
 9008SOL    HW238658   4.100   1.270   4.409  0.0318 -2.8413 -1.5610
 9009SOL     OW38659   1.091   1.475   6.675  0.3880  0.1686 -0.0846
 9009SOL    HW138660   1.147   1.461   6.599  0.3238 -0.3703 -0.0379
 9009SOL    HW238661   1.152   1.464   6.748  0.5638  0.5156 -0.1822
 9010SOL     OW38662   4.483   2.421  12.345 -0.6342  0.0124  0.3810
 9010SOL    HW138663   4.570   2.460  12.353  0.1259 -1.2486 -1.4738
 9010SOL    HW238664   4.503   2.349  12.285  0.0621  0.3962  0.1470
 9011SOL     OW38665   4.508   2.742  13.036 -0.8794  0.4798  0.5285
 9011SOL    HW138666   4.424   2.745  13.082 -0.8419 -1.0735  0.7139
 9011SOL    HW238667   4.535   2.834  13.032 -0.9018  0.5405  1.6902
 9012SOL     OW38668   2.684   3.175   7.148 -0.2501 -0.3052  0.2195
 9012SOL    HW138669   2.738   3.104   7.113  0.3613  0.5058 -0.5040
 9012SOL    HW238670   2.649   3.133   7.226  0.2011 -2.1379 -0.5725
 9013SOL     OW38671   4.104   4.409   5.293  0.0465 -0.2886 -0.0686
 9013SOL    HW138672   4.124   4.502   5.303 -0.5338 -0.4795  2.7658
 9013SOL    HW238673   4.022   4.411   5.242  1.0756  3.9357 -1.5772
 9014SOL     OW38674   3.554   1.456   4.995  0.1954 -0.0254  0.8326
 9014SOL    HW138675   3.529   1.452   4.902 -3.9543 -0.0031  1.9467
 9014SOL    HW238676   3.640   1.416   4.982 -0.6416 -1.9086  0.9901
 9015SOL     OW38677   3.324   1.600   3.012 -0.3687 -0.2461  0.0449
 9015SOL    HW138678   3.357   1.685   3.039  0.2788  0.2069 -2.2047
 9015SOL    HW238679   3.321   1.612   2.918 -0.3103  0.7583  0.1779
 9016SOL     OW38680   1.775   1.399   7.536 -0.1863 -0.2115 -0.0493
 9016SOL    HW138681   1.716   1.378   7.608  0.9400 -0.1326  0.8863
 9016SOL    HW238682   1.852   1.343   7.544  0.7071  0.5992 -2.7543
 9017SOL     OW38683   0.973   3.692  14.955 -0.7281  0.1579 -0.4028
 9017SOL    HW138684   0.899   3.682  15.014 -1.5986 -2.2364 -1.8702
 9017SOL    HW238685   0.972   3.600  14.927 -1.8995 -0.3077  1.2110
 9018SOL     OW38686   1.312   0.560   4.114  0.3719  0.3393  0.0444
 9018SOL    HW138687   1.254   0.539   4.187 -1.2956  2.5219 -0.6655
 9018SOL    HW238688   1.391   0.509   4.131 -0.0282  0.3136  1.8470
 9019SOL     OW38689   2.205   0.067   6.589 -0.0669  0.0421  0.2618
 9019SOL    HW138690   2.194   0.125   6.665  0.4837  0.4331  0.0456
 9019SOL    HW238691   2.203   0.138   6.525  1.1189 -0.5872 -0.4699
 9020SOL     OW38692   4.320   3.738   8.886  0.4624  0.3412  0.0175
 9020SOL    HW138693   4.351   3.824   8.858 -0.8316  1.1133  0.8861
 9020SOL    HW238694   4.351   3.682   8.816  0.6740  1.6222 -0.9081
 9021SOL     OW38695   4.004   2.861  15.303  0.0741  0.1838  0.0361
 9021SOL    HW138696   4.059   2.908  15.241 -0.6173  0.3467 -0.4546
 9021SOL    HW238697   3.943   2.828  15.238  1.2292  0.9247 -1.4136
 9022SOL     OW38698   4.303   3.775   2.348  0.2808 -0.7988 -1.0805
 9022SOL    HW138699   4.244   3.707   2.317  0.1717 -1.5181  0.7403
 9022SOL    HW238700   4.245   3.823   2.407  1.1248 -2.1193  0.8038
 9023SOL     OW38701   1.906   2.059   3.635  0.2418 -0.5483 -0.1415
 9023SOL    HW138702   1.999   2.066   3.614  0.7082 -4.2254  0.6531
 9023SOL    HW238703   1.891   1.965   3.634  1.2344 -0.7562  2.9514
 9024SOL     OW38704   1.587   1.286   8.882 -0.1430  0.5019  0.2328
 9024SOL    HW138705   1.597   1.380   8.869 -1.7577  0.8085  1.2756
 9024SOL    HW238706   1.558   1.280   8.973 -0.9038  0.1411 -0.0298
 9025SOL     OW38707   2.940   0.151   8.565  0.2846  0.7243  0.1712
 9025SOL    HW138708   3.018   0.170   8.513 -1.1055  0.7566 -1.9043
 9025SOL    HW238709   2.903   0.237   8.586 -2.7135 -0.1873 -1.3530
 9026SOL     OW38710   1.268   0.957   7.111  0.0480 -0.6983  0.0011
 9026SOL    HW138711   1.345   1.012   7.096  0.2945 -0.5237  1.8676
 9026SOL    HW238712   1.298   0.912   7.190 -1.7193 -0.6331  0.7082
 9027SOL     OW38713   1.025   4.675   9.938 -0.0310  0.0557  0.4183
 9027SOL    HW138714   0.972   4.683  10.017 -2.6802  1.5111 -1.5008
 9027SOL    HW238715   1.093   0.001   9.957 -1.4346  1.6109  0.2636
 9028SOL     OW38716   3.536   3.711   7.991 -0.3021  0.0618 -0.0628
 9028SOL    HW138717   3.535   3.708   7.896 -1.4206  1.2281 -0.0832
 9028SOL    HW238718   3.626   3.691   8.015 -1.3264 -1.9624  2.0871
 9029SOL     OW38719   0.680   4.097  16.125 -0.2459 -0.0009 -0.0967
 9029SOL    HW138720   0.598   4.047  16.133  0.1827 -0.8230 -0.7940
 9029SOL    HW238721   0.736   4.024  16.097 -2.3368 -1.2425 -1.0460
 9030SOL     OW38722   0.071   0.409   7.320 -0.1834  0.3921 -0.1174
 9030SOL    HW138723   0.142   0.472   7.302  1.0664 -0.5439  1.4627
 9030SOL    HW238724   0.117   0.328   7.297  0.0082  0.3875  0.2825
 9031SOL     OW38725   0.694   2.817   0.039  0.3782 -0.5581  0.3884
 9031SOL    HW138726   0.775   2.828  17.739 -0.7765  1.4432 -1.1114
 9031SOL    HW238727   0.694   2.725   0.066 -1.4955 -0.8841 -0.6936
 9032SOL     OW38728   2.914   1.913  13.566 -0.0162 -0.0088  0.1730
 9032SOL    HW138729   2.851   1.923  13.495 -1.5404 -2.7728  1.1513
 9032SOL    HW238730   2.862   1.918  13.646  1.3389  1.1899  0.9922
 9033SOL     OW38731   1.518   2.967  12.554  0.5755 -0.2152 -0.5832
 9033SOL    HW138732   1.578   2.924  12.493 -1.3180 -1.9024 -1.2437
 9033SOL    HW238733   1.502   3.051  12.510 -3.0039 -0.6110 -0.0420
 9034SOL     OW38734   3.364   1.609   0.909 -0.3990 -0.4190 -0.7250
 9034SOL    HW138735   3.341   1.571   0.994  1.2716 -1.9470 -0.9565
 9034SOL    HW238736   3.441   1.660   0.932  0.9283 -2.7391  0.0254
 9035SOL     OW38737   0.994   2.532   6.892 -0.0327  0.1141 -0.0062
 9035SOL    HW138738   0.960   2.461   6.838 -1.8500  1.2583 -0.3640
 9035SOL    HW238739   1.087   2.511   6.887 -0.7190 -2.8397  0.1651
 9036SOL     OW38740   2.358   0.736   8.724 -0.2501  0.4476 -0.4288
 9036SOL    HW138741   2.406   0.731   8.807 -1.5182 -0.4368  0.2551
 9036SOL    HW238742   2.319   0.824   8.724 -1.1986  0.0345 -0.4086
 9037SOL     OW38743   4.225   2.014   5.948 -0.3689 -0.3876  0.4526
 9037SOL    HW138744   4.186   2.051   6.027 -1.8837 -1.6095  0.2623
 9037SOL    HW238745   4.302   1.975   5.989  0.6754  0.5056 -0.6529
 9038SOL     OW38746   0.629   3.147   8.676 -0.4728 -0.0875 -0.2916
 9038SOL    HW138747   0.568   3.074   8.664  0.9591 -1.2317 -0.7526
 9038SOL    HW238748   0.626   3.194   8.593  1.6775 -0.0837 -0.3872
 9039SOL     OW38749   3.566   3.733  14.729  0.2222  0.2830 -0.5625
 9039SOL    HW138750   3.644   3.742  14.674  2.3477  1.1575  2.6052
 9039SOL    HW238751   3.498   3.730  14.662  0.2079 -2.1821 -0.4659
 9040SOL     OW38752   1.306   3.076   7.886  0.3887  0.2718 -0.0986
 9040SOL    HW138753   1.281   3.138   7.818 -0.9575 -1.5273 -1.2440
 9040SOL    HW238754   1.225   3.028   7.899 -0.6333  1.5781 -1.7280
 9041SOL     OW38755   1.083   2.383   3.100  0.5143 -0.5295  0.3765
 9041SOL    HW138756   1.140   2.345   3.034  1.5388 -2.9344  2.6402
 9041SOL    HW238757   1.117   2.336   3.176 -3.1570  0.0847  2.4377
 9042SOL     OW38758   2.247   2.408  13.575 -0.0785  0.0676  0.0287
 9042SOL    HW138759   2.173   2.461  13.602 -0.3725  0.1189 -0.8704
 9042SOL    HW238760   2.229   2.374  13.487  0.5595  1.8415 -0.7887
 9043SOL     OW38761   4.365   0.060  14.277 -0.0728  0.7605 -0.0984
 9043SOL    HW138762   4.416   4.724  14.243 -1.1138  0.2777 -0.6098
 9043SOL    HW238763   4.414   0.092  14.352  1.0058 -0.4471 -0.2836
 9044SOL     OW38764   1.223   1.340   8.211 -0.6366  0.0800  0.1982
 9044SOL    HW138765   1.291   1.353   8.144 -1.9793  0.8279 -1.0270
 9044SOL    HW238766   1.280   1.347   8.288 -3.1439 -0.9411  2.1165
 9045SOL     OW38767   2.695   0.661   6.596 -0.1869 -0.4305 -0.7007
 9045SOL    HW138768   2.671   0.586   6.650 -2.3342 -0.3553 -1.5476
 9045SOL    HW238769   2.770   0.689   6.648  0.0540 -0.8486 -0.8162
 9046SOL     OW38770   1.897   0.594   1.735 -0.0909 -0.6896  0.0438
 9046SOL    HW138771   1.913   0.625   1.646  0.5137 -1.0084  0.0426
 9046SOL    HW238772   1.853   0.667   1.777  1.7949  0.1606  0.5565
 9047SOL     OW38773   3.573   1.076   2.824  0.1136 -0.6802 -0.3566
 9047SOL    HW138774   3.546   1.063   2.734  1.0698 -1.3389 -0.5474
 9047SOL    HW238775   3.617   0.993   2.844  1.3710 -0.0390 -0.4609
 9048SOL     OW38776   4.470   1.195   4.994 -0.6036  0.3174 -0.0518
 9048SOL    HW138777   4.437   1.185   4.905 -1.0184 -1.9458  0.3501
 9048SOL    HW238778   4.426   1.276   5.019  0.0857  0.0121  2.1334
 9049SOL     OW38779   2.779   2.255   7.585  0.4140 -0.1935 -0.0687
 9049SOL    HW138780   2.732   2.172   7.593  1.7026 -1.1232 -2.1268
 9049SOL    HW238781   2.868   2.219   7.580  1.2445  1.7675  0.4664
 9050SOL     OW38782   2.182   3.791   5.351  0.0068 -0.0717  0.5523
 9050SOL    HW138783   2.175   3.742   5.433  2.2627  0.1164  0.8679
 9050SOL    HW238784   2.092   3.795   5.320 -0.0764 -0.5947  0.7138
 9051SOL     OW38785   0.221   2.153  14.342 -0.0238  0.3394 -0.1708
 9051SOL    HW138786   0.282   2.197  14.401 -0.1468  0.7956 -0.3896
 9051SOL    HW238787   0.280   2.113  14.279 -0.7619  1.2720 -1.4459
 9052SOL     OW38788   2.959   1.641   6.029 -0.0371 -0.2252 -0.0659
 9052SOL    HW138789   2.979   1.561   6.078 -0.7492 -0.2898  0.1164
 9052SOL    HW238790   3.032   1.658   5.969 -1.5406 -0.2521 -1.8970
 9053SOL     OW38791   0.308   2.953  11.758  0.1277  0.4270 -0.2663
 9053SOL    HW138792   0.370   3.006  11.709  0.5713 -1.2995 -1.5671
 9053SOL    HW238793   0.273   2.907  11.682 -1.8766 -0.9004  1.4631
 9054SOL     OW38794   0.160   3.468   6.045  0.0756 -0.2197  0.3712
 9054SOL    HW138795   0.246   3.484   6.083  0.1706  0.3716 -0.0939
 9054SOL    HW238796   0.155   3.378   6.078  1.7583 -1.9637 -4.0812
 9055SOL     OW38797   2.863   3.236  12.304  0.9206  0.1526  0.2231
 9055SOL    HW138798   2.824   3.321  12.283  1.1107  0.1328 -0.2034
 9055SOL    HW238799   2.834   3.219  12.394 -0.4149  1.5735  0.0575
 9056SOL     OW38800   1.602   0.574   1.522 -0.2203  0.0513 -0.2400
 9056SOL    HW138801   1.687   0.530   1.511  0.0845  0.9079 -1.3035
 9056SOL    HW238802   1.628   0.642   1.584  1.6550  0.1716 -1.1379
 9057SOL     OW38803   1.945   1.559   2.793 -0.3647  0.5319 -0.2365
 9057SOL    HW138804   1.923   1.474   2.755 -1.8740  0.9023 -0.1709
 9057SOL    HW238805   1.875   1.566   2.858  0.6283  0.7670  0.8090
 9058SOL     OW38806   0.070   0.778   5.168  0.3801 -0.4268 -0.1810
 9058SOL    HW138807   0.086   0.758   5.076  0.1562  1.5263 -0.6473
 9058SOL    HW238808   4.713   0.788   5.179  0.4467 -0.3966  0.3392
 9059SOL     OW38809   2.929   2.083   6.152  0.2639  0.1083 -0.6628
 9059SOL    HW138810   2.937   1.988   6.160 -1.4381  0.1785  1.9550
 9059SOL    HW238811   2.991   2.100   6.082  1.4793  0.6480  0.5482
 9060SOL     OW38812   4.664   2.425   3.735  0.2990  0.0866 -0.4277
 9060SOL    HW138813   4.579   2.382   3.742  1.0774 -1.3438  0.4280
 9060SOL    HW238814   4.691   2.398   3.823 -3.9081  0.0516  0.8366
 9061SOL     OW38815   3.905   4.234   7.687  0.1673 -0.0235  0.3153
 9061SOL    HW138816   3.938   4.180   7.759 -0.9216 -1.2550 -0.1046
 9061SOL    HW238817   3.857   4.167   7.638  0.3262 -0.5887  0.9325
 9062SOL     OW38818   3.837   3.023   3.669 -0.4622 -0.9034  0.0227
 9062SOL    HW138819   3.854   3.056   3.582  0.0635 -2.6063 -0.5268
 9062SOL    HW238820   3.927   3.032   3.700 -0.8662  0.5240  0.7973
 9063SOL     OW38821   4.059   1.057   2.846  0.9634  0.0509 -0.4438
 9063SOL    HW138822   4.022   0.971   2.866 -0.4548  0.4504 -1.3152
 9063SOL    HW238823   4.064   1.103   2.930 -0.8437 -0.9373  0.1965
 9064SOL     OW38824   0.110   1.721   1.663 -0.1140  0.1404  0.2743
 9064SOL    HW138825   0.188   1.672   1.689  0.0598  0.6211  0.6554
 9064SOL    HW238826   0.043   1.653   1.667  2.2345 -2.1815  0.3166
 9065SOL     OW38827   4.622   2.393  15.906  0.2701  0.2525  0.0984
 9065SOL    HW138828   4.690   2.452  15.875  0.4273  0.6427  1.1748
 9065SOL    HW238829   4.645   2.307  15.870 -2.2161 -0.7326  0.8369
 9066SOL     OW38830   3.846   1.097   0.330 -0.0292 -0.1204  0.2491
 9066SOL    HW138831   3.779   1.134   0.388 -0.4754  0.4678 -0.6351
 9066SOL    HW238832   3.819   1.124   0.242  0.5318 -0.2718  0.0359
 9067SOL     OW38833   2.163   2.450   4.365  0.1035  0.1286  0.2142
 9067SOL    HW138834   2.131   2.387   4.429 -2.5162  1.5589  0.3563
 9067SOL    HW238835   2.256   2.435   4.352 -0.0788  0.2033 -1.2771
 9068SOL     OW38836   4.464   3.136   2.302  0.4103  0.4834 -0.4035
 9068SOL    HW138837   4.472   3.142   2.398  0.1085 -1.7221 -0.2369
 9068SOL    HW238838   4.412   3.056   2.291 -1.6180  1.3174  2.9030
 9069SOL     OW38839   4.620   1.306   3.089 -0.2032  0.1156  0.2951
 9069SOL    HW138840   4.531   1.340   3.077 -0.8571 -2.1471 -1.2564
 9069SOL    HW238841   4.609   1.236   3.153 -1.4860 -0.1235 -0.1841
 9070SOL     OW38842   2.858   0.009   8.199  0.0192 -0.3796  0.0906
 9070SOL    HW138843   2.815   0.094   8.195 -0.7724 -0.6611  2.9330
 9070SOL    HW238844   2.788   4.697   8.242 -1.3272 -0.5527 -2.3050
 9071SOL     OW38845   4.666   0.408   7.066  0.2432 -0.0572  0.1659
 9071SOL    HW138846   4.725   0.405   7.142  0.9263  0.3132 -0.3451
 9071SOL    HW238847   4.638   0.317   7.054  0.5145 -0.0359 -0.6212
 9072SOL     OW38848   0.961   4.662   4.690  0.4795  0.4132 -0.4790
 9072SOL    HW138849   0.951   4.570   4.712 -0.4609  1.0986  1.9879
 9072SOL    HW238850   1.033   4.658   4.628  1.4019 -1.4872  0.7208
 9073SOL     OW38851   1.861   2.552   6.919 -0.3312 -0.0807  0.5867
 9073SOL    HW138852   1.800   2.492   6.876 -0.4140  0.5765 -0.2222
 9073SOL    HW238853   1.802   2.608   6.970 -1.5690 -0.3230 -0.5601
 9074SOL     OW38854   4.457   0.966  13.393 -0.0216 -0.1413 -0.7041
 9074SOL    HW138855   4.448   0.870  13.391 -0.2567 -0.1204 -0.6360
 9074SOL    HW238856   4.553   0.966  13.400 -0.1438 -0.6925  1.0000
 9075SOL     OW38857   1.983   3.740  12.851 -0.2311 -0.6840 -0.0890
 9075SOL    HW138858   2.057   3.742  12.912 -0.1513  2.5677 -0.3063
 9075SOL    HW238859   1.940   3.658  12.877 -0.2342 -0.3157  1.0608
 9076SOL     OW38860   1.607   2.459   1.273 -0.5926  0.2533  0.4217
 9076SOL    HW138861   1.586   2.379   1.322 -0.2148  0.9828  1.7787
 9076SOL    HW238862   1.700   2.453   1.252 -0.6338  0.2948  0.2259
 9077SOL     OW38863   1.689   2.195   3.733 -0.0878 -0.7612  0.4174
 9077SOL    HW138864   1.658   2.134   3.800 -2.0331 -0.8781 -0.5623
 9077SOL    HW238865   1.772   2.152   3.713  0.9714  1.9175 -0.9656
 9078SOL     OW38866   1.841   0.631   8.796 -0.3730 -0.3126 -0.4105
 9078SOL    HW138867   1.812   0.543   8.772  0.0164 -0.6340  0.3145
 9078SOL    HW238868   1.773   0.654   8.858  2.8131 -0.5740  3.1504
 9079SOL     OW38869   2.901   0.578   5.433 -0.0886  0.6861 -0.0626
 9079SOL    HW138870   2.820   0.597   5.481 -0.0950  0.4950  0.0011
 9079SOL    HW238871   2.925   0.503   5.486  0.4638 -0.2911 -1.7006
 9080SOL     OW38872   4.180   0.203  15.652 -0.1514  0.3291 -0.0191
 9080SOL    HW138873   4.164   0.292  15.620  0.0427  0.8407  1.3184
 9080SOL    HW238874   4.177   0.165  15.564  0.4232  1.4553 -0.5246
 9081SOL     OW38875   4.187   1.418   4.249 -0.1282 -0.3162 -0.4114
 9081SOL    HW138876   4.235   1.470   4.314  3.7022 -0.2103 -3.3594
 9081SOL    HW238877   4.099   1.432   4.284 -0.0374 -1.3181  0.2222
 9082SOL     OW38878   3.123   3.063  14.724 -0.2340 -0.4219 -0.4477
 9082SOL    HW138879   3.058   3.124  14.757 -1.0572 -1.4458 -0.1952
 9082SOL    HW238880   3.195   3.121  14.700 -0.3632 -0.2193 -0.3448
 9083SOL     OW38881   4.458   1.350   7.560 -0.4720  0.0619 -0.0357
 9083SOL    HW138882   4.481   1.441   7.541  0.1904  0.3215  2.0946
 9083SOL    HW238883   4.441   1.326   7.469  0.7672 -1.5644  0.1653
 9084SOL     OW38884   0.557   4.450  13.335 -0.1599  0.1936 -0.0259
 9084SOL    HW138885   0.592   4.444  13.246  1.2281 -0.0383  0.5426
 9084SOL    HW238886   0.558   4.355  13.350 -0.5430  0.1039 -0.5899
 9085SOL     OW38887   0.798   0.633   1.401 -0.3103 -0.2726 -0.4824
 9085SOL    HW138888   0.775   0.674   1.317  0.6290 -2.8443 -2.0095
 9085SOL    HW238889   0.708   0.605   1.418 -0.1195 -1.8152 -2.0270
 9086SOL     OW38890   4.304   0.096  16.492  0.0600  0.2750 -0.1461
 9086SOL    HW138891   4.313   0.001  16.495 -0.8356  0.1774 -0.7522
 9086SOL    HW238892   4.310   0.107  16.397 -2.6513  0.9154 -0.2336
 9087SOL     OW38893   2.508   4.060   3.788  0.7589  0.2775  0.2105
 9087SOL    HW138894   2.513   4.011   3.870 -2.7537 -0.4023  0.0130
 9087SOL    HW238895   2.426   4.027   3.753 -1.0038  2.2313  2.4466
 9088SOL     OW38896   2.659   1.909  12.700 -0.3186  0.0537  0.4959
 9088SOL    HW138897   2.591   1.850  12.666  0.7061 -0.1691 -1.1502
 9088SOL    HW238898   2.730   1.873  12.647 -0.2048 -0.6148  1.0981
 9089SOL     OW38899   1.602   0.567  10.202 -0.0088 -0.6671 -0.1574
 9089SOL    HW138900   1.638   0.510  10.270 -2.0553 -2.1476 -0.2923
 9089SOL    HW238901   1.672   0.575  10.138  0.3959  1.4563  0.5647
 9090SOL     OW38902   0.624   1.146   2.969 -0.1058 -0.0297 -0.5074
 9090SOL    HW138903   0.623   1.144   2.873 -1.4578  3.0887 -0.5399
 9090SOL    HW238904   0.607   1.058   3.000  0.2402  0.5729  1.3912
 9091SOL     OW38905   2.339   1.059  10.399 -0.5179  0.4047  0.1458
 9091SOL    HW138906   2.343   1.143  10.354 -1.4327  1.1162  1.3849
 9091SOL    HW238907   2.377   0.992  10.342 -1.3243  0.3959 -0.3928
 9092SOL     OW38908   4.492   4.673  13.811  0.1692 -0.1761 -0.3393
 9092SOL    HW138909   4.572   4.623  13.831  1.0205  0.5501 -2.0016
 9092SOL    HW238910   4.497   4.669  13.716  0.6108 -1.7832 -0.2554
 9093SOL     OW38911   2.795   1.863   2.645 -0.1016 -0.0498  0.3747
 9093SOL    HW138912   2.881   1.903   2.633 -0.5052  0.4611 -0.8515
 9093SOL    HW238913   2.735   1.922   2.600 -0.0584 -1.8689 -2.0354
 9094SOL     OW38914   1.956   1.470   9.053  0.8944  0.5408  0.1739
 9094SOL    HW138915   1.993   1.524   8.983  0.0461  2.7416  1.4313
 9094SOL    HW238916   1.915   1.527   9.118  0.2486 -0.8669  1.0035
 9095SOL     OW38917   2.760   2.457  14.705 -0.9920 -0.1535 -0.4948
 9095SOL    HW138918   2.789   2.420  14.788 -0.9462 -2.1173 -1.3823
 9095SOL    HW238919   2.700   2.526  14.734 -1.5897 -2.0383  2.7588
 9096SOL     OW38920   0.539   3.755   7.759 -0.8366 -0.1960 -0.3208
 9096SOL    HW138921   0.481   3.802   7.700  0.2130  1.0596 -0.3531
 9096SOL    HW238922   0.487   3.683   7.794 -1.1271  0.0168 -0.3080
 9097SOL     OW38923   0.905   1.897   4.088 -0.3355 -0.3993  0.0313
 9097SOL    HW138924   0.865   1.855   4.164 -0.5193 -0.1206  0.0912
 9097SOL    HW238925   0.941   1.820   4.044  0.9816  0.4280 -0.3486
 9098SOL     OW38926   3.508   4.054   8.290  0.3064 -0.1865  0.0164
 9098SOL    HW138927   3.561   4.048   8.211 -1.0374  0.3507 -0.9321
 9098SOL    HW238928   3.458   4.132   8.266 -0.5979 -0.0607  2.2987
 9099SOL     OW38929   4.157   1.311   5.446 -0.1919 -0.2734  0.0107
 9099SOL    HW138930   4.198   1.268   5.370 -0.2015 -1.0413  0.4414
 9099SOL    HW238931   4.213   1.271   5.512  1.9181 -0.7995 -2.0948
 9100SOL     OW38932   1.619   2.090   3.223  0.4785  0.1313  0.6389
 9100SOL    HW138933   1.598   2.121   3.311  1.1226  3.7606 -0.5027
 9100SOL    HW238934   1.714   2.078   3.228  0.7704  1.6113 -1.4077
 9101SOL     OW38935   1.961   0.773   0.609 -0.0877 -0.0923 -0.8972
 9101SOL    HW138936   2.011   0.797   0.531  1.4316  0.1006  0.1323
 9101SOL    HW238937   2.001   0.691   0.639  0.3250  0.2188 -0.6020
 9102SOL     OW38938   2.675   0.307   2.655  0.0260 -0.3374 -0.0833
 9102SOL    HW138939   2.654   0.399   2.641  1.1481  0.0426  0.7800
 9102SOL    HW238940   2.592   0.259   2.648 -0.0467 -0.7364  3.4339
 9103SOL     OW38941   3.080   1.852   8.046 -0.1146  0.3028 -0.0276
 9103SOL    HW138942   3.172   1.867   8.025 -0.2304 -0.5570 -1.1546
 9103SOL    HW238943   3.083   1.756   8.050  1.4616  0.3459  0.0761
 9104SOL     OW38944   3.825   2.574  17.143 -0.1544 -0.7834 -0.1249
 9104SOL    HW138945   3.837   2.638  17.213  1.6660  1.0697 -2.1005
 9104SOL    HW238946   3.916   2.558  17.118 -0.1056  0.2494 -0.6287
 9105SOL     OW38947   3.178   3.285   6.036  0.3423 -0.5795  0.4829
 9105SOL    HW138948   3.239   3.352   6.067  0.8421 -0.6664 -0.3041
 9105SOL    HW238949   3.205   3.200   6.071  0.5016 -0.4425  0.6876
 9106SOL     OW38950   3.999   0.594   9.491  0.5057 -0.0790  0.3882
 9106SOL    HW138951   4.090   0.569   9.507  0.8079 -0.1049 -1.3594
 9106SOL    HW238952   3.993   0.653   9.567 -1.2690  1.7496 -1.1684
 9107SOL     OW38953   1.525   3.668   8.000  0.5149 -0.0611  0.3648
 9107SOL    HW138954   1.571   3.709   8.074  0.6796  0.4666 -0.0260
 9107SOL    HW238955   1.458   3.625   8.054 -1.3744  1.3124 -0.9128
 9108SOL     OW38956   3.490   2.350   2.796 -0.0056 -0.1186 -0.2006
 9108SOL    HW138957   3.540   2.360   2.877 -2.5419  0.9605  1.2400
 9108SOL    HW238958   3.562   2.335   2.735 -0.1944  1.7853 -0.8913
 9109SOL     OW38959   1.761   1.024  11.881 -0.2389  0.2487  0.2473
 9109SOL    HW138960   1.676   1.057  11.851  0.3910  0.5681 -1.2178
 9109SOL    HW238961   1.752   0.934  11.851 -2.4639  0.4633  0.3006
 9110SOL     OW38962   0.761   4.314   6.340  0.3793 -0.2740  0.1303
 9110SOL    HW138963   0.789   4.226   6.364  3.5412  0.6511 -0.2037
 9110SOL    HW238964   0.711   4.289   6.262  0.7572  1.3839 -0.6332
 9111SOL     OW38965   3.646   1.116   4.856  0.0419  0.4280 -0.7804
 9111SOL    HW138966   3.686   1.057   4.793  1.3268 -1.9716  2.2668
 9111SOL    HW238967   3.596   1.174   4.797 -1.2288 -0.0939 -0.2216
 9112SOL     OW38968   0.001   4.436  16.755 -0.0583  0.3510 -0.3666
 9112SOL    HW138969   0.068   4.473  16.696 -0.7308  3.3730  0.7554
 9112SOL    HW238970   4.676   4.508  16.762 -1.2772 -0.5391 -2.2481
 9113SOL     OW38971   2.030   3.274   2.063  0.2102  0.0794  0.3987
 9113SOL    HW138972   2.032   3.287   2.158 -0.1921  2.5025  0.0756
 9113SOL    HW238973   2.085   3.346   2.035 -3.0685  1.7635 -1.7752
 9114SOL     OW38974   2.048   0.970   7.689  0.5240 -0.1150  0.7037
 9114SOL    HW138975   1.977   0.975   7.753 -1.8497 -1.9600 -1.8147
 9114SOL    HW238976   2.116   1.017   7.738  0.2478 -0.2669  1.2373
 9115SOL     OW38977   0.641   0.242   9.600  0.6205 -0.2171  0.3692
 9115SOL    HW138978   0.724   0.263   9.644  1.2895  1.5702 -1.7096
 9115SOL    HW238979   0.655   0.151   9.574  1.1853  0.1238 -0.5410
 9116SOL     OW38980   3.565   1.904   1.956 -0.0403 -0.4061 -0.1995
 9116SOL    HW138981   3.489   1.877   1.904 -1.0976  0.2307  1.0361
 9116SOL    HW238982   3.593   1.819   1.991  0.2544  0.4124  1.5132
 9117SOL     OW38983   4.058   2.483  12.381  0.3009 -0.8491  0.5506
 9117SOL    HW138984   4.123   2.467  12.313  0.5707  1.8006  0.2051
 9117SOL    HW238985   4.111   2.472  12.460 -1.2448 -0.3742  1.6431
 9118SOL     OW38986   2.907   4.067  12.351 -0.6435  0.2066  0.0505
 9118SOL    HW138987   2.959   3.993  12.322  0.2294  1.4382 -1.5598
 9118SOL    HW238988   2.925   4.054  12.444 -2.4465  1.0144  0.5322
 9119SOL     OW38989   4.654   3.605   5.421  0.4013 -0.1981 -0.0083
 9119SOL    HW138990   4.719   3.654   5.471  1.1151  0.4534 -1.5525
 9119SOL    HW238991   4.582   3.668   5.414 -0.3010 -0.9625  0.4910
 9120SOL     OW38992   0.263   1.609   7.090 -0.2935  0.0572  0.3509
 9120SOL    HW138993   0.328   1.636   7.026 -0.9349 -0.4857 -0.5233
 9120SOL    HW238994   0.318   1.606   7.169 -0.8679 -1.3675  0.6944
 9121SOL     OW38995   1.590   0.136   6.504 -0.1304 -0.4516  0.0686
 9121SOL    HW138996   1.529   0.209   6.515 -1.9313 -1.9272 -0.1952
 9121SOL    HW238997   1.523   0.070   6.487 -0.6760 -0.3349  1.7618
 9122SOL     OW38998   3.985   0.373   4.759  0.1087  0.0073  0.2653
 9122SOL    HW138999   3.966   0.320   4.682  0.5356 -1.1635  0.9579
 9122SOL    HW239000   4.079   0.357   4.771  0.0486  0.1259  0.9012
 9123SOL     OW39001   1.436   0.702   6.257  0.5845 -0.0365  0.0924
 9123SOL    HW139002   1.458   0.783   6.304  0.3845  0.1492 -0.1291
 9123SOL    HW239003   1.490   0.640   6.305 -3.1464 -0.3987  3.7405
 9124SOL     OW39004   0.615   2.953   1.858  0.0321  0.3448 -0.0865
 9124SOL    HW139005   0.601   2.937   1.952 -0.7271  3.0191  0.2426
 9124SOL    HW239006   0.683   3.020   1.851  0.4783  0.0000  0.9291
 9125SOL     OW39007   4.129   0.434  15.520  0.3635  0.1723 -0.1458
 9125SOL    HW139008   4.045   0.422  15.475  1.1856 -0.0323 -1.6133
 9125SOL    HW239009   4.184   0.452  15.444 -0.6809  1.0705 -0.6755
 9126SOL     OW39010   1.628   1.547   8.917  0.2647 -0.4263  0.0866
 9126SOL    HW139011   1.710   1.580   8.879  0.6739  0.6150  1.8817
 9126SOL    HW239012   1.621   1.595   8.999  0.4312  1.0604 -0.7647
 9127SOL     OW39013   1.964   1.237   5.277  0.6886  0.2154  0.7096
 9127SOL    HW139014   1.889   1.228   5.335 -0.4214 -0.4218 -0.8322
 9127SOL    HW239015   1.978   1.331   5.287  1.8861  0.3484 -2.1814
 9128SOL     OW39016   2.713   1.039   7.347 -0.0942  0.0951 -0.0426
 9128SOL    HW139017   2.769   0.971   7.385  1.1968  1.1278 -0.0967
 9128SOL    HW239018   2.745   1.111   7.401  0.0769 -1.0037  1.3194
 9129SOL     OW39019   4.199   2.122   6.203 -0.1154  0.3494 -0.9860
 9129SOL    HW139020   4.281   2.170   6.200 -0.8061  1.5543 -0.4042
 9129SOL    HW239021   4.134   2.181   6.240  0.0747 -2.2597  3.4839
 9130SOL     OW39022   1.655   2.330   2.168 -0.4206  0.1745  0.0580
 9130SOL    HW139023   1.574   2.379   2.175 -1.5958 -1.9314  1.2829
 9130SOL    HW239024   1.619   2.248   2.135  1.1057  0.7197 -2.9652
 9131SOL     OW39025   0.787   3.452  10.150 -0.7107 -0.1024 -0.1441
 9131SOL    HW139026   0.769   3.453  10.056  1.8362 -0.0870 -0.6307
 9131SOL    HW239027   0.786   3.546  10.168  2.5030 -0.3684  1.3965
 9132SOL     OW39028   0.580   1.151   1.682  0.2876 -0.2397  0.0573
 9132SOL    HW139029   0.490   1.153   1.715  0.6715 -1.4110  1.1704
 9132SOL    HW239030   0.566   1.113   1.595 -0.4882  1.2136 -0.4468
 9133SOL     OW39031   3.969   3.933   6.770 -0.5931 -0.3153  0.8022
 9133SOL    HW139032   4.064   3.920   6.762 -0.2185  2.9631 -0.3404
 9133SOL    HW239033   3.933   3.845   6.763 -0.7939 -0.3221  2.0596
 9134SOL     OW39034   3.397   2.922   4.252 -0.3110 -0.0745 -0.2156
 9134SOL    HW139035   3.396   3.014   4.225  3.9586  0.5347  1.7396
 9134SOL    HW239036   3.368   2.882   4.170 -2.2242 -2.3171  1.5505
 9135SOL     OW39037   1.303   2.532   9.091  0.2163 -0.1235  0.3667
 9135SOL    HW139038   1.394   2.556   9.111 -0.3783  2.1282  0.2563
 9135SOL    HW239039   1.259   2.606   9.131  3.6930  1.5366  1.1802
 9136SOL     OW39040   4.433   4.205   8.533  0.4555 -0.2703  0.1541
 9136SOL    HW139041   4.462   4.243   8.616  2.3264  0.9506 -1.0515
 9136SOL    HW239042   4.370   4.270   8.503  0.0552 -0.4586  0.5961
 9137SOL     OW39043   3.158   2.922  13.562 -0.5029 -0.5541  0.6872
 9137SOL    HW139044   3.189   2.832  13.567 -0.6576 -0.7116 -1.0402
 9137SOL    HW239045   3.222   2.969  13.509  1.4597 -2.8042  1.0709
 9138SOL     OW39046   2.638   3.433   8.360 -0.6690  0.0775  0.0517
 9138SOL    HW139047   2.724   3.441   8.320 -0.8885  1.1579 -0.2183
 9138SOL    HW239048   2.639   3.343   8.394  0.8617 -0.8597 -2.4671
 9139SOL     OW39049   0.640   2.886   6.507 -0.3216 -0.3175 -0.4952
 9139SOL    HW139050   0.663   2.833   6.430  1.0044 -0.6181  0.1127
 9139SOL    HW239051   0.715   2.865   6.563 -0.1989  0.7433 -0.2615
 9140SOL     OW39052   2.058   0.939   4.822 -0.4677 -0.3615  0.4535
 9140SOL    HW139053   2.009   0.953   4.903 -0.4788  0.3631  0.3183
 9140SOL    HW239054   2.128   1.002   4.839 -0.4264 -0.8396  2.1115
 9141SOL     OW39055   1.961   2.462   5.485  0.0664  0.5123  0.4616
 9141SOL    HW139056   1.897   2.459   5.556 -1.0030 -0.2487 -0.5291
 9141SOL    HW239057   1.915   2.503   5.412 -0.5797 -0.1515  0.4956
 9142SOL     OW39058   0.969   1.410  13.963 -0.3078  0.1462 -0.5006
 9142SOL    HW139059   0.936   1.326  13.995  1.3395 -1.0205 -1.9128
 9142SOL    HW239060   1.044   1.381  13.911  1.1730  0.9984  1.1555
 9143SOL     OW39061   3.130   1.431  14.462 -0.2963 -0.0168 -0.0759
 9143SOL    HW139062   3.197   1.390  14.516 -0.0465 -1.5289 -1.5149
 9143SOL    HW239063   3.109   1.386  14.380  2.0930 -0.8685 -0.2246
 9144SOL     OW39064   3.975   2.256  10.473  0.0638  0.1797  0.3666
 9144SOL    HW139065   4.040   2.212  10.528  0.0097  0.7729  0.8999
 9144SOL    HW239066   4.018   2.245  10.388  0.6955 -0.3009  0.7496
 9145SOL     OW39067   3.394   1.072   3.492  0.5066 -0.6009 -0.1533
 9145SOL    HW139068   3.432   1.103   3.409  1.6528  0.8279  0.9135
 9145SOL    HW239069   3.470   1.031   3.534  1.0770 -0.3422 -0.9220
 9146SOL     OW39070   4.126   3.766  16.415  0.0469  0.4990  0.2339
 9146SOL    HW139071   4.093   3.855  16.429  2.9774  1.5064  0.8409
 9146SOL    HW239072   4.086   3.715  16.486 -0.9774  1.2492  0.1903
 9147SOL     OW39073   0.449   2.735  15.087  0.3785 -0.1025 -0.1499
 9147SOL    HW139074   0.359   2.702  15.085  0.8487 -1.4467  0.9043
 9147SOL    HW239075   0.471   2.712  14.996 -2.2281 -0.5057 -0.6733
 9148SOL     OW39076   0.275   1.434   0.894  0.3436  0.2938  0.5383
 9148SOL    HW139077   0.277   1.530   0.900  1.5718  0.0711  3.6780
 9148SOL    HW239078   0.226   1.429   0.812  2.3739  1.5165 -0.7508
 9149SOL     OW39079   2.802   3.308   3.183  0.3203  0.4291 -0.0226
 9149SOL    HW139080   2.830   3.318   3.092 -0.3600 -1.2422 -0.4261
 9149SOL    HW239081   2.712   3.278   3.167  0.2238  1.3042 -1.0990
 9150SOL     OW39082   3.449   2.051  17.478 -0.4082 -0.2789 -0.4408
 9150SOL    HW139083   3.404   1.980  17.526  0.6007  0.8433  2.1820
 9150SOL    HW239084   3.382   2.058  17.410 -0.2068  0.4362 -0.5634
 9151SOL     OW39085   2.444   1.110   4.186 -0.1359  0.1441  0.6550
 9151SOL    HW139086   2.533   1.121   4.154  0.0141 -0.1779  0.9743
 9151SOL    HW239087   2.401   1.177   4.132 -0.0861 -0.0656  0.3507
 9152SOL     OW39088   0.202   0.108   2.590  0.2976  0.3557  0.3261
 9152SOL    HW139089   0.268   0.160   2.545  0.2861  1.2676  1.3613
 9152SOL    HW239090   0.121   0.133   2.545 -0.3500 -1.0229  0.7002
 9153SOL     OW39091   1.512   1.513   8.648  0.3684  0.3306 -0.4209
 9153SOL    HW139092   1.521   1.567   8.727 -0.8537  0.5931 -0.4554
 9153SOL    HW239093   1.583   1.553   8.598 -0.9517 -0.4660 -2.9069
 9154SOL     OW39094   2.382   2.497   8.014 -0.2311  0.1018  0.8818
 9154SOL    HW139095   2.409   2.424   8.070  1.8161  0.7745  0.7632
 9154SOL    HW239096   2.428   2.463   7.938 -0.3719 -1.2698  1.3972
 9155SOL     OW39097   3.652   3.848   5.177  0.0348 -0.2609  0.0151
 9155SOL    HW139098   3.738   3.885   5.159 -0.0085  0.3376  1.0623
 9155SOL    HW239099   3.606   3.909   5.234 -0.1273 -0.1643 -0.2163
 9156SOL     OW39100   1.599   4.467  10.812  0.2478  0.1588  0.1215
 9156SOL    HW139101   1.641   4.497  10.731 -0.5855 -0.0956 -0.4104
 9156SOL    HW239102   1.648   4.517  10.878 -0.8213  0.4429  0.7044
 9157SOL     OW39103   1.724   3.380  10.859  0.5853 -0.4856  0.0447
 9157SOL    HW139104   1.819   3.378  10.871  0.8736  0.5680 -1.9709
 9157SOL    HW239105   1.706   3.473  10.869 -0.6707 -0.7724  0.4789
 9158SOL     OW39106   1.055   2.037  12.665  0.0573  0.4525 -0.1998
 9158SOL    HW139107   1.111   2.113  12.651  0.4062  0.3829  0.8784
 9158SOL    HW239108   1.053   2.042  12.760 -1.3034  0.8182 -0.2531
 9159SOL     OW39109   0.866   2.086  12.454  0.1257  0.3764  0.3506
 9159SOL    HW139110   0.920   2.057  12.528  0.9105  2.2891  0.5325
 9159SOL    HW239111   0.926   2.085  12.379  0.4460  1.4669  0.5957
 9160SOL     OW39112   1.072   1.446   5.347  1.0460  0.4624  0.0762
 9160SOL    HW139113   1.081   1.482   5.435 -1.3892  1.0027  0.0915
 9160SOL    HW239114   1.143   1.382   5.352 -0.1518 -1.1337 -3.4626
 9161SOL     OW39115   1.161   3.388   4.330 -0.2383  0.0450  0.3979
 9161SOL    HW139116   1.228   3.432   4.382  1.7306 -2.6585  0.1771
 9161SOL    HW239117   1.164   3.298   4.364 -3.0372 -0.2830 -0.1905
 9162SOL     OW39118   1.446   2.917  12.811  0.1189  0.4218  0.3721
 9162SOL    HW139119   1.487   2.987  12.761  0.1324  0.0534 -0.1397
 9162SOL    HW239120   1.360   2.901  12.772  0.6667  1.0608 -1.0885
 9163SOL     OW39121   1.889   3.938   8.959 -0.4063 -0.0185 -0.2823
 9163SOL    HW139122   1.845   3.909   8.879 -1.8880  0.4989  0.3286
 9163SOL    HW239123   1.826   3.898   9.020  0.0327 -1.4987 -0.8162
 9164SOL     OW39124   0.201   2.694   7.661  0.1396  0.0932  0.3111
 9164SOL    HW139125   0.235   2.772   7.705  1.4391 -0.5504  0.4540
 9164SOL    HW239126   0.256   2.681   7.584  0.3847  0.8596  0.3583
 9165SOL     OW39127   3.716   2.669   3.182 -0.1423 -0.1401 -0.9187
 9165SOL    HW139128   3.748   2.672   3.272 -1.4982 -0.8572 -0.4035
 9165SOL    HW239129   3.639   2.613   3.193  0.2910 -0.7802 -1.1542
 9166SOL     OW39130   4.352   4.624   4.487 -0.6984 -0.2890 -0.3013
 9166SOL    HW139131   4.267   4.622   4.443  0.2849 -0.5717 -2.1594
 9166SOL    HW239132   4.356   4.711   4.527  0.7407  0.5920 -2.3773
 9167SOL     OW39133   1.432   0.103  10.245 -0.5040  0.1807  0.7022
 9167SOL    HW139134   1.500   0.153  10.201 -1.8504  1.9730  0.6600
 9167SOL    HW239135   1.483   0.022  10.254  0.8310  0.8926 -0.5938
 9168SOL     OW39136   2.068   1.172   3.844 -0.4108  0.2534 -0.0208
 9168SOL    HW139137   2.048   1.079   3.834 -0.7825  0.3394 -0.0970
 9168SOL    HW239138   2.123   1.186   3.767 -1.0118 -0.6147 -0.6028
 9169SOL     OW39139   2.650   3.267   4.546 -0.0151  1.4475 -0.6626
 9169SOL    HW139140   2.742   3.288   4.563  0.0266  0.5003  0.2458
 9169SOL    HW239141   2.636   3.309   4.460  0.7057  2.2308 -0.4029
 9170SOL     OW39142   3.365   2.106   8.154 -0.9816  0.4514 -0.3227
 9170SOL    HW139143   3.283   2.090   8.107 -0.6155 -1.6254 -0.2289
 9170SOL    HW239144   3.379   2.201   8.154 -1.6889  0.5537  0.2584
 9171SOL     OW39145   1.353   3.476  10.285  0.1237 -0.1131  0.3148
 9171SOL    HW139146   1.346   3.570  10.298  0.2755 -0.2261  1.1949
 9171SOL    HW239147   1.396   3.447  10.365  0.4035 -0.6392 -0.0230
 9172SOL     OW39148   0.619   1.476   9.469  0.0012  0.7323  0.3030
 9172SOL    HW139149   0.696   1.421   9.457  0.8726  1.7577  1.2183
 9172SOL    HW239150   0.651   1.550   9.418  0.1268  0.7185  0.3631
 9173SOL     OW39151   0.304   3.734  13.678 -0.1638  0.3975 -0.3230
 9173SOL    HW139152   0.294   3.733  13.773  1.3527  2.5197 -0.1303
 9173SOL    HW239153   0.216   3.767  13.662 -0.2127 -0.2114 -1.2791
 9174SOL     OW39154   0.957   1.361   7.481 -0.1478 -0.0931 -0.3237
 9174SOL    HW139155   0.947   1.450   7.514 -1.2051  0.4945 -2.2012
 9174SOL    HW239156   1.050   1.340   7.485  0.2808  1.4199 -2.0365
 9175SOL     OW39157   3.379   2.442   3.658  0.1236  0.1102  0.0095
 9175SOL    HW139158   3.295   2.488   3.669  0.7472  1.3806 -0.5403
 9175SOL    HW239159   3.358   2.357   3.619  0.2493  1.1496 -2.3033
 9176SOL     OW39160   0.190   4.699  10.016 -0.1844  0.0347 -0.1712
 9176SOL    HW139161   0.239   4.619   9.996 -2.0016 -1.2903  0.6822
 9176SOL    HW239162   0.114   4.686   9.960  0.3111  0.9344 -1.0469
 9177SOL     OW39163   3.430   2.257   6.774  0.1463 -0.0822 -0.4797
 9177SOL    HW139164   3.515   2.295   6.753 -0.0828  0.4990 -0.3708
 9177SOL    HW239165   3.413   2.202   6.697 -0.3281  1.8024 -1.7386
 9178SOL     OW39166   3.267   1.032   9.583  0.3475  0.2916 -0.2350
 9178SOL    HW139167   3.312   0.976   9.646  0.3159  0.7999  0.2463
 9178SOL    HW239168   3.183   1.040   9.629 -1.6813 -2.6858 -3.4321
 9179SOL     OW39169   1.421   2.407   9.375  0.0869 -0.2531 -0.4188
 9179SOL    HW139170   1.375   2.345   9.432  2.5084 -0.1754  1.6118
 9179SOL    HW239171   1.492   2.346   9.357  0.4710  0.5959 -1.8077
 9180SOL     OW39172   0.263   3.261   3.491 -0.7339  0.2591 -0.0747
 9180SOL    HW139173   0.185   3.213   3.461 -1.2445  0.9234  0.1837
 9180SOL    HW239174   0.332   3.202   3.461 -1.3890 -0.1778 -0.7499
 9181SOL     OW39175   1.782   2.468  14.480  0.0912 -0.1746  0.0289
 9181SOL    HW139176   1.875   2.448  14.480  0.2590  0.6451 -0.2850
 9181SOL    HW239177   1.771   2.537  14.546  0.6137  0.6112 -0.7176
 9182SOL     OW39178   3.608   0.063   5.993  0.0907  0.2200  0.1472
 9182SOL    HW139179   3.542   4.736   6.020 -0.7352 -0.1411 -2.6832
 9182SOL    HW239180   3.563   0.142   6.022 -0.9698 -0.4468  0.3616
 9183SOL     OW39181   0.689   2.592   6.757 -0.2268 -0.0647  0.1833
 9183SOL    HW139182   0.684   2.503   6.722  2.6094 -0.7007  1.4302
 9183SOL    HW239183   0.596   2.611   6.773 -0.2997 -0.2342 -0.0383
 9184SOL     OW39184   2.703   2.013   4.887  0.5747 -0.0387 -0.3389
 9184SOL    HW139185   2.610   1.995   4.903 -0.3760  2.4042 -2.9986
 9184SOL    HW239186   2.697   2.071   4.811 -1.0074  0.0437 -0.1604
 9185SOL     OW39187   4.149   2.999   4.283  0.1373 -0.4491 -0.0828
 9185SOL    HW139188   4.216   3.066   4.294  0.6673 -1.0558  0.4622
 9185SOL    HW239189   4.194   2.929   4.236 -1.7301 -1.0563 -0.9864
 9186SOL     OW39190   2.682   2.549   8.847 -0.1599  0.0200  0.0995
 9186SOL    HW139191   2.600   2.499   8.852 -0.4519  0.4564 -0.3318
 9186SOL    HW239192   2.657   2.641   8.856 -0.9190 -0.5279  3.5289
 9187SOL     OW39193   2.806   1.129   2.738  0.1929  0.0342 -0.3680
 9187SOL    HW139194   2.747   1.168   2.802  1.4647 -2.5099  2.3181
 9187SOL    HW239195   2.818   1.198   2.672  1.2544 -1.9254 -2.2265
 9188SOL     OW39196   2.330   2.852   8.753 -0.6278  0.1034  0.3634
 9188SOL    HW139197   2.286   2.937   8.745 -0.1316  0.5539  2.3975
 9188SOL    HW239198   2.289   2.797   8.686 -0.7078 -1.1008  1.4062
 9189SOL     OW39199   2.504   4.530   0.462 -0.1435  0.1382 -0.5470
 9189SOL    HW139200   2.498   4.448   0.510  1.7337 -0.8050 -1.8876
 9189SOL    HW239201   2.433   4.576   0.505 -0.3178  0.1202 -0.8137
 9190SOL     OW39202   3.244   3.545   7.196  0.3964 -0.0152 -0.5788
 9190SOL    HW139203   3.232   3.482   7.267 -0.6177  0.2529 -0.5216
 9190SOL    HW239204   3.159   3.587   7.185  1.0507  1.3583 -0.4164
 9191SOL     OW39205   0.191   0.566  16.157 -0.2879  0.1816 -0.0404
 9191SOL    HW139206   0.098   0.579  16.142 -0.1359  0.6509 -0.5434
 9191SOL    HW239207   0.201   0.505  16.230 -1.7278 -0.3284 -0.2770
 9192SOL     OW39208   0.858   3.436   8.014 -0.1813 -0.6426  0.5478
 9192SOL    HW139209   0.823   3.353   7.984  0.0565 -0.7273  0.5048
 9192SOL    HW239210   0.944   3.448   7.973 -0.1126 -0.3622  0.7704
 9193SOL     OW39211   2.645   1.751  13.353  0.2749  0.2299 -0.2915
 9193SOL    HW139212   2.676   1.839  13.374  2.8007 -1.0529  1.3199
 9193SOL    HW239213   2.720   1.709  13.311  0.4814  0.3841 -0.0757
 9194SOL     OW39214   2.179   3.241   1.521 -0.1115 -0.0525  0.8701
 9194SOL    HW139215   2.203   3.214   1.432  1.0824  2.1448  0.5252
 9194SOL    HW239216   2.145   3.160   1.559 -1.1345  0.6413  1.4547
 9195SOL     OW39217   2.111   4.683   9.822 -0.2187 -0.0641  0.2874
 9195SOL    HW139218   2.120   4.605   9.876 -1.6796 -0.2598  0.2502
 9195SOL    HW239219   2.163   0.014   9.863  0.7610 -1.3670  1.2101
 9196SOL     OW39220   0.752   0.291  13.901 -0.0751 -0.3452 -0.2350
 9196SOL    HW139221   0.844   0.276  13.880  0.7694 -0.0352  3.2353
 9196SOL    HW239222   0.750   0.260  13.992  1.9505  1.9873  0.5989
 9197SOL     OW39223   0.324   3.486   7.342 -0.0476 -0.4486 -0.4582
 9197SOL    HW139224   0.406   3.502   7.389 -0.3612 -1.7042  0.5330
 9197SOL    HW239225   0.312   3.566   7.291  1.2216 -1.3160 -2.1193
 9198SOL     OW39226   3.007   1.648   2.911  0.1957  0.4034  0.0140
 9198SOL    HW139227   3.062   1.616   2.839  0.3982  0.4246  0.1572
 9198SOL    HW239228   3.038   1.738   2.917 -1.9494  1.0918  0.5677
 9199SOL     OW39229   4.214   3.367  13.395 -0.2026  0.0374 -0.0647
 9199SOL    HW139230   4.171   3.440  13.439  0.5881 -0.8165  2.1106
 9199SOL    HW239231   4.152   3.299  13.421 -1.1314  0.7592 -0.3899
 9200SOL     OW39232   3.264   3.126   7.676  0.1795  0.3374  0.0714
 9200SOL    HW139233   3.284   3.061   7.743 -0.6689 -0.9077 -0.8893
 9200SOL    HW239234   3.190   3.090   7.627  0.5421  0.0841 -0.2909
 9201SOL     OW39235   4.369   0.678   6.406 -0.2167 -0.6761 -0.2815
 9201SOL    HW139236   4.381   0.583   6.403  0.8386 -0.5671  0.6452
 9201SOL    HW239237   4.452   0.715   6.378 -0.6107  0.2796 -0.1968
 9202SOL     OW39238   0.664   2.126   2.994  0.1282 -0.3786 -0.5287
 9202SOL    HW139239   0.742   2.107   3.047 -0.8422 -0.1701  0.9908
 9202SOL    HW239240   0.661   2.221   2.982 -0.3017 -0.1397  1.4546
 9203SOL     OW39241   4.513   0.349   0.958  0.2699  0.2472  0.5337
 9203SOL    HW139242   4.477   0.438   0.962  0.6947  0.4880 -1.2257
 9203SOL    HW239243   4.442   0.311   1.009 -1.7234  1.5502 -1.2915
 9204SOL     OW39244   2.342   1.125   8.454  0.2937 -0.0856 -0.2030
 9204SOL    HW139245   2.274   1.061   8.479 -0.0523  0.2590 -0.2596
 9204SOL    HW239246   2.284   1.201   8.456 -1.3581 -1.2975 -2.0292
 9205SOL     OW39247   2.200   1.992   7.347 -1.2942 -0.0696  0.0633
 9205SOL    HW139248   2.142   1.921   7.373 -2.0918  0.1212 -1.1860
 9205SOL    HW239249   2.160   2.032   7.269 -0.5936  0.4394 -0.0306
 9206SOL     OW39250   0.305   2.439   4.379 -0.6177  0.4666  0.0811
 9206SOL    HW139251   0.344   2.456   4.293 -0.3405 -0.5689  0.0033
 9206SOL    HW239252   0.276   2.523   4.414 -1.0468 -0.0836  1.0504
 9207SOL     OW39253   4.339   3.210   7.617 -0.6537  0.3484 -0.2712
 9207SOL    HW139254   4.324   3.281   7.680  1.3121 -0.4491  1.1139
 9207SOL    HW239255   4.408   3.252   7.566  2.1972 -2.7236  0.9950
 9208SOL     OW39256   2.692   4.515   6.171  0.1848  0.0854  0.0264
 9208SOL    HW139257   2.657   4.428   6.156 -0.0731  0.4905 -1.7851
 9208SOL    HW239258   2.689   4.538   6.264 -1.1304  0.7513 -0.1807
 9209SOL     OW39259   3.894   3.680   7.227  0.6196  0.1114  0.8885
 9209SOL    HW139260   3.984   3.711   7.230  0.2478  1.2682  0.1494
 9209SOL    HW239261   3.863   3.705   7.140  1.1453  1.8497  1.2126
 9210SOL     OW39262   0.350   0.021   5.352 -0.6346 -0.3504 -0.0646
 9210SOL    HW139263   0.384   0.069   5.277  0.7089 -1.4074 -0.1342
 9210SOL    HW239264   0.398   0.065   5.423 -0.1191  1.0114 -1.2594
 9211SOL     OW39265   1.233   1.719  15.814 -0.4250  0.0683  0.4622
 9211SOL    HW139266   1.215   1.719  15.908  2.1919  0.0246  0.9502
 9211SOL    HW239267   1.274   1.633  15.818  1.4348  0.8135 -2.3020
 9212SOL     OW39268   1.337   3.006   8.617  0.4032 -0.4632 -0.0476
 9212SOL    HW139269   1.250   3.032   8.586  0.6651  0.7514  0.2132
 9212SOL    HW239270   1.316   2.919   8.650 -1.8055 -0.1043 -0.4862
 9213SOL     OW39271   0.809   3.798   9.654 -0.6267 -0.3935  0.0365
 9213SOL    HW139272   0.878   3.830   9.597 -3.1528  3.5375 -0.7614
 9213SOL    HW239273   0.805   3.866   9.721  0.0515 -2.4557  2.1520
 9214SOL     OW39274   4.705   4.329   4.338 -0.7193 -0.6571  0.6269
 9214SOL    HW139275   4.675   4.241   4.358 -3.4755  0.2606  0.5604
 9214SOL    HW239276   0.043   4.318   4.280 -0.7911  0.6640  0.2710
 9215SOL     OW39277   4.679   3.485   5.718 -0.7404  0.1262  0.0585
 9215SOL    HW139278   4.642   3.550   5.778 -0.1971 -0.3730  0.9250
 9215SOL    HW239279   4.722   3.547   5.659  0.3191 -0.3750  0.3136
 9216SOL     OW39280   1.798   4.355  15.714  0.2276  0.4973 -0.9947
 9216SOL    HW139281   1.761   4.390  15.795 -1.8345  1.1047 -2.1869
 9216SOL    HW239282   1.730   4.380  15.652  0.6831 -1.0385 -2.0987
 9217SOL     OW39283   3.332   0.213   7.368  0.7797  0.0451  0.2557
 9217SOL    HW139284   3.246   0.204   7.410  0.4813  1.1592 -0.1233
 9217SOL    HW239285   3.375   0.139   7.412 -2.3444 -0.9854  1.6445
 9218SOL     OW39286   0.766   3.867  16.024  0.3658  0.0871 -0.4855
 9218SOL    HW139287   0.857   3.847  16.002  0.0330 -0.1314 -1.6328
 9218SOL    HW239288   0.736   3.778  16.004  1.6437 -0.5708  0.5273
 9219SOL     OW39289   2.714   1.749   7.499  0.6264  0.1993  0.6441
 9219SOL    HW139290   2.794   1.793   7.529  2.2171 -1.1617 -1.6721
 9219SOL    HW239291   2.736   1.661   7.528 -1.0455 -0.2718  0.4714
 9220SOL     OW39292   4.010   1.950   1.431  0.2424  0.0766  0.6398
 9220SOL    HW139293   4.094   1.952   1.477  0.3611 -0.4770  0.4380
 9220SOL    HW239294   4.009   2.041   1.401  0.5909  0.1025  0.6998
 9221SOL     OW39295   3.031   1.504   7.432 -0.2722  0.0431  0.5975
 9221SOL    HW139296   3.111   1.463   7.467 -1.7752 -2.0471  1.6030
 9221SOL    HW239297   2.975   1.517   7.509  0.0819  2.2931  0.4666
 9222SOL     OW39298   4.549   1.853   3.987 -0.7378 -0.0908  0.4350
 9222SOL    HW139299   4.623   1.797   3.963  0.8668  1.6800  1.3053
 9222SOL    HW239300   4.479   1.802   3.947 -0.5171  0.5008 -0.6931
 9223SOL     OW39301   3.511   4.662   7.156  0.0824 -0.0398  0.4162
 9223SOL    HW139302   3.478   4.683   7.244 -3.0669 -1.8831 -0.3110
 9223SOL    HW239303   3.474   4.737   7.111 -1.9776 -2.5148 -2.0027
 9224SOL     OW39304   3.759   3.410  14.657  0.3119 -0.5235 -0.2703
 9224SOL    HW139305   3.707   3.452  14.589  0.2304  0.9361  0.6938
 9224SOL    HW239306   3.844   3.440  14.625 -0.5046  2.5558  0.4070
 9225SOL     OW39307   4.088   2.391   4.686 -0.0526 -0.0574 -0.4949
 9225SOL    HW139308   3.998   2.360   4.697  0.4197 -1.7717 -1.4298
 9225SOL    HW239309   4.072   2.478   4.722 -0.8614  0.3813 -1.9051
 9226SOL     OW39310   1.281   0.973  12.976  0.1329 -1.1065 -0.2487
 9226SOL    HW139311   1.284   0.916  12.899  0.8926  0.7602 -1.5826
 9226SOL    HW239312   1.275   1.060  12.939 -0.1692  0.5745  3.7056
 9227SOL     OW39313   0.084   4.104   8.032  0.3105 -0.0988  0.4273
 9227SOL    HW139314   0.154   4.170   8.040 -0.8975  1.5024 -2.2433
 9227SOL    HW239315   0.007   4.159   8.023 -0.6508 -1.5217 -0.0285
 9228SOL     OW39316   1.217   1.808   2.094 -0.3058  0.0640  0.3221
 9228SOL    HW139317   1.306   1.802   2.059 -1.4381 -2.7415 -2.0580
 9228SOL    HW239318   1.223   1.773   2.183 -0.6061 -0.0056  0.3163
 9229SOL     OW39319   0.870   4.627   4.076  0.5412 -0.0468 -0.4170
 9229SOL    HW139320   0.818   4.557   4.038 -1.0244  1.3473 -0.8437
 9229SOL    HW239321   0.899   4.661   3.992 -0.5310  0.8033 -0.4460
 9230SOL     OW39322   2.113   1.732   0.017 -0.5927  0.6701 -0.0055
 9230SOL    HW139323   2.078   1.762   0.102 -3.2722 -2.1065 -0.1422
 9230SOL    HW239324   2.205   1.755   0.031  0.1246 -1.3536 -1.4449
 9231SOL     OW39325   1.516   1.763   0.302  0.4950 -0.1217 -0.5900
 9231SOL    HW139326   1.455   1.717   0.360  1.5992 -0.1458  0.5544
 9231SOL    HW239327   1.578   1.796   0.367  1.2772 -4.4631  0.8931
 9232SOL     OW39328   1.874   2.225  17.278 -0.8621  0.3517  0.0616
 9232SOL    HW139329   1.848   2.183  17.360 -2.2019 -0.2868 -0.6872
 9232SOL    HW239330   1.824   2.305  17.292  1.1463  1.3005  1.7349
 9233SOL     OW39331   2.210   4.490   3.446 -0.0262 -0.1257  0.1905
 9233SOL    HW139332   2.130   4.439   3.458 -0.8446  1.7679  2.7868
 9233SOL    HW239333   2.240   4.503   3.536  0.1152  0.0176  0.1213
 9234SOL     OW39334   3.909   2.521   5.347  0.3502  0.4261 -0.0974
 9234SOL    HW139335   3.905   2.616   5.337 -0.9289  0.6333  2.4273
 9234SOL    HW239336   3.994   2.518   5.391  0.7586  1.9433 -0.7776
 9235SOL     OW39337   2.048   1.880   8.791 -0.1775 -0.4273  0.5547
 9235SOL    HW139338   2.063   1.949   8.856 -0.5565 -0.8512  1.0841
 9235SOL    HW239339   2.066   1.933   8.713  0.1636 -2.7752 -0.9466
 9236SOL     OW39340   0.651   1.030   4.711 -0.5885  0.4065 -0.3156
 9236SOL    HW139341   0.699   1.061   4.634 -0.0879 -0.7027 -0.4557
 9236SOL    HW239342   0.691   0.943   4.714 -0.7155  0.2695 -2.4294
 9237SOL     OW39343   0.238   1.569  14.129 -0.1283 -0.2356 -0.1290
 9237SOL    HW139344   0.233   1.528  14.043 -0.8837 -1.4806  0.5053
 9237SOL    HW239345   0.220   1.658  14.100  0.1597 -0.7519 -1.8771
 9238SOL     OW39346   0.031   4.450   7.284 -0.4935 -0.1242 -0.6846
 9238SOL    HW139347   0.007   4.389   7.353 -0.4077 -0.9216 -1.3506
 9238SOL    HW239348   0.120   4.418   7.267 -1.2562 -1.4396 -2.3143
 9239SOL     OW39349   2.405   2.425   2.443  0.3697  0.5843 -0.3255
 9239SOL    HW139350   2.377   2.368   2.514  0.8227  0.5008 -0.2184
 9239SOL    HW239351   2.336   2.492   2.438 -0.7004 -0.4610  0.7271
 9240SOL     OW39352   4.582   0.390   7.497 -0.6499  0.1224  0.4146
 9240SOL    HW139353   4.529   0.413   7.420  0.8459  1.2519 -0.2887
 9240SOL    HW239354   4.664   0.399   7.448 -1.2782  1.4296 -0.4069
 9241SOL     OW39355   0.969   1.869   3.290  0.3173  0.0370 -0.4158
 9241SOL    HW139356   0.882   1.874   3.330  0.7208  1.1949  0.3617
 9241SOL    HW239357   0.973   1.774   3.287  1.0174  0.0194  0.7210
 9242SOL     OW39358   0.143   2.431   9.126  0.1554  0.2662 -0.3336
 9242SOL    HW139359   0.153   2.336   9.119 -0.1049  0.1306  1.2178
 9242SOL    HW239360   0.063   2.433   9.073 -0.1690 -0.2817  0.1329
 9243SOL     OW39361   4.334   0.062   6.312  0.0064  0.5779 -0.4872
 9243SOL    HW139362   4.295   0.114   6.241  1.0432  0.4510 -1.1644
 9243SOL    HW239363   4.287   0.100   6.386  0.1825 -1.0970  0.4826
 9244SOL     OW39364   2.771   0.841   6.280  0.1521  0.4562  0.1972
 9244SOL    HW139365   2.770   0.922   6.331  2.3769 -0.6621  1.9870
 9244SOL    HW239366   2.844   0.862   6.221  0.2008 -0.5992 -0.1157
 9245SOL     OW39367   1.029   1.849   2.875  0.1179  0.3779 -0.5354
 9245SOL    HW139368   1.097   1.849   2.943 -1.2743  0.7346  0.8477
 9245SOL    HW239369   0.993   1.938   2.876  2.9591  1.5174  2.4601
 9246SOL     OW39370   3.359   2.378  16.887 -0.0557 -0.3062  0.1807
 9246SOL    HW139371   3.275   2.354  16.926  1.4479 -4.5768  0.8038
 9246SOL    HW239372   3.399   2.292  16.873 -2.5271 -1.1984 -1.3071
 9247SOL     OW39373   4.351   0.475   3.409 -0.1661 -0.2524  0.1122
 9247SOL    HW139374   4.342   0.562   3.370  1.5255 -0.1540 -0.0572
 9247SOL    HW239375   4.345   0.498   3.501  0.0600 -0.6215  0.2234
 9248SOL     OW39376   1.823   3.925  12.523 -0.4834 -0.9680 -0.1356
 9248SOL    HW139377   1.910   3.910  12.560  0.0233  0.1633 -0.8542
 9248SOL    HW239378   1.807   4.013  12.559 -1.0636 -0.4821 -1.5742
 9249SOL     OW39379   0.318   3.686  14.022 -0.6185 -0.3822  0.3994
 9249SOL    HW139380   0.264   3.608  14.038 -0.9391  0.3274  2.6474
 9249SOL    HW239381   0.312   3.747  14.094  1.9572  0.2997  0.0343
 9250SOL     OW39382   4.243   4.153   6.909 -0.6083  0.2366 -0.5547
 9250SOL    HW139383   4.276   4.174   6.822  0.3141  0.4696 -0.1503
 9250SOL    HW239384   4.318   4.102   6.940 -1.0779 -0.6270 -0.8211
 9251SOL     OW39385   0.249   2.504   8.529  0.5561 -0.3056  0.1356
 9251SOL    HW139386   0.281   2.506   8.620  2.0025 -1.3101 -0.3533
 9251SOL    HW239387   0.193   2.582   8.531  0.8063 -0.1535  1.4464
 9252SOL     OW39388   1.163   4.081   4.869 -0.2860 -0.2336  0.2360
 9252SOL    HW139389   1.159   3.986   4.858 -2.5721  0.2274 -2.9029
 9252SOL    HW239390   1.073   4.107   4.890  0.3571  3.3155 -1.2891
 9253SOL     OW39391   1.090   2.201   0.278  0.4725  0.2971  0.7245
 9253SOL    HW139392   1.144   2.130   0.313  0.6092  0.0174 -0.0562
 9253SOL    HW239393   1.113   2.209   0.186 -2.0740 -0.3584  0.0500
 9254SOL     OW39394   3.193   1.810   9.058 -0.4427 -0.0439  0.2854
 9254SOL    HW139395   3.285   1.818   9.033 -0.6952  3.1429  0.2650
 9254SOL    HW239396   3.163   1.900   9.075 -0.3411 -0.3105  1.8885
 9255SOL     OW39397   4.370   1.047   3.983  0.3463  0.6502 -0.0784
 9255SOL    HW139398   4.346   0.963   4.023  1.1969  0.5873  0.3059
 9255SOL    HW239399   4.383   1.020   3.892  0.8343 -1.0378  0.4852
 9256SOL     OW39400   0.402   4.510   9.963  0.0646  0.3977  0.0459
 9256SOL    HW139401   0.394   4.451  10.038 -0.9295 -0.8472 -1.0359
 9256SOL    HW239402   0.406   4.444   9.894 -0.8577  1.6011 -1.1424
 9257SOL     OW39403   0.921   2.460   4.421  0.6587 -0.1260 -0.0200
 9257SOL    HW139404   0.913   2.465   4.326 -0.9046 -0.1337  0.1174
 9257SOL    HW239405   0.989   2.525   4.439 -0.4210  0.8357  0.5727
 9258SOL     OW39406   3.976   2.408   1.930  0.8263 -0.0519 -0.4352
 9258SOL    HW139407   4.054   2.457   1.956  1.4257 -1.3213  0.1262
 9258SOL    HW239408   3.996   2.365   1.847  1.3126  1.3391 -1.0379
 9259SOL     OW39409   3.789   3.140   6.848 -0.1082  0.3709 -0.1504
 9259SOL    HW139410   3.779   3.140   6.752 -2.2001  2.1458  0.0516
 9259SOL    HW239411   3.696   3.132   6.872  0.4079 -0.8777  1.3623
 9260SOL     OW39412   3.074   3.276   3.609 -0.0277  0.1422  0.1285
 9260SOL    HW139413   3.165   3.278   3.579  0.5331  1.3275  1.9277
 9260SOL    HW239414   3.015   3.298   3.537 -1.0837 -2.8445  0.0618
 9261SOL     OW39415   3.334   3.870   4.094  0.5712  0.3853 -0.5535
 9261SOL    HW139416   3.365   3.840   4.009 -1.5667  1.6650 -1.7864
 9261SOL    HW239417   3.250   3.823   4.095  1.1363 -0.6431 -1.2593
 9262SOL     OW39418   2.118   0.352   2.612 -0.3181 -0.0794 -0.0647
 9262SOL    HW139419   2.130   0.436   2.569 -1.7512  1.5000  2.5872
 9262SOL    HW239420   2.125   0.373   2.705  1.8180 -3.6829  0.5767
 9263SOL     OW39421   2.710   3.775   6.810  0.5488  0.5435 -0.0431
 9263SOL    HW139422   2.715   3.861   6.769  2.2029  0.6395  0.3579
 9263SOL    HW239423   2.627   3.751   6.769  1.7833 -2.3560 -0.8832
 9264SOL     OW39424   3.307   1.542   4.569 -0.4049 -0.0127  0.2243
 9264SOL    HW139425   3.299   1.451   4.539  0.8764  0.2355 -0.8801
 9264SOL    HW239426   3.338   1.575   4.485 -1.7902 -0.6519 -0.5338
 9265SOL     OW39427   1.441   2.688   5.628  0.4000 -0.0480 -0.1152
 9265SOL    HW139428   1.366   2.747   5.637  0.8792  0.5422  0.0201
 9265SOL    HW239429   1.425   2.613   5.684  0.2472 -0.1488 -0.2915
 9266SOL     OW39430   4.067   2.080  16.618  0.1335 -0.0762  0.2858
 9266SOL    HW139431   4.118   2.022  16.674  3.6753  1.4443 -1.4164
 9266SOL    HW239432   3.978   2.060  16.646 -0.0696 -0.6593 -0.7851
 9267SOL     OW39433   1.092   4.389  17.287  0.2236  0.2980 -0.9048
 9267SOL    HW139434   1.022   4.334  17.250 -1.1336  1.2399  0.2654
 9267SOL    HW239435   1.140   4.327  17.342  1.1243  3.1827  1.5539
 9268SOL     OW39436   1.825   4.208  16.816  0.4151  1.0228  0.4202
 9268SOL    HW139437   1.744   4.241  16.856 -0.8359 -0.7894 -0.5989
 9268SOL    HW239438   1.882   4.283  16.833  0.2802  0.8098  1.8376
 9269SOL     OW39439   1.476   3.995  10.155  0.1611 -0.1000  0.6636
 9269SOL    HW139440   1.465   4.005  10.060  1.2583  1.9067  0.7476
 9269SOL    HW239441   1.529   4.070  10.181 -0.7026  0.1730  1.6333
 9270SOL     OW39442   2.201   0.794  11.792 -0.3173  0.2148  0.6539
 9270SOL    HW139443   2.245   0.710  11.778 -0.0458  0.3171  0.9018
 9270SOL    HW239444   2.168   0.782  11.881  0.9869 -1.0613  0.9610
 9271SOL     OW39445   4.077   3.970   3.060 -1.1283  0.1806 -0.0379
 9271SOL    HW139446   4.067   3.921   2.978 -0.8037 -0.4065  0.2717
 9271SOL    HW239447   4.158   4.017   3.040  0.0524 -1.1657  1.5960
 9272SOL     OW39448   1.123   1.341   2.296 -0.5838  0.4522 -0.1345
 9272SOL    HW139449   1.140   1.431   2.322  0.0937 -0.2498  1.7880
 9272SOL    HW239450   1.210   1.303   2.297 -1.0548 -0.6508 -0.4282
 9273SOL     OW39451   0.348   2.174  12.039 -0.0569 -0.5277 -0.2579
 9273SOL    HW139452   0.307   2.225  12.109  1.7963 -0.5227  0.8159
 9273SOL    HW239453   0.436   2.166  12.075  0.3970 -0.1680 -1.2789
 9274SOL     OW39454   2.187   4.322   6.331 -0.0093 -0.0564  0.1610
 9274SOL    HW139455   2.271   4.315   6.377  0.2597  1.8466 -0.0430
 9274SOL    HW239456   2.183   4.233   6.295 -0.1989 -1.1407  2.8335
 9275SOL     OW39457   1.680   0.199  11.736  0.3214  0.6128  0.0840
 9275SOL    HW139458   1.623   0.197  11.813  0.2369  0.9334  0.0325
 9275SOL    HW239459   1.768   0.185  11.770  0.1623  0.8122  0.5755
 9276SOL     OW39460   0.105   1.615   9.473 -0.2138 -0.0220  0.4388
 9276SOL    HW139461   0.194   1.617   9.509  1.5833 -2.6915 -3.7575
 9276SOL    HW239462   0.065   1.543   9.522 -0.6257  0.2902  0.5543
 9277SOL     OW39463   4.716   2.732   1.637 -0.1274 -0.2265 -0.0223
 9277SOL    HW139464   4.674   2.728   1.551 -0.6693 -1.1114  0.2806
 9277SOL    HW239465   4.737   2.640   1.651  0.6572  0.0796  0.7756
 9278SOL     OW39466   4.540   0.754  15.241 -0.3626 -0.5504 -0.2130
 9278SOL    HW139467   4.627   0.722  15.263  0.2783  1.2506 -0.1616
 9278SOL    HW239468   4.536   0.707  15.158  3.8805  0.1710 -0.8105
 9279SOL     OW39469   1.371   3.467  13.023 -0.3935 -0.6409  0.2206
 9279SOL    HW139470   1.458   3.497  12.996  0.3348 -2.1077  0.9541
 9279SOL    HW239471   1.349   3.401  12.957 -1.1209 -0.0127 -0.1748
 9280SOL     OW39472   4.089   1.028   8.420 -0.3280  0.3605  0.4376
 9280SOL    HW139473   4.087   1.043   8.326  0.0592 -0.7862  0.2441
 9280SOL    HW239474   4.109   1.113   8.459  1.8499  0.0711 -0.0444
 9281SOL     OW39475   0.510   4.061  13.845  0.1598  0.4034  0.6440
 9281SOL    HW139476   0.570   4.135  13.836 -0.4855  0.8050 -0.2653
 9281SOL    HW239477   0.479   4.049  13.755  0.1364 -0.3625  0.7553
 9282SOL     OW39478   3.626   1.635   7.287 -0.4089 -0.0730 -0.0149
 9282SOL    HW139479   3.603   1.590   7.206  1.6181  0.9973 -1.1927
 9282SOL    HW239480   3.578   1.718   7.277 -0.8192 -0.3228 -0.1380
 9283SOL     OW39481   1.917   1.991   2.796 -0.3252  0.2197 -0.3927
 9283SOL    HW139482   1.926   1.917   2.735 -0.3471 -0.9349  1.0087
 9283SOL    HW239483   1.905   1.943   2.878  1.4177 -1.6018 -1.1965
 9284SOL     OW39484   3.073   2.784   6.197 -0.3572  0.4479 -0.0310
 9284SOL    HW139485   3.120   2.803   6.115  1.8030  0.2314  1.1662
 9284SOL    HW239486   3.002   2.726   6.169  0.2113 -0.3119  0.0898
 9285SOL     OW39487   1.693   1.100  13.336  0.5433  0.0046 -0.2108
 9285SOL    HW139488   1.771   1.153  13.352  0.7426 -0.5877  0.7594
 9285SOL    HW239489   1.692   1.116  13.241 -1.3911 -2.1597 -0.5435
 9286SOL     OW39490   2.948   2.994  12.190  0.4169 -0.4045  0.1127
 9286SOL    HW139491   2.922   3.067  12.247 -3.0521 -1.0541 -0.6416
 9286SOL    HW239492   2.871   2.998  12.132 -1.5040 -2.7847  2.4595
 9287SOL     OW39493   2.182   3.831   3.923  0.1277 -0.2798 -0.3893
 9287SOL    HW139494   2.172   3.818   4.018  0.5281  0.4174 -0.2528
 9287SOL    HW239495   2.273   3.811   3.904  0.3530  0.4782 -0.0986
 9288SOL     OW39496   2.374   2.963  12.435 -0.2832  0.1096 -0.5017
 9288SOL    HW139497   2.282   2.939  12.432 -0.6290  0.6773  4.2673
 9288SOL    HW239498   2.415   2.887  12.394  0.7561  1.0598 -1.2306
 9289SOL     OW39499   0.481   0.990   6.591 -0.4039 -0.5990  0.4670
 9289SOL    HW139500   0.455   0.921   6.530  2.0637  1.1810 -2.5990
 9289SOL    HW239501   0.397   1.025   6.621 -1.9680 -2.7437 -1.3779
 9290SOL     OW39502   1.728   3.360  14.010 -0.1872  0.1269 -0.0187
 9290SOL    HW139503   1.779   3.370  14.091  0.2206  0.3000 -0.2954
 9290SOL    HW239504   1.720   3.265  14.000 -1.3380  0.0089  2.0980
 9291SOL     OW39505   2.472   2.752  12.296  0.2001  0.0250 -0.3507
 9291SOL    HW139506   2.551   2.728  12.247  0.4939  0.8571 -0.2940
 9291SOL    HW239507   2.427   2.789  12.220  1.5649  2.9708  0.2541
 9292SOL     OW39508   2.651   4.513   2.189  0.0831 -0.1063 -0.1882
 9292SOL    HW139509   2.707   4.436   2.181  0.9433  0.5979 -0.9797
 9292SOL    HW239510   2.647   4.538   2.097 -0.1391  1.4754  0.2343
 9293SOL     OW39511   0.276   2.540   9.362 -0.0782  0.5291  0.4358
 9293SOL    HW139512   0.207   2.603   9.383  1.1038  0.7263  3.6767
 9293SOL    HW239513   0.240   2.496   9.285 -1.4687 -0.1074  1.4326
 9294SOL     OW39514   2.880   2.970   7.073 -0.5395 -0.0615  0.1054
 9294SOL    HW139515   2.829   2.896   7.105  0.5994 -0.3330  1.2827
 9294SOL    HW239516   2.960   2.919   7.066 -0.1953  0.2868  1.5490
 9295SOL     OW39517   2.762   3.190   5.371 -0.0420 -0.2977  0.3433
 9295SOL    HW139518   2.708   3.232   5.439  1.7450 -1.2811  2.3555
 9295SOL    HW239519   2.851   3.211   5.400 -0.2712  2.0323 -0.5877
 9296SOL     OW39520   3.303   0.798   8.137  0.2553 -0.1008  0.0081
 9296SOL    HW139521   3.228   0.738   8.138  2.4223 -2.8350 -0.7772
 9296SOL    HW239522   3.353   0.780   8.216  1.8030  1.9204 -0.5173
 9297SOL     OW39523   2.527   3.524   2.116 -0.0029  0.0147 -0.1569
 9297SOL    HW139524   2.505   3.614   2.139 -1.4763 -1.1151  2.8764
 9297SOL    HW239525   2.591   3.542   2.047 -0.8716  0.0693 -0.9536
 9298SOL     OW39526   1.055   4.548   4.252  0.7123  0.1068  0.0756
 9298SOL    HW139527   0.980   4.577   4.199 -1.0910 -2.3665  1.2542
 9298SOL    HW239528   1.005   4.504   4.321  0.8122  4.0231  2.6385
 9299SOL     OW39529   1.890   3.327   1.845  0.2887  0.0407  0.1089
 9299SOL    HW139530   1.930   3.302   1.928  1.5898  0.6271 -0.3229
 9299SOL    HW239531   1.967   3.376   1.813 -1.0696  1.4216 -1.0446
 9300SOL     OW39532   1.358   2.300   2.412 -0.8904  0.4793 -0.0820
 9300SOL    HW139533   1.393   2.289   2.500 -3.2585  0.8380  0.9000
 9300SOL    HW239534   1.358   2.396   2.409 -2.4978  0.4354 -1.6045
 9301SOL     OW39535   2.596   1.161   6.131 -0.0218  0.3750  0.2219
 9301SOL    HW139536   2.620   1.241   6.178  2.0843  0.4372 -0.9685
 9301SOL    HW239537   2.593   1.098   6.203 -1.2186 -0.2590 -0.4025
 9302SOL     OW39538   1.723   3.579   6.832 -0.3704  0.2031 -0.1709
 9302SOL    HW139539   1.762   3.580   6.920  0.6455 -0.0287 -0.6304
 9302SOL    HW239540   1.687   3.664   6.807 -0.3957  0.8390  1.9834
 9303SOL     OW39541   2.839   1.147  11.976 -0.0973  0.0759  0.0356
 9303SOL    HW139542   2.753   1.184  11.994 -0.5825 -0.5559 -0.9863
 9303SOL    HW239543   2.859   1.093  12.053  1.2037 -0.0407 -0.3770
 9304SOL     OW39544   0.471   1.881  16.029 -0.2360 -0.3619 -0.5632
 9304SOL    HW139545   0.447   1.789  16.021  0.8445 -0.4186 -3.2472
 9304SOL    HW239546   0.529   1.888  15.953  1.1162 -1.1215  0.3978
 9305SOL     OW39547   3.635   0.369   3.113 -0.8128  0.0069 -0.5537
 9305SOL    HW139548   3.678   0.300   3.163  1.3500  1.8076  0.0397
 9305SOL    HW239549   3.579   0.328   3.046  0.1464  2.0775 -2.6418
 9306SOL     OW39550   3.095   0.695  17.519 -0.0955 -0.6622  0.3441
 9306SOL    HW139551   3.139   0.647  17.449 -0.4157 -1.9023  0.9851
 9306SOL    HW239552   3.146   0.665  17.594 -0.1528 -0.5799  0.4160
 9307SOL     OW39553   0.839   0.099   3.427 -0.0528  0.0612 -0.0891
 9307SOL    HW139554   0.924   0.128   3.462  0.0363 -0.2090 -0.0827
 9307SOL    HW239555   0.814   0.035   3.493 -0.4707  1.0168  0.6822
 9308SOL     OW39556   4.343   3.790   9.708 -0.0254  0.6098 -0.5368
 9308SOL    HW139557   4.313   3.881   9.708 -2.2211 -0.1051  1.7627
 9308SOL    HW239558   4.375   3.779   9.798  2.0508  0.5160 -1.3056
 9309SOL     OW39559   1.839   0.819   1.885  0.1384 -0.5144 -0.0954
 9309SOL    HW139560   1.744   0.823   1.887  0.1850  0.4937  0.0515
 9309SOL    HW239561   1.856   0.913   1.897 -0.3938 -0.6593  1.8007
 9310SOL     OW39562   2.825   3.688   4.390 -0.3609  0.9085 -0.0183
 9310SOL    HW139563   2.741   3.733   4.381 -0.2550  0.8651 -1.2595
 9310SOL    HW239564   2.792   3.603   4.359  1.2411  0.5801 -0.8212
 9311SOL     OW39565   2.196   0.950   2.890  0.4753  0.5995 -0.0442
 9311SOL    HW139566   2.213   1.036   2.929  1.0273  0.2400  0.5013
 9311SOL    HW239567   2.285   0.917   2.880  0.1305 -0.3676  0.0622
 9312SOL     OW39568   2.150   2.137  10.059 -0.2044 -0.2780 -0.3745
 9312SOL    HW139569   2.198   2.219  10.051 -1.3763  0.6334  2.0286
 9312SOL    HW239570   2.211   2.069  10.032  1.7463  2.0005 -1.6725
 9313SOL     OW39571   3.995   1.685   3.739 -0.5262 -0.6781 -0.9247
 9313SOL    HW139572   4.024   1.690   3.648  1.2395  0.3399 -0.2983
 9313SOL    HW239573   3.980   1.778   3.757  2.8025 -0.0499 -1.4421
 9314SOL     OW39574   2.444   1.389  11.225 -0.7151  0.6286 -0.5492
 9314SOL    HW139575   2.497   1.463  11.195 -0.0065  0.8068  1.1073
 9314SOL    HW239576   2.407   1.432  11.303  2.3544  0.0245  1.2622
 9315SOL     OW39577   1.303   3.550   1.518  0.2259 -0.2858 -0.2304
 9315SOL    HW139578   1.384   3.545   1.569  2.7980  0.9380 -4.0994
 9315SOL    HW239579   1.308   3.640   1.485  0.0861 -0.5193 -0.8970
 9316SOL     OW39580   4.333   3.993  13.906 -0.0625  0.2670  0.9067
 9316SOL    HW139581   4.271   3.941  13.956  0.0960 -0.2488  0.5620
 9316SOL    HW239582   4.275   4.054  13.860 -0.5068 -1.2477 -0.5456
 9317SOL     OW39583   3.298   3.157   8.219 -1.1741 -0.0765 -0.5864
 9317SOL    HW139584   3.215   3.108   8.219 -1.0449 -0.2833 -1.7718
 9317SOL    HW239585   3.299   3.184   8.311 -1.8840 -1.6349 -0.1156
 9318SOL     OW39586   1.263   0.290  11.242 -0.5066  0.2454 -0.2871
 9318SOL    HW139587   1.257   0.274  11.148  1.1686  0.0901 -0.3695
 9318SOL    HW239588   1.344   0.241  11.256  1.0988  3.6743  2.4487
 9319SOL     OW39589   0.301   0.650   6.009  0.4100  0.4405  0.1250
 9319SOL    HW139590   0.342   0.695   5.935 -0.7746  1.5433  0.1497
 9319SOL    HW239591   0.225   0.621   5.959  1.5909 -1.8689 -0.3334
 9320SOL     OW39592   0.434   0.375   3.161  0.6424  0.4974 -0.3807
 9320SOL    HW139593   0.415   0.423   3.242  3.9066 -0.0610  0.7201
 9320SOL    HW239594   0.483   0.441   3.112  2.4565  0.5109  1.4089
 9321SOL     OW39595   4.704   2.252   4.969 -0.4830  0.0581 -0.2165
 9321SOL    HW139596   4.608   2.260   4.972 -0.4108  0.2329  2.1090
 9321SOL    HW239597   4.715   2.209   5.054  1.2610  0.6863 -0.1220
 9322SOL     OW39598   1.439   2.455   5.749  0.2717 -0.1451 -0.0072
 9322SOL    HW139599   1.506   2.416   5.693 -0.0005  2.5592 -2.1914
 9322SOL    HW239600   1.364   2.439   5.691 -0.0789 -1.8135  0.9079
 9323SOL     OW39601   1.918   1.924   9.383  0.9557 -0.0144  0.1021
 9323SOL    HW139602   1.924   2.019   9.375  0.4327  0.1648  1.7423
 9323SOL    HW239603   1.977   1.899   9.312 -1.5824  0.5610 -2.2127
 9324SOL     OW39604   0.031   4.724  12.107  0.5621  0.0836 -0.6410
 9324SOL    HW139605   0.072   4.721  12.194  0.5773  0.2313 -0.6425
 9324SOL    HW239606   0.103   0.024  12.058  1.7988  0.0910  1.1700
 9325SOL     OW39607   3.044   2.775   5.404  0.1784 -0.0899 -0.9400
 9325SOL    HW139608   3.115   2.828   5.367  1.3502 -0.1162  1.2479
 9325SOL    HW239609   2.970   2.790   5.345  0.0083  1.3545 -0.3494
 9326SOL     OW39610   0.516   3.535   3.239 -0.2686  0.0166  0.6128
 9326SOL    HW139611   0.454   3.599   3.203  1.1088  1.4605  0.8125
 9326SOL    HW239612   0.520   3.575   3.326  1.5565  2.7352 -0.7104
 9327SOL     OW39613   2.315   3.308  13.970 -0.0923 -0.3219  0.0548
 9327SOL    HW139614   2.411   3.308  13.964 -0.1226 -1.4149 -0.4026
 9327SOL    HW239615   2.309   3.264  14.055  0.4245 -1.5179 -0.5178
 9328SOL     OW39616   3.977   1.325   0.149 -0.0459 -0.3707  0.4838
 9328SOL    HW139617   3.925   1.352   0.225  1.0969 -2.1130  1.8942
 9328SOL    HW239618   3.941   1.383   0.083  0.8607 -0.3037  0.0523
 9329SOL     OW39619   0.804   0.650   1.896  0.1272 -0.3906 -0.2831
 9329SOL    HW139620   0.818   0.668   1.803 -1.7836  1.3881 -0.2297
 9329SOL    HW239621   0.718   0.693   1.899 -0.3386 -1.3087 -0.1532
 9330SOL     OW39622   4.265   2.798   6.901  0.3992  0.3267  0.1953
 9330SOL    HW139623   4.289   2.834   6.816 -2.1366  1.8345  0.1148
 9330SOL    HW239624   4.175   2.830   6.910  0.8729  1.6880  0.0056
 9331SOL     OW39625   2.152   0.944  16.434 -0.0630  0.0377 -0.1099
 9331SOL    HW139626   2.076   0.915  16.383 -0.9821  1.3433  0.5265
 9331SOL    HW239627   2.154   0.870  16.494 -1.7105  0.4595  0.4424
 9332SOL     OW39628   1.880   3.660   2.477 -0.7278  0.0305 -0.1418
 9332SOL    HW139629   1.906   3.604   2.550 -1.6084  1.4468  1.2897
 9332SOL    HW239630   1.924   3.742   2.499  2.1089 -2.0133  1.6734
 9333SOL     OW39631   1.268   3.469   5.376 -0.6408 -0.3537 -0.3754
 9333SOL    HW139632   1.325   3.510   5.311 -1.3317 -3.2799 -2.7842
 9333SOL    HW239633   1.262   3.544   5.436 -0.3385 -1.9401  1.6430
 9334SOL     OW39634   0.831   2.929   0.245 -0.0655  0.0675 -0.2190
 9334SOL    HW139635   0.852   3.018   0.218  2.2633 -0.1752  0.8142
 9334SOL    HW239636   0.751   2.911   0.196  0.0487  0.4830 -0.5589
 9335SOL     OW39637   0.269   2.700   2.774  0.3209  0.6622 -0.5570
 9335SOL    HW139638   0.335   2.672   2.711 -0.8636 -0.4244 -1.3205
 9335SOL    HW239639   0.202   2.742   2.721 -0.5201 -0.2137 -0.1968
 9336SOL     OW39640   1.629   3.734   2.552 -0.2697  0.4005 -0.0741
 9336SOL    HW139641   1.710   3.716   2.505  0.2567  0.5625  0.7813
 9336SOL    HW239642   1.614   3.820   2.512  0.6992  0.1706 -0.9251
 9337SOL     OW39643   1.070   2.603   0.134 -0.5294 -0.1583 -0.7370
 9337SOL    HW139644   1.018   2.593   0.054 -0.0831 -0.6480 -0.9671
 9337SOL    HW239645   1.095   2.695   0.122 -1.0687  0.3181  1.8496
 9338SOL     OW39646   0.692   0.576  12.913 -0.6802 -0.1686 -0.1175
 9338SOL    HW139647   0.730   0.522  12.845 -2.6319 -0.6517 -0.8216
 9338SOL    HW239648   0.667   0.658  12.870  0.1651  0.0306 -0.2226
 9339SOL     OW39649   1.462   3.345  10.770  0.5232 -0.7419 -0.0279
 9339SOL    HW139650   1.551   3.333  10.805 -0.0517  2.3200  2.5489
 9339SOL    HW239651   1.434   3.425  10.814  0.9494  0.4887 -1.9714
 9340SOL     OW39652   1.694   1.322   4.656 -0.6162 -0.2248 -0.3495
 9340SOL    HW139653   1.756   1.356   4.592 -0.2900  0.9217  0.5737
 9340SOL    HW239654   1.732   1.234   4.666  0.1865  0.2301  0.6783
 9341SOL     OW39655   4.456   2.818   7.132 -0.2802  0.3048 -0.0468
 9341SOL    HW139656   4.392   2.804   7.062  1.6904 -0.2164 -1.7442
 9341SOL    HW239657   4.524   2.858   7.077  0.7607 -1.9297 -0.3775
 9342SOL     OW39658   1.413   3.400   9.083  0.1043  0.1133 -0.0297
 9342SOL    HW139659   1.328   3.376   9.045 -0.1385  0.7473  0.1127
 9342SOL    HW239660   1.417   3.352   9.166 -1.7726  1.2953  0.7492
 9343SOL     OW39661   1.595   0.064   9.043 -0.2508  0.2109  0.0998
 9343SOL    HW139662   1.641   0.091   9.123 -0.9046  1.7239 -0.0414
 9343SOL    HW239663   1.503   0.076   9.066 -1.0786 -1.2362 -2.5653
 9344SOL     OW39664   1.351   1.090   9.116 -0.0659  0.0521  0.3796
 9344SOL    HW139665   1.290   1.017   9.129 -1.3067  1.1001  0.5158
 9344SOL    HW239666   1.407   1.054   9.047 -0.1498 -0.5974  0.6579
 9345SOL     OW39667   3.087   1.752   2.222  0.3243 -0.0355 -0.4132
 9345SOL    HW139668   3.115   1.715   2.306 -1.0163 -2.0517 -0.8413
 9345SOL    HW239669   3.027   1.684   2.193 -0.2197  0.9022 -1.4691
 9346SOL     OW39670   3.445   4.588   7.755  0.2920  0.5576  0.4622
 9346SOL    HW139671   3.449   4.526   7.682  0.6313  2.3377 -1.0330
 9346SOL    HW239672   3.526   4.632   7.728  0.7935 -0.1021  0.8903
 9347SOL     OW39673   1.572   4.343  14.661 -0.6345  0.3867  0.1229
 9347SOL    HW139674   1.523   4.261  14.667 -1.5616  0.7115 -3.3660
 9347SOL    HW239675   1.579   4.371  14.753 -1.6455 -3.5488  1.3853
 9348SOL     OW39676   3.945   0.997   7.830  0.7350 -0.0266  0.0111
 9348SOL    HW139677   3.859   0.957   7.817  0.7065  0.7346 -2.0484
 9348SOL    HW239678   3.999   0.954   7.765 -0.8555  0.0295 -1.3501
 9349SOL     OW39679   4.290   3.582   6.447  0.2147 -0.1412  0.0076
 9349SOL    HW139680   4.233   3.504   6.441 -1.6586  1.2519 -0.2818
 9349SOL    HW239681   4.298   3.597   6.353 -1.3775 -0.0857 -0.1159
 9350SOL     OW39682   4.304   1.743   3.881 -0.1213  0.2299 -0.1076
 9350SOL    HW139683   4.274   1.659   3.915  1.5103 -0.1320  0.3962
 9350SOL    HW239684   4.337   1.721   3.794 -0.7871 -0.9093 -0.0729
 9351SOL     OW39685   1.614   0.029   3.460  0.2589 -0.7178  0.6690
 9351SOL    HW139686   1.564   0.012   3.540  0.2137 -0.4408  0.6992
 9351SOL    HW239687   1.691   4.713   3.479  1.8152  1.2725 -0.0979
 9352SOL     OW39688   2.227   2.253   1.313 -0.5728 -0.0180 -0.4687
 9352SOL    HW139689   2.264   2.309   1.245  0.5672  0.8690  0.8872
 9352SOL    HW239690   2.134   2.271   1.296 -0.8739  0.0002  1.1465
 9353SOL     OW39691   1.478   2.998   2.328 -0.3388  0.0161 -0.6285
 9353SOL    HW139692   1.517   3.083   2.349  1.2367 -0.1646 -2.7483
 9353SOL    HW239693   1.393   3.018   2.288  1.2499  0.5714 -3.7340
 9354SOL     OW39694   3.542   3.291   1.417  0.1039  0.4135 -0.0825
 9354SOL    HW139695   3.544   3.274   1.323  1.3362  1.6384 -0.2744
 9354SOL    HW239696   3.515   3.214   1.467 -0.2008  0.6802  0.1599
 9355SOL     OW39697   4.050   4.557   2.349 -0.6797 -0.3527  0.0542
 9355SOL    HW139698   4.140   4.546   2.318 -0.8178  1.6934 -1.0490
 9355SOL    HW239699   4.042   4.623   2.280  2.3512 -0.4765 -0.4451
 9356SOL     OW39700   1.870   2.221  14.708 -0.5910  0.5100 -0.3454
 9356SOL    HW139701   1.811   2.294  14.727  0.1678 -0.2429  4.9939
 9356SOL    HW239702   1.835   2.152  14.765 -2.7283  0.6033 -1.5532
 9357SOL     OW39703   3.276   2.282   7.601  0.2432  0.5473 -0.2444
 9357SOL    HW139704   3.327   2.229   7.539  0.5685  0.6477 -0.0604
 9357SOL    HW239705   3.351   2.326   7.641  1.1941 -1.2776 -0.0188
 9358SOL     OW39706   0.998   3.347  12.421 -0.1619 -0.0434 -0.5244
 9358SOL    HW139707   0.980   3.441  12.430  0.9123  0.0725  0.3366
 9358SOL    HW239708   0.985   3.328  12.514  0.3425  0.4456 -0.3573
 9359SOL     OW39709   2.703   2.272   4.132 -0.1941  0.2726  0.7201
 9359SOL    HW139710   2.714   2.366   4.120  2.1556 -0.1545 -0.3491
 9359SOL    HW239711   2.674   2.253   4.043  0.2157  0.5203  0.5341
 9360SOL     OW39712   0.496   3.596   5.857 -0.2033 -0.2849 -0.3934
 9360SOL    HW139713   0.516   3.524   5.917 -1.7838 -1.6758 -1.5584
 9360SOL    HW239714   0.548   3.664   5.900 -2.5495  1.7146 -0.7603
 9361SOL     OW39715   3.130   2.313  12.872  0.1983  0.3810 -0.2681
 9361SOL    HW139716   3.069   2.386  12.861 -0.9768 -0.0619  3.2480
 9361SOL    HW239717   3.174   2.323  12.956 -1.1557 -1.8173  0.7185
 9362SOL     OW39718   3.631   2.368   8.318  0.2835 -0.5267  0.4360
 9362SOL    HW139719   3.711   2.320   8.295  1.1059  0.2696  1.5949
 9362SOL    HW239720   3.598   2.323   8.396  0.1953 -0.5927  0.3608
 9363SOL     OW39721   0.375   2.263   5.171  0.1999  0.3622 -0.0123
 9363SOL    HW139722   0.376   2.178   5.128  3.5821 -0.6911  2.1675
 9363SOL    HW239723   0.456   2.295   5.133  0.9260 -0.3095  0.9768
 9364SOL     OW39724   0.155   1.894  16.553  0.1030 -0.4846  0.5961
 9364SOL    HW139725   0.158   1.989  16.544 -3.1550 -0.4946 -0.4451
 9364SOL    HW239726   0.090   1.867  16.488  1.8481 -3.4317  0.1005
 9365SOL     OW39727   1.863   4.248   2.056 -0.2396 -0.2317 -0.5078
 9365SOL    HW139728   1.816   4.197   2.122  2.5129 -1.5034  0.4713
 9365SOL    HW239729   1.908   4.308   2.115  0.4196 -0.4621 -0.7753
 9366SOL     OW39730   2.812   0.557   3.049 -0.2574  0.2765  0.5520
 9366SOL    HW139731   2.804   0.594   2.961  2.8041  0.1152  0.2206
 9366SOL    HW239732   2.884   0.607   3.088 -0.4773 -1.0785  2.6822
 9367SOL     OW39733   3.156   1.633   0.721 -0.1710  0.0606  0.2201
 9367SOL    HW139734   3.218   1.624   0.794 -0.7339 -0.0721  0.6808
 9367SOL    HW239735   3.206   1.694   0.667 -0.6847 -0.9079 -1.3376
 9368SOL     OW39736   0.978   0.990   7.976  0.0689 -0.2144  0.1153
 9368SOL    HW139737   0.911   1.052   7.946  0.4568 -0.4347 -1.2313
 9368SOL    HW239738   0.956   0.926   7.908 -0.2335  0.9656 -0.8972
 9369SOL     OW39739   3.122   0.427   7.227  0.5945 -0.2012  0.4063
 9369SOL    HW139740   3.208   0.448   7.261  0.3998  1.4873 -0.1594
 9369SOL    HW239741   3.072   0.437   7.308  0.1156  1.9863 -0.1769
 9370SOL     OW39742   3.897   3.967   5.412 -0.0434 -0.6274 -0.4572
 9370SOL    HW139743   3.903   4.012   5.327 -2.0615  0.3101 -0.1170
 9370SOL    HW239744   3.812   4.005   5.435  0.4394 -0.5103  1.0782
 9371SOL     OW39745   4.377   3.771   4.279 -0.2815  0.5528  0.3633
 9371SOL    HW139746   4.357   3.863   4.259  0.4139  0.6734  0.2163
 9371SOL    HW239747   4.325   3.753   4.357  2.0392 -1.4304  1.4520
 9372SOL     OW39748   3.277   4.339   4.771 -0.3974 -0.2342 -0.6160
 9372SOL    HW139749   3.264   4.420   4.723  2.0209  0.9244  0.6928
 9372SOL    HW239750   3.190   4.324   4.809  0.4737  0.2033  1.5265
 9373SOL     OW39751   1.491   0.336   7.421 -0.6331 -0.0092  0.0552
 9373SOL    HW139752   1.581   0.309   7.435 -0.3151  0.4843 -1.0989
 9373SOL    HW239753   1.452   0.318   7.507  0.2788 -0.1755  0.4324
 9374SOL     OW39754   0.577   0.639   4.353 -0.3450 -0.3348  1.1486
 9374SOL    HW139755   0.564   0.593   4.436 -1.8388 -0.8380  0.6464
 9374SOL    HW239756   0.671   0.658   4.350 -0.3332 -0.5825 -0.2889
 9375SOL     OW39757   2.704   2.978   3.483  0.1696 -0.0874  0.8889
 9375SOL    HW139758   2.697   2.884   3.472  0.3281 -0.3143  2.6231
 9375SOL    HW239759   2.771   2.983   3.551  3.1654 -3.9205 -1.7816
 9376SOL     OW39760   0.101   1.208  10.126 -0.6893  0.1864 -0.2277
 9376SOL    HW139761   0.118   1.201  10.220  0.5985  0.3728 -0.4419
 9376SOL    HW239762   0.015   1.167  10.119 -0.4998 -0.1771 -0.4515
 9377SOL     OW39763   3.694   2.358   3.003 -0.3389 -0.0380  0.5794
 9377SOL    HW139764   3.685   2.425   3.071  0.3562  0.0261  0.6116
 9377SOL    HW239765   3.696   2.275   3.051  0.2539  0.0180  0.6574
 9378SOL     OW39766   1.082   4.089   7.120  0.2803  0.5415  0.2432
 9378SOL    HW139767   1.134   4.012   7.144  1.4320  1.1209 -0.3725
 9378SOL    HW239768   1.097   4.096   7.026 -2.8765 -0.2592 -0.3173
 9379SOL     OW39769   4.045   4.295   2.486 -0.5651 -0.0612  0.1679
 9379SOL    HW139770   4.019   4.380   2.450 -1.6626 -0.6126 -0.3459
 9379SOL    HW239771   4.131   4.316   2.522  0.5086 -1.0842 -1.7789
 9380SOL     OW39772   1.373   4.611   6.016  0.7522  0.2323 -0.1265
 9380SOL    HW139773   1.349   4.680   6.077  0.7776 -0.6011  0.8370
 9380SOL    HW239774   1.436   4.554   6.060  1.8316  0.9071 -0.7985
 9381SOL     OW39775   2.034   0.727   5.336 -0.2501  0.3967  0.6836
 9381SOL    HW139776   2.107   0.750   5.277 -2.6048  0.5238 -2.1692
 9381SOL    HW239777   2.014   0.816   5.364 -1.2739  0.7276 -1.0948
 9382SOL     OW39778   4.538   3.141   8.126  0.0260  0.1913 -0.1113
 9382SOL    HW139779   4.606   3.081   8.094  0.6040  0.6663  0.2343
 9382SOL    HW239780   4.517   3.105   8.213  1.3617  1.2119  0.6312
 9383SOL     OW39781   1.215   1.963   4.963  0.2900  0.7124 -0.2972
 9383SOL    HW139782   1.275   1.938   4.893  0.8393  0.6000  0.2234
 9383SOL    HW239783   1.222   1.888   5.022 -1.0785  1.5588  0.9674
 9384SOL     OW39784   2.615   0.075   3.025  0.2677  0.1748 -0.2192
 9384SOL    HW139785   2.625   0.153   3.080 -0.2858  1.3488 -1.7756
 9384SOL    HW239786   2.520   0.061   3.018  0.4572 -1.2461  0.0855
 9385SOL     OW39787   4.215   3.480   3.383  0.6135  0.0454  0.1448
 9385SOL    HW139788   4.242   3.474   3.291  0.5286 -0.3658  0.1463
 9385SOL    HW239789   4.146   3.414   3.378  0.8832 -0.1567 -0.9036
 9386SOL     OW39790   0.323   4.626   1.415  0.0527  0.2803  0.4908
 9386SOL    HW139791   0.249   4.678   1.384 -0.1240  0.6324  1.4921
 9386SOL    HW239792   0.318   4.539   1.374  1.6399  0.6922 -0.5589
 9387SOL     OW39793   2.080   3.107   6.817  0.0466 -0.1554  0.1399
 9387SOL    HW139794   2.120   3.049   6.753  0.2105  0.9934 -0.8053
 9387SOL    HW239795   1.994   3.112   6.776  0.8832  2.1457 -1.3506
 9388SOL     OW39796   3.138   0.588   2.646 -0.4527 -0.5987 -0.3559
 9388SOL    HW139797   3.109   0.557   2.560 -1.8481  0.2858 -0.2201
 9388SOL    HW239798   3.101   0.521   2.703 -0.1572 -0.6982 -0.2843
 9389SOL     OW39799   1.061   4.442   6.881 -0.0381 -0.1621 -0.1989
 9389SOL    HW139800   1.123   4.514   6.893  1.0207 -0.5872 -3.1210
 9389SOL    HW239801   1.094   4.382   6.948 -1.6683  0.0319  0.7594
 9390SOL     OW39802   3.904   2.657   5.673 -0.3288  0.4447 -0.1143
 9390SOL    HW139803   3.904   2.679   5.766 -1.7920 -1.3018  0.3148
 9390SOL    HW239804   3.889   2.745   5.638  4.1195  0.8858 -0.8789
 9391SOL     OW39805   2.624   3.798   3.050 -0.3461  0.4920  0.3029
 9391SOL    HW139806   2.531   3.788   3.070 -0.2498 -1.5835 -0.3196
 9391SOL    HW239807   2.662   3.718   3.085 -1.5649 -0.5093 -0.6733
 9392SOL     OW39808   2.439   4.264  11.834 -0.3256 -0.8144  0.0131
 9392SOL    HW139809   2.374   4.216  11.885 -2.5551  0.5598 -1.4994
 9392SOL    HW239810   2.517   4.212  11.854  1.1965  2.0978  1.7060
 9393SOL     OW39811   0.868   0.562   2.999  0.4164  0.0109 -0.0484
 9393SOL    HW139812   0.866   0.532   2.908  0.6207 -0.1600  0.0036
 9393SOL    HW239813   0.963   0.577   3.001  0.2575  1.1572 -0.7355
 9394SOL     OW39814   4.342   1.714   6.209 -0.4668  0.0788 -0.4521
 9394SOL    HW139815   4.258   1.692   6.167  1.3899 -0.2632 -4.0217
 9394SOL    HW239816   4.396   1.750   6.138 -0.7438 -0.6509 -1.0373
 9395SOL     OW39817   2.232   3.504  11.546  0.0478  0.1309 -0.2448
 9395SOL    HW139818   2.288   3.499  11.624  1.5762 -0.8441 -1.4012
 9395SOL    HW239819   2.167   3.436  11.564  0.3814 -0.0631  0.2276
 9396SOL     OW39820   2.510   2.416   7.785 -0.2608 -0.5005 -1.0028
 9396SOL    HW139821   2.590   2.465   7.766  0.0405 -1.1723 -1.5045
 9396SOL    HW239822   2.553   2.333   7.808 -0.3707 -0.3921 -0.4036
 9397SOL     OW39823   4.003   0.891   0.365  0.4328 -0.2150 -0.2816
 9397SOL    HW139824   3.953   0.821   0.323  0.2970  0.5709 -1.4322
 9397SOL    HW239825   3.943   0.966   0.360  0.1731 -0.3958  0.1528
 9398SOL     OW39826   2.277   4.134   5.461  0.1891  0.2942 -0.3061
 9398SOL    HW139827   2.207   4.110   5.521  1.8473  2.3352  2.4128
 9398SOL    HW239828   2.342   4.102   5.525 -0.5167 -0.8442 -0.1523
 9399SOL     OW39829   1.914   3.073   0.812  0.1636 -0.0413 -0.4879
 9399SOL    HW139830   1.952   3.051   0.727  0.8643  1.0410 -0.4588
 9399SOL    HW239831   1.828   3.031   0.804  0.5471 -0.7781 -0.6550
 9400SOL     OW39832   3.672   0.486   5.436 -0.2022  0.1029  0.6468
 9400SOL    HW139833   3.612   0.452   5.370  0.6567  2.1417 -1.1887
 9400SOL    HW239834   3.609   0.497   5.508  0.9668  2.2164  1.3504
 9401SOL     OW39835   4.248   0.943   6.680 -0.0569  0.1061  0.3077
 9401SOL    HW139836   4.271   0.854   6.708  0.6910  0.1945 -0.0206
 9401SOL    HW239837   4.326   0.975   6.635  0.1328 -1.6668 -0.6457
 9402SOL     OW39838   3.954   0.182  14.731  0.2335  0.1685  0.0458
 9402SOL    HW139839   3.991   0.259  14.687  1.8345 -0.8598 -0.3749
 9402SOL    HW239840   4.034   0.138  14.761 -1.5394 -3.6728 -0.8966
 9403SOL     OW39841   2.647   2.045   3.513 -0.1256  0.1620 -0.1393
 9403SOL    HW139842   2.705   2.119   3.532 -0.2683  0.0284  0.8514
 9403SOL    HW239843   2.683   2.010   3.432 -2.1180 -0.3743 -0.7676
 9404SOL     OW39844   4.318   0.923  12.080  0.5380 -0.2357 -0.7789
 9404SOL    HW139845   4.332   0.995  12.019 -1.4824 -1.3059 -2.5535
 9404SOL    HW239846   4.380   0.864  12.037  1.2850  1.1658 -1.5851
 9405SOL     OW39847   0.151   3.057   5.591 -0.1358 -0.5359  0.5198
 9405SOL    HW139848   0.067   3.087   5.557  0.2940  0.8782  0.7121
 9405SOL    HW239849   0.163   3.087   5.681 -1.3879 -0.2959  0.5957
 9406SOL     OW39850   3.389   1.589   7.540 -0.1855  0.4474 -0.2439
 9406SOL    HW139851   3.356   1.620   7.625  0.8156  1.8321 -0.3604
 9406SOL    HW239852   3.478   1.563   7.563  0.1264  2.9398  1.3736
 9407SOL     OW39853   2.907   0.605   6.021  0.1760  0.3457 -0.2387
 9407SOL    HW139854   2.975   0.629   6.085  0.3595 -1.0812  0.1059
 9407SOL    HW239855   2.825   0.629   6.064  0.5743  1.7807 -0.2823
 9408SOL     OW39856   0.665   2.803   2.410 -0.4237 -0.2985 -0.7670
 9408SOL    HW139857   0.595   2.839   2.464 -1.7091 -0.3724 -2.3987
 9408SOL    HW239858   0.655   2.865   2.338  1.9173  2.0125  0.8763
 9409SOL     OW39859   0.563   4.243   6.505  0.0429 -0.2571  0.5217
 9409SOL    HW139860   0.634   4.297   6.471 -2.5602  2.0853 -1.1634
 9409SOL    HW239861   0.603   4.156   6.503 -1.3537 -0.9613  2.6938
 9410SOL     OW39862   4.548   4.650   7.477 -0.1811 -0.2030 -0.1723
 9410SOL    HW139863   4.497   4.572   7.460  0.2680 -0.7809  1.1115
 9410SOL    HW239864   4.531   4.661   7.571 -0.6931 -2.1397 -0.0521
 9411SOL     OW39865   0.713   3.145   7.151  0.1073 -0.2622 -0.3817
 9411SOL    HW139866   0.623   3.151   7.184  0.4447 -0.1149  0.5213
 9411SOL    HW239867   0.770   3.153   7.228  1.9261 -1.9337 -1.5697
 9412SOL     OW39868   4.550   2.437   1.316 -0.4516  0.2796 -0.2307
 9412SOL    HW139869   4.582   2.527   1.324  0.9628 -0.3001  0.7047
 9412SOL    HW239870   4.588   2.416   1.231  0.1023  0.8464 -0.1190
 9413SOL     OW39871   2.264   0.994  15.723  0.4787 -0.3616 -0.4611
 9413SOL    HW139872   2.285   1.014  15.814 -1.4160 -1.0885  0.1233
 9413SOL    HW239873   2.184   1.044  15.737 -1.4008 -3.1996 -1.1170
 9414SOL     OW39874   2.681   0.539  11.346  0.1448 -0.2095 -0.5746
 9414SOL    HW139875   2.702   0.598  11.273 -0.1442  0.6268  0.0269
 9414SOL    HW239876   2.757   0.481  11.352  0.2129  0.0040  0.4782
 9415SOL     OW39877   4.542   3.586  12.540 -0.8133 -0.7113 -0.2792
 9415SOL    HW139878   4.593   3.664  12.518  0.2641 -0.3819  3.5022
 9415SOL    HW239879   4.467   3.598  12.481  0.7855  1.9488 -1.7578
 9416SOL     OW39880   2.028   2.321  14.512  0.1155 -0.4762 -0.0671
 9416SOL    HW139881   2.085   2.243  14.511 -1.2243 -1.4406 -0.9646
 9416SOL    HW239882   1.968   2.298  14.584  2.5359 -0.8172  1.8634
 9417SOL     OW39883   0.387   1.155   0.828 -0.4832 -0.2502  0.4519
 9417SOL    HW139884   0.346   1.234   0.863 -1.3599  0.6464 -2.5691
 9417SOL    HW239885   0.317   1.092   0.811 -0.8754  0.0708  0.8936
 9418SOL     OW39886   2.295   4.347   1.971  0.0816 -0.0937  0.0599
 9418SOL    HW139887   2.217   4.315   1.925 -1.5088  2.2583  1.1351
 9418SOL    HW239888   2.286   4.442   1.971  1.7928  0.0775 -1.8583
 9419SOL     OW39889   0.552   4.241   1.889 -0.2741  0.5766  0.1500
 9419SOL    HW139890   0.471   4.249   1.940 -0.7907 -1.9455 -0.2936
 9419SOL    HW239891   0.582   4.152   1.907 -2.2396  0.1863  1.4701
 9420SOL     OW39892   2.699   4.488   9.034  0.0369 -0.4910  0.6364
 9420SOL    HW139893   2.755   4.491   9.112  0.6174  2.0488  0.0997
 9420SOL    HW239894   2.765   4.511   8.969 -0.3886  0.1026  0.4106
 9421SOL     OW39895   2.120   2.955   4.248 -0.2532 -0.3217 -0.4407
 9421SOL    HW139896   2.033   2.914   4.240 -0.8180  0.9769 -0.9197
 9421SOL    HW239897   2.087   3.041   4.274  1.7595 -0.1262  1.4060
 9422SOL     OW39898   4.035   2.028   9.321  0.4421 -0.1820 -0.0713
 9422SOL    HW139899   3.970   1.998   9.257 -0.6413  1.4076  0.2690
 9422SOL    HW239900   3.994   2.030   9.408 -0.6017  1.2604 -0.5926
 9423SOL     OW39901   3.735   1.659   6.387  0.5629  0.2499 -0.0311
 9423SOL    HW139902   3.799   1.719   6.349  0.3915  1.0911  1.0244
 9423SOL    HW239903   3.694   1.707   6.459 -2.0011 -0.6990 -0.8826
 9424SOL     OW39904   4.437   1.916   2.657 -0.3167  0.1537 -0.5278
 9424SOL    HW139905   4.465   1.827   2.678 -1.6295  0.3456  2.0499
 9424SOL    HW239906   4.395   1.934   2.741  1.3757  1.0936  0.1118
 9425SOL     OW39907   0.595   2.829  11.581  0.5831  0.5181 -0.3209
 9425SOL    HW139908   0.611   2.840  11.675 -1.5831 -3.3456  0.4772
 9425SOL    HW239909   0.540   2.904  11.559  1.5258  0.8474 -1.5689
 9426SOL     OW39910   1.308   2.463   3.528 -0.0327  0.2241 -0.2379
 9426SOL    HW139911   1.213   2.462   3.537 -0.0197  2.3953  0.1224
 9426SOL    HW239912   1.330   2.529   3.462  0.1513  0.5356  0.1328
 9427SOL     OW39913   0.909   3.388   3.355  0.0340 -0.1392 -0.1332
 9427SOL    HW139914   0.970   3.435   3.299 -1.5800  2.1008 -0.0297
 9427SOL    HW239915   0.967   3.323   3.395  1.3492  0.1809 -1.5695
 9428SOL     OW39916   3.414   2.347   1.762  0.5791 -0.7812  0.0268
 9428SOL    HW139917   3.441   2.383   1.846  1.6023 -2.2549  0.3183
 9428SOL    HW239918   3.326   2.319   1.787 -0.7515  1.8363 -1.7011
 9429SOL     OW39919   1.437   3.241   2.051  0.3297 -0.1041 -0.1852
 9429SOL    HW139920   1.492   3.305   2.004  1.6797 -0.8911  0.3338
 9429SOL    HW239921   1.391   3.290   2.119  0.1155 -0.2788 -0.2075
 9430SOL     OW39922   3.803   2.431  16.193  0.1677 -0.1491  0.0241
 9430SOL    HW139923   3.813   2.438  16.098 -0.2799  1.7527  0.1207
 9430SOL    HW239924   3.891   2.398  16.214  0.1109  0.5785  1.3443
 9431SOL     OW39925   3.796   4.458   3.845  0.4536 -0.0890 -0.0498
 9431SOL    HW139926   3.890   4.451   3.829  1.2383  1.8372  3.7060
 9431SOL    HW239927   3.769   4.372   3.878 -0.3410 -0.1131 -0.7377
 9432SOL     OW39928   1.195   2.229   3.310  0.2659 -0.3482  0.5801
 9432SOL    HW139929   1.186   2.294   3.379 -2.0873  0.1995 -0.2318
 9432SOL    HW239930   1.195   2.146   3.358  0.0163 -0.4598  0.3924
 9433SOL     OW39931   2.776   2.524   3.186 -0.8081  0.5153 -0.1172
 9433SOL    HW139932   2.737   2.443   3.219 -2.2951  1.4301  0.3552
 9433SOL    HW239933   2.730   2.538   3.104 -0.2336  0.5568 -0.4288
 9434SOL     OW39934   2.363   0.004   3.083 -0.3095  0.4095 -0.5255
 9434SOL    HW139935   2.347   0.063   3.157  0.1335  0.3516 -0.3811
 9434SOL    HW239936   2.345   4.657   3.124  1.7293 -0.1799 -0.8472
 9435SOL     OW39937   4.231   3.807   4.547  0.4615 -0.1195 -0.5823
 9435SOL    HW139938   4.249   3.753   4.624 -1.1400  2.6907  1.7790
 9435SOL    HW239939   4.135   3.814   4.544  0.3979 -0.2655  1.1853
 9436SOL     OW39940   2.159   0.361  16.429 -0.1256  0.0353 -0.4335
 9436SOL    HW139941   2.165   0.271  16.399  0.8001  0.5897 -1.9270
 9436SOL    HW239942   2.228   0.399  16.374 -0.1773 -0.5498 -0.9032
 9437SOL     OW39943   4.696   2.847   8.345 -0.3694 -0.3401  0.1430
 9437SOL    HW139944   4.735   2.931   8.322 -1.7402  1.0296  2.8156
 9437SOL    HW239945   4.638   2.864   8.419  1.3672 -2.4753  2.0062
 9438SOL     OW39946   2.343   4.473   2.520 -0.0229 -0.1114 -0.9706
 9438SOL    HW139947   2.305   4.530   2.453  1.4925  0.2981 -1.4671
 9438SOL    HW239948   2.301   4.495   2.603  1.6335 -0.2233 -0.1020
 9439SOL     OW39949   4.331   1.923  13.019 -0.3003 -0.0606 -0.0684
 9439SOL    HW139950   4.317   2.017  13.021 -0.8545 -0.1635  0.8961
 9439SOL    HW239951   4.247   1.887  13.048  1.2414 -2.0532  2.0082
 9440SOL     OW39952   4.510   0.505  16.271 -0.1745  0.6737 -0.4804
 9440SOL    HW139953   4.558   0.560  16.209 -0.2954 -0.0532 -1.2171
 9440SOL    HW239954   4.420   0.500  16.239  0.0061  2.7592 -1.2818
 9441SOL     OW39955   1.496   2.836   2.123  0.1834 -0.4666  0.2285
 9441SOL    HW139956   1.525   2.917   2.081 -1.8401  1.1215  1.9241
 9441SOL    HW239957   1.486   2.856   2.216 -0.2121 -2.4434  0.6179
 9442SOL     OW39958   0.862   1.493   1.596  0.6225  0.2557 -0.4503
 9442SOL    HW139959   0.816   1.532   1.671  0.4900  1.5513 -1.1922
 9442SOL    HW239960   0.942   1.545   1.589  1.1343 -0.3494  0.8723
 9443SOL     OW39961   1.631   0.388   2.479 -0.0507 -0.2116  0.2663
 9443SOL    HW139962   1.703   0.434   2.522  1.2998 -0.5086 -1.6833
 9443SOL    HW239963   1.680   0.313   2.445  1.5325  0.7677  0.4090
 9444SOL     OW39964   0.433   4.136   5.350  0.3376  0.0494  0.6911
 9444SOL    HW139965   0.431   4.051   5.393  0.2561 -0.2941  0.0081
 9444SOL    HW239966   0.406   4.195   5.421 -2.3419 -1.1251  0.6313
 9445SOL     OW39967   4.620   1.668  13.868  0.4361  0.7182  0.0302
 9445SOL    HW139968   4.563   1.732  13.912  0.2182  1.0584 -0.7335
 9445SOL    HW239969   4.567   1.632  13.796  0.4501  1.9727 -0.6133
 9446SOL     OW39970   0.463   4.260   9.286  0.3866  0.0844  0.3098
 9446SOL    HW139971   0.533   4.200   9.260  1.4641  0.3824  2.4998
 9446SOL    HW239972   0.514   4.328   9.331 -2.2222  2.1800  0.1089
 9447SOL     OW39973   1.791   4.143  16.543 -0.0917  0.0730 -0.0977
 9447SOL    HW139974   1.812   4.151  16.637  0.7267  0.4110 -0.3035
 9447SOL    HW239975   1.731   4.217  16.542 -0.8229 -0.5307 -0.6386
 9448SOL     OW39976   0.042   3.624   4.977 -0.0819 -0.0353 -0.0508
 9448SOL    HW139977   0.024   3.579   4.895 -0.6756 -0.6825  0.4322
 9448SOL    HW239978   4.691   3.651   5.001  0.3049  1.7229 -0.5638
 9449SOL     OW39979   3.166   1.399   7.043  0.1632  0.4519 -0.6839
 9449SOL    HW139980   3.171   1.304   7.053  0.0533  0.6155  0.9273
 9449SOL    HW239981   3.190   1.428   7.131  0.9681 -1.7259 -0.1803
 9450SOL     OW39982   2.305   3.993  13.914  0.0796 -0.1283  0.1601
 9450SOL    HW139983   2.376   4.003  13.977 -1.2228  1.2091  1.4235
 9450SOL    HW239984   2.284   4.086  13.909 -0.2422 -0.1502  1.1627
 9451SOL     OW39985   1.727   3.839   0.229 -0.1737 -0.6233  0.3388
 9451SOL    HW139986   1.737   3.801   0.142 -0.4604  1.9628 -0.8124
 9451SOL    HW239987   1.791   3.909   0.223 -1.2241  0.4739  1.8079
 9452SOL     OW39988   2.036   0.556   4.972  0.4011 -0.2265 -0.1314
 9452SOL    HW139989   2.068   0.646   4.983 -1.2562  0.4300 -0.5688
 9452SOL    HW239990   2.113   0.505   4.951 -1.2622 -1.7610 -2.5262
 9453SOL     OW39991   4.720   1.519   2.926 -0.3351  0.4582  0.2764
 9453SOL    HW139992   0.061   1.558   2.965  0.0149 -1.1730  1.2174
 9453SOL    HW239993   4.699   1.453   2.992 -0.9034  0.4666  0.1050
 9454SOL     OW39994   3.409   1.712   4.833 -0.4662 -0.2132 -0.3897
 9454SOL    HW139995   3.342   1.648   4.854  0.3122 -0.5670  1.0398
 9454SOL    HW239996   3.399   1.713   4.738 -1.3302 -1.2163 -0.3041
 9455SOL     OW39997   3.514   4.140   2.087  0.3222  0.1032  0.4836
 9455SOL    HW139998   3.568   4.145   2.166  1.1991  0.9473 -0.1684
 9455SOL    HW239999   3.538   4.226   2.053 -0.8962 -0.5663 -2.0633
 9456SOL     OW40000   2.978   1.266   3.256  0.3815  0.5838  0.3217
 9456SOL    HW140001   2.946   1.356   3.249 -0.2310  0.4127  0.9421
 9456SOL    HW240002   3.035   1.264   3.179  1.1555 -0.5168  0.9142
 9457SOL     OW40003   1.471   4.675   8.506 -0.5620  0.4859  0.1974
 9457SOL    HW140004   1.558   4.636   8.509 -0.4340  0.6001 -2.0382
 9457SOL    HW240005   1.473   4.729   8.585 -0.4225 -0.5004  0.8720
 9458SOL     OW40006   2.224   1.967   4.344  0.2537 -0.1968  0.1207
 9458SOL    HW140007   2.317   1.981   4.327  0.6308  0.1851  2.4830
 9458SOL    HW240008   2.191   1.946   4.257  0.6173 -0.5223  0.0596
 9459SOL     OW40009   0.491   3.095   2.112 -0.2785  0.0785 -0.0993
 9459SOL    HW140010   0.435   3.066   2.184  1.4567  0.7600  1.5213
 9459SOL    HW240011   0.434   3.080   2.036  3.2022 -1.3629 -2.3990
 9460SOL     OW40012   0.275   1.515  11.351 -0.0754  0.4188 -0.0973
 9460SOL    HW140013   0.302   1.423  11.360 -0.0302  0.4293 -0.1268
 9460SOL    HW240014   0.330   1.547  11.423  0.6245 -0.4974 -0.2209
 9461SOL     OW40015   0.094   3.207   4.443 -0.2061  0.7743  0.2454
 9461SOL    HW140016   0.140   3.277   4.397  0.0191 -0.3552 -1.2421
 9461SOL    HW240017   0.002   3.232   4.430  0.6257  3.2661 -0.7839
 9462SOL     OW40018   1.966   1.046   3.527 -0.0134 -0.5447  0.1083
 9462SOL    HW140019   1.978   1.002   3.444 -0.8852  1.8463 -1.2921
 9462SOL    HW240020   1.918   1.124   3.497 -0.1642 -0.7779 -0.2514
 9463SOL     OW40021   1.967   4.161   5.163  0.1283  0.3604 -0.0834
 9463SOL    HW140022   1.976   4.228   5.095  2.1103 -0.5485 -0.7319
 9463SOL    HW240023   1.991   4.082   5.114  1.1345  0.8918 -0.4491
 9464SOL     OW40024   4.532   2.389   2.838  0.6249  0.3354 -0.2562
 9464SOL    HW140025   4.522   2.352   2.750 -1.6448 -1.4313  0.7419
 9464SOL    HW240026   4.456   2.347   2.878 -0.7643 -0.6073 -3.9070
 9465SOL     OW40027   0.267   4.535   7.480  0.0968  0.2154 -0.1557
 9465SOL    HW140028   0.181   4.562   7.450  0.0569 -0.6298 -0.8115
 9465SOL    HW240029   0.319   4.540   7.399 -0.3700 -1.4262 -0.5601
 9466SOL     OW40030   2.279   0.095   8.067  0.0810 -0.2659  0.1126
 9466SOL    HW140031   2.257   0.030   8.133 -1.1452 -0.4053 -0.4330
 9466SOL    HW240032   2.358   0.131   8.108  1.5895 -2.7499 -0.6702
 9467SOL     OW40033   3.994   4.481   9.536  0.1311 -0.5852  0.0792
 9467SOL    HW140034   4.035   4.478   9.450 -1.2817  0.3340 -0.6284
 9467SOL    HW240035   4.057   4.437   9.594  1.4524  2.0750  0.6413
 9468SOL     OW40036   3.817   2.618  13.147  0.1060  0.2259 -0.3746
 9468SOL    HW140037   3.811   2.572  13.230 -0.1000  0.4304 -0.2753
 9468SOL    HW240038   3.903   2.658  13.154  0.1384 -0.2063  1.5720
 9469SOL     OW40039   2.834   2.558   3.780  0.1209 -0.1293 -0.0264
 9469SOL    HW140040   2.873   2.613   3.848  0.2492  0.7552 -0.8149
 9469SOL    HW240041   2.833   2.474   3.826  2.0685 -0.2751 -0.2496
 9470SOL     OW40042   2.438   0.113   7.717 -0.4199 -0.0626 -0.3517
 9470SOL    HW140043   2.355   0.071   7.737  0.1231  0.1213  2.4321
 9470SOL    HW240044   2.443   0.159   7.801 -2.0122  1.7286 -1.2425
 9471SOL     OW40045   1.114   3.242   4.717  0.4899  0.0507 -0.3311
 9471SOL    HW140046   1.077   3.314   4.766 -0.7629 -0.7806 -0.0586
 9471SOL    HW240047   1.040   3.181   4.722 -0.4600  1.1121 -1.6146
 9472SOL     OW40048   2.412   2.053   0.336  0.5471  0.4235  0.0037
 9472SOL    HW140049   2.483   2.105   0.374  0.8978 -1.1720  1.5203
 9472SOL    HW240050   2.438   1.966   0.365  2.1889  0.1481 -2.2970
 9473SOL     OW40051   1.063   3.014   7.976  0.1421 -0.4316  0.4320
 9473SOL    HW140052   0.987   3.053   7.932  0.9620  1.2300  0.4587
 9473SOL    HW240053   1.039   2.922   7.971 -0.9119 -0.0680 -1.2541
 9474SOL     OW40054   1.565   2.508   8.391 -0.0488 -0.8598 -0.3113
 9474SOL    HW140055   1.591   2.493   8.300 -1.5595  0.5355 -0.9895
 9474SOL    HW240056   1.651   2.506   8.433 -0.3631  0.7815  0.4214
 9475SOL     OW40057   1.417   3.274  12.373  0.2327  0.3907 -0.1584
 9475SOL    HW140058   1.363   3.242  12.445 -2.6141  3.7475 -0.7864
 9475SOL    HW240059   1.500   3.265  12.420 -0.4149 -0.9327  0.7204
 9476SOL     OW40060   4.542   3.137   4.160 -0.0414 -0.2839 -0.3253
 9476SOL    HW140061   4.585   3.189   4.092 -0.2830 -0.6619 -0.7730
 9476SOL    HW240062   4.557   3.205   4.225 -3.1266  1.2596 -1.2256
 9477SOL     OW40063   1.904   1.645   4.607 -0.3596  0.2226 -0.0408
 9477SOL    HW140064   1.996   1.659   4.585 -0.2757  0.0450  0.2086
 9477SOL    HW240065   1.882   1.569   4.552  0.8057 -1.2304  1.5017
 9478SOL     OW40066   2.665   2.819   8.775 -0.2664 -0.4150  0.5626
 9478SOL    HW140067   2.583   2.867   8.790  0.9820  1.9599 -0.1193
 9478SOL    HW240068   2.708   2.877   8.712  1.9315 -3.0562 -0.3708
 9479SOL     OW40069   1.092   0.764   1.495 -0.0401  0.5219 -0.0638
 9479SOL    HW140070   1.036   0.759   1.418  0.2256 -1.3434 -0.1452
 9479SOL    HW240071   1.163   0.819   1.461 -0.2975  0.1574 -1.1987
 9480SOL     OW40072   0.060   3.297   6.470  0.4263  0.1721 -0.4791
 9480SOL    HW140073   0.015   3.268   6.391  1.1543  0.9042 -1.1516
 9480SOL    HW240074   0.025   3.384   6.488  2.0536  1.2050 -2.4507
 9481SOL     OW40075   4.198   2.400   1.607  0.1082  0.5289  0.3343
 9481SOL    HW140076   4.117   2.368   1.646 -1.0794  1.1178 -1.6310
 9481SOL    HW240077   4.251   2.321   1.607  0.0689  0.4863 -1.1491
 9482SOL     OW40078   1.850   3.222   8.444 -0.1269 -0.2528 -0.2678
 9482SOL    HW140079   1.872   3.303   8.399 -1.6480 -0.5436 -1.5346
 9482SOL    HW240080   1.756   3.210   8.430 -0.0874  1.6116 -2.0275
 9483SOL     OW40081   2.860   0.343   3.909  0.3297 -0.0736 -0.0479
 9483SOL    HW140082   2.871   0.438   3.907 -1.2385  0.1396  0.8660
 9483SOL    HW240083   2.947   0.311   3.929  0.1268 -1.9416 -2.1839
 9484SOL     OW40084   1.210   3.792  14.261 -0.0740 -0.5294 -0.5451
 9484SOL    HW140085   1.239   3.732  14.191 -1.0759 -2.2659  0.5298
 9484SOL    HW240086   1.205   3.879  14.222 -0.0375 -0.4939 -0.4677
 9485SOL     OW40087   0.555   2.302   6.252 -0.7145 -0.4666 -0.0215
 9485SOL    HW140088   0.492   2.367   6.222 -0.2445 -1.1503 -2.5050
 9485SOL    HW240089   0.506   2.231   6.294  0.7756 -2.5286 -1.7676
 9486SOL     OW40090   0.464   3.791   5.057 -0.0351 -0.4570 -0.3521
 9486SOL    HW140091   0.422   3.830   5.133 -0.9961  1.0593 -1.6640
 9486SOL    HW240092   0.498   3.711   5.097 -0.6502 -0.5732 -0.0579
 9487SOL     OW40093   2.010   1.297   9.553 -0.2709  0.1837  0.0606
 9487SOL    HW140094   2.003   1.329   9.463  0.3239 -1.5545 -0.5861
 9487SOL    HW240095   1.932   1.334   9.595 -0.1850 -0.0513  0.4316
 9488SOL     OW40096   3.307   3.636   2.726  0.0813 -0.1874  0.0455
 9488SOL    HW140097   3.363   3.712   2.740 -0.8993  0.4658  0.4050
 9488SOL    HW240098   3.261   3.642   2.810 -1.3204 -0.9221 -0.6672
 9489SOL     OW40099   3.217   2.272   4.225 -0.6283 -0.3591  0.2323
 9489SOL    HW140100   3.265   2.191   4.236  0.4679  0.5582  2.2640
 9489SOL    HW240101   3.265   2.315   4.155 -1.3739 -2.0193 -1.2768
 9490SOL     OW40102   3.281   1.245   0.922 -0.0696 -0.0532  0.1978
 9490SOL    HW140103   3.190   1.275   0.924 -0.2615 -0.5605 -0.9534
 9490SOL    HW240104   3.284   1.159   0.963 -1.7929 -0.3189 -0.2592
 9491SOL     OW40105   1.370   2.756   1.469 -0.2198  0.3540  0.3179
 9491SOL    HW140106   1.450   2.795   1.506  0.6410  0.1811 -1.3264
 9491SOL    HW240107   1.301   2.777   1.532 -1.2455 -0.2955 -0.5938
 9492SOL     OW40108   3.452   2.059  16.324 -0.0707 -0.0411 -0.2780
 9492SOL    HW140109   3.467   2.150  16.299  0.8763 -0.0760  0.1614
 9492SOL    HW240110   3.497   2.020  16.250  0.7079  4.0283 -1.9372
 9493SOL     OW40111   1.145   3.138   4.453 -0.1943  0.5878  0.0958
 9493SOL    HW140112   1.149   3.162   4.546 -0.0110  1.3828 -0.1132
 9493SOL    HW240113   1.063   3.090   4.447 -0.7021  1.1191  2.8689
 9494SOL     OW40114   3.169   1.333   2.268 -0.1617 -0.1447 -0.1286
 9494SOL    HW140115   3.176   1.281   2.348  1.4594 -0.8481 -0.7332
 9494SOL    HW240116   3.075   1.319   2.261 -0.6306  2.7479  0.2795
 9495SOL     OW40117   3.786   0.195  11.242  0.2832  0.1191 -0.8209
 9495SOL    HW140118   3.880   0.180  11.239  0.1499 -0.9252  0.1233
 9495SOL    HW240119   3.759   0.139  11.315 -1.1292  1.6496 -0.1684
 9496SOL     OW40120   3.954   0.661   6.561 -0.2109 -0.8159  0.2510
 9496SOL    HW140121   3.860   0.646   6.558  0.2781 -3.4246 -2.2049
 9496SOL    HW240122   3.983   0.607   6.634 -0.2519  0.0363  0.8874
 9497SOL     OW40123   2.147   0.560   8.774  0.9634 -0.3789  0.0577
 9497SOL    HW140124   2.219   0.601   8.727  1.4345 -0.8946  0.3223
 9497SOL    HW240125   2.065   0.609   8.765  0.4802 -1.0368  0.8102
 9498SOL     OW40126   3.123   2.676   3.938  0.0415 -0.1767  0.2705
 9498SOL    HW140127   3.092   2.759   3.973  0.6050  0.2729 -0.2995
 9498SOL    HW240128   3.213   2.682   3.969  1.0495  1.7170 -3.0784
 9499SOL     OW40129   1.771   1.721   6.867 -0.1469 -0.4151  0.6197
 9499SOL    HW140130   1.721   1.783   6.919  0.2789  0.9410 -0.5997
 9499SOL    HW240131   1.817   1.684   6.943  0.5380  0.6459  0.7132
 9500SOL     OW40132   4.083   4.608  10.157 -0.5297 -0.2384  0.5733
 9500SOL    HW140133   4.055   4.518  10.175 -3.7233  0.1852 -2.3905
 9500SOL    HW240134   4.054   4.621  10.067 -1.6192 -0.6402  0.8652
 9501SOL     OW40135   1.550   0.551   7.976 -0.4059  0.6600  0.1488
 9501SOL    HW140136   1.602   0.496   7.918 -1.2418  1.7872 -1.6666
 9501SOL    HW240137   1.529   0.496   8.051  0.6294 -1.8293 -1.3702
 9502SOL     OW40138   0.251   2.240   1.961 -0.5374  0.1138 -0.0426
 9502SOL    HW140139   0.272   2.329   1.990  0.1818 -0.5700  1.4945
 9502SOL    HW240140   0.254   2.192   2.043 -1.6261 -2.4735 -1.5155
 9503SOL     OW40141   3.662   0.014   4.870 -0.0160  0.0469 -0.2057
 9503SOL    HW140142   3.614   0.044   4.948  0.2452 -0.2108  0.0506
 9503SOL    HW240143   3.733   0.077   4.863  1.2599 -1.4556 -0.5271
 9504SOL     OW40144   3.618   2.399   5.816  0.5430  0.0279  0.7573
 9504SOL    HW140145   3.570   2.319   5.795 -1.8824  1.6319  0.2137
 9504SOL    HW240146   3.551   2.422   5.880 -0.3814  0.6552 -0.4324
 9505SOL     OW40147   3.175   0.258  15.511 -0.0393  0.1436 -0.5831
 9505SOL    HW140148   3.176   0.298  15.424  0.6263 -1.8795 -1.5043
 9505SOL    HW240149   3.081   0.237  15.505 -0.3261  0.9694  1.0649
 9506SOL     OW40150   3.375   4.365   3.178 -0.0562  0.0102  0.1087
 9506SOL    HW140151   3.397   4.366   3.085  1.0434 -1.1507  0.3646
 9506SOL    HW240152   3.280   4.373   3.189 -0.1553 -0.2423 -0.6438
 9507SOL     OW40153   3.749   1.267  17.222 -0.3735 -0.0567  0.0765
 9507SOL    HW140154   3.718   1.328  17.155 -0.0519  0.3983  0.3396
 9507SOL    HW240155   3.717   1.189  17.177  0.0675  0.5469 -1.2774
 9508SOL     OW40156   3.488   2.051   3.764 -0.0130 -0.0707  0.1869
 9508SOL    HW140157   3.521   2.065   3.676  2.0334 -2.3008  0.5882
 9508SOL    HW240158   3.533   2.125   3.805 -0.6614  1.4246 -1.8427
 9509SOL     OW40159   0.221   0.907  10.094  0.1767  0.5431  0.5673
 9509SOL    HW140160   0.236   0.819  10.129  0.0512  1.1991  2.2963
 9509SOL    HW240161   0.269   0.967  10.152 -1.3355  0.0545  2.3410
 9510SOL     OW40162   4.457   1.934   6.676  0.1470 -0.3670  0.0083
 9510SOL    HW140163   4.508   1.875   6.731 -0.0549 -0.6397 -0.0948
 9510SOL    HW240164   4.415   1.876   6.612  0.7298  0.0451 -0.7425
 9511SOL     OW40165   0.923   0.825   7.185 -0.3093 -0.8989  0.5184
 9511SOL    HW140166   0.988   0.774   7.232 -2.1312 -2.8999  0.8676
 9511SOL    HW240167   0.962   0.912   7.183 -2.8322  0.2897  2.3462
 9512SOL     OW40168   2.788   3.946   5.078  0.2978  0.1942  0.2074
 9512SOL    HW140169   2.732   3.900   5.016 -1.7222  4.1514 -0.8947
 9512SOL    HW240170   2.849   3.984   5.015  0.3032  1.0092  0.7005
 9513SOL     OW40171   0.135   2.159   9.285 -0.0616 -0.0130  0.0010
 9513SOL    HW140172   0.165   2.196   9.368  0.8823  0.0963 -0.3897
 9513SOL    HW240173   0.040   2.173   9.285  0.2692  2.2916  0.3017
 9514SOL     OW40174   4.491   2.583  14.635 -0.3080  0.0982  0.5392
 9514SOL    HW140175   4.584   2.579  14.658 -0.2097  1.5446  0.4012
 9514SOL    HW240176   4.490   2.612  14.544 -1.4076 -0.7828  0.2712
 9515SOL     OW40177   0.440   3.529   5.428 -0.1676 -0.2856 -0.2669
 9515SOL    HW140178   0.376   3.459   5.440 -1.5928  0.7158 -2.0032
 9515SOL    HW240179   0.480   3.522   5.514  0.2113  0.7354 -0.3547
 9516SOL     OW40180   0.963   1.072   7.632  0.2151  0.0959 -0.2271
 9516SOL    HW140181   1.051   1.068   7.594  0.2594 -0.3732 -0.0836
 9516SOL    HW240182   0.967   0.989   7.680 -0.2867 -0.3603 -0.9732
 9517SOL     OW40183   2.712   2.792  17.676 -0.1361 -0.1198 -0.1580
 9517SOL    HW140184   2.670   2.814   0.010  2.8611  0.8717  1.1262
 9517SOL    HW240185   2.652   2.725  17.642 -1.3446  0.7128  0.3681
 9518SOL     OW40186   3.329   0.757   1.526 -0.0204  0.0810  0.2545
 9518SOL    HW140187   3.330   0.693   1.455 -1.3971  2.3366 -1.7899
 9518SOL    HW240188   3.423   0.759   1.547  0.0869  1.3223 -0.2854
 9519SOL     OW40189   2.471   4.430   8.251  0.0104  0.6634 -0.1650
 9519SOL    HW140190   2.447   4.380   8.173  1.9557 -0.3762 -0.0897
 9519SOL    HW240191   2.393   4.431   8.307  0.3531 -0.1584  0.3311
 9520SOL     OW40192   4.668   1.863  15.437 -0.7044  0.5366 -0.4276
 9520SOL    HW140193   4.645   1.806  15.363  0.6941  1.3884 -1.5181
 9520SOL    HW240194   0.020   1.871  15.404 -0.6615 -1.8363 -0.9368
 9521SOL     OW40195   3.747   2.859  12.815  0.8183 -0.9474 -0.5415
 9521SOL    HW140196   3.706   2.942  12.839  1.5223 -0.7095 -0.1897
 9521SOL    HW240197   3.835   2.874  12.849  0.6086 -2.7159  0.8095
 9522SOL     OW40198   2.890   2.253   3.837  0.7668 -0.6124  0.3554
 9522SOL    HW140199   2.924   2.163   3.838  0.2450 -0.7958  1.0730
 9522SOL    HW240200   2.938   2.296   3.907  1.6890  1.4061 -1.5353
 9523SOL     OW40201   1.067   3.374   7.494  0.2599  0.0747  0.1219
 9523SOL    HW140202   1.086   3.326   7.575  0.6849  1.7612  1.0115
 9523SOL    HW240203   1.018   3.450   7.524  2.1668  0.1158  3.2093
 9524SOL     OW40204   3.974   1.546   8.431 -0.3888  0.1728  0.2069
 9524SOL    HW140205   4.048   1.516   8.378 -0.7741 -0.8892  0.2677
 9524SOL    HW240206   3.912   1.555   8.358  1.0872 -2.6733 -1.4103
 9525SOL     OW40207   2.396   0.340   3.636 -0.2742 -0.2112  0.2558
 9525SOL    HW140208   2.442   0.290   3.569 -0.0527  0.6980 -0.2660
 9525SOL    HW240209   2.377   0.275   3.704 -1.3325  0.7974  0.9268
 9526SOL     OW40210   2.353   4.652   7.391 -0.3627  0.5557  0.3922
 9526SOL    HW140211   2.332   4.635   7.483 -0.0881  2.2188  0.7702
 9526SOL    HW240212   2.368   4.566   7.353 -0.6469 -0.1592  1.9154
 9527SOL     OW40213   2.121   1.446   5.839  0.4273  0.0585 -0.1715
 9527SOL    HW140214   2.100   1.531   5.878 -1.3313 -0.5868  0.2700
 9527SOL    HW240215   2.200   1.462   5.787 -0.6144  1.8841 -1.1846
 9528SOL     OW40216   2.779   0.599  15.158  0.1060 -0.0701  0.2925
 9528SOL    HW140217   2.786   0.507  15.183  0.6919  0.3628  1.7567
 9528SOL    HW240218   2.764   0.593  15.064  1.3667 -1.3458  0.1616
 9529SOL     OW40219   3.021   3.781   6.690  0.2043  0.2116  0.2702
 9529SOL    HW140220   2.947   3.814   6.741 -0.1459  0.4882 -0.4069
 9529SOL    HW240221   3.095   3.809   6.743  0.2954  1.4406 -0.5079
 9530SOL     OW40222   4.090   1.023   6.273 -0.2367 -0.2914  0.1263
 9530SOL    HW140223   4.183   1.020   6.249 -0.7989  1.3567 -2.3308
 9530SOL    HW240224   4.087   0.934   6.306  0.7609 -0.2015  0.4829
 9531SOL     OW40225   2.747   4.484   4.524 -0.0748 -0.4579 -0.3712
 9531SOL    HW140226   2.840   4.471   4.505  0.6604  1.4034  1.8822
 9531SOL    HW240227   2.766   4.531   4.606 -1.6544  0.7931 -0.7137
 9532SOL     OW40228   1.373   1.426   1.761  0.1693 -0.1800  0.1091
 9532SOL    HW140229   1.463   1.409   1.734 -1.2022 -1.1378 -3.8110
 9532SOL    HW240230   1.384   1.476   1.842  1.2660 -0.6508  0.2388
 9533SOL     OW40231   0.716   3.335  10.943 -0.5351 -0.0267 -0.0642
 9533SOL    HW140232   0.690   3.325  11.035  0.8286 -1.7079  0.1421
 9533SOL    HW240233   0.655   3.277  10.897 -0.7499  1.2196 -1.3459
 9534SOL     OW40234   1.285   1.559   6.188  0.0887 -0.0614  0.0673
 9534SOL    HW140235   1.247   1.627   6.132 -0.8251  0.4053  1.2504
 9534SOL    HW240236   1.259   1.478   6.144  1.7059 -0.9400  0.7256
 9535SOL     OW40237   2.211   1.768   7.977  0.9995 -0.7594 -0.9127
 9535SOL    HW140238   2.194   1.836   7.913 -0.9872  0.4943  0.9627
 9535SOL    HW240239   2.251   1.815   8.050 -1.1110 -1.1818  0.5299
 9536SOL     OW40240   1.294   2.258   9.605  0.3086 -0.0411  0.2941
 9536SOL    HW140241   1.227   2.244   9.671  2.9916 -2.6340  2.4391
 9536SOL    HW240242   1.359   2.194   9.633 -1.5596 -1.4524  1.3624
 9537SOL     OW40243   0.101   3.614   6.819  0.4841 -0.4352 -0.2336
 9537SOL    HW140244   0.133   3.621   6.909  0.1073 -0.5588 -0.0925
 9537SOL    HW240245   0.090   3.707   6.799  1.7239 -0.1146  0.5510
 9538SOL     OW40246   0.816   1.450   5.707 -0.6221  0.2047 -0.0983
 9538SOL    HW140247   0.830   1.429   5.800 -0.0062  1.1084  0.0206
 9538SOL    HW240248   0.907   1.456   5.676 -0.4611 -0.6820  0.1937
 9539SOL     OW40249   1.095   1.731  16.341  0.5490  0.2807 -0.1435
 9539SOL    HW140250   1.161   1.790  16.379  0.7615 -0.1426  0.1434
 9539SOL    HW240251   1.027   1.757  16.403  0.7282  1.4066 -0.4142
 9540SOL     OW40252   3.162   0.510  16.085  0.0422  0.1294 -0.0079
 9540SOL    HW140253   3.252   0.485  16.067 -0.1558 -0.6922  0.1474
 9540SOL    HW240254   3.126   0.443  16.143 -1.8789  1.3262  0.1861
 9541SOL     OW40255   2.028   2.874  13.691 -0.3405  0.1680  0.1964
 9541SOL    HW140256   2.039   2.959  13.650 -0.0422 -0.9150 -1.9526
 9541SOL    HW240257   2.040   2.827  13.609 -1.0540  0.6406 -0.1785
 9542SOL     OW40258   2.177   1.747  12.850  0.2833  0.1404  0.3908
 9542SOL    HW140259   2.112   1.677  12.854 -0.2321  0.6325  0.6480
 9542SOL    HW240260   2.136   1.824  12.889 -0.3931  0.4015 -0.8322
 9543SOL     OW40261   3.791   1.458   8.781 -0.1091  0.3981  0.2918
 9543SOL    HW140262   3.834   1.385   8.739  0.5606  1.0607 -0.1671
 9543SOL    HW240263   3.854   1.530   8.778  0.8550 -0.3329  3.3777
 9544SOL     OW40264   3.172   1.609   8.342  0.2428 -0.2589  0.0714
 9544SOL    HW140265   3.185   1.700   8.315 -0.5480  0.0424  0.7096
 9544SOL    HW240266   3.120   1.623   8.421 -1.4918 -0.0611 -1.1168
 9545SOL     OW40267   1.406   3.729   5.045 -0.6476 -0.2219  1.0240
 9545SOL    HW140268   1.427   3.741   4.953 -1.9530 -0.3639  0.7036
 9545SOL    HW240269   1.374   3.639   5.040 -1.1494  0.0616 -0.6893
 9546SOL     OW40270   3.355   4.352  16.158 -0.1542  0.1293 -0.0909
 9546SOL    HW140271   3.296   4.277  16.166  1.0526 -0.7426  0.5775
 9546SOL    HW240272   3.301   4.427  16.184 -2.7642 -1.2058 -1.6726
 9547SOL     OW40273   0.495   0.573   4.639  0.1647 -0.3258 -0.3205
 9547SOL    HW140274   0.400   0.559   4.642  0.2556 -1.2699 -2.2112
 9547SOL    HW240275   0.502   0.639   4.708 -0.6736 -0.5684  0.0048
 9548SOL     OW40276   3.068   1.641  14.855  1.0418  0.5137  0.8307
 9548SOL    HW140277   2.998   1.694  14.892  1.5660  0.8472  1.3413
 9548SOL    HW240278   3.022   1.572  14.806  0.7730  1.5671 -0.4200
 9549SOL     OW40279   3.177   0.578   0.871 -0.0655 -0.5399  0.5191
 9549SOL    HW140280   3.095   0.529   0.856 -1.2767  1.2885  1.1733
 9549SOL    HW240281   3.237   0.537   0.809  1.2148 -0.5341  1.7619
 9550SOL     OW40282   4.414   2.240   0.199  0.6208  0.3577  0.4131
 9550SOL    HW140283   4.349   2.223   0.267  0.0939 -0.0742 -0.1931
 9550SOL    HW240284   4.385   2.176   0.133 -2.4291  2.6090 -0.4353
 9551SOL     OW40285   3.536   1.688   9.769  0.4303 -0.1154  0.0243
 9551SOL    HW140286   3.471   1.709   9.703  0.7505  0.3838 -0.1335
 9551SOL    HW240287   3.474   1.679   9.842 -0.3613  0.0788 -0.6314
 9552SOL     OW40288   3.825   3.692   5.513 -0.1239 -0.4369  0.2212
 9552SOL    HW140289   3.766   3.667   5.442  0.3841 -1.2896  0.0917
 9552SOL    HW240290   3.846   3.781   5.486 -0.3367 -0.3187  0.4454
 9553SOL     OW40291   3.715   1.497   5.832  0.6556 -0.2995  0.4524
 9553SOL    HW140292   3.800   1.528   5.801  1.8699 -1.6631  2.4076
 9553SOL    HW240293   3.746   1.408   5.850  2.0008 -0.1128 -0.9426
 9554SOL     OW40294   0.302   3.752   9.208  0.1403 -0.1270  0.3090
 9554SOL    HW140295   0.299   3.668   9.254 -0.6749 -0.2489  0.0303
 9554SOL    HW240296   0.223   3.745   9.156  0.3023  0.4192 -0.0049
 9555SOL     OW40297   1.274   2.567   9.779  0.4517 -0.1846 -0.3598
 9555SOL    HW140298   1.340   2.572   9.710  1.7128  1.3506  0.9598
 9555SOL    HW240299   1.296   2.487   9.826  1.4599  0.0851 -0.3839
 9556SOL     OW40300   3.363   0.102   4.412  0.3730 -0.2957 -0.9087
 9556SOL    HW140301   3.330   0.188   4.438 -1.6315 -1.1599 -0.5841
 9556SOL    HW240302   3.286   0.082   4.358 -0.7051 -0.7324  0.7869
 9557SOL     OW40303   1.908   1.959   8.173 -0.0914  0.0558 -0.0725
 9557SOL    HW140304   1.825   2.003   8.191 -0.0030  0.1176  0.1797
 9557SOL    HW240305   1.912   1.964   8.077 -0.9216  2.1397 -0.0099
 9558SOL     OW40306   0.647   2.623  11.398 -0.0953  0.2921 -0.4185
 9558SOL    HW140307   0.621   2.690  11.462  0.7843  0.1254  0.1016
 9558SOL    HW240308   0.714   2.671  11.350  1.9915 -2.4792 -0.2530
 9559SOL     OW40309   2.471   3.096   1.288 -0.4247  0.3676 -0.0877
 9559SOL    HW140310   2.490   3.007   1.259  1.6651  0.9736 -0.6223
 9559SOL    HW240311   2.376   3.091   1.295 -0.5902  0.2010 -2.4043
 9560SOL     OW40312   0.098   1.596   2.212  0.0127  0.5614 -0.2028
 9560SOL    HW140313   0.010   1.561   2.223 -0.4783  1.8825 -0.0078
 9560SOL    HW240314   0.104   1.652   2.289  0.2199 -1.7450  1.4587
 9561SOL     OW40315   0.784   1.260   1.830 -0.0877 -0.6107 -0.6011
 9561SOL    HW140316   0.749   1.345   1.855  0.4254 -1.4536  2.9360
 9561SOL    HW240317   0.699   1.228   1.799 -1.7460  1.9425  1.3437
 9562SOL     OW40318   2.124   2.582   2.088  0.6599 -0.0441 -0.0922
 9562SOL    HW140319   2.171   2.498   2.092  3.4857  1.4944 -0.7366
 9562SOL    HW240320   2.191   2.649   2.101 -0.3192  1.0168 -0.4850
 9563SOL     OW40321   4.487   1.930   5.123  0.0345  0.9666 -0.0790
 9563SOL    HW140322   4.516   1.935   5.215  1.1114  0.0144 -0.3629
 9563SOL    HW240323   4.397   1.962   5.129  0.4212  1.9757  0.4629
 9564SOL     OW40324   1.996   4.405   7.378 -0.3211  0.3452 -0.2631
 9564SOL    HW140325   1.988   4.391   7.472  1.4027  0.3350 -0.1151
 9564SOL    HW240326   2.021   4.497   7.370  1.8968 -0.1341  1.0442
 9565SOL     OW40327   4.510   2.386  12.959 -0.2391 -0.0936  0.3924
 9565SOL    HW140328   4.444   2.349  12.900  0.2236  0.5165 -0.4989
 9565SOL    HW240329   4.547   2.303  12.989 -1.2976 -0.6591  0.1463
 9566SOL     OW40330   4.585   4.343   7.104  0.1320 -0.3216  0.4383
 9566SOL    HW140331   4.644   4.410   7.140  1.1867 -0.1292 -1.6807
 9566SOL    HW240332   4.636   4.307   7.032 -0.1763  3.6806 -1.7768
 9567SOL     OW40333   4.456   2.498   2.112  0.0714 -0.4692  0.2355
 9567SOL    HW140334   4.454   2.403   2.115  0.5005 -0.5830 -2.6873
 9567SOL    HW240335   4.373   2.518   2.066  0.4506 -0.5695 -0.4995
 9568SOL     OW40336   2.981   1.332   1.874 -0.5060 -0.1607  0.2229
 9568SOL    HW140337   2.965   1.278   1.951  4.2356  0.0883  1.3484
 9568SOL    HW240338   2.939   1.274   1.810  0.6978 -1.1909  0.3662
 9569SOL     OW40339   1.978   2.472  11.086 -0.0869 -0.2599  0.1258
 9569SOL    HW140340   1.948   2.519  11.164  1.1501 -0.4841  0.7391
 9569SOL    HW240341   2.066   2.453  11.121  0.9000  0.2445 -2.0840
 9570SOL     OW40342   3.185   1.511   4.817 -0.2028  0.6330 -0.0812
 9570SOL    HW140343   3.223   1.485   4.733 -0.8963 -0.5018 -0.0462
 9570SOL    HW240344   3.094   1.483   4.808  0.6193 -2.5568  1.4391
 9571SOL     OW40345   2.469   4.517  16.340 -0.3261  0.3655  0.9440
 9571SOL    HW140346   2.545   4.460  16.350 -1.2457 -0.7831  1.3419
 9571SOL    HW240347   2.388   4.473  16.365 -0.4883 -1.1618 -2.2814
   4.73756   4.73756  17.74846
