Membrane in water
40347
    1TMC1    C1    1   0.862   4.126  12.148  0.0404  0.3797 -0.3154
    1TMC1    C2    2   0.787   4.061  12.049 -0.4335 -0.3970  0.2179
    1TMC1    C3    3   0.783   4.131  11.931  0.4507  0.0692  0.0795
    1TMC1    C4    4   0.919   4.248  12.142 -0.0242 -0.1494  0.2063
    1TMC1    C5    5   0.894   4.315  12.028  0.2383 -0.0779  0.4304
    1TMC1    C6    6   0.827   4.261  11.923  0.7221 -0.4102 -0.5208
    1TMC1     C    7   0.887   4.043  12.261 -0.5607 -0.1232 -0.0605
    1TMC1     O    8   0.783   3.992  12.305  0.0366 -0.1972 -0.3723
    1TMC1     H    9   0.752   3.960  12.065  0.7472 -0.4170  2.6349
    1TMC1    H1   10   0.974   4.297  12.221 -1.4516 -0.5962  1.4726
    1TMC1    H2   11   0.830   4.319  11.832  1.6525  2.1521  1.1603
    1TMC1    C7   12   0.956   4.447  11.999 -0.3715  0.1810  0.4653
    1TMC1    C8   13   0.656   4.107  11.877 -0.0926 -0.4484 -0.4598
    1TMC1    O1   14   0.975   4.487  11.882 -0.1172  0.0081 -0.1930
    1TMC1    O2   15   0.555   4.091  11.945  0.6904 -1.0765  0.3086
    1TMC1    O3   16   0.982   4.512  12.113 -0.5290 -0.1904  0.2249
    1TMC1    H3   17   0.921   4.495  12.189 -0.9271 -0.9580 -0.2597
    1TMC1    O5   18   0.664   4.185  11.766  0.0035 -0.5761 -0.5713
    1TMC1    H5   19   0.752   4.179  11.724  0.1075  2.2620 -0.7618
    2MPD2     C   20   1.183   3.853  12.635  0.3666  0.0161 -0.3324
    2MPD2    C1   21   1.051   3.836  12.603  0.1532 -0.0818 -0.9379
    2MPD2    C2   22   0.987   3.906  12.506  0.3432  0.1222 -0.2024
    2MPD2    C3   23   1.063   3.990  12.428 -0.0900  0.5707  0.0603
    2MPD2    C4   24   1.195   4.011  12.455 -0.2517  0.1454 -0.7319
    2MPD2    C5   25   1.252   3.946  12.563 -0.0132  0.4786  0.0871
    2MPD2     H   26   0.879   3.898  12.498  0.2661 -0.3156  1.3104
    2MPD2    H1   27   1.266   4.073  12.402  0.5837  0.4755  0.7852
    2MPD2    H2   28   1.240   3.796  12.707 -0.2490 -0.8029 -0.5054
    2MPD2    H3   29   1.357   3.960  12.584  0.5121  0.1774 -2.4088
    2MPD2     N   30   1.016   4.050  12.309  0.4328 -0.9988  0.7004
    2MPD2    H5   31   1.078   4.106  12.252 -1.8655 -1.4297 -2.2654
    2MPD2    N1   32   0.965   3.761  12.689  0.1007 -0.6317 -0.4570
    2MPD2    H7   33   0.869   3.744  12.661  0.2483 -2.6730  0.2924
    3TMC1    C1   34   0.233   1.563  10.552  0.6410  0.4188 -0.2945
    3TMC1    C2   35   0.142   1.461  10.536  0.3549  0.7506  1.1295
    3TMC1    C3   36   0.118   1.421  10.405 -0.1983  0.7002  0.1484
    3TMC1    C4   37   0.302   1.616  10.446  0.4700 -0.0085 -0.2085
    3TMC1    C5   38   0.257   1.585  10.324  0.2604  0.2310 -0.2226
    3TMC1    C6   39   0.167   1.485  10.294  0.7022 -0.1721  0.2224
    3TMC1     C   40   0.305   1.566  10.680 -0.4440  0.4302 -0.0831
    3TMC1     O   41   0.417   1.612  10.671  0.1086  0.2803  0.4494
    3TMC1     H   42   0.089   1.411  10.617  0.5798 -2.2315 -0.5727
    3TMC1    H1   43   0.374   1.696  10.458 -1.3466  1.5240  0.6454
    3TMC1    H2   44   0.139   1.462  10.192 -1.0260  0.0552  0.6365
    3TMC1    C7   45   0.329   1.624  10.208 -0.3758 -0.2416  0.2527
    3TMC1    C8   46   0.041   1.293  10.382  0.6042 -0.1483 -0.4895
    3TMC1    O1   47   0.277   1.639  10.097 -0.1844  0.1582 -0.5524
    3TMC1    O2   48   4.725   1.256  10.276  0.2676 -0.1997  0.1214
    3TMC1    O3   49   0.457   1.642  10.239 -0.3764 -0.1673 -0.1863
    3TMC1    H3   50   0.480   1.590  10.318 -0.6244 -1.8854 -1.2485
    3TMC1    O5   51   0.075   1.208  10.482 -0.1348  0.4820 -0.6053
    3TMC1    H5   52   0.146   1.238  10.544  0.8871  0.7239 -1.9013
    4MPD2     C   53   0.352   1.347  11.141 -0.2473  0.1132  0.1816
    4MPD2    C1   54   0.221   1.387  11.123 -0.4059  0.2729 -0.2497
    4MPD2    C2   55   0.183   1.449  11.003  0.4172  0.2610  0.1505
    4MPD2    C3   56   0.278   1.479  10.906 -0.1939  0.2006  0.5016
    4MPD2    C4   57   0.411   1.447  10.933  0.5935  0.0725  0.4477
    4MPD2    C5   58   0.447   1.382  11.052  0.1726  0.4271 -0.0112
    4MPD2     H   59   0.080   1.471  10.980  0.7191  1.0328 -0.4609
    4MPD2    H1   60   0.489   1.471  10.862 -2.4834 -0.1686 -3.0449
    4MPD2    H2   61   0.378   1.299  11.235  0.1008  0.1211  0.0860
    4MPD2    H3   62   0.551   1.363  11.075 -0.0240 -0.9578 -0.2407
    4MPD2     N   63   0.226   1.532  10.786  0.4301  0.5812  0.4964
    4MPD2    H5   64   0.127   1.515  10.771  0.7041  0.5919 -1.3322
    4MPD2    N1   65   0.122   1.373  11.222  0.1995  0.2686 -0.2672
    4MPD2    H7   66   0.031   1.391  11.181 -0.8737 -1.7949  1.2004
    5TCq1    O1   67   2.069   1.964  11.980  0.1221  0.3397  0.8993
    5TCq1    C1   68   2.094   2.059  11.883  0.2811  0.5719  0.4266
    5TCq1    O2   69   2.156   2.043  11.779  0.0156  0.2335  0.5062
    5TCq1    C2   70   1.973   2.138  11.894 -0.3294  0.4504  0.0343
    5TCq1    C3   71   1.925   2.161  12.019 -0.1583 -0.5564 -0.2446
    5TCq1    C4   72   1.800   2.212  12.028  0.3871 -0.6522 -0.0903
    5TCq1    C5   73   1.727   2.248  11.914  0.0161 -0.0455 -0.3442
    5TCq1    C6   74   1.787   2.227  11.794  0.3862  0.3291 -0.2507
    5TCq1    C7   75   1.914   2.176  11.783  1.1266 -0.3503 -0.1742
    5TCq1    C8   76   1.705   2.231  11.671 -0.4062  0.0202  0.0605
    5TCq1    O4   77   1.728   2.147  11.586 -0.0187 -0.4369  0.0521
    5TCq1    C9   78   1.740   2.255  12.152 -0.2437  0.7292 -0.1039
    5TCq1    O5   79   1.756   2.187  12.252 -0.1957 -0.7190  0.3460
    5TCq1    O6   80   1.654   2.342  12.148  0.5737  0.5408  0.0068
    5TCq1    H1   81   2.026   1.996  12.061 -0.9801  1.2234 -0.0404
    5TCq1    H2   82   1.978   2.148  12.112  0.2873 -1.7449 -0.6729
    5TCq1    H3   83   1.621   2.264  11.930  0.1272  1.0092 -0.6675
    5TCq1    H4   84   1.965   2.171  11.688  0.2730  1.8097 -0.7684
    6MPD2     C   85   1.401   2.446  11.635 -0.4687 -0.3061 -0.2419
    6MPD2    C1   86   1.483   2.337  11.606  0.3242  0.6900 -0.1680
    6MPD2    C2   87   1.453   2.254  11.495  0.6534 -0.3249 -0.3555
    6MPD2    C3   88   1.343   2.272  11.424  0.2216  0.6012 -0.1244
    6MPD2    C4   89   1.258   2.380  11.452  0.1324  0.2609 -0.0645
    6MPD2    C5   90   1.294   2.463  11.558  0.0786 -0.4141  0.7035
    6MPD2     H   91   1.514   2.169  11.467 -1.2523 -1.8974  0.3405
    6MPD2    H1   92   1.163   2.396  11.403  1.2523  1.4334 -1.8458
    6MPD2    H2   93   1.418   2.501  11.727  0.6741 -2.5616  0.8942
    6MPD2    H3   94   1.211   2.528  11.582  0.6669  0.8286 -0.7012
    6MPD2     N   95   1.314   2.172  11.332  0.3034 -0.0963 -0.3799
    6MPD2    H5   96   1.386   2.100  11.325  0.3089 -0.2735  1.6727
    6MPD2    N1   97   1.600   2.323  11.684 -0.3660  0.1783 -0.1944
    6MPD2    H7   98   1.607   2.386  11.763  0.7859 -0.8398  0.5264
    7TCq1    O1   99   3.321   1.338  13.953 -0.0033  0.1228 -0.0556
    7TCq1    C1  100   3.233   1.423  14.008  0.2626 -0.5583 -0.2754
    7TCq1    O2  101   3.271   1.525  14.064 -0.0874 -0.2335  0.3907
    7TCq1    C2  102   3.131   1.414  13.906  0.2445  0.0608 -0.9292
    7TCq1    C3  103   3.098   1.528  13.838 -0.9003  0.7977  0.0447
    7TCq1    C4  104   3.023   1.502  13.723  0.6086 -0.5375  0.6374
    7TCq1    C5  105   2.997   1.379  13.680  0.2445  0.1395  0.3457
    7TCq1    C6  106   3.036   1.272  13.758 -0.5614  0.8884  0.8975
    7TCq1    C7  107   3.111   1.287  13.871 -0.1592 -0.0849  0.9491
    7TCq1    C8  108   3.001   1.135  13.722  0.5333 -0.0472 -0.1604
    7TCq1    O4  109   3.046   1.048  13.793  0.0367  0.3044 -0.8480
    7TCq1    C9  110   2.996   1.614  13.639  0.2147  0.0332 -0.2085
    7TCq1    O5  111   3.026   1.730  13.679  0.9664  0.3086  0.0199
    7TCq1    O6  112   2.920   1.585  13.539  0.9386  0.0116  0.4898
    7TCq1    H1  113   3.287   1.277  13.885 -1.7612  0.1266  0.8360
    7TCq1    H2  114   3.100   1.630  13.873  0.5491  0.9352 -0.4696
    7TCq1    H3  115   2.933   1.362  13.594 -0.9397  4.4460  0.4123
    7TCq1    H4  116   3.116   1.201  13.937 -3.8312 -0.3915  0.8520
    8MPD2     C  117   2.729   0.795  13.437 -0.2336  0.2241  0.3505
    8MPD2    C1  118   2.839   0.769  13.512  0.4808  0.7562  0.1777
    8MPD2    C2  119   2.908   0.881  13.570  0.3871 -0.0877 -0.7941
    8MPD2    C3  120   2.852   1.010  13.565 -0.0060 -0.0681 -0.3122
    8MPD2    C4  121   2.743   1.023  13.482 -0.2852  0.0096 -0.0099
    8MPD2    C5  122   2.679   0.919  13.429 -0.2255  0.2128  0.3233
    8MPD2     H  123   3.001   0.877  13.625  0.4411 -1.4257 -0.9935
    8MPD2    H1  124   2.703   1.120  13.456 -1.4358 -0.6007 -0.5284
    8MPD2    H2  125   2.685   0.721  13.370  1.3956  0.1063 -0.5895
    8MPD2    H3  126   2.591   0.931  13.367 -0.2486 -0.0654  0.3016
    8MPD2     N  127   2.906   1.126  13.624 -0.8175  0.5874 -0.1583
    8MPD2    H5  128   2.867   1.212  13.586 -2.0206  1.2520  2.5447
    8MPD2    N1  129   2.884   0.639  13.526  0.4004  0.0174  0.0112
    8MPD2    H7  130   2.822   0.561  13.507  0.5782  0.0872 -0.8515
    9TMC1    C1  131   0.553   0.125  11.327 -0.1714 -0.0007  0.7369
    9TMC1    C2  132   0.654   0.161  11.413 -0.1147  0.4361 -0.0177
    9TMC1    C3  133   0.740   0.259  11.381  0.2149 -0.0260 -0.2261
    9TMC1    C4  134   0.547   0.182  11.207 -0.2186 -0.4271 -0.8318
    9TMC1    C5  135   0.639   0.269  11.166 -0.3100  0.3430 -0.3128
    9TMC1    C6  136   0.737   0.310  11.251 -0.1322  0.0307 -0.0228
    9TMC1     C  137   0.448   0.028  11.359  0.4403  0.0896 -0.4970
    9TMC1     O  138   0.358   0.002  11.275  0.0436 -0.7306  0.5997
    9TMC1     H  139   0.665   0.122  11.513 -0.0471  1.9606  0.5612
    9TMC1    H1  140   0.470   0.148  11.140  0.5823  0.0196 -1.9727
    9TMC1    H2  141   0.810   0.383  11.221 -1.9535  2.5597  1.6903
    9TMC1    C7  142   0.623   0.327  11.034 -0.1824  0.9919 -0.5656
    9TMC1    C8  143   0.869   0.264  11.454  0.3473 -0.1630  0.4895
    9TMC1    O1  144   0.689   0.431  11.009  0.0550 -0.2870 -0.5845
    9TMC1    O2  145   0.947   0.357  11.442  0.2632 -0.6498 -0.6663
    9TMC1    O3  146   0.617   0.220  10.953 -0.4621  0.2434 -0.1916
    9TMC1    H3  147   0.561   0.146  10.985  0.8460 -0.9254 -0.6146
    9TMC1    O5  148   0.896   0.135  11.492  0.9806 -0.3967 -0.5505
    9TMC1    H5  149   0.828   0.067  11.475  2.6489 -1.4677 -2.9173
   10MPD2     C  150   0.248   4.615  11.521 -0.1354 -0.1027 -0.6199
   10MPD2    C1  151   0.382   4.628  11.554  0.0417 -0.2771 -0.0947
   10MPD2    C2  152   0.429   4.573  11.674 -0.0068  0.7348 -0.6843
   10MPD2    C3  153   0.345   4.490  11.747 -0.3665  0.2610  0.1090
   10MPD2    C4  154   0.221   4.455  11.699 -0.3298 -0.1095 -0.3595
   10MPD2    C5  155   0.167   4.531  11.593  0.2015 -0.1809 -0.0221
   10MPD2     H  156   0.531   4.591  11.708 -0.1389  1.8532 -0.8730
   10MPD2    H1  157   0.155   4.385  11.749  0.5506  1.2240  2.6878
   10MPD2    H2  158   0.213   4.670  11.435  2.9935 -1.4575 -2.7782
   10MPD2    H3  159   0.067   4.511  11.559  0.0086 -1.0060  1.0239
   10MPD2     N  160   0.375   4.435  11.873 -0.7536  0.2497 -0.5093
   10MPD2    H5  161   0.297   4.401  11.928 -1.8643  2.3712 -0.7605
   10MPD2    N1  162   0.473   4.705  11.475 -0.2845  0.1065 -0.1822
   10MPD2    H7  163   0.564   4.722  11.516 -0.9475  0.3314  1.2089
   11TCq1    O1  164   1.580   0.156  14.349  0.4116 -0.0235  0.5200
   11TCq1    C1  165   1.702   0.141  14.408 -0.5478  0.1952  0.3017
   11TCq1    O2  166   1.806   0.201  14.379 -0.4290  0.1743  0.4222
   11TCq1    C2  167   1.702   0.013  14.472  0.6593 -0.1013  0.3297
   11TCq1    C3  168   1.813   4.671  14.481 -0.0337 -0.0824 -0.5555
   11TCq1    C4  169   1.813   4.544  14.530  0.2782 -1.2244 -0.6272
   11TCq1    C5  170   1.696   4.488  14.563  0.1667 -0.1353  0.1251
   11TCq1    C6  171   1.582   4.558  14.546  0.3440  0.1944 -0.3585
   11TCq1    C7  172   1.582   4.691  14.514 -0.4585  0.0250 -0.2185
   11TCq1    C8  173   1.453   4.493  14.582 -0.4870  0.8994 -0.9988
   11TCq1    O4  174   1.361   4.569  14.605  0.2306  0.0504  0.2126
   11TCq1    C9  175   1.935   4.472  14.534  0.2920  0.2708  0.1010
   11TCq1    O5  176   2.024   4.511  14.449  0.2948 -0.4458  0.0740
   11TCq1    O6  177   1.942   4.376  14.615  0.0891 -0.3130  0.0489
   11TCq1    H1  178   1.510   0.097  14.381 -1.1130  0.1470 -2.5264
   11TCq1    H2  179   1.910   4.705  14.447  0.0779 -0.0112 -0.1665
   11TCq1    H3  180   1.695   4.385  14.597  0.0041  0.1604  0.9914
   11TCq1    H4  181   1.493   0.017  14.523 -1.3781 -1.3840  0.1266
   12MPD2     C  182   1.195   4.343  14.540  0.0886  0.1245 -0.7902
   12MPD2    C1  183   1.321   4.304  14.490 -0.7416 -0.1570  0.0177
   12MPD2    C2  184   1.335   4.199  14.403  0.4837 -0.3560 -0.1481
   12MPD2    C3  185   1.223   4.159  14.333 -0.5819  0.0764  0.2791
   12MPD2    C4  186   1.097   4.194  14.374  0.2471 -0.3491 -1.3266
   12MPD2    C5  187   1.087   4.289  14.478  0.5094  0.3821  0.1030
   12MPD2     H  188   1.432   4.152  14.387  1.2776  1.3765 -0.3908
   12MPD2    H1  189   1.006   4.172  14.319 -0.0160 -2.3787 -0.0687
   12MPD2    H2  190   1.188   4.419  14.617 -0.4576 -2.0602  1.3170
   12MPD2    H3  191   0.988   4.330  14.498 -0.2958 -0.7654 -1.4507
   12MPD2     N  192   1.238   4.086  14.208 -0.4516 -0.1172  0.2354
   12MPD2    H5  193   1.150   4.045  14.179  0.7470 -4.0482  2.1427
   12MPD2    N1  194   1.447   4.367  14.530  0.3237  0.4343 -0.1419
   12MPD2    H7  195   1.536   4.324  14.507  0.4413  0.7489 -0.2613
   13TCq1    O1  196   0.786   1.045  10.506  0.1491  0.1014 -0.3282
   13TCq1    C1  197   0.805   1.059  10.637 -0.9332  0.1132 -0.5838
   13TCq1    O2  198   0.906   1.015  10.696  0.0098 -0.1628 -0.1167
   13TCq1    C2  199   0.676   1.084  10.702  0.3930 -0.1837  0.2837
   13TCq1    C3  200   0.588   1.167  10.641  0.7728  0.0659  0.2771
   13TCq1    C4  201   0.463   1.171  10.689  0.6685  0.0491  1.0643
   13TCq1    C5  202   0.425   1.099  10.803  0.1216 -0.2504  0.3711
   13TCq1    C6  203   0.517   1.020  10.863 -0.4682 -0.1114  0.6628
   13TCq1    C7  204   0.640   1.003  10.810 -0.1483 -0.0062 -0.1287
   13TCq1    C8  205   0.454   0.890  10.911 -0.3815 -0.2716 -0.1790
   13TCq1    O4  206   0.373   0.897  11.005  0.0399  0.2823  0.4977
   13TCq1    C9  207   0.362   1.239  10.622 -0.2796  0.4108  0.3009
   13TCq1    O5  208   0.389   1.289  10.512  0.7054 -0.1071  0.2186
   13TCq1    O6  209   0.246   1.225  10.661 -0.0744 -0.0886  0.3098
   13TCq1    H1  210   0.698   1.077  10.479  0.0489 -2.4211 -3.0735
   13TCq1    H2  211   0.622   1.228  10.559  2.0863 -1.5285 -0.3599
   13TCq1    H3  212   0.326   1.107  10.846  0.2884  1.1403  0.4921
   13TCq1    H4  213   0.715   0.937  10.852 -1.0408 -0.8784  0.0786
   14MPD2     C  214   0.435   0.552  10.739  0.4025  0.0907 -0.0342
   14MPD2    C1  215   0.433   0.650  10.839  0.5082  0.4764 -0.2172
   14MPD2    C2  216   0.379   0.606  10.959 -0.2954  0.6272  0.5696
   14MPD2    C3  217   0.336   0.470  10.978  0.2122 -0.0930  0.5376
   14MPD2    C4  218   0.335   0.384  10.877 -0.2684  0.3042 -0.5562
   14MPD2    C5  219   0.390   0.423  10.757  0.4494 -0.7149  0.3662
   14MPD2     H  220   0.386   0.666  11.049 -0.4975  1.1964  0.2070
   14MPD2    H1  221   0.301   0.281  10.880  1.4399 -0.2191  0.4636
   14MPD2    H2  222   0.483   0.569  10.643  1.1361 -4.2058 -0.3964
   14MPD2    H3  223   0.386   0.361  10.669  0.4873  1.1453 -0.9612
   14MPD2     N  224   0.275   0.431  11.100 -0.4154  0.3490  0.6167
   14MPD2    H5  225   0.277   0.493  11.180 -0.0887 -0.4429  1.2213
   14MPD2    N1  226   0.478   0.785  10.826  0.8626  0.1017 -0.3064
   14MPD2    H7  227   0.513   0.815  10.736 -1.6800  0.4864 -1.1549
   15TCq1    O1  228   3.689   3.616   2.508 -0.2753  0.1226  0.1519
   15TCq1    C1  229   3.553   3.620   2.540 -0.6175 -0.7449  0.7878
   15TCq1    O2  230   3.500   3.646   2.645  0.4714 -0.2239  0.0522
   15TCq1    C2  231   3.474   3.626   2.417 -0.7291 -0.0052  0.4127
   15TCq1    C3  232   3.345   3.677   2.422  0.0533  0.4460  0.3343
   15TCq1    C4  233   3.260   3.657   2.321  0.5831  0.5745  0.1746
   15TCq1    C5  234   3.297   3.603   2.204 -0.2397 -0.4131  0.3739
   15TCq1    C6  235   3.428   3.552   2.203  0.6252 -0.4589  0.2496
   15TCq1    C7  236   3.515   3.560   2.311 -0.2508  0.4546  0.2488
   15TCq1    C8  237   3.493   3.545   2.070  0.3140  0.5190 -1.0619
   15TCq1    O4  238   3.613   3.531   2.059  0.1257  0.2564  1.0005
   15TCq1    C9  239   3.121   3.706   2.330  0.1105  0.6253  0.0424
   15TCq1    O5  240   3.034   3.668   2.248  0.4569 -0.0120 -0.1474
   15TCq1    O6  241   3.095   3.785   2.422  0.3340 -0.2693 -0.0255
   15TCq1    H1  242   3.699   3.622   2.410 -2.5264  0.5672 -0.0413
   15TCq1    H2  243   3.313   3.723   2.514 -0.1658 -1.2563  1.1106
   15TCq1    H3  244   3.225   3.611   2.123  2.0351  0.9998 -1.4975
   15TCq1    H4  245   3.607   3.502   2.306 -0.7990 -0.5855  2.2960
   16MPD2     C  246   3.328   3.538   1.740 -0.4276  0.3753 -0.6941
   16MPD2    C1  247   3.429   3.512   1.838 -0.3250 -0.1111  0.8888
   16MPD2    C2  248   3.556   3.459   1.791 -0.2420 -0.0696  0.8988
   16MPD2    C3  249   3.571   3.424   1.661  0.3718  0.4438 -0.2232
   16MPD2    C4  250   3.464   3.437   1.572 -0.1622 -0.3417  0.3777
   16MPD2    C5  251   3.349   3.492   1.611  0.2312  0.2207 -0.2146
   16MPD2     H  252   3.631   3.443   1.867  0.7522  1.9262  0.3515
   16MPD2    H1  253   3.477   3.414   1.467 -2.4166  3.5311 -0.7651
   16MPD2    H2  254   3.231   3.578   1.766  0.0917 -0.3876  2.3642
   16MPD2    H3  255   3.275   3.503   1.533 -1.8289 -0.6511  1.6170
   16MPD2     N  256   3.695   3.367   1.625  0.3310 -0.5083 -0.5729
   16MPD2    H5  257   3.754   3.353   1.707  1.1241  1.3961 -0.8234
   16MPD2    N1  258   3.400   3.549   1.970 -0.1732 -0.2291  0.5680
   16MPD2    H7  259   3.304   3.569   1.993 -0.0395 -0.2140  1.1028
   17TMC1    C1  260   1.069   3.701  12.140 -0.8187 -0.0605  0.1095
   17TMC1    C2  261   1.029   3.599  12.220 -0.1419  0.6272 -0.5537
   17TMC1    C3  262   1.100   3.578  12.336 -0.1334  0.4164  0.3627
   17TMC1    C4  263   1.186   3.765  12.159 -0.1779 -0.0428  0.1402
   17TMC1    C5  264   1.254   3.729  12.272 -0.1166 -0.7525  0.5931
   17TMC1    C6  265   1.212   3.643  12.366  0.3248 -0.3314  0.2199
   17TMC1     C  266   0.977   3.747  12.042 -0.2433 -0.0899 -0.3621
   17TMC1     O  267   0.863   3.704  12.050  0.0968 -0.5341  0.3432
   17TMC1     H  268   0.944   3.535  12.198  0.1274  0.3246 -0.7088
   17TMC1    H1  269   1.230   3.838  12.093 -2.6902  0.1244 -1.3541
   17TMC1    H2  270   1.264   3.627  12.460 -0.6671 -2.5281  0.3808
   17TMC1    C7  271   1.388   3.776  12.267  0.2485  1.0044 -1.3545
   17TMC1    C8  272   1.045   3.494  12.448 -0.3730 -0.5841 -0.4712
   17TMC1    O1  273   1.420   3.885  12.216  0.4604  0.3886  0.8747
   17TMC1    O2  274   1.119   3.450  12.534 -0.6590  0.1431  0.1598
   17TMC1    O3  275   1.455   3.724  12.366 -0.7779  0.5840  0.0433
   17TMC1    H3  276   1.428   3.633  12.391 -2.7017  0.9785 -0.6116
   17TMC1    O5  277   0.909   3.524  12.462 -0.5428 -0.5696  0.5764
   17TMC1    H5  278   0.872   3.590  12.399  0.0926 -1.2025 -0.4675
   18MPD2     C  279   0.892   3.772  11.760  0.5017  0.3807  0.5446
   18MPD2    C1  280   1.007   3.813  11.805 -0.4079  0.2417  0.0181
   18MPD2    C2  281   1.089   3.871  11.712 -0.9840  0.1541 -0.2853
   18MPD2    C3  282   1.048   3.901  11.580 -0.1507  0.4426  0.0942
   18MPD2    C4  283   0.925   3.869  11.533  0.8489 -0.1788  0.7124
   18MPD2    C5  284   0.848   3.800  11.632 -0.5876  0.5223 -0.6391
   18MPD2     H  285   1.191   3.880  11.747 -0.2615 -3.2931 -1.4452
   18MPD2    H1  286   0.894   3.881  11.430  2.6930 -0.7854  0.0960
   18MPD2    H2  287   0.835   3.706  11.823  0.1168 -0.9772 -1.2286
   18MPD2    H3  288   0.757   3.756  11.594  0.3039 -0.7735 -1.2873
   18MPD2     N  289   1.135   3.966  11.492 -0.4482 -0.1571 -0.3178
   18MPD2    H5  290   1.097   3.963  11.397 -0.6533 -0.7974 -0.2205
   18MPD2    N1  291   1.049   3.795  11.935 -0.5634 -0.2326  0.3040
   18MPD2    H7  292   1.142   3.822  11.963 -0.3639  0.3164 -0.8787
   19TMC2    C1  293   2.531   4.394  14.286  0.3595  0.3853  0.0624
   19TMC2    C2  294   2.483   4.495  14.365  0.1506  0.0453  0.0196
   19TMC2    C3  295   2.371   4.474  14.435 -0.4670 -0.1561 -0.4107
   19TMC2    C4  296   2.473   4.275  14.288 -0.3234  0.9337 -0.5606
   19TMC2    C5  297   2.359   4.250  14.361  0.0824  0.1983  0.4212
   19TMC2    C6  298   2.290   4.356  14.422  0.6910  0.5803  0.2108
   19TMC2     C  299   2.642   4.408  14.193  0.4429 -0.2307 -0.9557
   19TMC2     O  300   2.662   4.519  14.150 -0.3243 -0.0459  0.1289
   19TMC2     H  301   2.550   4.576  14.392  0.6158  1.1092 -4.2101
   19TMC2    H1  302   2.511   4.196  14.223 -1.9222  0.2595 -0.6826
   19TMC2    H2  303   2.201   4.349  14.483  0.6839  3.8254  0.6071
   19TMC2    C7  304   2.294   4.123  14.327 -0.4141  0.4395 -0.2693
   19TMC2    C8  305   2.356   4.550  14.554  1.2144  0.1303  0.0836
   19TMC2    O1  306   2.375   4.036  14.300 -0.5116 -0.0645  0.1893
   19TMC2    O2  307   2.448   4.610  14.610 -0.6766 -0.2585 -0.4635
   19TMC2    O5  308   2.228   4.537  14.604 -0.0165  0.4545 -0.1898
   19TMC2    H5  309   2.164   4.509  14.535 -1.7679 -2.4581  2.5967
   20MPD2     C  310   2.899   4.376  14.048 -0.2039  0.1035  0.4932
   20MPD2    C1  311   2.845   4.280  14.125 -0.2815 -0.2227  0.9123
   20MPD2    C2  312   2.920   4.172  14.167 -0.4088  0.1146 -0.3267
   20MPD2    C3  313   3.054   4.159  14.132  0.3672  0.5189 -0.0182
   20MPD2    C4  314   3.105   4.258  14.051 -0.3713 -0.6251  0.2897
   20MPD2    C5  315   3.032   4.364  14.013 -0.8139  0.3885  0.3908
   20MPD2     H  316   2.866   4.103  14.231 -2.6893 -0.1414 -2.5381
   20MPD2    H1  317   3.206   4.244  14.016 -0.4449  0.1745 -0.2616
   20MPD2    H2  318   2.836   4.456  14.008 -0.1719 -0.4323 -0.6342
   20MPD2    H3  319   3.069   4.441  13.947  0.4349  0.1213  0.7761
   20MPD2     N  320   3.137   4.059  14.194  0.4913  0.2089  0.1584
   20MPD2    H5  321   3.232   4.062  14.160  0.5357  1.7408  0.4046
   20MPD2    N1  322   2.720   4.293  14.186  0.1897  0.8884  1.0717
   20MPD2    H7  323   2.692   4.222  14.252 -0.9465  1.1232  0.8404
   21TMC2    C1  324   0.199   0.013  15.097 -0.3794  0.3676 -0.2276
   21TMC2    C2  325   0.178   4.713  15.226 -0.2974  0.3317  0.0246
   21TMC2    C3  326   0.071   0.033  15.283  0.0980  0.8570 -0.2917
   21TMC2    C4  327   0.117   0.097  15.018  0.4131  0.0649  0.5604
   21TMC2    C5  328   0.013   0.145  15.086  0.2218  0.2910  0.4306
   21TMC2    C6  329   4.728   0.119  15.214  0.0147 -0.0101  0.5699
   21TMC2     C  330   0.307   4.677  15.034  0.9359  0.6554  0.3681
   21TMC2     O  331   0.348   4.578  15.094 -0.0429  0.4684 -0.3647
   21TMC2     H  332   0.233   4.635  15.277 -1.8491 -0.8340 -0.0981
   21TMC2    H1  333   0.116   0.110  14.910 -0.2328  0.5271  0.6240
   21TMC2    H2  334   4.646   0.177  15.256  1.7298  1.5439  1.7590
   21TMC2    C7  335   4.621   0.159  15.016 -0.1658  0.2195  0.8178
   21TMC2    C8  336   0.018   0.005  15.412 -0.9027 -0.2748  0.1449
   21TMC2    O1  337   4.518   0.138  15.080  0.0377 -0.1046  0.4131
   21TMC2    O2  338   4.635   0.031  15.439 -0.3845  1.0732 -0.7781
   21TMC2    O5  339   0.118   0.074  15.479  0.0337  0.0733  0.9744
   21TMC2    H5  340   0.211   0.056  15.451  0.0888 -1.4598  2.1500
   22MPD2     C  341   0.685   4.616  14.685  0.0122  0.1505  0.4747
   22MPD2    C1  342   0.613   4.515  14.750  0.0399  0.0912  0.8645
   22MPD2    C2  343   0.509   4.549  14.839  0.0781 -0.2311  0.5865
   22MPD2    C3  344   0.476   4.686  14.849 -0.5987  1.0128 -0.0198
   22MPD2    C4  345   0.540   0.045  14.769  0.3354 -0.7407  0.0407
   22MPD2    C5  346   0.644   0.010  14.703 -0.5269 -0.3700  0.1241
   22MPD2     H  347   0.457   4.469  14.891  1.0009 -1.7839 -0.8868
   22MPD2    H1  348   0.508   0.148  14.775  0.8552 -0.6609  1.5072
   22MPD2    H2  349   0.780   4.598  14.637 -0.0839  0.7494  0.0622
   22MPD2    H3  350   0.697   0.085  14.646  0.0670 -1.8269 -1.2323
   22MPD2     N  351   0.366   0.002  14.927 -0.2657 -0.5866  0.2449
   22MPD2    H5  352   0.353   0.103  14.934 -0.6094 -0.5966 -0.2289
   22MPD2    N1  353   0.649   4.376  14.731 -0.0175 -0.1449  0.8518
   22MPD2    H7  354   0.616   4.305  14.796 -1.6104  0.4904  0.7189
   23TMC2    C1  355   1.490   0.639  14.507  0.3614 -0.1014  0.7225
   23TMC2    C2  356   1.469   0.769  14.485 -0.2305 -0.1525 -0.2286
   23TMC2    C3  357   1.357   0.810  14.429  0.5183 -0.5753  0.0174
   23TMC2    C4  358   1.390   0.550  14.479 -0.1197  0.0759  0.0550
   23TMC2    C5  359   1.267   0.589  14.430 -0.7287  0.0385  0.0762
   23TMC2    C6  360   1.253   0.721  14.400 -0.4833  0.0353  0.0706
   23TMC2     C  361   1.621   0.596  14.561 -0.8852  0.3049  0.0726
   23TMC2     O  362   1.632   0.506  14.641 -0.7703 -0.8245 -0.3644
   23TMC2     H  363   1.537   0.843  14.527  0.4346 -0.4960 -0.7125
   23TMC2    H1  364   1.407   0.447  14.505 -1.4901  0.0871  0.9517
   23TMC2    H2  365   1.157   0.756  14.366 -0.2401  1.8037  1.2358
   23TMC2    C7  366   1.154   0.499  14.459 -0.4037 -0.2108 -0.8528
   23TMC2    C8  367   1.333   0.957  14.428  0.3742 -0.3280  0.1751
   23TMC2    O1  368   1.171   0.403  14.530 -0.4594  0.3950 -0.2188
   23TMC2    O2  369   1.218   1.004  14.426  0.0905  0.0921 -0.0850
   23TMC2    O5  370   1.451   1.024  14.392 -0.0766 -0.0068 -0.0460
   23TMC2    H5  371   1.526   0.962  14.383  0.9786  1.0852  1.3413
   24MPD2     C  372   2.128   0.665  14.618  0.3692  0.2147 -0.1421
   24MPD2    C1  373   2.035   0.623  14.713  0.6076  0.3536  0.5241
   24MPD2    C2  374   1.904   0.608  14.675 -0.3194 -0.6314 -0.0189
   24MPD2    C3  375   1.859   0.656  14.550  0.0789 -0.6940  0.4565
   24MPD2    C4  376   1.952   0.709  14.467 -0.5036 -1.3545 -0.2405
   24MPD2    C5  377   2.086   0.704  14.498 -0.1907  0.2965 -0.3487
   24MPD2     H  378   1.833   0.563  14.744  0.6031 -1.9225  0.0873
   24MPD2    H1  379   1.920   0.752  14.372 -0.0219 -0.2198  0.1080
   24MPD2    H2  380   2.231   0.682  14.647  0.8345 -1.4935 -0.7888
   24MPD2    H3  381   2.147   0.746  14.419  0.4268  0.8341  0.4282
   24MPD2     N  382   1.723   0.665  14.510 -0.3452  0.6393  0.8639
   24MPD2    H5  383   1.700   0.722  14.429  0.2474 -0.3453  0.0007
   24MPD2    N1  384   2.064   0.585  14.848 -0.0922  0.0351 -0.5168
   24MPD2    H7  385   1.994   0.557  14.916 -1.3620  0.2723 -1.7374
   25TMC2    C1  386   4.289   4.053  11.740 -0.2870  0.2569  0.3003
   25TMC2    C2  387   4.214   4.165  11.710  0.0109 -0.0773  0.5538
   25TMC2    C3  388   4.091   4.171  11.769  0.0210 -0.2334  0.2831
   25TMC2    C4  389   4.246   3.965  11.835  0.2467  0.7230  0.5107
   25TMC2    C5  390   4.132   3.987  11.912 -0.0489 -0.1531  0.6681
   25TMC2    C6  391   4.056   4.094  11.874  0.1142  0.5102 -0.0893
   25TMC2     C  392   4.432   4.054  11.717 -0.3568  0.0677  0.2830
   25TMC2     O  393   4.483   4.160  11.686 -0.1064  0.4334 -0.1281
   25TMC2     H  394   4.244   4.243  11.642 -0.0759  0.7340  1.4374
   25TMC2    H1  395   4.318   3.896  11.877  0.1513  0.5572  0.4019
   25TMC2    H2  396   3.961   4.102  11.924 -1.1490 -0.7028 -2.2689
   25TMC2    C7  397   4.145   3.934  12.048  0.4423 -0.0496 -0.1080
   25TMC2    C8  398   4.043   4.309  11.775 -0.2039 -0.9636 -0.1168
   25TMC2    O1  399   4.217   3.834  12.066 -0.1526  0.8921  0.0748
   25TMC2    O2  400   4.106   4.399  11.829  0.0415  0.0409  0.2443
   25TMC2    O5  401   3.909   4.297  11.806  0.2519  0.1351  0.6109
   25TMC2    H5  402   3.874   4.214  11.768 -0.3277  1.0916 -0.9503
   26MPD2     C  403   0.111   3.793  11.548 -0.0766  0.5914  0.0174
   26MPD2    C1  404   0.011   3.706  11.568 -0.0531 -0.1840 -0.0557
   26MPD2    C2  405   4.628   3.748  11.623  0.6787  0.2831  0.7039
   26MPD2    C3  406   4.610   3.885  11.640  0.5254  0.3055  0.0746
   26MPD2    C4  407   4.717   3.967  11.651  0.4441  0.1196  0.1289
   26MPD2    C5  408   0.097   3.925  11.590 -0.0505 -0.2931 -0.2517
   26MPD2     H  409   4.544   3.680  11.635 -0.7753  1.6295 -1.7910
   26MPD2    H1  410   4.717   4.071  11.684  3.1086 -0.2423  1.2928
   26MPD2    H2  411   0.199   3.766  11.490 -1.1262 -1.8999 -0.3791
   26MPD2    H3  412   0.186   3.987  11.578 -0.5521  0.4825  0.0048
   26MPD2     N  413   4.478   3.926  11.681 -0.4683 -0.6335 -0.0553
   26MPD2    H5  414   4.406   3.855  11.684 -0.6823 -0.3180  2.1892
   26MPD2    N1  415   0.042   3.576  11.524 -0.2378  0.4198 -0.3239
   26MPD2    H7  416   0.139   3.564  11.496  0.3898  2.2897  1.0417
   27TMC2    C1  417   4.164   1.262  12.191 -0.0864 -0.5828 -0.4361
   27TMC2    C2  418   4.278   1.292  12.127 -0.7240 -0.3154  0.0673
   27TMC2    C3  419   4.395   1.267  12.193  0.2244  0.0635  1.2081
   27TMC2    C4  420   4.158   1.206  12.316  0.2582  0.1393 -0.0791
   27TMC2    C5  421   4.276   1.194  12.380 -0.3458 -1.1308  0.4790
   27TMC2    C6  422   4.395   1.228  12.325  0.0176  0.2725 -0.0296
   27TMC2     C  423   4.045   1.250  12.106 -0.5634  0.4601 -0.0803
   27TMC2     O  424   4.045   1.260  11.984 -0.2799  0.1182 -0.0327
   27TMC2     H  425   4.277   1.309  12.020 -3.2786 -0.3727  0.1002
   27TMC2    H1  426   4.068   1.154  12.349 -0.2780  1.7457  0.9878
   27TMC2    H2  427   4.491   1.222  12.377  1.1460  0.6126 -2.0823
   27TMC2    C7  428   4.267   1.120  12.506 -0.1007  0.1580  0.3472
   27TMC2    C8  429   4.506   1.214  12.112  0.6221 -0.4847  0.0680
   27TMC2    O1  430   4.164   1.064  12.536 -0.4642 -0.2449 -0.4266
   27TMC2    O2  431   4.533   1.256  11.999  0.4489  0.3678 -0.1542
   27TMC2    O5  432   4.528   1.089  12.145  0.2830  0.1056  0.2462
   27TMC2    H5  433   4.481   1.053  12.223 -1.0679  2.1195  0.3256
   28MPD2     C  434   3.591   1.058  12.113  0.7260 -0.0905 -0.8554
   28MPD2    C1  435   3.599   1.129  12.223  0.5561  0.1765  0.1270
   28MPD2    C2  436   3.709   1.206  12.247  0.4343  0.4129  0.2682
   28MPD2    C3  437   3.810   1.211  12.146 -0.3773 -0.3419  0.4647
   28MPD2    C4  438   3.793   1.141  12.027 -0.4244 -0.7933 -0.0504
   28MPD2    C5  439   3.685   1.054  12.018 -0.0678  0.0739 -0.3183
   28MPD2     H  440   3.730   1.259  12.340 -0.8083  1.5157 -0.0808
   28MPD2    H1  441   3.855   1.154  11.940 -1.1181  0.6513 -0.3325
   28MPD2    H2  442   3.508   0.989  12.104  0.6906 -0.5782  3.5074
   28MPD2    H3  443   3.663   0.999  11.927 -1.9914 -1.8706  1.3450
   28MPD2     N  444   3.932   1.267  12.185  0.5272 -0.3303  0.0934
   28MPD2    H5  445   3.950   1.295  12.281  1.8620  0.2459 -0.3226
   28MPD2    N1  446   3.491   1.119  12.313  0.5361 -0.0226 -0.1188
   28MPD2    H7  447   3.427   1.043  12.295 -0.3566  0.3445  1.5193
   29TMC2    C1  448   4.171   2.909  14.573  0.1193 -0.7109 -0.7364
   29TMC2    C2  449   4.075   2.952  14.660  0.2965 -0.1418 -0.3533
   29TMC2    C3  450   4.063   3.086  14.682  0.0064 -0.2125 -0.6101
   29TMC2    C4  451   4.248   2.992  14.496  0.1300  0.2001  0.1162
   29TMC2    C5  452   4.247   3.123  14.535  0.0902 -0.0511  0.5726
   29TMC2    C6  453   4.152   3.171  14.623 -0.7359  0.5903 -0.3336
   29TMC2     C  454   4.169   2.765  14.538 -0.6242  0.0376 -0.4503
   29TMC2     O  455   4.134   2.691  14.630 -0.5044 -0.6252 -0.3889
   29TMC2     H  456   4.012   2.882  14.715  2.9835  0.4903  3.5749
   29TMC2    H1  457   4.333   2.950  14.444  2.9095  3.4206  2.1100
   29TMC2    H2  458   4.137   3.277  14.643  2.2253  0.8280  0.6656
   29TMC2    C7  459   4.326   3.210  14.466 -0.6077  0.7982 -0.1445
   29TMC2    C8  460   4.008   3.136  14.803 -0.1087 -0.3220 -0.8179
   29TMC2    O1  461   4.389   3.168  14.370  0.7091 -0.0557  0.2714
   29TMC2    O2  462   4.059   3.226  14.869  0.1302 -0.5010  0.3361
   29TMC2    O5  463   3.879   3.090  14.818 -0.1196  0.3991 -0.2860
   29TMC2    H5  464   3.851   3.029  14.746  1.3294  1.5281 -1.7933
   30MPD2     C  465   4.252   2.343  14.237 -0.3384  0.2919  0.0779
   30MPD2    C1  466   4.185   2.359  14.355 -0.2878  0.4263 -0.0918
   30MPD2    C2  467   4.184   2.482  14.420 -0.3348  0.6819 -0.6141
   30MPD2    C3  468   4.232   2.594  14.360 -0.3709 -0.3398 -0.1149
   30MPD2    C4  469   4.291   2.586  14.237 -0.4727 -0.6721  0.1926
   30MPD2    C5  470   4.307   2.457  14.187 -0.2208  0.0150 -0.0731
   30MPD2     H  471   4.128   2.489  14.513  0.2535 -1.4112 -0.1158
   30MPD2    H1  472   4.344   2.664  14.185 -0.8932  2.1697  4.0161
   30MPD2    H2  473   4.280   2.251  14.187 -0.7513  0.0321  0.3213
   30MPD2    H3  474   4.360   2.430  14.096  3.2747  0.8791  1.7152
   30MPD2     N  475   4.221   2.725  14.416 -0.1630 -0.2788 -0.7092
   30MPD2    H5  476   4.243   2.802  14.354  2.2157 -0.9422 -0.6941
   30MPD2    N1  477   4.116   2.251  14.414  0.7816  0.2676  0.3585
   30MPD2    H7  478   4.094   2.257  14.513 -0.2995 -3.4097  0.3407
   31TMC2    C1  479   1.500   1.631  15.318  0.1282 -0.5479 -0.1692
   31TMC2    C2  480   1.389   1.709  15.315  0.2960  0.2424  0.2823
   31TMC2    C3  481   1.347   1.757  15.438 -0.3459 -0.1042  0.5898
   31TMC2    C4  482   1.557   1.587  15.438  0.0198  0.4301 -0.3256
   31TMC2    C5  483   1.493   1.621  15.559  0.3927  0.3525  0.0559
   31TMC2    C6  484   1.399   1.719  15.557 -0.1803 -0.3467  0.1276
   31TMC2     C  485   1.585   1.630  15.204  0.3281  0.1670 -0.0725
   31TMC2     O  486   1.528   1.668  15.103 -0.3098 -0.1691 -0.1426
   31TMC2     H  487   1.336   1.734  15.225 -0.0310 -0.4673  0.2839
   31TMC2    H1  488   1.624   1.502  15.435  1.2383  1.3533  0.8072
   31TMC2    H2  489   1.355   1.753  15.650 -1.8356 -1.3868 -0.2746
   31TMC2    C7  490   1.537   1.554  15.683  0.3216  0.1379 -0.0242
   31TMC2    C8  491   1.228   1.841  15.455 -0.1386  1.1097 -0.4926
   31TMC2    O1  492   1.579   1.440  15.661 -0.2874 -0.7458 -0.4235
   31TMC2    O2  493   1.174   1.843  15.565  0.3349 -0.2392 -0.4316
   31TMC2    O5  494   1.154   1.849  15.342 -0.1360 -0.6422  0.3173
   31TMC2    H5  495   1.200   1.875  15.259 -0.8688  0.0690  0.1319
   32MPD2     C  496   2.020   1.622  14.946  0.4471  0.1985 -0.3326
   32MPD2    C1  497   1.898   1.676  14.912 -0.0954 -0.1776 -0.0616
   32MPD2    C2  498   1.792   1.667  15.000  0.0269 -0.5914 -1.0645
   32MPD2    C3  499   1.813   1.592  15.122  0.6314  0.0614  0.2898
   32MPD2    C4  500   1.931   1.524  15.146  1.1864 -0.0060 -0.1196
   32MPD2    C5  501   2.027   1.535  15.053  0.6165  0.3861  0.0165
   32MPD2     H  502   1.705   1.720  14.965  0.2679  1.2952  1.1750
   32MPD2    H1  503   1.947   1.474  15.242  0.1848 -1.1570 -0.5504
   32MPD2    H2  504   2.107   1.632  14.883  1.7873 -4.4354  0.7767
   32MPD2    H3  505   2.121   1.480  15.060  0.5130  0.1536 -0.4260
   32MPD2     N  506   1.713   1.594  15.227  0.0551  0.0621 -0.0499
   32MPD2    H5  507   1.738   1.562  15.320 -2.4078 -0.2372  0.4965
   32MPD2    N1  508   1.891   1.745  14.791 -1.1619  0.5033 -0.0941
   32MPD2    H7  509   1.981   1.772  14.751  0.0275 -1.8039  1.0243
   33TMC2    C1  510   1.210   0.324  11.169 -0.7444 -0.1606 -0.5401
   33TMC2    C2  511   1.183   0.408  11.273  0.0457 -0.6587 -0.0203
   33TMC2    C3  512   1.111   0.517  11.246  0.5783 -0.5330  0.0266
   33TMC2    C4  513   1.155   0.350  11.042  0.0301 -0.1534  0.1446
   33TMC2    C5  514   1.090   0.467  11.018  0.3369 -0.5150  0.3350
   33TMC2    C6  515   1.078   0.559  11.118  0.0329 -0.2637 -0.1114
   33TMC2     C  516   1.267   0.193  11.199 -0.4269 -0.7962  0.1115
   33TMC2     O  517   1.238   0.100  11.121  0.3014 -0.9380  0.5412
   33TMC2     H  518   1.225   0.388  11.371 -1.2117  0.5288  0.7628
   33TMC2    H1  519   1.187   0.284  10.962 -0.3433 -0.2598  0.0817
   33TMC2    H2  520   1.023   0.651  11.105 -0.6324 -0.3170  2.1940
   33TMC2    C7  521   1.127   0.535  10.896  0.9171 -0.7123 -0.1761
   33TMC2    C8  522   1.104   0.624  11.342 -0.2084  1.0601  0.1911
   33TMC2    O1  523   1.147   0.656  10.898  0.2711  0.3617  0.0239
   33TMC2    O2  524   1.150   0.735  11.312 -0.3416 -0.0941  0.6958
   33TMC2    O5  525   1.087   0.566  11.463  0.3186  0.0783  0.0804
   33TMC2    H5  526   1.046   0.477  11.458 -0.3199  0.2568  2.2515
   34MPD2     C  527   1.574   4.656  11.517 -0.0964 -0.0610  0.1674
   34MPD2    C1  528   1.506   4.616  11.401  0.5688 -0.6650 -0.4869
   34MPD2    C2  529   1.446   4.707  11.318 -0.2446 -0.5351  0.4968
   34MPD2    C3  530   1.436   0.106  11.362  0.8363 -0.7404  0.3690
   34MPD2    C4  531   1.508   0.147  11.474  1.1253  0.1980  0.2349
   34MPD2    C5  532   1.577   0.054  11.557  0.6785 -0.4490  0.3152
   34MPD2     H  533   1.395   4.685  11.225  0.1873 -0.7205  0.3018
   34MPD2    H1  534   1.500   0.247  11.517 -1.6893 -0.0679  0.3438
   34MPD2    H2  535   1.614   4.577  11.580  2.4141  0.6900 -0.4760
   34MPD2    H3  536   1.626   0.088  11.648  0.5146 -0.4218  0.3951
   34MPD2     N  537   1.354   0.202  11.310  0.0980 -0.1073  0.5232
   34MPD2    H5  538   1.360   0.289  11.362  1.1304 -2.3053  4.1002
   34MPD2    N1  539   1.504   4.480  11.373  0.0599 -0.5342 -0.4807
   34MPD2    H7  540   1.547   4.422  11.444 -3.5705 -0.2059  1.9762
   35TMC2    C1  541   2.250   0.968  11.442 -0.7153 -0.4448  0.4919
   35TMC2    C2  542   2.144   1.051  11.444  0.1974 -0.3739 -0.5536
   35TMC2    C3  543   2.065   1.055  11.555 -0.4723  0.5265  0.1615
   35TMC2    C4  544   2.260   0.870  11.534 -0.2023 -0.6455 -0.2887
   35TMC2    C5  545   2.165   0.862  11.631  0.1565  0.3470 -0.4349
   35TMC2    C6  546   2.067   0.956  11.643 -0.1111 -0.1713 -0.6596
   35TMC2     C  547   2.353   1.018  11.364  0.0272  0.5015 -0.1298
   35TMC2     O  548   2.319   1.097  11.278  0.0111 -0.2807 -0.7647
   35TMC2     H  549   2.123   1.121  11.364  0.6601  0.6450  0.2140
   35TMC2    H1  550   2.335   0.792  11.541  0.5237  0.2732  2.2741
   35TMC2    H2  551   1.988   0.939  11.716  0.1486 -0.2918 -0.4093
   35TMC2    C7  552   2.153   0.726  11.692  0.3400  0.8187 -0.1003
   35TMC2    C8  553   1.959   1.158  11.559  0.4714 -0.4909 -0.1983
   35TMC2    O1  554   2.246   0.656  11.671 -0.2192 -0.4224 -0.6895
   35TMC2    O2  555   1.848   1.136  11.606  0.3137 -0.3486 -0.0492
   35TMC2    O5  556   2.008   1.277  11.519 -0.3314 -0.0675  0.0964
   35TMC2    H5  557   2.104   1.274  11.498 -0.9031 -2.6148 -2.1073
   36MPD2     C  558   2.809   1.209  11.353 -0.7318  0.3513  0.8915
   36MPD2    C1  559   2.808   1.120  11.458  0.5004  0.0901  0.4793
   36MPD2    C2  560   2.700   1.036  11.470 -0.3461 -0.5764  0.0828
   36MPD2    C3  561   2.594   1.042  11.382 -0.0679 -0.1628 -0.3558
   36MPD2    C4  562   2.593   1.127  11.275 -0.2568  0.4709 -0.4115
   36MPD2    C5  563   2.705   1.214  11.263 -0.5068 -0.6393  0.0139
   36MPD2     H  564   2.686   0.956  11.542 -1.1778 -0.0007  0.5696
   36MPD2    H1  565   2.512   1.130  11.203 -0.3316 -2.0552 -0.4156
   36MPD2    H2  566   2.894   1.274  11.337 -0.0314 -0.4990  1.1405
   36MPD2    H3  567   2.708   1.277  11.174 -0.2389 -0.3192  0.2500
   36MPD2     N  568   2.474   0.980  11.415  1.0709  0.0115  0.5387
   36MPD2    H5  569   2.464   0.917  11.494  1.2341 -1.9729 -1.0271
   36MPD2    N1  570   2.911   1.128  11.557 -0.3182 -0.0605  0.1473
   36MPD2    H7  571   2.975   1.208  11.551 -0.1023 -0.1506  1.2754
   37TMC2    C1  572   0.246   1.567  11.654  0.4985 -0.3821  0.8006
   37TMC2    C2  573   0.165   1.628  11.562 -0.7213  0.1734  0.4369
   37TMC2    C3  574   0.217   1.710  11.472  0.0771 -0.0610  0.4228
   37TMC2    C4  575   0.379   1.585  11.660 -0.2413 -0.1921  0.2697
   37TMC2    C5  576   0.425   1.657  11.554 -0.2211  0.0261  0.6191
   37TMC2    C6  577   0.349   1.720  11.457  0.1387 -0.5422 -0.4510
   37TMC2     C  578   0.191   1.479  11.755 -0.4127 -0.4213  0.5010
   37TMC2     O  579   0.086   1.517  11.805 -0.2304  0.0524  0.2801
   37TMC2     H  580   0.060   1.604  11.571 -0.9945  2.1405  2.4408
   37TMC2    H1  581   0.440   1.532  11.732 -1.4911  0.9582  2.1950
   37TMC2    H2  582   0.391   1.781  11.378 -0.9924 -0.1593 -0.7466
   37TMC2    C7  583   0.568   1.666  11.541 -0.5114 -0.4466  0.1753
   37TMC2    C8  584   0.127   1.729  11.349 -0.0515  0.5814 -0.4914
   37TMC2    O1  585   0.629   1.587  11.615  0.5212  0.0428  0.6877
   37TMC2    O2  586   0.161   1.736  11.230  0.3371 -0.6899  0.3678
   37TMC2    O5  587   4.735   1.757  11.379 -0.2375 -0.3081 -0.6596
   37TMC2    H5  588   4.713   1.757  11.475 -0.6565 -0.2225 -0.7562
   38MPD2     C  589   0.215   1.053  12.027  0.4095  0.6719  0.3866
   38MPD2    C1  590   0.322   1.056  11.940 -0.2041  0.0889 -0.0753
   38MPD2    C2  591   0.331   1.158  11.852 -0.7565 -0.7915  0.2933
   38MPD2    C3  592   0.250   1.264  11.861  0.1908  0.2654 -0.2062
   38MPD2    C4  593   0.143   1.263  11.947  1.0290 -0.5984  1.0109
   38MPD2    C5  594   0.124   1.155  12.027 -0.0070 -0.8931 -0.3917
   38MPD2     H  595   0.406   1.160  11.774 -0.4965  1.0226  0.5820
   38MPD2    H1  596   0.064   1.337  11.945  1.0162 -0.6985 -1.7856
   38MPD2    H2  597   0.194   0.963  12.084  0.1220  0.4990  0.0137
   38MPD2    H3  598   0.039   1.142  12.093  1.8977 -1.0615  2.0702
   38MPD2     N  599   0.264   1.365  11.768 -0.4691  0.0892 -0.0560
   38MPD2    H5  600   0.338   1.357  11.700 -0.2971  0.5926  0.0745
   38MPD2    N1  601   0.412   0.946  11.945  0.1515 -0.0128 -0.2803
   38MPD2    H7  602   0.473   0.939  11.863  1.0923 -1.4697  0.5365
   39TMC2    C1  603   4.276   2.831   1.689  0.1621 -0.1020  0.0418
   39TMC2    C2  604   4.356   2.828   1.573  0.4326 -0.6013 -0.1417
   39TMC2    C3  605   4.495   2.836   1.576  0.3103  0.0979 -0.1370
   39TMC2    C4  606   4.344   2.841   1.808  0.2245  0.0003  0.2770
   39TMC2    C5  607   4.476   2.834   1.805 -1.5025 -0.0510 -0.1657
   39TMC2    C6  608   4.556   2.828   1.693  0.3210 -0.3121 -0.1119
   39TMC2     C  609   4.139   2.884   1.678 -0.4000 -0.2555 -0.3488
   39TMC2     O  610   4.084   2.872   1.567  0.7087 -0.0542  0.0342
   39TMC2     H  611   4.312   2.834   1.474  0.2350  0.8161  0.0381
   39TMC2    H1  612   4.291   2.842   1.903 -0.2168  1.1055  0.0181
   39TMC2    H2  613   4.663   2.810   1.703  0.3335 -0.3079 -0.2389
   39TMC2    C7  614   4.541   2.833   1.934 -0.7880 -0.9491  0.1854
   39TMC2    C8  615   4.565   2.859   1.454 -0.1504 -0.0846 -0.2801
   39TMC2    O1  616   4.492   2.784   2.031 -0.0695 -0.1429  0.5383
   39TMC2    O2  617   4.521   2.821   1.346 -0.4656 -0.0062  0.0016
   39TMC2    O5  618   4.671   2.937   1.473  0.0979 -0.2762  0.1164
   39TMC2    H5  619   4.703   2.956   1.563 -0.5943 -1.3716  0.5847
   40MPD2     C  620   3.927   3.029   1.946  0.4369  0.1656 -0.4072
   40MPD2    C1  621   3.956   2.982   1.823 -0.0051 -0.2419  0.1228
   40MPD2    C2  622   3.858   2.971   1.728 -0.0112 -0.5248  0.2808
   40MPD2    C3  623   3.726   3.007   1.764 -0.0081 -0.5596 -0.3912
   40MPD2    C4  624   3.704   3.063   1.887 -0.0307 -0.0820  1.1277
   40MPD2    C5  625   3.798   3.068   1.982 -0.2475  0.2317  0.4957
   40MPD2     H  626   3.884   2.941   1.627 -2.1119  1.2835 -0.7895
   40MPD2    H1  627   3.604   3.087   1.919 -0.3439  0.2063 -0.1011
   40MPD2    H2  628   4.003   3.028   2.023  0.5324  0.0685 -0.5024
   40MPD2    H3  629   3.774   3.096   2.084 -0.5240  0.4170  0.3813
   40MPD2     N  630   3.615   3.010   1.677 -0.2989  1.0506 -0.6459
   40MPD2    H5  631   3.527   3.043   1.715 -0.2999  0.6183 -0.2714
   40MPD2    N1  632   4.090   2.936   1.801 -0.3775 -0.3584  0.2407
   40MPD2    H7  633   4.160   2.955   1.872 -0.9664 -1.6154  1.1410
   41TMC2    C1  634   2.451   1.221  13.162  0.5895  0.2153 -0.1907
   41TMC2    C2  635   2.475   1.344  13.222  0.0462  0.4255  0.4590
   41TMC2    C3  636   2.530   1.444  13.150  0.8596  0.5043 -0.1114
   41TMC2    C4  637   2.501   1.202  13.031 -0.3987  0.2512  0.5939
   41TMC2    C5  638   2.552   1.311  12.963  0.5388 -0.0007  0.9652
   41TMC2    C6  639   2.572   1.437  13.021  0.1163 -0.4259 -0.0404
   41TMC2     C  640   2.405   1.107  13.239 -0.1054 -0.1023 -0.4613
   41TMC2     O  641   2.400   1.001  13.176 -0.5738 -0.0915  0.0067
   41TMC2     H  642   2.447   1.355  13.326  1.7733  0.2450  0.9358
   41TMC2    H1  643   2.490   1.107  12.981 -0.2014  1.1298 -1.0971
   41TMC2    H2  644   2.634   1.510  12.970  1.1913 -0.4351  1.2248
   41TMC2    C7  645   2.589   1.292  12.822 -0.0649 -0.1063 -0.4604
   41TMC2    C8  646   2.565   1.563  13.231  0.4085 -0.0206 -0.2027
   41TMC2    O1  647   2.586   1.396  12.753 -0.1438 -0.0368  0.2898
   41TMC2    O2  648   2.609   1.564  13.343 -0.0386  0.0830  0.2700
   41TMC2    O5  649   2.540   1.669  13.153 -0.2633  0.5415  0.3660
   41TMC2    H5  650   2.478   1.662  13.078 -1.1243  1.7263  0.9687
   42MPD2     C  651   2.315   0.894  13.436 -0.5900  0.3727  0.2694
   42MPD2    C1  652   2.340   1.022  13.467 -0.8024  0.0034  0.6234
   42MPD2    C2  653   2.318   1.061  13.600  0.4576  0.7981  0.6007
   42MPD2    C3  654   2.294   0.967  13.704 -0.2991  1.3041  0.8765
   42MPD2    C4  655   2.274   0.836  13.669  0.3636 -0.0084 -0.0236
   42MPD2    C5  656   2.269   0.804  13.535 -0.3394 -0.6371 -0.6743
   42MPD2     H  657   2.336   1.164  13.629  1.3660  0.9486 -0.4656
   42MPD2    H1  658   2.242   0.763  13.743 -0.2787 -0.2562 -0.5448
   42MPD2    H2  659   2.332   0.850  13.339 -1.8744 -1.1431  0.7328
   42MPD2    H3  660   2.270   0.700  13.506 -1.4549 -0.6027 -0.8403
   42MPD2     N  661   2.304   1.006  13.845  0.1046  0.2729 -0.0434
   42MPD2    H5  662   2.311   0.933  13.915 -0.6005  0.3913  0.1385
   42MPD2    N1  663   2.380   1.123  13.373 -0.1347  0.5026 -0.2435
   42MPD2    H7  664   2.402   1.215  13.410 -3.1065  0.5104  1.4905
   43TMC2    C1  665   4.148   3.969   1.431 -0.0141  0.6009  0.6670
   43TMC2    C2  666   4.028   4.018   1.464  0.3032  0.4384  0.2535
   43TMC2    C3  667   4.011   4.056   1.591 -0.3167 -0.4811 -0.3936
   43TMC2    C4  668   4.238   3.936   1.525 -0.3501 -0.4329  0.0310
   43TMC2    C5  669   4.210   3.952   1.658 -0.8422 -0.2688 -0.2378
   43TMC2    C6  670   4.087   4.016   1.693 -0.7810  0.1968 -0.8058
   43TMC2     C  671   4.178   3.915   1.299  0.4022  0.5802 -0.1364
   43TMC2     O  672   4.295   3.901   1.271  0.9495 -0.4867  0.1758
   43TMC2     H  673   3.959   4.058   1.391 -0.9797  1.3201  1.9452
   43TMC2    H1  674   4.334   3.894   1.496 -0.1628  0.0030  0.0082
   43TMC2    H2  675   4.045   4.019   1.793  2.7879 -0.1408  0.7120
   43TMC2    C7  676   4.288   3.868   1.748 -0.4227 -0.0653  0.2298
   43TMC2    C8  677   3.891   4.126   1.622 -0.3032  0.6942 -0.2379
   43TMC2    O1  678   4.379   3.806   1.697  0.3876 -0.1443 -0.0674
   43TMC2    O2  679   3.801   4.073   1.688  0.2080 -0.0980  0.1415
   43TMC2    O5  680   3.943   4.249   1.634 -0.3646 -0.1240 -0.3084
   43TMC2    H5  681   4.016   4.267   1.571  0.3345 -0.9972  0.2398
   44MPD2     C  682   4.029   3.658   0.882 -0.6928  0.6514  0.2438
   44MPD2    C1  683   4.153   3.685   0.928  0.2231  0.9374  0.3239
   44MPD2    C2  684   4.163   3.761   1.041 -0.6952 -0.0507 -0.7793
   44MPD2    C3  685   4.050   3.801   1.116  0.4510  0.0093  0.2438
   44MPD2    C4  686   3.931   3.760   1.069 -0.0996  0.0171  0.1251
   44MPD2    C5  687   3.919   3.686   0.950 -0.8268  0.5713  0.3084
   44MPD2     H  688   4.265   3.796   1.057 -1.5868  0.7218  3.1568
   44MPD2    H1  689   3.845   3.778   1.132 -0.4269 -0.0809 -0.2903
   44MPD2    H2  690   4.009   3.607   0.788  0.5982  1.9529 -0.7293
   44MPD2    H3  691   3.825   3.642   0.919 -1.3331  0.2045  2.4137
   44MPD2     N  692   4.059   3.875   1.237  0.0302  0.8972 -0.2849
   44MPD2    H5  693   3.971   3.888   1.285 -0.2167  0.4431 -0.6148
   44MPD2    N1  694   4.268   3.637   0.865 -0.6641  0.3897  0.4356
   44MPD2    H7  695   4.360   3.670   0.894  0.0943 -0.0115 -1.5164
   45TMC2    C1  696   4.220   1.699  10.082  0.0475  0.2811 -0.9680
   45TMC2    C2  697   4.155   1.730   9.967 -0.3130 -0.2088 -0.1583
   45TMC2    C3  698   4.188   1.847   9.908  0.6469 -0.0004 -0.0517
   45TMC2    C4  699   4.323   1.780  10.129  0.4185 -0.7227  0.6507
   45TMC2    C5  700   4.352   1.891  10.060  0.0039 -0.0794  0.6575
   45TMC2    C6  701   4.281   1.929   9.951 -0.1110  0.8089  0.2995
   45TMC2     C  702   4.200   1.571  10.156  0.8452 -0.2446 -0.3778
   45TMC2     O  703   4.251   1.556  10.267 -0.4209  0.2988 -0.8587
   45TMC2     H  704   4.075   1.668   9.929 -1.7433  1.8290 -0.4706
   45TMC2    H1  705   4.382   1.742  10.212  0.0506 -0.7003  0.9236
   45TMC2    H2  706   4.305   2.018   9.893 -0.6211  1.0280  0.4303
   45TMC2    C7  707   4.464   1.966  10.115 -0.5122 -0.4443 -0.1308
   45TMC2    C8  708   4.120   1.886   9.786  0.3245  0.0637 -0.0603
   45TMC2    O1  709   4.498   1.946  10.230  0.1983 -0.0372 -0.4296
   45TMC2    O2  710   4.139   1.996   9.738 -0.2629 -0.1696 -0.1418
   45TMC2    O5  711   4.032   1.787   9.734 -0.7357 -0.1700 -0.3337
   45TMC2    H5  712   4.047   1.698   9.772 -0.7988  0.9540  2.3104
   46MPD2     C  713   4.157   1.280  10.237  0.8823 -0.5998 -0.3064
   46MPD2    C1  714   4.108   1.341  10.122 -0.0169  0.8504 -0.2594
   46MPD2    C2  715   4.026   1.276  10.032 -0.6012 -0.3335 -0.6041
   46MPD2    C3  716   3.980   1.148  10.065  0.1664 -0.5453 -0.7578
   46MPD2    C4  717   4.026   1.095  10.185 -0.0649  0.2924 -0.7555
   46MPD2    C5  718   4.117   1.153  10.268  0.6787  0.7566 -0.2791
   46MPD2     H  719   3.991   1.327   9.942  0.1417  0.7831 -0.2638
   46MPD2    H1  720   3.989   1.003  10.230 -0.8659  1.5846  1.1864
   46MPD2    H2  721   4.224   1.324  10.311 -2.0412 -0.4246  2.2557
   46MPD2    H3  722   4.155   1.113  10.361 -3.4944  0.4472  1.2785
   46MPD2     N  723   3.881   1.086   9.985  0.1585  0.1358  0.2984
   46MPD2    H5  724   3.857   1.134   9.899 -1.4522  0.5586  0.9827
   46MPD2    N1  725   4.129   1.475  10.088 -0.1710 -0.4070  0.2557
   46MPD2    H7  726   4.101   1.500   9.993 -2.4986  0.4845  1.1585
   47TMC2    C1  727   1.590   2.418   9.496 -0.6556 -0.1421  0.0995
   47TMC2    C2  728   1.620   2.335   9.387 -0.0427 -0.4069 -0.2573
   47TMC2    C3  729   1.537   2.350   9.279  0.4637  0.1413  0.6111
   47TMC2    C4  730   1.473   2.487   9.505 -0.4468  0.1836 -0.1172
   47TMC2    C5  731   1.385   2.473   9.407  0.3699 -0.2218  0.0350
   47TMC2    C6  732   1.416   2.413   9.291  0.4153  0.2681 -0.5461
   47TMC2     C  733   1.685   2.424   9.600 -0.3607  0.0022 -0.6546
   47TMC2     O  734   1.683   2.526   9.670 -0.1261 -0.7014 -0.3751
   47TMC2     H  735   1.720   2.297   9.368  0.3515 -0.7216  2.5803
   47TMC2    H1  736   1.437   2.523   9.601 -1.2350 -2.5319  0.6179
   47TMC2    H2  737   1.332   2.413   9.222 -1.5815 -1.4387  1.8985
   47TMC2    C7  738   1.238   2.500   9.425 -0.8462 -0.0723  0.2907
   47TMC2    C8  739   1.561   2.264   9.167 -0.3492  0.2987  0.3979
   47TMC2    O1  740   1.176   2.555   9.337  0.0310 -0.9706 -0.3302
   47TMC2    O2  741   1.646   2.172   9.172  0.4614  0.1228 -0.1014
   47TMC2    O5  742   1.489   2.296   9.066  0.2992  0.6040  0.2339
   47TMC2    H5  743   1.418   2.363   9.076  0.6246  0.7597  1.4887
   48MPD2     C  744   1.940   2.396   9.756  0.2375  0.1188  0.1129
   48MPD2    C1  745   1.874   2.290   9.694  0.7909 -0.5448  0.8821
   48MPD2    C2  746   1.922   2.168   9.693 -0.4977  0.0967 -0.4732
   48MPD2    C3  747   2.035   2.139   9.768 -1.0236 -0.1716 -0.2290
   48MPD2    C4  748   2.110   2.240   9.821 -0.1062  0.5359 -0.2709
   48MPD2    C5  749   2.062   2.372   9.812  0.2909  0.5737  0.0030
   48MPD2     H  750   1.871   2.086   9.644 -0.9687  1.0955 -1.6605
   48MPD2    H1  751   2.200   2.217   9.876 -0.1351  0.0321 -0.4298
   48MPD2    H2  752   1.902   2.497   9.748 -0.6482 -0.3158 -1.1279
   48MPD2    H3  753   2.128   2.456   9.829 -0.0846  1.3227 -2.2306
   48MPD2     N  754   2.089   2.008   9.760 -0.3430 -0.2903  0.0722
   48MPD2    H5  755   2.047   1.954   9.684  0.3695  1.2693 -1.4440
   48MPD2    N1  756   1.760   2.312   9.617  0.0190  0.5055 -0.5924
   48MPD2    H7  757   1.722   2.229   9.574 -1.0737  0.4805  0.4180
   49TMC2    C1  758   0.641   4.558  10.752 -0.3984 -0.2994 -0.0003
   49TMC2    C2  759   0.688   4.685  10.730 -0.6411  0.6019 -0.2372
   49TMC2    C3  760   0.669   0.002  10.609  0.3622 -0.3393  0.8820
   49TMC2    C4  761   0.598   4.482  10.652  0.6425 -0.0067 -1.0679
   49TMC2    C5  762   0.588   4.533  10.528 -0.2545 -0.4021  0.3693
   49TMC2    C6  763   0.614   4.667  10.506 -0.8656 -0.0343 -0.8053
   49TMC2     C  764   0.640   4.513  10.891 -0.1299 -0.2161 -0.7980
   49TMC2     O  765   0.717   4.582  10.959 -0.0154  0.8889 -0.0940
   49TMC2     H  766   0.732   0.017  10.802 -0.7078  0.5335 -0.1332
   49TMC2    H1  767   0.591   4.375  10.667 -1.8303 -0.0252 -2.4262
   49TMC2    H2  768   0.608   4.700  10.403  1.3005  0.1130 -0.8899
   49TMC2    C7  769   0.556   4.452  10.411 -0.7258 -0.0964  0.4520
   49TMC2    C8  770   0.713   0.135  10.581  0.3226 -0.1667  0.2611
   49TMC2    O1  771   0.582   4.502  10.306  0.0459  0.2453  0.2619
   49TMC2    O2  772   0.796   0.185  10.655 -0.8473  0.0421  0.1207
   49TMC2    O5  773   0.628   0.192  10.489  0.3383 -0.2966  0.1751
   49TMC2    H5  774   0.553   0.132  10.465 -0.4819  0.4769  0.8248
   50MPD2     C  775   0.587   4.424  11.171 -0.2974  0.4928 -0.8784
   50MPD2    C1  776   0.533   4.365  11.061  0.3357 -0.6679  0.2879
   50MPD2    C2  777   0.427   4.270  11.081  0.5153 -0.8671 -0.4503
   50MPD2    C3  778   0.387   4.245  11.207  0.3888 -0.3192 -0.2732
   50MPD2    C4  779   0.441   4.316  11.317  0.8641  0.2911  0.2443
   50MPD2    C5  780   0.545   4.398  11.298  0.1730 -0.0133  0.0345
   50MPD2     H  781   0.379   4.225  10.995 -0.0007 -0.2065 -0.5023
   50MPD2    H1  782   0.408   4.296  11.419  0.0467  3.8262  0.6554
   50MPD2    H2  783   0.669   4.493  11.161 -0.6167  0.8988 -0.6976
   50MPD2    H3  784   0.583   4.444  11.388 -0.5184 -3.2694  1.9882
   50MPD2     N  785   0.271   4.163  11.234 -0.5341 -0.2195  0.4409
   50MPD2    H5  786   0.243   4.149  11.331 -1.6008  0.1539  0.1861
   50MPD2    N1  787   0.551   4.412  10.927  0.3126  0.3669  0.1900
   50MPD2    H7  788   0.486   4.374  10.860  1.0319 -0.2214 -0.1746
   51TMC2    C1  789   1.217   2.913   1.845  0.5106 -0.1614 -0.3526
   51TMC2    C2  790   1.322   2.880   1.924 -0.0368  0.0951 -0.3618
   51TMC2    C3  791   1.421   2.968   1.943  0.0721  0.2964 -0.1395
   51TMC2    C4  792   1.205   3.043   1.801  0.0503 -0.7288 -0.2202
   51TMC2    C5  793   1.288   3.132   1.856  0.4531 -0.1382  0.3013
   51TMC2    C6  794   1.406   3.100   1.914 -0.2530  0.2119 -0.0652
   51TMC2     C  795   1.129   2.808   1.798 -0.3647 -0.5278  0.7672
   51TMC2     O  796   1.154   2.692   1.833  0.0580 -0.0523 -0.8619
   51TMC2     H  797   1.332   2.778   1.959  1.6024  0.9133  1.5515
   51TMC2    H1  798   1.129   3.072   1.729 -0.6638 -0.6303  0.5726
   51TMC2    H2  799   1.471   3.173   1.961  0.5856 -0.6905  0.1648
   51TMC2    C7  800   1.278   3.271   1.818 -0.4601  0.2233 -0.3793
   51TMC2    C8  801   1.475   2.951   2.071 -0.5212 -0.1498 -0.3984
   51TMC2    O1  802   1.378   3.334   1.850 -0.4574 -0.0512  0.2935
   51TMC2    O2  803   1.408   2.949   2.171 -0.0028 -0.4521 -0.1142
   51TMC2    O5  804   1.604   2.977   2.068  0.0148  0.1080 -0.0174
   51TMC2    H5  805   1.635   2.981   1.975 -2.0241 -0.2538 -0.7099
   52MPD2     C  806   0.661   2.673   1.644 -0.7694 -0.6571  0.4330
   52MPD2    C1  807   0.776   2.601   1.654  0.6965  0.4002 -1.0027
   52MPD2    C2  808   0.893   2.667   1.699 -0.1799 -0.1690 -0.3232
   52MPD2    C3  809   0.891   2.798   1.729 -0.4094  0.2182 -0.5039
   52MPD2    C4  810   0.767   2.863   1.718  0.1909  0.4659 -0.3467
   52MPD2    C5  811   0.654   2.804   1.681 -0.0174  0.0694 -0.2272
   52MPD2     H  812   0.984   2.608   1.708 -0.7755 -1.0698 -0.1538
   52MPD2    H1  813   0.757   2.971   1.724  0.2395  0.3483  1.8900
   52MPD2    H2  814   0.568   2.624   1.616 -0.9519  0.7998 -1.5017
   52MPD2    H3  815   0.564   2.861   1.664  2.0132  3.3980  0.1179
   52MPD2     N  816   1.007   2.863   1.778  0.4813 -0.1072  0.6190
   52MPD2    H5  817   0.995   2.959   1.807 -1.3194 -0.5934  1.4365
   52MPD2    N1  818   0.783   2.465   1.617 -0.5568 -0.2361  0.0314
   52MPD2    H7  819   0.873   2.420   1.632  0.2200  0.4516 -2.5535
   53TMC2    C1  820   1.283   1.735  11.725 -0.8838  0.5373  0.0859
   53TMC2    C2  821   1.402   1.682  11.683  0.2488  0.0283  0.7658
   53TMC2    C3  822   1.450   1.588  11.764 -0.3721  0.6264 -0.4111
   53TMC2    C4  823   1.219   1.697  11.843  0.6348 -0.4787 -0.8009
   53TMC2    C5  824   1.281   1.601  11.925 -0.4166  0.0443  0.4295
   53TMC2    C6  825   1.386   1.536  11.876  0.3833  0.6768  0.0331
   53TMC2     C  826   1.209   1.801  11.622 -0.1284 -0.0685  0.0774
   53TMC2     O  827   1.271   1.852  11.532  0.2014  0.6212 -0.1809
   53TMC2     H  828   1.445   1.712  11.588 -2.2432 -0.1161 -0.4017
   53TMC2    H1  829   1.126   1.742  11.874 -0.3505 -2.4824 -0.8856
   53TMC2    H2  830   1.426   1.449  11.926 -0.1326  2.0887  2.9083
   53TMC2    C7  831   1.208   1.563  12.048 -0.5993  0.0678  0.5629
   53TMC2    C8  832   1.547   1.497  11.708 -0.3691  0.1523 -0.0119
   53TMC2    O1  833   1.091   1.592  12.050  0.0940 -0.2482  0.4405
   53TMC2    O2  834   1.651   1.468  11.771  0.4442 -0.4350 -0.7810
   53TMC2    O5  835   1.461   1.399  11.669  0.0617 -0.1637  0.0344
   53TMC2    H5  836   1.371   1.417  11.635  0.6062  0.0078 -1.3042
   54MPD2     C  837   0.998   1.941  11.466 -0.6817  0.5300  0.5155
   54MPD2    C1  838   0.982   1.822  11.543 -0.5478  0.2294  0.4805
   54MPD2    C2  839   0.857   1.764  11.542 -0.5798  0.6491  0.1313
   54MPD2    C3  840   0.750   1.833  11.478 -0.0662 -0.1976  0.1357
   54MPD2    C4  841   0.773   1.950  11.406  0.4846  0.1107  0.0987
   54MPD2    C5  842   0.900   1.992  11.390 -0.5335  0.3773  0.2697
   54MPD2     H  843   0.838   1.674  11.600  1.1387  0.7880  0.9077
   54MPD2    H1  844   0.698   2.016  11.363  1.0953  1.2425  0.7805
   54MPD2    H2  845   1.092   1.993  11.465  0.3445 -1.3343 -0.0297
   54MPD2    H3  846   0.925   2.086  11.343  0.6047 -1.1628 -2.2070
   54MPD2     N  847   0.614   1.793  11.492 -0.6861  0.5464  1.0237
   54MPD2    H5  848   0.545   1.847  11.440  0.0145 -0.7622 -1.2828
   54MPD2    N1  849   1.077   1.762  11.622 -0.2152  0.5328 -0.0282
   54MPD2    H7  850   1.049   1.683  11.680  1.2149  1.4461  1.9115
   55TMC2    C1  851   2.404   4.075   0.313 -0.8687  1.1376  0.0652
   55TMC2    C2  852   2.398   4.086   0.179  0.0415 -0.4020  1.1826
   55TMC2    C3  853   2.420   3.973   0.117 -0.0557  0.3280  0.0639
   55TMC2    C4  854   2.424   3.958   0.374 -0.5779  0.3568 -0.1988
   55TMC2    C5  855   2.443   3.845   0.304 -0.0487  0.0022  0.1662
   55TMC2    C6  856   2.450   3.854   0.171  1.0545 -0.4144 -0.4332
   55TMC2     C  857   2.344   4.177   0.394 -0.2016 -0.1280  0.0287
   55TMC2     O  858   2.353   4.162   0.513  0.3935 -0.4655  1.0627
   55TMC2     H  859   2.389   4.178   0.124 -1.1034 -1.3467 -0.2141
   55TMC2    H1  860   2.412   3.959   0.481  0.2921  0.2100 -0.0977
   55TMC2    H2  861   2.462   3.770   0.103 -0.2289 -1.8745  1.1565
   55TMC2    C7  862   2.502   3.729   0.357  1.1160  0.4800 -0.3640
   55TMC2    C8  863   2.424   3.980  17.715  0.4191 -0.6854 -0.0368
   55TMC2    O1  864   2.569   3.659   0.281 -0.2646 -0.0979 -0.0868
   55TMC2    O2  865   2.498   3.900  17.650  0.2837 -0.2093 -0.4852
   55TMC2    O5  866   2.298   4.008  17.675  0.2436 -0.0443  0.0217
   55TMC2    H5  867   2.246   4.041   0.013  1.7054 -0.9877  1.4524
   56MPD2     C  868   2.164   4.481   0.287  0.5989 -0.7123 -0.2058
   56MPD2    C1  869   2.211   4.388   0.378  0.4911 -0.5233  0.3531
   56MPD2    C2  870   2.168   4.391   0.510  0.0099 -0.0523 -0.0453
   56MPD2    C3  871   2.093   4.494   0.559  0.1048 -0.2788  0.6391
   56MPD2    C4  872   2.053   4.594   0.466  0.3213  0.0458  0.4992
   56MPD2    C5  873   2.083   4.583   0.334 -0.2466 -0.2533 -0.4624
   56MPD2     H  874   2.200   4.324   0.589 -0.2739 -1.2913 -0.9842
   56MPD2    H1  875   1.983   4.674   0.487 -0.8139 -1.1955  1.4575
   56MPD2    H2  876   2.175   4.477   0.180 -3.5638  2.6550 -0.7908
   56MPD2    H3  877   2.048   4.654   0.260  0.0653 -0.0062 -0.3747
   56MPD2     N  878   2.039   4.486   0.690 -0.9331  0.1188 -0.2802
   56MPD2    H5  879   2.069   4.400   0.734 -0.9377  0.6091  0.6859
   56MPD2    N1  880   2.292   4.283   0.328 -0.0734 -1.0748 -0.4683
   56MPD2    H7  881   2.307   4.277   0.228  0.9085 -0.4186 -0.3590
   57TMC2    C1  882   1.342   4.385  13.953  0.0412 -0.3227  0.9683
   57TMC2    C2  883   1.448   4.365  14.032  0.2233 -0.3619 -0.2929
   57TMC2    C3  884   1.557   4.323  13.974  0.0568  0.4807  0.6728
   57TMC2    C4  885   1.351   4.362  13.815  0.3642 -0.1381 -0.1284
   57TMC2    C5  886   1.467   4.317  13.757  0.1524 -0.3469 -0.5545
   57TMC2    C6  887   1.572   4.292  13.841  0.4695  0.3319 -0.0595
   57TMC2     C  888   1.212   4.390  14.013  0.4590  0.0013  0.7365
   57TMC2     O  889   1.209   4.440  14.125  0.2048 -0.2625 -0.1738
   57TMC2     H  890   1.432   4.361  14.139 -1.3944 -0.4374 -0.5431
   57TMC2    H1  891   1.272   4.382  13.744  2.3887 -1.9261 -2.8560
   57TMC2    H2  892   1.663   4.251  13.800  0.8247  0.4049  0.6495
   57TMC2    C7  893   1.460   4.252  13.622  0.0050  0.0959 -0.0698
   57TMC2    C8  894   1.674   4.308  14.055 -0.5519  0.5577 -0.2375
   57TMC2    O1  895   1.382   4.305  13.542 -0.0630 -0.3427 -0.1340
   57TMC2    O2  896   1.761   4.224  14.045 -0.5266 -0.6101 -0.8725
   57TMC2    O5  897   1.655   4.392  14.159 -0.7194 -0.2443  0.4145
   57TMC2    H5  898   1.575   4.446  14.143  0.3036  1.5117  1.2182
   58MPD2     C  899   0.699   4.298  14.002 -0.6501 -0.0799 -0.6870
   58MPD2    C1  900   0.779   4.350  14.097 -0.0576  0.1631 -0.6614
   58MPD2    C2  901   0.916   4.345  14.084 -0.3204  0.5196  0.6463
   58MPD2    C3  902   0.975   4.310  13.963 -0.1910 -0.2815  0.0780
   58MPD2    C4  903   0.894   4.244  13.873 -0.5276 -0.2692 -0.1650
   58MPD2    C5  904   0.758   4.239  13.896  0.5925  0.0132 -0.8497
   58MPD2     H  905   0.969   4.385  14.171 -1.8979  0.7287  1.5062
   58MPD2    H1  906   0.938   4.205  13.782  2.0911 -1.9129  1.7743
   58MPD2    H2  907   0.591   4.303  14.004 -0.7529 -1.9001 -1.5101
   58MPD2    H3  908   0.700   4.200  13.813 -0.8182 -0.0435  0.1787
   58MPD2     N  909   1.116   4.326  13.934  0.1723 -0.6467  0.2068
   58MPD2    H5  910   1.146   4.284  13.846 -0.3533 -0.1082 -0.2280
   58MPD2    N1  911   0.730   4.417  14.216  0.0978  0.0162 -0.0143
   58MPD2    H7  912   0.801   4.459  14.276 -0.7746 -1.1737  1.8423
   59TMC2    C1  913   3.234   0.552  12.741  0.1936  0.5998  0.0722
   59TMC2    C2  914   3.172   0.441  12.788 -0.0649 -0.0519  0.3398
   59TMC2    C3  915   3.164   0.327  12.715 -0.3642  0.7956 -0.3464
   59TMC2    C4  916   3.278   0.549  12.610  1.2108 -0.2930 -0.4156
   59TMC2    C5  917   3.250   0.440  12.531 -0.1912  0.5406  0.1441
   59TMC2    C6  918   3.203   0.320  12.579  0.9960  0.3023  0.0648
   59TMC2     C  919   3.305   0.633  12.828 -0.4817  0.1925  0.3911
   59TMC2     O  920   3.359   0.736  12.786  0.3177 -0.0792 -0.2763
   59TMC2     H  921   3.114   0.444  12.879  1.4026  0.8906  1.2338
   59TMC2    H1  922   3.320   0.642  12.573  0.0134  0.8130  0.9533
   59TMC2    H2  923   3.183   0.232  12.518 -0.0556 -0.4266  1.4509
   59TMC2    C7  924   3.306   0.435  12.394  0.3426 -0.1790  0.3093
   59TMC2    C8  925   3.072   0.229  12.764 -0.1786  0.8274 -0.4338
   59TMC2    O1  926   3.323   0.327  12.338  0.5572  0.0668  0.2180
   59TMC2    O2  927   2.996   0.160  12.698 -0.8418 -0.0565  0.5515
   59TMC2    O5  928   3.132   0.181  12.879 -0.1755 -0.3432  0.4300
   59TMC2    H5  929   3.205   0.238  12.911 -0.6768  0.8031 -0.4816
   60MPD2     C  930   3.386   0.767  13.066 -0.3806  0.1119  0.4532
   60MPD2    C1  931   3.398   0.627  13.057 -0.1037  0.4290 -0.1397
   60MPD2    C2  932   3.464   0.561  13.157  0.5487  0.0206 -0.8534
   60MPD2    C3  933   3.513   0.625  13.279  0.0956 -0.5276 -0.0512
   60MPD2    C4  934   3.490   0.761  13.284 -0.2361  1.3020  0.6948
   60MPD2    C5  935   3.434   0.833  13.176  0.2202  0.4569 -1.0385
   60MPD2     H  936   3.472   0.453  13.150 -2.8922 -0.2512 -0.5483
   60MPD2    H1  937   3.529   0.821  13.365  1.8115  0.4654  0.3239
   60MPD2    H2  938   3.323   0.830  13.004  1.5740  1.2482 -0.3508
   60MPD2    H3  939   3.428   0.941  13.178 -0.3700  0.4293 -1.4381
   60MPD2     N  940   3.585   0.557  13.384 -0.3793 -0.0126 -0.1428
   60MPD2    H5  941   3.633   0.607  13.459  0.2004  0.1352 -0.6131
   60MPD2    N1  942   3.339   0.562  12.945 -0.1802 -0.3990  0.4248
   60MPD2    H7  943   3.323   0.462  12.956  0.5483 -0.5300  0.2981
   61TMC2    C1  944   2.950   1.779  15.774 -0.5150 -0.1265  0.1676
   61TMC2    C2  945   2.869   1.768  15.878 -0.4392 -0.4146  0.6510
   61TMC2    C3  946   2.843   1.885  15.945  0.5200  1.1411  0.4800
   61TMC2    C4  947   3.012   1.893  15.737 -0.2493  0.2405  0.3808
   61TMC2    C5  948   2.981   2.007  15.795  0.6184 -0.2289  0.1972
   61TMC2    C6  949   2.895   2.005  15.907 -0.5240  0.0719 -0.2909
   61TMC2     C  950   2.917   1.679  15.668  0.2849  0.2119  0.0604
   61TMC2     O  951   2.865   1.577  15.710 -0.0276 -0.5958 -0.2848
   61TMC2     H  952   2.805   1.685  15.905  1.4008 -1.7328  0.9682
   61TMC2    H1  953   3.082   1.890  15.654 -1.9109  0.4340 -1.0221
   61TMC2    H2  954   2.878   2.098  15.961 -2.9790 -1.5620  1.7488
   61TMC2    C7  955   3.059   2.126  15.767 -0.4087 -0.3401  0.1516
   61TMC2    C8  956   2.723   1.889  16.032 -0.9657  0.1346  0.1921
   61TMC2    O1  957   3.107   2.146  15.655 -0.4051 -0.4668  0.0067
   61TMC2    O2  958   2.640   1.797  16.032  0.1962 -0.1184  0.6342
   61TMC2    O5  959   2.740   1.994  16.120 -0.4389 -0.1342 -0.7413
   61TMC2    H5  960   2.832   2.027  16.129 -0.4810 -0.0549 -0.5937
   62MPD2     C  961   2.858   1.523  15.416  0.4743  0.9095 -0.1110
   62MPD2    C1  962   2.922   1.644  15.418 -0.3046  0.1170 -0.7194
   62MPD2    C2  963   2.951   1.706  15.293  0.0752  0.1839  0.1868
   62MPD2    C3  964   2.919   1.640  15.177 -0.0575  0.2666  0.4670
   62MPD2    C4  965   2.847   1.522  15.176 -0.1380  0.0928 -0.4515
   62MPD2    C5  966   2.826   1.463  15.299 -0.1838 -0.1967 -0.4558
   62MPD2     H  967   3.014   1.795  15.292  1.0056 -0.4817  0.5972
   62MPD2    H1  968   2.825   1.469  15.084  2.7248  1.0878 -1.7049
   62MPD2    H2  969   2.834   1.467  15.505  3.1083  1.3138  0.8314
   62MPD2    H3  970   2.769   1.370  15.302  1.1924 -1.0520 -0.9928
   62MPD2     N  971   2.961   1.693  15.051  0.2701 -0.3245  0.2309
   62MPD2    H5  972   2.932   1.651  14.963 -1.1683  1.2841 -0.0607
   62MPD2    N1  973   2.955   1.711  15.537  0.0882 -0.6355  0.3712
   62MPD2    H7  974   3.001   1.798  15.515 -0.6950 -0.7122 -1.5276
   63TMC2    C1  975   2.399   2.089  10.754 -0.9342 -0.2676 -0.2830
   63TMC2    C2  976   2.529   2.127  10.730  0.2278 -0.0524  0.4907
   63TMC2    C3  977   2.553   2.216  10.626  0.2170  0.0322 -0.0496
   63TMC2    C4  978   2.300   2.113  10.667  0.7014 -0.1257  0.1965
   63TMC2    C5  979   2.332   2.194  10.554  0.2444  0.2188  0.6005
   63TMC2    C6  980   2.458   2.249  10.536  0.1255  0.4398  0.1646
   63TMC2     C  981   2.374   2.041  10.895 -0.0947  0.1676 -0.0698
   63TMC2     O  982   2.446   2.081  10.988  0.3826 -0.1137 -0.4540
   63TMC2     H  983   2.612   2.107  10.797 -0.9970  0.9410  2.3211
   63TMC2    H1  984   2.197   2.082  10.681  0.4732  1.7257  2.7045
   63TMC2    H2  985   2.486   2.325  10.464  3.3719  0.2736  1.2326
   63TMC2    C7  986   2.220   2.211  10.461 -0.3481  0.2736 -0.0267
   63TMC2    C8  987   2.673   2.291  10.619 -0.3700  1.0519  0.1236
   63TMC2    O1  988   2.140   2.122  10.464  0.4186 -0.0090 -0.0314
   63TMC2    O2  989   2.690   2.414  10.629 -0.0034  0.0861 -0.2193
   63TMC2    O5  990   2.777   2.203  10.631 -0.9706 -0.0274  0.3536
   63TMC2    H5  991   2.751   2.115  10.598 -2.2170  0.2895  0.4797
   64MPD2     C  992   2.187   1.684  11.201 -0.1249  0.0250 -0.1424
   64MPD2    C1  993   2.162   1.641  11.076 -0.1244 -1.2498  0.4023
   64MPD2    C2  994   2.194   1.727  10.971 -0.0747  0.3241  0.8561
   64MPD2    C3  995   2.251   1.847  10.995 -0.0390  0.1037 -0.6690
   64MPD2    C4  996   2.276   1.884  11.125  0.6550 -0.0961 -0.5472
   64MPD2    C5  997   2.242   1.804  11.223  0.5079 -0.3013  0.6120
   64MPD2     H  998   2.180   1.676  10.877 -0.8231 -2.3490  2.4102
   64MPD2    H1  999   2.326   1.977  11.152  0.2459 -0.4514  1.4110
   64MPD2    H2 1000   2.167   1.628  11.292 -0.5068  0.7165  0.2003
   64MPD2    H3 1001   2.256   1.838  11.325  3.0970 -0.6902  0.3749
   64MPD2     N 1002   2.289   1.929  10.889 -0.5810  0.5803 -0.2623
   64MPD2    H5 1003   2.251   1.908  10.797  0.2780  2.2943 -0.9970
   64MPD2    N1 1004   2.107   1.513  11.054 -0.8017  0.1487  0.5443
   64MPD2    H7 1005   2.073   1.496  10.960 -1.8821  1.1153  0.7692
   65TMC2    C1 1006   3.252   1.306  15.829  0.2401  0.4104  0.6437
   65TMC2    C2 1007   3.173   1.241  15.740  0.1291  0.1192 -0.8740
   65TMC2    C3 1008   3.131   1.309  15.625 -0.2088  0.4337 -0.6527
   65TMC2    C4 1009   3.285   1.439  15.818 -0.5135  0.6491 -0.2576
   65TMC2    C5 1010   3.238   1.502  15.705  0.6615  0.9133  0.3011
   65TMC2    C6 1011   3.165   1.438  15.608 -0.5835  0.1327 -0.2436
   65TMC2     C 1012   3.322   1.229  15.930  0.0693  0.5590  0.5328
   65TMC2     O 1013   3.359   1.303  16.023 -0.6495  0.3417  0.2471
   65TMC2     H 1014   3.156   1.134  15.741 -0.6044  0.2647  1.5918
   65TMC2    H1 1015   3.352   1.481  15.893  1.6880 -2.2806 -0.5795
   65TMC2    H2 1016   3.133   1.499  15.524 -1.2084 -1.6594 -1.3176
   65TMC2    C7 1017   3.264   1.644  15.678 -0.2333 -0.2910 -0.9354
   65TMC2    C8 1018   3.046   1.240  15.525 -0.4589  0.0078  0.3163
   65TMC2    O1 1019   3.262   1.678  15.559 -0.1459 -0.5737 -0.5984
   65TMC2    O2 1020   2.991   1.128  15.546  0.3939 -0.2095 -0.9741
   65TMC2    O5 1021   3.087   1.282  15.401  0.1838 -0.3256  0.6635
   65TMC2    H5 1022   3.152   1.355  15.403  2.8732 -2.6754 -1.2921
   66MPD2     C 1023   3.496   1.047  16.109  0.0224  0.4523 -0.0965
   66MPD2    C1 1024   3.425   1.013  15.997 -0.1457 -0.2265 -0.0015
   66MPD2    C2 1025   3.439   0.884  15.946  0.2761  0.0295  0.3655
   66MPD2    C3 1026   3.512   0.788  16.009  0.5628  0.1647  0.5416
   66MPD2    C4 1027   3.568   0.820  16.131 -0.2230  0.0213  0.0419
   66MPD2    C5 1028   3.567   0.948  16.175  0.0778 -0.0494  0.4474
   66MPD2     H 1029   3.396   0.869  15.847  0.4884  1.5131  0.0369
   66MPD2    H1 1030   3.618   0.741  16.186 -1.4876 -0.6791  0.2113
   66MPD2    H2 1031   3.483   1.145  16.155  1.2645  1.0563 -1.0420
   66MPD2    H3 1032   3.635   0.970  16.257 -0.2233  0.9473  0.4224
   66MPD2     N 1033   3.536   0.658  15.965 -0.1653 -0.0669 -0.0766
   66MPD2    H5 1034   3.595   0.597  16.020 -1.4558 -2.2697 -1.1372
   66MPD2    N1 1035   3.344   1.100  15.914 -0.5427 -0.0109 -0.2053
   66MPD2    H7 1036   3.333   1.065  15.819 -1.2482  0.9571 -0.4892
   67TMC2    C1 1037   3.663   4.399  14.484 -0.1927  0.1658 -0.5399
   67TMC2    C2 1038   3.545   4.386  14.562  0.5981 -0.4070  0.6936
   67TMC2    C3 1039   3.548   4.426  14.694  0.7968 -0.4979 -0.5534
   67TMC2    C4 1040   3.777   4.451  14.534  0.5125  0.7323  0.1112
   67TMC2    C5 1041   3.772   4.489  14.665  0.3889  0.2200 -0.7020
   67TMC2    C6 1042   3.670   4.470  14.749 -0.4318  0.5524 -0.5463
   67TMC2     C 1043   3.643   4.382  14.345  0.2355 -0.1290  0.2560
   67TMC2     O 1044   3.734   4.359  14.267  0.1682 -0.0823  0.4383
   67TMC2     H 1045   3.466   4.317  14.535  1.9074 -1.9379  0.7665
   67TMC2    H1 1046   3.861   4.470  14.469  1.1971 -1.5965  0.3229
   67TMC2    H2 1047   3.682   4.477  14.857  0.3875 -1.4524 -0.5181
   67TMC2    C7 1048   3.893   4.543  14.722 -0.2956 -0.1042 -0.8823
   67TMC2    C8 1049   3.461   4.353  14.782  0.0148 -0.6784 -0.2253
   67TMC2    O1 1050   3.986   4.538  14.641 -0.1039  0.1019 -0.3537
   67TMC2    O2 1051   3.495   4.320  14.895 -0.0452  0.3669 -0.2086
   67TMC2    O5 1052   3.334   4.363  14.731 -0.2158 -0.4526 -0.2175
   67TMC2    H5 1053   3.333   4.412  14.646  0.4805 -1.1111 -0.6087
   68MPD2     C 1054   3.536   4.436  14.072 -0.1043  0.1458 -0.6155
   68MPD2    C1 1055   3.464   4.447  14.183  0.0767 -0.2653  0.8658
   68MPD2    C2 1056   3.344   4.521  14.174 -0.3486 -0.6336 -0.5116
   68MPD2    C3 1057   3.300   4.588  14.065 -0.7592 -0.3494  0.2215
   68MPD2    C4 1058   3.372   4.572  13.948 -0.1535 -0.3825  0.2673
   68MPD2    C5 1059   3.486   4.505  13.955  0.1987  0.2610  0.5674
   68MPD2     H 1060   3.281   4.520  14.263 -3.6596  0.7951 -2.8354
   68MPD2    H1 1061   3.338   4.625  13.860  2.2298  0.3245 -0.2411
   68MPD2    H2 1062   3.624   4.373  14.064 -1.1848 -1.1545 -2.1862
   68MPD2    H3 1063   3.541   4.492  13.862  1.2491 -0.6800  1.3124
   68MPD2     N 1064   3.174   4.666  14.056 -0.2736 -0.6759 -0.1347
   68MPD2    H5 1065   3.155   4.712  13.968  0.1849 -1.9998 -0.9322
   68MPD2    N1 1066   3.516   4.418  14.313  0.2253  1.0859  0.1845
   68MPD2    H7 1067   3.453   4.439  14.390 -0.7426  0.4322 -0.4229
   69TMC2    C1 1068   1.177   1.764  12.589  0.8540  0.1283  0.0396
   69TMC2    C2 1069   1.058   1.834  12.588 -0.4123 -0.0817 -0.5259
   69TMC2    C3 1070   1.037   1.921  12.474  0.5475  0.4068  0.8036
   69TMC2    C4 1071   1.255   1.762  12.485  0.0045  0.4077 -0.5951
   69TMC2    C5 1072   1.228   1.841  12.380 -0.5213 -1.2664 -0.2279
   69TMC2    C6 1073   1.123   1.928  12.373  0.7533 -0.1454  0.3493
   69TMC2     C 1074   1.206   1.660  12.685 -0.6556  1.8997  0.1275
   69TMC2     O 1075   1.109   1.590  12.707  0.2454 -0.5489  0.5931
   69TMC2     H 1076   0.977   1.817  12.657  0.7469  2.0212  1.3632
   69TMC2    H1 1077   1.344   1.701  12.482 -0.2964 -0.0266 -0.6317
   69TMC2    H2 1078   1.094   1.992  12.291 -0.4204 -0.4736  0.5009
   69TMC2    C7 1079   1.322   1.824  12.272  0.0908  0.0399 -0.1864
   69TMC2    C8 1080   0.907   1.944  12.425 -0.6916  0.2035 -0.4066
   69TMC2    O1 1081   1.427   1.771  12.301  0.0192 -0.3593 -0.2385
   69TMC2    O2 1082   0.861   1.925  12.314 -0.3992  0.0054  0.0162
   69TMC2    O5 1083   0.830   1.945  12.532 -0.0202  0.6017  0.4748
   69TMC2    H5 1084   0.878   1.979  12.610  1.9743 -1.6028  0.2200
   70MPD2     C 1085   1.543   1.542  12.770 -1.1672  0.3068  0.1073
   70MPD2    C1 1086   1.415   1.528  12.736  0.0639  0.0018 -0.3363
   70MPD2    C2 1087   1.355   1.407  12.719  0.1327  0.6454  0.3195
   70MPD2    C3 1088   1.425   1.293  12.750 -0.1589  0.0825  0.2585
   70MPD2    C4 1089   1.558   1.311  12.785  0.5647  0.7362  0.1363
   70MPD2    C5 1090   1.619   1.430  12.793 -0.2010  0.5821  0.4667
   70MPD2     H 1091   1.252   1.402  12.684 -0.0222 -0.9919  0.9865
   70MPD2    H1 1092   1.619   1.227  12.814  1.5242  1.1832 -0.5933
   70MPD2    H2 1093   1.594   1.638  12.762 -1.3925  0.3924 -0.2810
   70MPD2    H3 1094   1.722   1.442  12.825 -0.4508  0.1119  1.4484
   70MPD2     N 1095   1.378   1.162  12.749 -0.5602 -0.1755  0.1581
   70MPD2    H5 1096   1.443   1.087  12.768 -1.0140 -1.0082 -1.5240
   70MPD2    N1 1097   1.343   1.648  12.708  0.3870  0.0821 -0.4608
   70MPD2    H7 1098   1.388   1.738  12.696  0.8687 -0.0723  0.2693
   71TMC2    C1 1099   2.877   2.983   1.734 -0.2901  0.1519 -0.2923
   71TMC2    C2 1100   2.951   2.976   1.850 -0.0777  0.6009 -0.7202
   71TMC2    C3 1101   2.899   3.041   1.959 -0.6022  0.6309 -0.0575
   71TMC2    C4 1102   2.747   3.033   1.731 -0.5307  0.3499 -0.1531
   71TMC2    C5 1103   2.701   3.092   1.847  0.1828  0.4571 -0.1971
   71TMC2    C6 1104   2.775   3.089   1.960 -0.2758  0.7468  0.5187
   71TMC2     C 1105   2.919   2.903   1.621  0.1688  0.5102 -0.3865
   71TMC2     O 1106   3.038   2.872   1.612  0.1062  0.3478 -0.3140
   71TMC2     H 1107   3.050   2.933   1.845  0.8795  2.7368 -0.0390
   71TMC2    H1 1108   2.693   3.062   1.642  0.4834 -0.5072 -1.0473
   71TMC2    H2 1109   2.727   3.128   2.049  0.1817  0.6863  0.7949
   71TMC2    C7 1110   2.569   3.131   1.848  0.8441 -0.0865  0.5909
   71TMC2    C8 1111   2.979   3.026   2.077 -0.3617  0.1553  0.6139
   71TMC2    O1 1112   2.539   3.219   1.927 -0.2949  0.0906 -0.2822
   71TMC2    O2 1113   2.945   3.091   2.175  0.3028 -0.0699  0.1311
   71TMC2    O5 1114   3.002   2.895   2.091 -0.3833  0.3809 -0.1098
   71TMC2    H5 1115   2.990   2.839   2.012  1.0937 -1.0499  0.6796
   72MPD2     C 1116   2.770   2.615   1.239 -0.2857  0.1532  0.2060
   72MPD2    C1 1117   2.891   2.670   1.258  0.1044 -0.5972  0.6694
   72MPD2    C2 1118   2.911   2.751   1.356 -0.9027  0.5529  0.0274
   72MPD2    C3 1119   2.804   2.777   1.443 -0.0631  0.4055 -0.8740
   72MPD2    C4 1120   2.687   2.718   1.420 -0.1816 -0.2149  0.1874
   72MPD2    C5 1121   2.667   2.632   1.319 -0.3469 -0.4236 -0.3802
   72MPD2     H 1122   3.008   2.799   1.363 -0.8695  0.3395  1.0087
   72MPD2    H1 1123   2.597   2.730   1.481 -0.2914 -0.7452  0.1305
   72MPD2    H2 1124   2.755   2.549   1.154 -1.8737 -0.0502  0.6365
   72MPD2    H3 1125   2.573   2.582   1.301 -0.7206  0.6333 -1.3792
   72MPD2     N 1126   2.805   2.867   1.550 -0.5649  0.7203 -0.1053
   72MPD2    H5 1127   2.718   2.879   1.601 -0.5892 -1.5205  0.3960
   72MPD2    N1 1128   3.008   2.640   1.183  0.0384 -0.0558  0.0439
   72MPD2    H7 1129   3.089   2.699   1.202  1.6063 -1.2174 -3.0175
   73TMC2    C1 1130   2.583   3.752  14.165  0.4977 -0.1187 -0.1864
   73TMC2    C2 1131   2.580   3.765  14.300  0.4293 -0.0549  0.3505
   73TMC2    C3 1132   2.655   3.686  14.381 -0.6083 -0.7869  0.0936
   73TMC2    C4 1133   2.655   3.650  14.111 -0.3493 -0.5309 -0.2890
   73TMC2    C5 1134   2.748   3.587  14.191  0.8382 -0.5286  0.3433
   73TMC2    C6 1135   2.731   3.588  14.328  0.2435 -0.5386  0.1114
   73TMC2     C 1136   2.616   3.872  14.089  0.0212 -0.1212  0.1225
   73TMC2     O 1137   2.728   3.868  14.036 -0.2442  0.1237 -0.3081
   73TMC2     H 1138   2.537   3.858  14.335 -0.1080 -0.1163 -0.1570
   73TMC2    H1 1139   2.658   3.657  14.003  1.4379 -0.0496 -0.2211
   73TMC2    H2 1140   2.810   3.536  14.381 -0.8127 -0.1906  2.0067
   73TMC2    C7 1141   2.881   3.569  14.130 -0.3298  0.0891 -0.8344
   73TMC2    C8 1142   2.681   3.749  14.507  0.1152 -0.7587 -0.1817
   73TMC2    O1 1143   2.970   3.508  14.188  0.3918 -0.2541 -0.7004
   73TMC2    O2 1144   2.656   3.861  14.537  0.1396 -0.0386 -0.0208
   73TMC2    O5 1145   2.739   3.659  14.588 -0.0977 -0.3794  0.4818
   73TMC2    H5 1146   2.728   3.565  14.565  0.1607 -0.5766  1.1675
   74MPD2     C 1147   2.517   4.318  13.842 -0.3050 -0.0370  0.5338
   74MPD2    C1 1148   2.619   4.234  13.836 -0.7148  0.0056 -0.4130
   74MPD2    C2 1149   2.624   4.123  13.914 -0.3656 -0.0610 -0.3921
   74MPD2    C3 1150   2.514   4.082  13.989 -0.3350 -0.4126  0.1292
   74MPD2    C4 1151   2.411   4.172  13.992 -0.3481 -0.6518 -0.7880
   74MPD2    C5 1152   2.411   4.289  13.922  0.0707 -0.1582  0.0993
   74MPD2     H 1153   2.706   4.052  13.912 -0.7566 -0.5438  1.4623
   74MPD2    H1 1154   2.321   4.161  14.053 -0.5203 -2.5921 -1.4050
   74MPD2    H2 1155   2.520   4.409  13.783 -0.1817  0.7793  1.8127
   74MPD2    H3 1156   2.334   4.365  13.932 -1.2089 -1.5908  1.0719
   74MPD2     N 1157   2.513   3.968  14.073 -0.0840  0.2827  0.2396
   74MPD2    H5 1158   2.429   3.950  14.127 -0.3776  3.0519  0.7044
   74MPD2    N1 1159   2.723   4.260  13.748  0.0417  0.2566  0.4673
   74MPD2    H7 1160   2.734   4.356  13.717  1.9572 -0.5098 -1.2110
   75TMC2    C1 1161   2.975   0.037  14.141 -1.0767  0.7297  0.2664
   75TMC2    C2 1162   2.885   0.066  14.242 -0.9796 -0.2142 -0.7539
   75TMC2    C3 1163   2.763   0.131  14.216 -1.0742  0.2652 -0.9422
   75TMC2    C4 1164   2.931   0.065  14.014 -0.2281  0.2083 -0.4283
   75TMC2    C5 1165   2.818   0.143  13.994  0.4570  0.4127  0.3522
   75TMC2    C6 1166   2.734   0.178  14.094  0.4531 -0.6904  0.5807
   75TMC2     C 1167   3.086   4.683  14.169  0.5528  0.1983 -0.2451
   75TMC2     O 1168   3.091   4.639  14.283  0.3082 -0.4068 -0.1527
   75TMC2     H 1169   2.905   0.033  14.343  1.3657  0.3875 -1.0235
   75TMC2    H1 1170   2.989   0.041  13.926  1.9074  2.3810  0.3887
   75TMC2    H2 1171   2.646   0.240  14.080  0.1888 -1.5583 -1.4457
   75TMC2    C7 1172   2.774   0.164  13.857  0.1199  0.1439 -0.3648
   75TMC2    C8 1173   2.685   0.170  14.335  0.2524  0.4592 -0.4203
   75TMC2    O1 1174   2.814   0.086  13.769  0.6906  0.8103  0.5677
   75TMC2    O2 1175   2.728   0.247  14.418  0.4602 -0.3086  0.1752
   75TMC2    O5 1176   2.557   0.167  14.283  0.0234  0.1361  0.3634
   75TMC2    H5 1177   2.547   0.106  14.206 -0.6145  0.8196 -0.1042
   76TMC2    C1 1178   1.656   0.769  12.217  0.4962  0.2250 -0.1766
   76TMC2    C2 1179   1.521   0.784  12.227 -0.6832 -0.4279 -0.5651
   76TMC2    C3 1180   1.439   0.685  12.268  0.1128  0.4146  0.2701
   76TMC2    C4 1181   1.711   0.657  12.272  0.6902  0.6440  0.3847
   76TMC2    C5 1182   1.628   0.554  12.309  0.4885 -0.4151  0.0983
   76TMC2    C6 1183   1.490   0.561  12.295 -0.8773 -0.0696 -0.1301
   76TMC2     C 1184   1.732   0.877  12.156 -0.0680 -0.4995  0.0145
   76TMC2     O 1185   1.676   0.987  12.154  0.7450 -0.2396 -0.3443
   76TMC2     H 1186   1.482   0.884  12.211  1.8033  0.6392 -0.0148
   76TMC2    H1 1187   1.819   0.655  12.281  0.3895 -2.4736  3.0471
   76TMC2    H2 1188   1.429   0.474  12.318 -1.0391 -0.0664 -0.5512
   76TMC2    C7 1189   1.686   0.423  12.304 -0.3431 -0.2249 -1.0937
   76TMC2    C8 1190   1.313   0.719  12.327 -0.2549  0.0809  1.0888
   76TMC2    O1 1191   1.611   0.328  12.281  0.0474 -0.2245 -0.4296
   76TMC2    O2 1192   1.261   0.831  12.307  0.0277  0.2031  0.3191
   76TMC2    O5 1193   1.310   0.654  12.444  0.1405 -0.2492  0.1793
   76TMC2    H5 1194   1.346   0.563  12.444 -0.3004 -0.4432  2.4266
   77MPD2     C 1195   2.141   1.097  11.924  0.1085  0.5481  0.1086
   77MPD2    C1 1196   2.014   1.149  11.960  0.4538 -0.0803  0.1693
   77MPD2    C2 1197   1.921   1.063  12.027 -0.0347  0.0461  0.8671
   77MPD2    C3 1198   1.952   0.934  12.056  0.2313  0.4687  0.6367
   77MPD2    C4 1199   2.076   0.885  12.020 -0.5658  0.5195  0.0145
   77MPD2    C5 1200   2.168   0.969  11.956 -0.3100  0.7072 -0.3582
   77MPD2     H 1201   1.820   1.102  12.032  0.1557  0.5103  1.1689
   77MPD2    H1 1202   2.106   0.781  12.023 -0.4735  0.6165  2.3873
   77MPD2    H2 1203   2.213   1.160  11.875  1.5448  0.1707  1.7378
   77MPD2    H3 1204   2.270   0.941  11.933 -0.4073  0.1072 -0.0509
   77MPD2     N 1205   1.862   0.842  12.123 -0.3661 -0.2048 -0.2709
   77MPD2    H5 1206   1.895   0.746  12.133  1.6090  0.3360 -1.5703
   77MPD2    N1 1207   1.963   1.280  11.931 -0.0489 -0.1512  0.0431
   77MPD2    H7 1208   1.869   1.295  11.967  0.1282 -1.7474  1.2156
   78TMC2    C1 1209   3.220   1.986   1.229 -0.8885  0.4835  0.2356
   78TMC2    C2 1210   3.108   1.920   1.271 -0.1027 -1.0660  0.1362
   78TMC2    C3 1211   3.092   1.788   1.236  0.1888 -0.5544  0.4845
   78TMC2    C4 1212   3.318   1.925   1.156 -0.3484 -1.0907  0.3332
   78TMC2    C5 1213   3.283   1.802   1.109 -0.5416  0.0545 -0.0051
   78TMC2    C6 1214   3.168   1.738   1.139 -0.1438  0.6663 -0.6068
   78TMC2     C 1215   3.234   2.126   1.259  0.1958  0.1164  1.1260
   78TMC2     O 1216   3.327   2.175   1.198  0.4369  0.3037 -0.3264
   78TMC2     H 1217   3.030   1.957   1.336  1.3576 -0.3578  1.4779
   78TMC2    H1 1218   3.405   1.977   1.117 -1.4318  0.2133 -0.3135
   78TMC2    H2 1219   3.151   1.633   1.118  0.4260  0.8273 -1.8820
   78TMC2    C7 1220   3.372   1.750   1.004 -0.2897 -0.6466  0.1611
   78TMC2    C8 1221   3.020   1.698   1.314 -0.1032 -0.3454 -0.5024
   78TMC2    O1 1222   3.463   1.826   0.975  0.3564  0.0650  0.4759
   78TMC2    O2 1223   2.960   1.606   1.264 -0.0791  0.4147 -0.2538
   78TMC2    O5 1224   2.995   1.755   1.433  0.0736  0.0789 -0.3195
   78TMC2    H5 1225   3.062   1.822   1.461  0.7458 -0.7141 -0.0471
   79MPD1     C 1226   3.149   2.552   1.534 -0.1248 -0.4382  0.3519
   79MPD1    C1 1227   3.262   2.521   1.457 -0.2849  0.2158 -0.1291
   79MPD1    C2 1228   3.265   2.400   1.380  0.0240  0.0201  0.2006
   79MPD1    C3 1229   3.152   2.313   1.390 -0.0416 -0.3834  0.2410
   79MPD1    C4 1230   3.040   2.352   1.464 -0.4719  0.2669  0.2133
   79MPD1    C5 1231   3.039   2.473   1.526 -0.4949  0.7107 -0.3912
   79MPD1     H 1232   3.349   2.374   1.317  0.4193  0.3251  0.6080
   79MPD1    H1 1233   2.956   2.286   1.483 -0.2003  0.3888  1.8093
   79MPD1    H2 1234   3.127   2.646   1.582 -2.2164 -1.0072  0.5244
   79MPD1    H3 1235   2.944   2.498   1.573 -0.7099  1.4089 -1.1979
   79MPD1     N 1236   3.141   2.178   1.340 -0.0032 -0.2662  0.1469
   79MPD1    H5 1237   3.054   2.134   1.369 -1.1845  1.1427 -1.2027
   79MPD1    N1 1238   3.366   2.613   1.448 -0.4314 -0.1877 -0.1537
   79MPD1    H6 1239   3.351   2.704   1.492  1.4710  1.1901 -2.3727
   79MPD1    H7 1240   3.403   2.632   1.355  0.2695  1.5389  0.4799
   80TMC2    C1 1241   4.539   0.575  12.612 -0.8515 -0.1652  0.7294
   80TMC2    C2 1242   4.446   0.645  12.684 -0.8685  0.6602 -0.3823
   80TMC2    C3 1243   4.383   0.594  12.795 -0.0857 -0.5182 -0.1403
   80TMC2    C4 1244   4.567   0.443  12.648 -0.4321 -0.3453 -0.4802
   80TMC2    C5 1245   4.507   0.397  12.758  0.7120 -0.6754 -0.3291
   80TMC2    C6 1246   4.420   0.471  12.836  0.4200  0.3651 -0.1118
   80TMC2     C 1247   4.570   0.613  12.479  0.0182 -0.1212 -0.4249
   80TMC2     O 1248   4.498   0.701  12.438 -0.6797  0.8003  0.3071
   80TMC2     H 1249   4.413   0.739  12.642 -0.1665  1.9241  1.8913
   80TMC2    H1 1250   4.633   0.386  12.583  0.8415  1.8451 -1.1056
   80TMC2    H2 1251   4.384   0.419  12.924  2.1555 -0.7119 -0.0515
   80TMC2    C7 1252   4.538   0.264  12.815 -0.0267  0.1512  1.1490
   80TMC2    C8 1253   4.328   0.697  12.885 -0.7708 -0.6759  0.5062
   80TMC2    O1 1254   4.441   0.204  12.860 -0.0224  0.5457  0.3780
   80TMC2    O2 1255   4.258   0.788  12.840  0.2378 -0.0668 -0.0861
   80TMC2    O5 1256   4.307   0.648  13.012 -0.1601 -0.3473 -0.0799
   80TMC2    H5 1257   4.361   0.572  13.041  0.3299  0.3176  0.7673
   81MPD2     C 1258   4.612   0.630  12.179  0.3850  0.0537  0.2011
   81MPD2    C1 1259   4.698   0.567  12.270 -0.8551 -0.0645 -0.2536
   81MPD2    C2 1260   0.070   0.504  12.205 -0.2394 -0.0838 -0.1983
   81MPD2    C3 1261   0.101   0.507  12.068 -0.5742 -0.2538 -0.1540
   81MPD2    C4 1262   0.009   0.571  11.983  0.6181  0.6252  0.6745
   81MPD2    C5 1263   4.638   0.630  12.042  0.3933 -0.4087 -0.1283
   81MPD2     H 1264   0.147   0.452  12.262  0.4978 -0.4901 -1.5709
   81MPD2    H1 1265   0.020   0.578  11.876  0.5968  0.2357  0.6449
   81MPD2    H2 1266   4.517   0.676  12.204  0.8768  0.4185  1.3905
   81MPD2    H3 1267   4.580   0.698  11.981  3.5483  2.0563 -0.4075
   81MPD2     N 1268   0.232   0.477  12.026  0.5517  0.0659  0.4203
   81MPD2    H5 1269   0.297   0.444  12.097  0.4747  1.7148  1.2608
   81MPD2    N1 1270   4.669   0.547  12.405  0.4464 -0.4052  0.0381
   81MPD2    H7 1271   0.010   0.502  12.454 -1.7033  0.8666  4.5300
   82TMC2    C1 1272   3.173   0.228  10.967  0.0772 -0.5341  0.2330
   82TMC2    C2 1273   3.291   0.222  10.899  0.3966  0.0813  0.1391
   82TMC2    C3 1274   3.397   0.152  10.948  0.1442  0.5844  0.1136
   82TMC2    C4 1275   3.154   0.156  11.077  0.1934  0.4548  0.4689
   82TMC2    C5 1276   3.254   0.068  11.109 -0.3822 -0.1955  0.6221
   82TMC2    C6 1277   3.382   0.081  11.065 -0.2356  0.0471  0.7371
   82TMC2     C 1278   3.072   0.324  10.926  0.1318  0.1654  0.2771
   82TMC2     O 1279   3.111   0.392  10.832  0.2324  0.4139  0.6572
   82TMC2     H 1280   3.290   0.261  10.798  3.0184  1.7951  0.7427
   82TMC2    H1 1281   3.064   0.163  11.137 -0.4997  2.0326 -0.7396
   82TMC2    H2 1282   3.459   0.022  11.112 -0.2355 -0.7909 -0.3105
   82TMC2    C7 1283   3.236   0.017  11.240 -0.0464  0.0311  0.0424
   82TMC2    C8 1284   3.525   0.200  10.907 -0.0917 -0.5087 -0.3159
   82TMC2    O1 1285   3.253   4.632  11.255 -0.1117  0.3594  0.1221
   82TMC2    O2 1286   3.531   0.297  10.834  0.0824 -0.1511  0.2388
   82TMC2    O5 1287   3.621   0.116  10.947  0.2970 -0.0134  0.0462
   82TMC2    H5 1288   3.592   0.028  10.978 -3.2419  1.5187  1.0444
   83MPD2     C 1289   2.585   0.474  10.849  0.1880 -0.3979 -0.0664
   83MPD2    C1 1290   2.705   0.505  10.776  0.3842  0.1516  0.1761
   83MPD2    C2 1291   2.828   0.460  10.816 -0.2645 -0.0514  0.9481
   83MPD2    C3 1292   2.834   0.383  10.936 -0.6647 -0.1736 -0.2864
   83MPD2    C4 1293   2.725   0.368  11.016  0.1214  0.4694 -0.0547
   83MPD2    C5 1294   2.601   0.415  10.971  0.5580 -0.5211 -0.4779
   83MPD2     H 1295   2.913   0.465  10.749 -1.4215 -0.5939 -0.5753
   83MPD2    H1 1296   2.722   0.320  11.113 -0.9332  1.6491  0.5061
   83MPD2    H2 1297   2.491   0.500  10.801 -0.4661  0.4109  1.6674
   83MPD2    H3 1298   2.509   0.402  11.029 -0.3579 -0.8612 -2.0140
   83MPD2     N 1299   2.946   0.308  10.976 -0.5950  0.0152 -0.3145
   83MPD2    H5 1300   2.936   0.240  11.051  1.0182  2.2586  1.9511
   83MPD2    N1 1301   2.690   0.580  10.657 -0.5949 -0.1704 -0.1107
   83MPD2    H7 1302   2.599   0.606  10.620 -1.1110  1.8862  2.5392
   84TMC2    C1 1303   4.629   4.016  11.305 -0.7743  0.4080 -0.9430
   84TMC2    C2 1304   4.614   3.880  11.301 -0.3752 -0.3227  0.1374
   84TMC2    C3 1305   4.700   3.817  11.207 -0.1666 -0.0008 -0.2456
   84TMC2    C4 1306   4.732   4.082  11.253  0.1794 -0.5750 -0.0551
   84TMC2    C5 1307   0.097   4.008  11.190  0.0619  0.1877 -0.3717
   84TMC2    C6 1308   0.066   3.885  11.149 -0.5199 -0.3869 -0.1252
   84TMC2     C 1309   4.508   4.097  11.328  0.6860  0.0137  0.2109
   84TMC2     O 1310   4.530   4.216  11.306  0.1245  0.3939  0.1083
   84TMC2     H 1311   4.543   3.821  11.358  2.1732 -1.5739  2.0152
   84TMC2    H1 1312   0.006   4.189  11.265  0.6043 -0.6363  0.1556
   84TMC2    H2 1313   0.135   3.827  11.090 -0.6101 -1.6739  1.0351
   84TMC2    C7 1314   0.211   4.081  11.140  0.2201 -0.5927 -0.8908
   84TMC2    C8 1315   4.716   3.671  11.216 -0.1107  0.2933  0.2062
   84TMC2    O1 1316   0.225   4.074  11.022  0.3790  0.2971  0.0959
   84TMC2    O2 1317   0.090   3.618  11.201  0.2690 -0.1610  0.5120
   84TMC2    O5 1318   4.597   3.632  11.167  0.0075  0.8988 -0.2298
   84TMC2    H5 1319   4.519   3.684  11.193 -0.7581 -0.3913  0.0716
   85TMC2    C1 1320   1.376   2.133  16.027 -0.1735  0.0842  0.2652
   85TMC2    C2 1321   1.265   2.192  15.971  0.1286  0.6003  0.0145
   85TMC2    C3 1322   1.290   2.308  15.902 -0.2986 -0.3361  0.3334
   85TMC2    C4 1323   1.502   2.185  16.013  0.3056  0.3053 -0.1401
   85TMC2    C5 1324   1.523   2.292  15.932 -0.3898  0.0483 -0.0614
   85TMC2    C6 1325   1.415   2.360  15.880 -0.2900 -0.3384  0.0618
   85TMC2     C 1326   1.354   2.020  16.115  0.8696 -0.3184 -0.2396
   85TMC2     O 1327   1.450   1.992  16.183 -0.3669 -0.4506 -0.6851
   85TMC2     H 1328   1.163   2.163  15.991 -0.5118  2.4548 -0.4821
   85TMC2    H1 1329   1.584   2.143  16.070  0.6537  1.0363 -0.0997
   85TMC2    H2 1330   1.422   2.431  15.799  0.6947  0.3367  0.7366
   85TMC2    C7 1331   1.664   2.312  15.891  0.2181 -0.2159  0.0960
   85TMC2    C8 1332   1.164   2.370  15.857  0.0307 -0.0981  0.3021
   85TMC2    O1 1333   1.754   2.263  15.959 -0.6638 -0.4150 -0.1163
   85TMC2    O2 1334   1.066   2.309  15.817  0.0738 -0.4928  0.6483
   85TMC2    O5 1335   1.202   2.490  15.801  0.1646 -0.4462  0.0092
   85TMC2    H5 1336   1.282   2.528  15.842  0.2000  0.9311 -1.3328
   86MPD2     C 1337   1.136   1.612  16.339  0.5057  0.1439  0.2886
   86MPD2    C1 1338   1.103   1.616  16.204  0.2236 -0.4069 -0.5610
   86MPD2    C2 1339   1.141   1.724  16.125 -0.3374  0.2540  0.0438
   86MPD2    C3 1340   1.209   1.832  16.173 -0.2698 -0.5059 -0.3086
   86MPD2    C4 1341   1.244   1.826  16.311  0.3815  0.3598 -0.1900
   86MPD2    C5 1342   1.196   1.724  16.393 -0.9925 -0.2736  0.6029
   86MPD2     H 1343   1.107   1.729  16.022  1.1137 -1.5171 -0.5226
   86MPD2    H1 1344   1.293   1.915  16.349  1.2700 -0.2834  0.1565
   86MPD2    H2 1345   1.119   1.528  16.406 -0.0247  0.9497  1.1655
   86MPD2    H3 1346   1.220   1.730  16.498 -1.2423  2.4576  0.5175
   86MPD2     N 1347   1.243   1.938  16.088  0.0215 -0.4754 -0.4000
   86MPD2    H5 1348   1.209   1.939  15.993  1.2813  0.9483 -0.8304
   86MPD2    N1 1349   1.025   1.509  16.142  0.0851  0.3570  0.1059
   86MPD2    H7 1350   0.992   1.522  16.047 -0.6709  1.8716  0.5684
   87TMC2    C1 1351   3.417   0.597   1.384  0.1856 -0.2362 -0.4617
   87TMC2    C2 1352   3.452   0.552   1.504  1.0092  0.2104  0.2508
   87TMC2    C3 1353   3.395   0.614   1.612 -0.1225 -0.8412 -0.5965
   87TMC2    C4 1354   3.343   0.708   1.362  0.7212 -0.1065 -0.3544
   87TMC2    C5 1355   3.294   0.779   1.474  0.0965 -0.3275  0.5086
   87TMC2    C6 1356   3.319   0.730   1.599  0.2048 -0.4961  0.1890
   87TMC2     C 1357   3.466   0.523   1.270  0.0014  0.5894  0.9484
   87TMC2     O 1358   3.474   0.583   1.164 -0.2953 -0.2917  0.1908
   87TMC2     H 1359   3.521   0.468   1.512  0.5475 -0.1143  0.9140
   87TMC2    H1 1360   3.339   0.759   1.266  2.0837  2.5717  1.0157
   87TMC2    H2 1361   3.257   0.766   1.680 -1.0186 -1.1965 -0.4351
   87TMC2    C7 1362   3.203   0.891   1.445  0.2982 -0.0326  0.5279
   87TMC2    C8 1363   3.415   0.548   1.738 -0.2472 -0.5289  0.4022
   87TMC2    O1 1364   3.159   0.897   1.332  0.7405  0.7215  0.6669
   87TMC2    O2 1365   3.482   0.607   1.823 -0.2348 -0.1556  0.0216
   87TMC2    O5 1366   3.422   0.416   1.719 -0.0225  0.4356  0.6684
   87TMC2    H5 1367   3.355   0.385   1.654  0.0594 -0.9648  1.2581
   88MPD2     C 1368   3.205   1.206   1.612  0.0914  0.3862  0.4462
   88MPD2    C1 1369   3.150   1.115   1.534 -0.3339 -0.4636 -0.3106
   88MPD2    C2 1370   3.066   1.145   1.426 -1.1729 -0.4348 -0.5608
   88MPD2    C3 1371   3.023   1.277   1.409  0.5074  0.5899 -0.7202
   88MPD2    C4 1372   3.072   1.371   1.499  0.1467  0.6680  0.4674
   88MPD2    C5 1373   3.167   1.334   1.591  0.0687 -0.3826 -0.1129
   88MPD2     H 1374   3.038   1.072   1.350 -2.0130 -1.0193  0.3029
   88MPD2    H1 1375   3.044   1.474   1.481 -1.4182  0.1326 -0.1738
   88MPD2    H2 1376   3.276   1.177   1.689 -0.4963  2.4038  1.7522
   88MPD2    H3 1377   3.205   1.413   1.655  0.2208 -1.0897  0.6655
   88MPD2     N 1378   2.940   1.329   1.304  0.2329 -0.6265 -0.7563
   88MPD2    H5 1379   2.929   1.430   1.294 -1.0318 -0.8207 -1.2834
   88MPD2    N1 1380   3.196   0.978   1.549  0.0341  0.0206 -1.0292
   88MPD2    H7 1381   3.252   0.957   1.631 -2.3457 -0.9543  0.3207
   89TMC2    C1 1382   0.437   3.319   2.176 -0.5146  0.0254 -0.1947
   89TMC2    C2 1383   0.554   3.341   2.115  0.3188  0.2538  0.1666
   89TMC2    C3 1384   0.565   3.447   2.024 -0.0951  0.2988  0.4475
   89TMC2    C4 1385   0.333   3.397   2.144  0.4083  0.3110  0.1071
   89TMC2    C5 1386   0.344   3.510   2.062 -0.3341 -0.8200 -0.0580
   89TMC2    C6 1387   0.465   3.535   2.000 -0.7363  0.4553  0.1148
   89TMC2     C 1388   0.403   3.179   2.191  0.5121  0.2592  0.4996
   89TMC2     O 1389   0.475   3.095   2.240 -0.2034 -0.0639 -0.3091
   89TMC2     H 1390   0.633   3.271   2.135  0.8461  0.9718  0.6078
   89TMC2    H1 1391   0.240   3.374   2.195 -0.1280 -1.5721 -1.7333
   89TMC2    H2 1392   0.482   3.603   1.918  2.1544  0.1216  0.4259
   89TMC2    C7 1393   0.224   3.554   1.995 -0.1960 -0.5604 -1.3000
   89TMC2    C8 1394   0.688   3.469   1.959 -0.8077  0.1794  0.5301
   89TMC2    O1 1395   0.121   3.501   2.032 -0.5600  0.1385  0.2445
   89TMC2    O2 1396   0.721   3.576   1.917 -0.9578 -0.5337 -0.3606
   89TMC2    O5 1397   0.730   3.345   1.917  0.2820  0.7504 -0.1814
   89TMC2    H5 1398   0.667   3.272   1.931  0.2520  0.9035  0.4723
   90MPD2     C 1399   0.018   2.830   2.146 -0.5010 -0.5246 -0.2583
   90MPD2    C1 1400   0.011   2.920   2.039  0.1529  0.1462  0.2404
   90MPD2    C2 1401   0.106   3.017   2.036  0.3266  0.0833  0.1783
   90MPD2    C3 1402   0.207   3.034   2.129 -0.3012  0.3784  0.3352
   90MPD2    C4 1403   0.211   2.938   2.226  0.5275  0.3115  0.0887
   90MPD2    C5 1404   0.123   2.836   2.233 -0.5807  0.5092 -0.1195
   90MPD2     H 1405   0.094   3.096   1.963 -1.9997 -0.7332 -0.3039
   90MPD2    H1 1406   0.297   2.938   2.293  0.4584  1.2412  0.1812
   90MPD2    H2 1407   4.682   2.747   2.151 -0.5433 -0.5180 -0.6919
   90MPD2    H3 1408   0.128   2.766   2.316 -0.2305  1.5039  0.6883
   90MPD2     N 1409   0.287   3.150   2.119  0.2823  0.1932 -0.2918
   90MPD2    H5 1410   0.266   3.209   2.039  0.8024  0.8377  0.0477
   90MPD2    N1 1411   4.652   2.912   1.933 -0.1643  0.0187  0.2110
   90MPD2    H7 1412   4.666   2.960   1.845  0.7506  0.0247  0.3587
   91TMC2    C1 1413   1.166   3.161  16.395 -0.1259 -0.3770 -0.0965
   91TMC2    C2 1414   1.180   3.205  16.526 -0.5819 -0.5169  0.9947
   91TMC2    C3 1415   1.107   3.143  16.623  0.0099 -0.1147  0.0282
   91TMC2    C4 1416   1.073   3.069  16.361  0.0243  0.4301  0.0357
   91TMC2    C5 1417   0.990   3.019  16.458  0.4374  0.2034  0.3062
   91TMC2    C6 1418   1.003   3.054  16.594 -0.0131  0.2433  0.4175
   91TMC2     C 1419   1.242   3.214  16.281  0.2123 -0.4636 -0.5556
   91TMC2     O 1420   1.173   3.220  16.177  0.2517 -0.0607 -0.3474
   91TMC2     H 1421   1.251   3.282  16.552  1.1960 -1.7455 -0.2342
   91TMC2    H1 1422   1.069   3.034  16.259 -0.5440  0.8552 -0.0910
   91TMC2    H2 1423   0.946   3.012  16.676 -0.2161  0.7336  0.5251
   91TMC2    C7 1424   0.867   2.961  16.420 -0.2785 -0.2697 -0.2388
   91TMC2    C8 1425   1.138   3.181  16.763 -0.0649  0.0230 -0.5447
   91TMC2    O1 1426   0.790   2.929  16.508 -0.7434 -0.0907  1.0266
   91TMC2    O2 1427   1.203   3.282  16.791  0.8180  0.0799 -0.1230
   91TMC2    O5 1428   1.139   3.074  16.840  0.3738  0.2566  0.1112
   91TMC2    H5 1429   1.086   2.998  16.807  0.9109  0.0974 -0.3776
   92MPD2     C 1430   1.398   3.403  16.119 -0.9277 -0.5824  0.1079
   92MPD2    C1 1431   1.439   3.363  16.241 -0.2280 -0.4184 -0.4109
   92MPD2    C2 1432   1.555   3.411  16.299 -0.8423  0.2157  0.0174
   92MPD2    C3 1433   1.638   3.502  16.231 -0.0673 -0.0675  0.7157
   92MPD2    C4 1434   1.597   3.536  16.100 -0.1894  0.1465  0.0645
   92MPD2    C5 1435   1.483   3.486  16.052  0.6767  1.0115  0.3802
   92MPD2     H 1436   1.582   3.385  16.400 -1.6001  1.0507  0.4333
   92MPD2    H1 1437   1.663   3.599  16.041  0.5470 -1.5046 -0.8758
   92MPD2    H2 1438   1.304   3.380  16.071 -0.5169 -0.8054 -0.5931
   92MPD2    H3 1439   1.450   3.530  15.959 -0.3370 -1.0762 -0.2609
   92MPD2     N 1440   1.763   3.526  16.297 -0.0487  0.4513  0.5632
   92MPD2    H5 1441   1.779   3.492  16.391 -1.6918 -1.6605  0.0823
   92MPD2    N1 1442   1.362   3.274  16.319 -0.3213  0.3437 -0.0930
   92MPD2    H7 1443   1.394   3.257  16.414  0.1219  0.4171 -0.2279
   93TMC2    C1 1444   2.973   2.924  14.219 -0.5113 -0.2506 -0.3532
   93TMC2    C2 1445   2.899   2.990  14.313  0.3226 -0.0820 -0.1941
   93TMC2    C3 1446   2.926   3.121  14.335  0.4435  0.3293 -0.0268
   93TMC2    C4 1447   3.062   2.989  14.137  0.5584  0.4281 -0.3020
   93TMC2    C5 1448   3.094   3.117  14.172  0.3428 -1.0159  0.4956
   93TMC2    C6 1449   3.030   3.180  14.279  0.1449 -0.0137  0.2982
   93TMC2     C 1450   2.924   2.793  14.179  0.3529 -0.1186  0.0571
   93TMC2     O 1451   3.003   2.711  14.137  0.4137 -0.3139  0.2603
   93TMC2     H 1452   2.837   2.937  14.384 -1.5351 -0.0780 -1.8082
   93TMC2    H1 1453   3.119   2.935  14.063 -1.4489 -1.3497 -0.5408
   93TMC2    H2 1454   3.064   3.277  14.315  1.3707 -0.7405  1.1008
   93TMC2    C7 1455   3.218   3.170  14.124  0.0099 -0.5683  0.4943
   93TMC2    C8 1456   2.869   3.195  14.443  0.3647 -1.0194  1.5007
   93TMC2    O1 1457   3.300   3.083  14.094 -0.5614  0.2205  0.0268
   93TMC2    O2 1458   2.919   3.297  14.490  0.0538  0.4810  0.3160
   93TMC2    O5 1459   2.751   3.142  14.480  0.5136 -0.0049 -0.5234
   93TMC2    H5 1460   2.711   3.094  14.405  0.0216  0.4262 -0.5383
   94MPD2     C 1461   2.737   2.574  14.116  0.1816  0.2643  0.2948
   94MPD2    C1 1462   2.703   2.710  14.106 -0.1074 -0.2219 -0.1848
   94MPD2    C2 1463   2.569   2.739  14.073 -0.2351  0.0346 -0.5025
   94MPD2    C3 1464   2.492   2.640  14.009  0.1393 -0.5448 -0.1777
   94MPD2    C4 1465   2.534   2.506  14.004 -0.8828 -0.3085  0.6851
   94MPD2    C5 1466   2.656   2.478  14.069  0.0964 -0.2334 -0.2466
   94MPD2     H 1467   2.537   2.842  14.082 -0.7110 -0.1969  0.5429
   94MPD2    H1 1468   2.464   2.431  13.970  0.6020 -1.8097  0.9973
   94MPD2    H2 1469   2.833   2.536  14.148  0.3616 -2.2701 -3.3338
   94MPD2    H3 1470   2.693   2.376  14.063 -0.1611 -0.2982 -0.6987
   94MPD2     N 1471   2.374   2.674  13.936  1.3928 -0.1554  0.1114
   94MPD2    H5 1472   2.340   2.598  13.878 -0.9475 -0.7517  2.2429
   94MPD2    N1 1473   2.787   2.806  14.163  0.0956 -0.0475  0.4129
   94MPD2    H7 1474   2.755   2.902  14.168  1.6070  0.4696  0.3663
   95TMC2    C1 1475   2.988   4.646  16.485 -0.0577 -0.3139 -0.4389
   95TMC2    C2 1476   2.998   4.515  16.523 -1.4038  0.6755  0.2839
   95TMC2    C3 1477   2.981   4.490  16.657 -0.3102 -0.0412  0.0949
   95TMC2    C4 1478   2.984   0.015  16.576  0.2804  0.1509 -0.2600
   95TMC2    C5 1479   2.984   4.720  16.709  0.5962 -0.2589 -0.4347
   95TMC2    C6 1480   2.984   4.592  16.747  0.5831 -0.0289 -0.4103
   95TMC2     C 1481   3.023   4.695  16.353  0.1495  0.0893 -0.9716
   95TMC2     O 1482   3.080   0.063  16.355 -0.0324 -0.2266  0.1574
   95TMC2     H 1483   2.990   4.442  16.443 -1.5299 -2.0070  2.7569
   95TMC2    H1 1484   2.979   0.117  16.539 -1.1785  0.6372  1.2844
   95TMC2    H2 1485   2.970   4.570  16.852 -2.1765  1.1804 -0.5347
   95TMC2    C7 1486   2.970   0.086  16.816 -0.1057 -0.1162  0.3939
   95TMC2    C8 1487   2.953   4.359  16.718  0.1127 -0.1615 -0.4686
   95TMC2    O1 1488   2.965   0.053  16.932  0.3859 -0.0310  0.1603
   95TMC2    O2 1489   2.893   4.360  16.824  0.1200  0.1346 -0.9845
   95TMC2    O5 1490   2.926   4.273  16.616  0.0629  0.6624  0.1601
   95TMC2    H5 1491   2.996   4.273  16.547 -0.7811  1.6717 -0.6914
   96MPD2     C 1492   3.119   4.627  15.851 -0.0504 -0.5269  0.2424
   96MPD2    C1 1493   3.161   4.725  15.936  0.9933  0.3614  0.1330
   96MPD2    C2 1494   3.143   4.709  16.072  0.1136  0.3263  0.6131
   96MPD2    C3 1495   3.063   4.607  16.124  0.0408 -0.2557  0.1933
   96MPD2    C4 1496   3.015   4.512  16.035  0.0811 -0.3993 -0.0159
   96MPD2    C5 1497   3.041   4.522  15.899  0.6701 -0.1179 -0.0145
   96MPD2     H 1498   3.177   0.050  16.141  0.6744  0.0486  0.6412
   96MPD2    H1 1499   2.942   4.438  16.064  0.3768 -0.8078 -0.3302
   96MPD2    H2 1500   3.133   4.627  15.744  0.6893 -0.7151  0.3376
   96MPD2    H3 1501   3.000   4.455  15.824  0.1359  2.7599 -2.2754
   96MPD2     N 1502   3.014   4.595  16.256  0.2007 -0.4317 -0.2321
   96MPD2    H5 1503   2.961   4.512  16.276 -0.5243 -0.5806 -2.7022
   96MPD2    N1 1504   3.242   0.096  15.875 -0.9020  0.6158  0.2474
   96MPD2    H7 1505   3.243   0.096  15.774  0.0408  2.7632  0.2574
   97TMC2    C1 1506   0.929   2.596   0.333 -0.0758 -0.1309 -0.2642
   97TMC2    C2 1507   0.849   2.513   0.257  0.1501  0.0950  0.1823
   97TMC2    C3 1508   0.807   2.568   0.135 -0.4362 -0.3570  0.3077
   97TMC2    C4 1509   0.972   2.721   0.295 -0.6468  0.3297 -0.6984
   97TMC2    C5 1510   0.931   2.766   0.173 -0.1191 -0.1771 -0.7437
   97TMC2    C6 1511   0.840   2.698   0.093 -0.1415  0.0659  0.3172
   97TMC2     C 1512   0.968   2.565   0.473 -0.3741 -0.0683 -0.2946
   97TMC2     O 1513   1.010   2.649   0.554  0.5382 -0.4740 -0.7456
   97TMC2     H 1514   0.814   2.417   0.294  1.1098  0.2146  1.3961
   97TMC2    H1 1515   1.023   2.788   0.364 -0.7366 -0.0191 -0.2946
   97TMC2    H2 1516   0.824   2.721  17.727  2.5784  0.5742  0.0350
   97TMC2    C7 1517   0.966   2.904   0.148 -0.2896 -0.4647  0.3183
   97TMC2    C8 1518   0.691   2.507   0.066 -0.8169 -0.6214 -0.3939
   97TMC2    O1 1519   1.061   2.945   0.213 -0.0060 -0.6868 -0.2830
   97TMC2    O2 1520   0.655   2.393   0.097 -0.4451  0.1719 -0.3913
   97TMC2    O5 1521   0.618   2.594  17.737  0.1097  0.3650  0.2386
   97TMC2    H5 1522   0.640   2.689   0.010  0.7833  0.3472 -0.9199
   98MPD2     C 1523   0.937   2.193   0.827  1.2827 -0.7695  0.2550
   98MPD2    C1 1524   0.966   2.329   0.841  0.0370  0.5154  0.5007
   98MPD2    C2 1525   0.987   2.409   0.727  0.4703 -0.4407 -0.6542
   98MPD2    C3 1526   0.962   2.349   0.606 -0.4922  0.8999  0.4159
   98MPD2    C4 1527   0.930   2.217   0.596  0.1789 -0.5757  0.4137
   98MPD2    C5 1528   0.930   2.133   0.701  0.2800  0.3068  0.5456
   98MPD2     H 1529   0.996   2.514   0.749 -2.4453 -0.4617  0.6599
   98MPD2    H1 1530   0.920   2.180   0.494  0.8621  0.1881  0.0679
   98MPD2    H2 1531   0.916   2.141   0.920 -1.2867  1.0776  0.7042
   98MPD2    H3 1532   0.908   2.027   0.691  1.1519  0.1811 -0.0621
   98MPD2     N 1533   0.954   2.426   0.489 -0.0107  0.6765 -0.1465
   98MPD2    H5 1534   0.935   2.371   0.406 -1.5643  0.4956  0.3209
   98MPD2    N1 1535   0.954   2.375   0.968  0.2343 -0.3134 -0.5971
   98MPD2    H7 1536   0.914   2.315   1.040 -1.0485 -0.3461 -1.3334
   99TMC2    C1 1537   4.152   3.766   2.562  0.4505  0.0240 -0.7942
   99TMC2    C2 1538   4.202   3.755   2.688 -0.2558  0.1791  0.4111
   99TMC2    C3 1539   4.120   3.786   2.794 -0.5288  0.3571  0.3894
   99TMC2    C4 1540   4.017   3.786   2.549  0.4264 -0.6154  0.7200
   99TMC2    C5 1541   3.939   3.838   2.654  0.1112  0.1402 -0.0362
   99TMC2    C6 1542   3.995   3.835   2.778  0.1062  0.4727 -0.5925
   99TMC2     C 1543   4.225   3.704   2.450  0.0332 -0.7633  0.4590
   99TMC2     O 1544   4.276   3.600   2.484  0.0498  0.1155  0.2925
   99TMC2     H 1545   4.299   3.708   2.697 -0.0701  0.2799 -1.0952
   99TMC2    H1 1546   3.972   3.771   2.452 -0.2653 -4.3609  1.6270
   99TMC2    H2 1547   3.954   3.883   2.866 -1.0260  0.1374 -0.9309
   99TMC2    C7 1548   3.809   3.907   2.646 -0.1238 -0.0728  0.9959
   99TMC2    C8 1549   4.168   3.802   2.932  0.6125  0.2897  0.5880
   99TMC2    O1 1550   3.742   3.900   2.748  0.3770 -0.3064 -0.2594
   99TMC2    O2 1551   4.088   3.776   3.027  0.0073  0.4289 -0.0287
   99TMC2    O5 1552   4.302   3.796   2.936  0.4842 -0.7365  0.6167
   99TMC2    H5 1553   4.343   3.839   2.858 -1.4645  1.8563  1.0628
  100MPD2     C 1554   4.344   3.620   2.199  0.4068  0.1978  0.0818
  100MPD2    C1 1555   4.261   3.734   2.207  0.4561 -0.0529  0.2784
  100MPD2    C2 1556   4.222   3.797   2.096  0.9362  0.6859 -0.0015
  100MPD2    C3 1557   4.277   3.773   1.975 -0.5208  0.4748  0.3803
  100MPD2    C4 1558   4.360   3.665   1.957  0.0832 -0.5277 -0.2108
  100MPD2    C5 1559   4.387   3.587   2.071  0.5067  0.2540  0.5666
  100MPD2     H 1560   4.144   3.870   2.115  0.2219 -0.4911  1.5696
  100MPD2    H1 1561   4.417   3.644   1.867  0.5202 -1.8048  0.3637
  100MPD2    H2 1562   4.397   3.562   2.274 -0.7718  1.0227  1.5464
  100MPD2    H3 1563   4.469   3.516   2.067  0.8352  0.4530  3.5801
  100MPD2     N 1564   4.235   3.863   1.871 -0.2809 -0.0081 -0.0163
  100MPD2    H5 1565   4.163   3.931   1.894  0.2268  0.0060  1.5646
  100MPD2    N1 1566   4.211   3.773   2.332 -0.6352 -0.4642 -0.1476
  100MPD2    H7 1567   4.159   3.860   2.335  0.6238  0.2511  0.6447
  101TMC2    C1 1568   0.014   0.540  13.114  0.3490  0.0018 -0.1605
  101TMC2    C2 1569   0.104   0.524  13.215  0.5103  0.2752 -0.0869
  101TMC2    C3 1570   0.211   0.607  13.218 -0.1411  0.6567  0.1805
  101TMC2    C4 1571   0.021   0.637  13.022  0.2672 -0.2529 -0.1503
  101TMC2    C5 1572   0.140   0.708  13.012 -0.0059 -0.2875  0.3568
  101TMC2    C6 1573   0.232   0.686  13.109  0.6139  0.0575 -0.0393
  101TMC2     C 1574   4.619   0.483  13.134 -0.5949 -0.5240 -1.6355
  101TMC2     O 1575   4.516   0.551  13.126 -0.6671  0.5067  0.0654
  101TMC2     H 1576   0.086   0.445  13.288 -1.1084 -1.6817 -2.6078
  101TMC2    H1 1577   4.674   0.638  12.950  0.2278 -0.4336 -0.1074
  101TMC2    H2 1578   0.323   0.745  13.105 -0.0574  1.0730 -0.3232
  101TMC2    C7 1579   0.168   0.782  12.892  0.5137 -0.2368 -0.3006
  101TMC2    C8 1580   0.323   0.578  13.306 -0.9576 -0.3251 -0.1897
  101TMC2    O1 1581   0.288   0.812  12.875 -0.0973  0.2972 -0.7773
  101TMC2    O2 1582   0.439   0.555  13.264  0.0828 -0.1985  0.1001
  101TMC2    O5 1583   0.275   0.522  13.412  0.1985  0.1477  0.5735
  101TMC2    H5 1584   0.195   0.569  13.444  0.2979  0.2505  0.6701
  102MPD2     C 1585   4.515   0.130  13.160 -0.2672  0.7154 -0.1972
  102MPD2    C1 1586   4.508   0.267  13.185 -0.5624 -0.0284  0.6727
  102MPD2    C2 1587   4.387   0.308  13.239  0.6817 -0.8945  0.1424
  102MPD2    C3 1588   4.290   0.212  13.273  0.0753 -0.4632 -0.3796
  102MPD2    C4 1589   4.304   0.079  13.235  0.9268 -0.4083  0.0499
  102MPD2    C5 1590   4.416   0.036  13.178 -0.0790  0.3753 -0.0802
  102MPD2     H 1591   4.362   0.405  13.279 -2.3582 -1.2960 -0.7240
  102MPD2    H1 1592   4.224   0.009  13.255  0.3708  0.3125  0.3620
  102MPD2    H2 1593   4.602   0.089  13.110  0.1716  1.4053  0.0096
  102MPD2    H3 1594   4.438   4.675  13.134  0.5854  0.3744  0.2599
  102MPD2     N 1595   4.166   0.256  13.335  0.1180  0.1388  0.4211
  102MPD2    H5 1596   4.162   0.356  13.355 -1.4628 -0.0591  1.1283
  102MPD2    N1 1597   4.626   0.348  13.156  0.3853  0.2883 -0.4916
  102MPD2    H7 1598   4.711   0.302  13.127 -0.9250 -2.3529 -0.1005
  103TMC2    C1 1599   2.458   0.380  12.434 -0.0642 -0.1612 -0.2137
  103TMC2    C2 1600   2.491   0.367  12.299 -0.7123 -0.0162  0.2145
  103TMC2    C3 1601   2.563   0.471  12.243  0.3593  0.1067  0.4913
  103TMC2    C4 1602   2.514   0.480  12.505  0.4450 -0.7767 -0.0236
  103TMC2    C5 1603   2.568   0.592  12.445  0.2224  0.3250 -0.1459
  103TMC2    C6 1604   2.600   0.589  12.307  0.2231  0.1798  0.0082
  103TMC2     C 1605   2.320   0.375  12.438 -0.3342 -0.4616 -0.1326
  103TMC2     O 1606   2.263   0.455  12.510 -0.0933  0.3114  0.3416
  103TMC2     H 1607   2.461   0.279  12.241  3.3240 -1.5252  0.4452
  103TMC2    H1 1608   2.482   0.492  12.608 -1.9522 -0.3846 -0.7985
  103TMC2    H2 1609   2.644   0.668  12.246 -2.1504  0.1567 -1.7568
  103TMC2    C7 1610   2.594   0.710  12.528  0.6941  0.9132 -0.3443
  103TMC2    C8 1611   2.563   0.471  12.095  0.8131  0.3583  0.5825
  103TMC2    O1 1612   2.577   0.700  12.647 -0.2375  0.3342 -0.5565
  103TMC2    O2 1613   2.564   0.576  12.036  0.0610 -0.0172 -0.0966
  103TMC2    O5 1614   2.638   0.360  12.059  0.0504  0.7459 -0.3285
  103TMC2    H5 1615   2.669   0.290  12.120 -2.0840 -0.6915 -0.8850
  104MPD2     C 1616   2.091   0.099  12.339 -0.2958 -0.3671 -0.0838
  104MPD2    C1 1617   2.136   0.229  12.364  0.2242 -0.5860  0.5968
  104MPD2    C2 1618   2.043   0.327  12.352  0.1120 -0.0240 -0.2551
  104MPD2    C3 1619   1.908   0.307  12.338  0.0536  0.3572 -0.5787
  104MPD2    C4 1620   1.864   0.175  12.308  0.1975 -0.1312  0.6972
  104MPD2    C5 1621   1.961   0.076  12.302 -0.1390 -0.0991 -0.0680
  104MPD2     H 1622   2.073   0.431  12.348 -0.9780  0.3597  1.4066
  104MPD2    H1 1623   1.763   0.148  12.281  0.9208 -3.7705  1.6083
  104MPD2    H2 1624   2.158   0.014  12.339 -2.5605 -2.1323 -1.5616
  104MPD2    H3 1625   1.942   4.710  12.266  0.5740  0.6951 -2.7212
  104MPD2     N 1626   1.821   0.421  12.321 -0.4257  0.9233  0.0994
  104MPD2    H5 1627   1.870   0.509  12.330 -0.7422  1.2142 -0.9674
  104MPD2    N1 1628   2.267   0.250  12.400  0.3910 -0.1692  0.4253
  104MPD2    H7 1629   2.336   0.178  12.381  0.2464  0.2617 -1.6761
  105TMC2    C1 1630   3.994   0.145   0.532  0.1076  0.0836  0.1133
  105TMC2    C2 1631   3.918   0.214   0.446  0.0886  0.1594 -0.6918
  105TMC2    C3 1632   3.804   0.263   0.501 -0.2934 -0.3817  0.2881
  105TMC2    C4 1633   3.955   0.111   0.656  0.2170 -0.4050 -0.1822
  105TMC2    C5 1634   3.836   0.154   0.705  0.6882  0.1429  0.1166
  105TMC2    C6 1635   3.760   0.232   0.625 -0.6587  0.8648 -0.2183
  105TMC2     C 1636   4.098   0.051   0.477 -0.3510  0.3011 -0.2654
  105TMC2     O 1637   4.146   4.703   0.553 -0.1681 -0.1748 -0.1590
  105TMC2     H 1638   3.953   0.239   0.347 -1.2181 -0.6986 -1.3746
  105TMC2    H1 1639   4.028   0.077   0.729 -1.2797  0.0039  1.5001
  105TMC2    H2 1640   3.662   0.260   0.661 -0.8358  0.3629 -0.3084
  105TMC2    C7 1641   3.804   0.129   0.842  0.2040 -0.9702 -0.3036
  105TMC2    C8 1642   3.729   0.354   0.422  0.3412 -0.2340 -0.4208
  105TMC2    O1 1643   3.843   0.025   0.891  0.0342  0.3471 -0.3573
  105TMC2    O2 1644   3.730   0.357   0.296  0.2551 -0.6999  0.0724
  105TMC2    O5 1645   3.643   0.426   0.493  0.2623 -0.0630 -0.2908
  105TMC2    H5 1646   3.653   0.411   0.589  0.0594  0.1733 -0.2327
  106MPD2     C 1647   4.432   4.640   0.099 -0.0011 -0.1304  0.2388
  106MPD2    C1 1648   4.343   0.000   0.057  0.2257 -0.4942 -0.1580
  106MPD2    C2 1649   4.240   0.041   0.138  0.0102  0.9280 -0.0239
  106MPD2    C3 1650   4.229   0.003   0.270  0.6470  0.3498 -0.5402
  106MPD2    C4 1651   4.331   4.660   0.321  0.8012 -0.1058 -0.0837
  106MPD2    C5 1652   4.427   4.606   0.232  0.1104  0.1731  0.1923
  106MPD2     H 1653   4.167   0.111   0.100 -0.7519  0.3142  0.3031
  106MPD2    H1 1654   4.338   4.623   0.423  0.1318 -0.8832 -0.3105
  106MPD2    H2 1655   4.519   4.624   0.036 -1.4174 -3.2187 -0.9301
  106MPD2    H3 1656   4.504   4.553   0.287  0.1242 -1.1024 -1.0410
  106MPD2     N 1657   4.126   0.073   0.347  0.0517  0.3753 -0.8822
  106MPD2    H5 1658   4.078   0.149   0.299 -1.8904  0.4862  1.2288
  106MPD2    N1 1659   4.343   0.057  17.666  0.1067 -0.1502  0.0743
  106MPD2    H7 1660   4.273   0.126  17.643 -1.0430 -0.9125  1.3020
  107TMC2    C1 1661   3.973   0.016  11.673  0.3570 -0.2954  0.1581
  107TMC2    C2 1662   4.055   0.106  11.602 -0.6763 -0.1975 -0.0286
  107TMC2    C3 1663   4.115   0.052  11.491  0.1452  0.6524 -0.3598
  107TMC2    C4 1664   3.946   4.626  11.631  0.0040 -0.0386  0.1231
  107TMC2    C5 1665   3.990   4.591  11.505  1.0217  0.1294 -0.6919
  107TMC2    C6 1666   4.070   4.670  11.430 -0.0635 -0.1776  0.1479
  107TMC2     C 1667   3.906   0.064  11.802  0.3176 -0.9337 -0.9674
  107TMC2     O 1668   3.848   4.713  11.868 -0.7047 -0.1335 -0.5665
  107TMC2     H 1669   4.082   0.202  11.645 -0.4927 -0.3436  0.1845
  107TMC2    H1 1670   3.896   4.554  11.694  0.7738  0.6674  1.5570
  107TMC2    H2 1671   4.107   4.634  11.335 -0.0557  1.1928 -0.3679
  107TMC2    C7 1672   3.973   4.451  11.464 -0.5615  0.0937 -0.4294
  107TMC2    C8 1673   4.201   0.144  11.418 -0.7719  0.8971  0.4049
  107TMC2    O1 1674   3.861   4.402  11.460 -0.4441  0.0756  0.3970
  107TMC2    O2 1675   4.214   0.259  11.453  0.0917 -0.3098  0.1806
  107TMC2    O5 1676   4.301   0.072  11.360 -0.3603 -0.0185 -0.1501
  107TMC2    H5 1677   4.298   4.713  11.390  1.1123  0.2718  0.9177
  108MPD2     C 1678   3.882   0.407  11.900 -0.2664 -1.0563  0.2027
  108MPD2    C1 1679   3.875   0.274  11.922  0.4315  0.7052 -0.9772
  108MPD2    C2 1680   3.843   0.219  12.044  0.2880 -0.5274  0.0896
  108MPD2    C3 1681   3.817   0.306  12.152  0.0874 -0.2139 -0.2949
  108MPD2    C4 1682   3.818   0.445  12.133  0.4583 -1.0790 -0.1336
  108MPD2    C5 1683   3.852   0.492  12.007 -0.5555 -0.3152  0.5474
  108MPD2     H 1684   3.829   0.113  12.060 -0.2338 -0.2618  1.4233
  108MPD2    H1 1685   3.813   0.503  12.225 -0.1804 -1.2128 -0.0777
  108MPD2    H2 1686   3.917   0.448  11.806 -0.6825 -0.0245  0.4985
  108MPD2    H3 1687   3.850   0.600  11.993  1.7295 -0.4102 -0.4407
  108MPD2     N 1688   3.794   0.258  12.279 -0.3998  0.2669  0.1211
  108MPD2    H5 1689   3.774   0.326  12.353 -1.3305  0.9431 -0.7530
  108MPD2    N1 1690   3.921   0.203  11.813  0.4330  0.2503 -0.1828
  108MPD2    H7 1691   3.973   0.251  11.740 -0.7548  0.4656 -0.8896
  109TMC2    C1 1692   4.569   2.264   1.050 -0.8302 -0.6219 -0.0407
  109TMC2    C2 1693   4.566   2.129   1.069 -0.0728  0.6048  0.2270
  109TMC2    C3 1694   4.688   2.064   1.089 -0.3216 -0.0090  0.3890
  109TMC2    C4 1695   4.687   2.342   1.068  0.2380 -0.8730  0.3547
  109TMC2    C5 1696   0.062   2.272   1.110 -0.0207  0.5170  0.5074
  109TMC2    C6 1697   0.072   2.136   1.111  0.0593  0.2540 -0.2402
  109TMC2     C 1698   4.464   2.337   0.971 -0.0568  0.2028  1.3132
  109TMC2     O 1699   4.441   2.458   0.985 -0.1453  0.2012 -0.2798
  109TMC2     H 1700   4.479   2.073   1.038 -0.6087  2.3945 -1.4961
  109TMC2    H1 1701   4.681   2.449   1.049  0.6373 -0.4085  2.7967
  109TMC2    H2 1702   0.161   2.094   1.157  0.9543 -0.4104 -2.5568
  109TMC2    C7 1703   0.170   2.340   1.190  0.4063  0.1221 -0.3289
  109TMC2    C8 1704   4.685   1.923   1.120 -0.2924 -0.4003  1.1018
  109TMC2    O1 1705   0.277   2.290   1.212 -0.6286 -0.5051 -0.1883
  109TMC2    O2 1706   4.586   1.856   1.154  0.3115 -0.1117 -0.1752
  109TMC2    O5 1707   0.071   1.888   1.068  0.7946 -0.0033  0.4170
  109TMC2    H5 1708   0.119   1.950   1.010  0.7816  1.1124  1.6059
  110MPD2     C 1709   4.059   2.345   0.645  0.0480  0.0955 -0.1185
  110MPD2    C1 1710   4.106   2.217   0.657  0.0497  0.1842  0.1720
  110MPD2    C2 1711   4.210   2.190   0.744  0.7112  0.5268  0.6901
  110MPD2    C3 1712   4.277   2.289   0.815 -0.3093  0.0422 -0.4908
  110MPD2    C4 1713   4.229   2.424   0.790 -0.2811  0.5307  0.4329
  110MPD2    C5 1714   4.117   2.447   0.715  0.1456 -0.4036 -0.0872
  110MPD2     H 1715   4.253   2.091   0.755 -1.6157 -0.9315 -3.4320
  110MPD2    H1 1716   4.288   2.506   0.828  1.1203  0.2239 -1.0850
  110MPD2    H2 1717   3.980   2.377   0.577 -2.1056 -1.1012  1.8039
  110MPD2    H3 1718   4.090   2.550   0.697 -0.8183 -0.6754 -0.2077
  110MPD2     N 1719   4.393   2.252   0.890 -0.4227  0.3465 -0.6802
  110MPD2    H5 1720   4.429   2.157   0.889 -1.3752 -0.0361  1.2786
  110MPD2    N1 1721   4.050   2.117   0.571  0.2216 -0.8520  0.4577
  110MPD2    H7 1722   3.959   2.139   0.531 -0.1673 -0.7338  1.3997
  111TMC2    C1 1723   4.560   1.953  12.081  0.4374  0.0870 -0.0398
  111TMC2    C2 1724   4.490   1.955  12.200 -0.0831 -0.1918  0.3729
  111TMC2    C3 1725   4.557   1.927  12.316  0.0663 -0.6342  0.6901
  111TMC2    C4 1726   4.693   1.936  12.076 -0.6264 -0.1002  0.1130
  111TMC2    C5 1727   0.022   1.915  12.195 -0.7230 -0.4438 -0.7996
  111TMC2    C6 1728   4.692   1.911  12.318  0.4013  0.5499  0.2509
  111TMC2     C 1729   4.482   1.950  11.955  0.2878  0.7731 -0.1023
  111TMC2     O 1730   4.545   1.963  11.850  0.2137 -0.3820  0.1397
  111TMC2     H 1731   4.384   1.969  12.216  0.0969  0.2616  1.1959
  111TMC2    H1 1732   0.001   1.910  11.980  1.8216 -0.6618  1.3628
  111TMC2    H2 1733   0.004   1.880  12.410  2.1599 -1.5574 -1.3553
  111TMC2    C7 1734   0.143   1.836  12.206 -0.1272  0.4465 -0.7154
  111TMC2    C8 1735   4.493   1.975  12.437 -0.5181 -0.3454 -0.0920
  111TMC2    O1 1736   0.164   1.769  12.306 -0.1153 -0.3652  0.8363
  111TMC2    O2 1737   4.372   1.965  12.471  0.1335  0.0037 -0.3461
  111TMC2    O5 1738   4.583   2.063  12.489  0.0101 -0.5456 -0.2211
  111TMC2    H5 1739   4.671   2.054  12.448  0.1398 -0.3459  0.0123
  112MPD2     C 1740   4.014   1.983  11.739  0.1579  0.0674  0.1655
  112MPD2    C1 1741   4.138   1.988  11.682 -0.0218  0.0557 -0.3631
  112MPD2    C2 1742   4.255   1.981  11.759 -0.7184  0.1348  0.6312
  112MPD2    C3 1743   4.244   1.967  11.899 -0.0842  0.0673  0.2563
  112MPD2    C4 1744   4.115   1.961  11.951  0.1165 -0.4862  0.2550
  112MPD2    C5 1745   4.004   1.959  11.873  0.0667 -0.0372  0.1265
  112MPD2     H 1746   4.355   1.986  11.718 -0.1767  0.8684  2.0224
  112MPD2    H1 1747   4.097   1.953  12.058  1.6678 -0.9231  0.4815
  112MPD2    H2 1748   3.922   1.995  11.682 -0.0377  0.5483  0.5824
  112MPD2    H3 1749   3.909   1.963  11.925 -0.7391 -2.6882 -1.1150
  112MPD2     N 1750   4.349   1.945  11.986 -0.0540 -0.0433  0.2947
  112MPD2    H5 1751   4.319   1.948  12.082  0.6466 -0.5314  0.5270
  112MPD2    N1 1752   4.160   1.988  11.545  0.1345 -0.0622  0.8500
  112MPD2    H7 1753   4.255   1.991  11.510  0.1929  0.0378  1.0206
  113TMC2    C1 1754   2.959   4.132   0.782  0.0605  1.0047 -0.1213
  113TMC2    C2 1755   2.874   4.238   0.795  0.2133 -0.1214  0.0423
  113TMC2    C3 1756   2.742   4.218   0.793  0.3844 -0.3365 -0.2706
  113TMC2    C4 1757   2.904   4.009   0.758 -1.1147 -0.8006 -0.0937
  113TMC2    C5 1758   2.770   3.993   0.761 -0.5969  0.6200  0.1890
  113TMC2    C6 1759   2.681   4.097   0.795  0.3752 -0.4514  0.1249
  113TMC2     C 1760   3.082   4.144   0.860 -0.2725 -0.5449 -0.3451
  113TMC2     O 1761   3.080   4.242   0.937  0.4021  0.2771 -0.2638
  113TMC2     H 1762   2.914   4.339   0.800 -0.0885 -0.0717  1.5481
  113TMC2    H1 1763   2.963   3.919   0.752  1.2888  0.6188  2.1337
  113TMC2    H2 1764   2.574   4.082   0.807  0.0179  1.6746 -0.4766
  113TMC2    C7 1765   2.738   3.860   0.807 -0.2320  0.1683  0.5394
  113TMC2    C8 1766   2.649   4.331   0.802 -0.6860  0.4498 -0.0443
  113TMC2    O1 1767   2.780   3.766   0.742  0.0468 -0.0565  0.0362
  113TMC2    O2 1768   2.531   4.323   0.832  0.0674  0.8107 -0.0010
  113TMC2    O5 1769   2.710   4.449   0.779  0.2265 -0.6852  0.1467
  113TMC2    H5 1770   2.792   4.427   0.730  0.6303  1.3723 -0.1158
  114MPD2     C 1771   3.430   3.949   1.173  0.4003  0.2162 -0.0676
  114MPD2    C1 1772   3.339   4.044   1.198  0.0836  0.0260  0.3353
  114MPD2    C2 1773   3.242   4.063   1.098  0.3419  0.0816 -0.4743
  114MPD2    C3 1774   3.239   3.987   0.982 -0.3330  0.2728 -0.6252
  114MPD2    C4 1775   3.328   3.885   0.965  0.6453  0.1867  0.1616
  114MPD2    C5 1776   3.415   3.866   1.065  0.7565  0.0467 -0.0873
  114MPD2     H 1777   3.159   4.128   1.125 -0.4374 -0.2989 -1.9183
  114MPD2    H1 1778   3.326   3.817   0.880  4.0297  0.3779 -0.0700
  114MPD2    H2 1779   3.513   3.937   1.241 -1.1764 -1.8003  1.4929
  114MPD2    H3 1780   3.493   3.792   1.050  0.9382 -0.3071  2.4717
  114MPD2     N 1781   3.143   4.023   0.879  0.0651  0.4884 -0.0656
  114MPD2    H5 1782   3.141   3.950   0.808  0.7924  2.7113 -2.3837
  114MPD2    N1 1783   3.353   4.139   1.301 -0.1291 -0.2210  0.5444
  114MPD2    H7 1784   3.280   4.208   1.312 -0.0075  0.5276 -3.2822
  115TMC2    C1 1785   3.699   1.788  17.648  0.1775  0.7272  0.3809
  115TMC2    C2 1786   3.828   1.747  17.637  0.0755 -0.4638  0.3381
  115TMC2    C3 1787   3.929   1.841  17.640 -0.3391  0.6299  0.1887
  115TMC2    C4 1788   3.673   1.920  17.670  0.3283  0.6009 -0.3423
  115TMC2    C5 1789   3.776   2.007  17.685 -0.9822  0.1481 -0.1785
  115TMC2    C6 1790   3.908   1.973  17.672 -0.1742  0.2939  0.2277
  115TMC2     C 1791   3.602   1.704  17.582 -0.5449 -1.0566  0.3560
  115TMC2     O 1792   3.643   1.596  17.540 -0.3861  0.1376 -0.3791
  115TMC2     H 1793   3.840   1.640  17.641 -1.5888 -0.6780 -0.2268
  115TMC2    H1 1794   3.576   1.970  17.667  0.1299  0.2346 -0.0304
  115TMC2    H2 1795   3.991   2.043  17.677 -0.3817  0.2481  3.8749
  115TMC2    C7 1796   3.746   2.146  17.704  0.2343  0.4131 -0.1178
  115TMC2    C8 1797   4.057   1.783  17.671 -0.2379 -0.0943 -0.4397
  115TMC2    O1 1798   3.632   2.187  17.726 -0.4094  0.3897 -0.1860
  115TMC2    O2 1799   4.081   1.682  17.609 -0.3465 -0.2551 -0.7252
  115TMC2    O5 1800   4.062   1.788   0.067 -0.2484 -0.2218 -0.1002
  115TMC2    H5 1801   4.003   1.858   0.103 -1.7336 -0.8630 -1.2855
  116MPD2     C 1802   3.144   1.620  17.373 -0.2477 -0.2737 -0.4053
  116MPD2    C1 1803   3.264   1.560  17.350 -0.8215  0.7486  0.6478
  116MPD2    C2 1804   3.376   1.592  17.429  0.0148  0.0380  0.0133
  116MPD2    C3 1805   3.366   1.702  17.520 -0.2495 -0.1359 -0.2581
  116MPD2    C4 1806   3.245   1.766  17.538  0.4732  1.1762 -0.0952
  116MPD2    C5 1807   3.134   1.719  17.468 -0.3173 -0.2963 -0.3017
  116MPD2     H 1808   3.472   1.543  17.414 -1.4889 -2.1631 -2.3943
  116MPD2    H1 1809   3.232   1.840  17.617  1.6644  0.1236  1.0816
  116MPD2    H2 1810   3.055   1.582  17.324 -0.7550  0.7622 -0.2778
  116MPD2    H3 1811   3.035   1.757  17.490 -0.0462  0.0823  0.2589
  116MPD2     N 1812   3.477   1.750  17.594  0.3857  0.3256  0.1758
  116MPD2    H5 1813   3.462   1.828  17.657  1.7940  0.3771  0.4532
  116MPD2    N1 1814   3.276   1.477  17.237  0.3143  0.3046  0.1780
  116MPD2    H7 1815   3.192   1.480  17.179 -0.4089  2.3343  1.3154
  117TMC2    C1 1816   2.158   3.361  13.874  0.0105  0.1614  0.4165
  117TMC2    C2 1817   2.253   3.269  13.902  0.8225  0.0918  0.1583
  117TMC2    C3 1818   2.335   3.302  14.001 -0.2985 -0.6516 -0.3147
  117TMC2    C4 1819   2.157   3.489  13.919  0.0792 -0.2382 -0.5402
  117TMC2    C5 1820   2.239   3.519  14.023 -0.3119 -0.5038 -0.5132
  117TMC2    C6 1821   2.331   3.424  14.061 -0.5336  0.1336 -0.2468
  117TMC2     C 1822   2.048   3.322  13.783  0.1549 -0.2992 -0.3168
  117TMC2     O 1823   2.068   3.250  13.680  0.4125  0.3682 -0.1066
  117TMC2     H 1824   2.257   3.172  13.854 -0.6970  0.7833 -1.4040
  117TMC2    H1 1825   2.101   3.570  13.875  0.0130 -1.1093 -2.0423
  117TMC2    H2 1826   2.407   3.455  14.132 -0.0558  0.9970 -1.1370
  117TMC2    C7 1827   2.216   3.642  14.094  0.2753 -0.0903 -0.1803
  117TMC2    C8 1828   2.438   3.219  14.049  0.0325 -0.5151  0.2481
  117TMC2    O1 1829   2.300   3.668  14.178 -0.3491 -0.7611 -0.5549
  117TMC2    O2 1830   2.427   3.189  14.170 -0.3236 -0.3376  0.1307
  117TMC2    O5 1831   2.535   3.301  14.001 -0.6377  0.4042  0.1424
  117TMC2    H5 1832   2.542   3.328  13.907  0.0264 -0.0103  0.0727
  118MPD2     C 1833   1.907   3.830  14.158 -0.4552  0.3057 -0.0925
  118MPD2    C1 1834   2.041   3.808  14.159  0.7681 -0.7513 -0.9094
  118MPD2    C2 1835   2.121   3.898  14.226  0.1506 -0.3626  0.4176
  118MPD2    C3 1836   2.075   4.019  14.267  0.5101  0.9332 -0.1782
  118MPD2    C4 1837   1.943   4.045  14.257  0.4662 -0.3299  0.3252
  118MPD2    C5 1838   1.853   3.950  14.202 -0.3064  0.1842  0.1887
  118MPD2     H 1839   2.228   3.883  14.232  0.4092  1.1561 -0.3909
  118MPD2    H1 1840   1.903   4.137  14.300  1.8818  0.8395 -0.8895
  118MPD2    H2 1841   1.835   3.762  14.114  1.1510 -2.5093  1.6800
  118MPD2    H3 1842   1.747   3.971  14.199 -0.1932  0.5133 -1.4472
  118MPD2     N 1843   2.161   4.127  14.317  0.5288  0.1459 -0.5296
  118MPD2    H5 1844   2.117   4.214  14.343 -1.1011 -1.0568  0.7436
  118MPD2    N1 1845   2.081   3.681  14.105 -0.5661  0.1361  0.1431
  118MPD2    H7 1846   2.012   3.635  14.047  1.2416 -1.5022 -0.6936
  119TMC2    C1 1847   0.484   4.676  13.594 -0.4276  0.6876 -0.6138
  119TMC2    C2 1848   0.507   4.579  13.502  0.3973  0.2957 -0.0201
  119TMC2    C3 1849   0.394   4.526  13.442 -0.0241 -0.3604 -0.6951
  119TMC2    C4 1850   0.363   4.717  13.638  0.5010 -0.1888  0.8891
  119TMC2    C5 1851   0.254   4.662  13.577  0.1625  0.2305  0.1548
  119TMC2    C6 1852   0.268   4.570  13.480  0.3531 -0.0410  0.1418
  119TMC2     C 1853   0.570   4.662  13.710 -0.5814 -0.5611 -0.5114
  119TMC2     O 1854   0.512   4.630  13.814  0.2909  0.0168 -0.0039
  119TMC2     H 1855   0.607   4.554  13.468  0.5388  1.3575 -0.3995
  119TMC2    H1 1856   0.352   0.061  13.712 -1.3062 -0.8306  1.2945
  119TMC2    H2 1857   0.190   4.529  13.417 -0.2412  2.9135 -1.0516
  119TMC2    C7 1858   0.123   4.664  13.650 -0.3528  0.3307  0.2690
  119TMC2    C8 1859   0.403   4.449  13.323 -0.4295  0.0709 -0.5073
  119TMC2    O1 1860   0.024   4.674  13.582  0.1075 -0.1985  0.2500
  119TMC2    O2 1861   0.334   4.475  13.225  0.4708 -0.1222  0.1703
  119TMC2    O5 1862   0.514   4.368  13.326  0.1231  0.2119 -0.1872
  119TMC2    H5 1863   0.554   4.361  13.416 -0.5915 -1.2777  0.0078
  120MPD2     C 1864   0.992   4.689  13.980 -0.6146 -0.4847 -0.3763
  120MPD2    C1 1865   0.866   4.724  14.022 -0.6447  0.0704  0.1767
  120MPD2    C2 1866   0.769   4.724  13.924 -1.6080 -0.1293  0.4316
  120MPD2    C3 1867   0.797   4.700  13.788 -0.3804 -0.3221  0.0456
  120MPD2    C4 1868   0.928   4.673  13.753 -0.4414 -0.3739 -0.2346
  120MPD2    C5 1869   1.022   4.658  13.849 -0.6402  0.6024  0.0342
  120MPD2     H 1870   0.667   0.006  13.956 -1.2347  0.9168  1.0650
  120MPD2    H1 1871   0.971   4.659  13.654  2.1940  1.4195  0.6473
  120MPD2    H2 1872   1.066   4.666  14.056 -2.4835  1.2429  1.9797
  120MPD2    H3 1873   1.119   4.623  13.815 -1.8937 -0.1710 -2.7974
  120MPD2     N 1874   0.699   4.693  13.687 -0.0786  0.2992  0.3891
  120MPD2    H5 1875   0.731   4.699  13.591 -0.2258 -0.4117  0.2907
  120MPD2    N1 1876   0.830   0.005  14.160  0.4069 -0.0156 -0.1606
  120MPD2    H7 1877   0.887   4.688  14.226 -1.7582 -0.3758  1.4378
  121TMC2    C1 1878   1.988   1.749  14.229 -1.2460 -0.2883 -0.5419
  121TMC2    C2 1879   1.976   1.684  14.349 -0.2026 -0.0802  0.3098
  121TMC2    C3 1880   1.870   1.611  14.374  0.2583  0.9519 -0.1808
  121TMC2    C4 1881   1.886   1.741  14.134  0.5159 -0.5079  0.1938
  121TMC2    C5 1882   1.776   1.663  14.165 -0.1720  0.0880  0.5589
  121TMC2    C6 1883   1.766   1.594  14.287  0.3051  0.0301 -0.7143
  121TMC2     C 1884   2.093   1.857  14.219 -0.5036  0.9870  0.3958
  121TMC2     O 1885   2.139   1.907  14.321  0.3769  0.0223  0.0414
  121TMC2     H 1886   2.063   1.677  14.413  0.4235 -0.3064 -0.5609
  121TMC2    H1 1887   1.882   1.800  14.043  1.2455 -1.5441 -0.5149
  121TMC2    H2 1888   1.692   1.521  14.316  0.8174  0.4584  1.6569
  121TMC2    C7 1889   1.684   1.628  14.058 -0.7826 -0.4302  0.5334
  121TMC2    C8 1890   1.894   1.514  14.472  0.6091 -0.5478  0.5384
  121TMC2    O1 1891   1.728   1.645  13.946 -0.0769  0.5846  0.0744
  121TMC2    O2 1892   2.002   1.469  14.500  0.0353  0.3538  0.2774
  121TMC2    O5 1893   1.775   1.499  14.542  0.2512  0.8836 -0.4114
  121TMC2    H5 1894   1.700   1.536  14.491  0.0078 -0.4137 -0.9951
  122MPD2     C 1895   2.326   2.023  14.141  0.5541 -0.2878 -0.7125
  122MPD2    C1 1896   2.238   1.963  14.052 -0.1390 -0.4793  0.2858
  122MPD2    C2 1897   2.266   1.986  13.922 -0.6264 -0.4310 -0.5521
  122MPD2    C3 1898   2.368   2.063  13.872 -0.2139  0.2509 -1.1108
  122MPD2    C4 1899   2.448   2.124  13.967  0.4439 -0.5001  0.3852
  122MPD2    C5 1900   2.422   2.107  14.099 -0.2061  0.4236 -0.3386
  122MPD2     H 1901   2.187   1.961  13.852 -1.7431 -2.3954  1.3805
  122MPD2    H1 1902   2.522   2.200  13.945 -0.5783  0.8013  1.4223
  122MPD2    H2 1903   2.322   2.008  14.249 -1.1270  0.6242 -0.6509
  122MPD2    H3 1904   2.482   2.159  14.173 -1.3985  0.8468  0.3404
  122MPD2     N 1905   2.389   2.085  13.737 -0.4076 -0.9368 -0.4182
  122MPD2    H5 1906   2.450   2.164  13.720 -0.4259 -0.1914  3.1569
  122MPD2    N1 1907   2.129   1.877  14.090 -0.0408  0.3969 -0.2386
  122MPD2    H7 1908   2.089   1.814  14.022  0.8580 -1.1980  0.7202
  123TMC2    C1 1909   0.066   0.795  10.961 -0.1766 -0.1503  0.4828
  123TMC2    C2 1910   0.050   0.926  10.977 -0.4301  0.1393 -0.4920
  123TMC2    C3 1911   0.068   1.012  10.877 -0.1789 -0.3330  0.5996
  123TMC2    C4 1912   0.092   0.741  10.837  0.0486 -0.3048  0.4701
  123TMC2    C5 1913   0.108   0.829  10.729 -0.3753  0.1867  0.0792
  123TMC2    C6 1914   0.087   0.965  10.752 -0.5802 -0.1783  0.5302
  123TMC2     C 1915   0.030   0.713  11.072 -0.1376  0.4897  0.4327
  123TMC2     O 1916   0.049   0.757  11.181 -0.2394  0.0062 -0.0380
  123TMC2     H 1917   0.013   0.962  11.073  0.7817  1.0496 -0.3711
  123TMC2    H1 1918   0.107   0.633  10.833  1.0960 -0.0688 -1.8605
  123TMC2    H2 1919   0.087   1.035  10.669  0.3492  0.8146  1.3726
  123TMC2    C7 1920   0.103   0.776  10.600  0.2611  0.0728  0.7699
  123TMC2    C8 1921   4.706   1.122  10.882 -0.9252  0.1858  0.0558
  123TMC2    O1 1922   0.106   0.656  10.584  0.6645 -0.5018 -0.2841
  123TMC2    O2 1923   4.605   1.134  10.952 -0.5656 -0.1380 -0.0622
  123TMC2    O5 1924   0.030   1.223  10.822  0.0744 -0.2821 -0.4606
  123TMC2    H5 1925   0.113   1.206  10.773  2.1672  1.9611  2.2874
  124MPD2     C 1926   4.487   0.343  11.291  0.0966 -0.0841 -0.0585
  124MPD2    C1 1927   4.462   0.344  11.155 -0.5620 -0.5856  0.0218
  124MPD2    C2 1928   4.528   0.438  11.079 -0.0930 -0.6819  0.1967
  124MPD2    C3 1929   4.613   0.523  11.133 -0.1422 -0.1849 -0.4122
  124MPD2    C4 1930   4.630   0.528  11.268 -0.0891  0.1130 -0.0707
  124MPD2    C5 1931   4.570   0.431  11.347 -0.1586 -0.5843 -0.2325
  124MPD2     H 1932   4.504   0.446  10.973  0.0904 -0.7598  0.1489
  124MPD2    H1 1933   4.687   0.607  11.316 -0.6488  0.0328  0.7365
  124MPD2    H2 1934   4.425   0.284  11.358 -0.3230  0.6457  0.2005
  124MPD2    H3 1935   4.592   0.433  11.453  0.7102 -0.2698 -0.4182
  124MPD2     N 1936   4.689   0.601  11.036 -0.3835  0.7032 -0.4468
  124MPD2    H5 1937   4.674   0.592  10.936 -1.8783  0.4153 -0.1896
  124MPD2    N1 1938   4.354   0.263  11.104  0.0714 -0.5891 -0.2971
  124MPD2    H7 1939   4.295   0.213  11.170  0.1187  1.1825  1.0923
  125TMC2    C1 1940   0.430   2.971   9.566 -0.2375 -0.8072  0.2107
  125TMC2    C2 1941   0.487   3.040   9.456  0.2302 -0.6052 -0.1064
  125TMC2    C3 1942   0.622   3.031   9.445 -0.2573 -0.2869  0.0853
  125TMC2    C4 1943   0.504   2.905   9.654 -0.2699 -0.2900 -0.0526
  125TMC2    C5 1944   0.639   2.895   9.637 -0.2998  0.6394  0.3081
  125TMC2    C6 1945   0.705   2.958   9.535 -0.4511 -0.1288 -0.1294
  125TMC2     C 1946   0.291   2.984   9.583  0.1068  0.3973 -0.4202
  125TMC2     O 1947   0.230   3.034   9.490  0.4270 -0.2283 -0.1939
  125TMC2     H 1948   0.423   3.087   9.383  1.6895  0.4081 -0.7357
  125TMC2    H1 1949   0.464   2.835   9.726  1.6845 -0.6324  0.7235
  125TMC2    H2 1950   0.813   2.952   9.528 -0.4756 -2.5547  1.7113
  125TMC2    C7 1951   0.692   2.775   9.697 -1.3449  0.2019 -0.7901
  125TMC2    C8 1952   0.689   3.103   9.337  0.0818 -0.4791  0.0153
  125TMC2    O1 1953   0.640   2.735   9.800 -0.5045  0.2380 -0.1057
  125TMC2    O2 1954   0.658   3.210   9.286  0.3034 -0.2384 -0.3248
  125TMC2    O5 1955   0.797   3.031   9.312 -0.6517  0.1688  0.1694
  125TMC2    H5 1956   0.798   2.940   9.348  0.4479 -0.4729 -1.5105
  126MPD1     C 1957   4.602   3.012   9.840  0.9885  1.1004 -0.3848
  126MPD1    C1 1958   4.700   2.984   9.930 -0.3068 -0.3745 -0.3176
  126MPD1    C2 1959   0.093   2.959   9.881  0.0615 -0.0678 -0.4580
  126MPD1    C3 1960   0.115   2.971   9.748  0.8905 -0.0676 -0.3040
  126MPD1    C4 1961   0.016   2.975   9.657 -0.6760 -0.4777  0.8417
  126MPD1    C5 1962   4.624   2.993   9.706 -0.3580 -0.0892 -0.3422
  126MPD1     H 1963   0.178   2.949   9.947 -1.0523 -2.6602  0.5943
  126MPD1    H1 1964   0.033   2.984   9.550 -0.8507 -1.1321  0.7580
  126MPD1    H2 1965   4.504   3.044   9.873  1.4939  1.3438  0.8627
  126MPD1    H3 1966   4.546   2.996   9.630  1.5843  2.1597 -2.2434
  126MPD1     N 1967   0.248   2.961   9.711 -0.3218 -0.3974 -0.6461
  126MPD1    H5 1968   0.315   2.941   9.785  0.2668 -0.6656 -1.2547
  126MPD1    N1 1969   4.680   3.014  10.072 -0.9151  0.4736  0.7828
  126MPD1    H6 1970   4.584   2.988  10.092 -0.9191 -0.1353 -0.0418
  126MPD1    H7 1971   0.009   2.967  10.135  0.2356  0.6974 -0.2233
  127TMC2    C1 1972   1.714   0.991  10.292  0.9321  0.3397  0.6850
  127TMC2    C2 1973   1.789   1.004  10.409  0.0147 -0.7278  0.5442
  127TMC2    C3 1974   1.756   0.928  10.512 -0.2081  0.7703  0.1898
  127TMC2    C4 1975   1.604   0.906  10.285  0.1577 -0.0327  0.1738
  127TMC2    C5 1976   1.576   0.837  10.403  0.4547 -0.4573  0.2973
  127TMC2    C6 1977   1.652   0.839  10.514  0.4037  0.0029  0.3473
  127TMC2     C 1978   1.753   1.082  10.184 -1.5189 -0.0556  0.0744
  127TMC2     O 1979   1.870   1.119  10.187  0.0664 -0.8140  0.3044
  127TMC2     H 1980   1.871   1.074  10.399  1.5158 -2.1722  2.7406
  127TMC2    H1 1981   1.547   0.888  10.195  2.9631  0.1119 -1.6585
  127TMC2    H2 1982   1.652   0.764  10.592 -1.6990  2.3412  2.5767
  127TMC2    C7 1983   1.474   0.731  10.381 -0.1978 -0.1048  0.3936
  127TMC2    C8 1984   1.846   0.942  10.632 -0.3692  0.0713 -0.1105
  127TMC2    O1 1985   1.475   0.670  10.273 -0.7051 -0.3162  0.1372
  127TMC2    O2 1986   1.949   1.007  10.625  0.4185 -0.0816 -0.2604
  127TMC2    O5 1987   1.812   0.862  10.736  0.0708 -0.0018 -0.2166
  127TMC2    H5 1988   1.716   0.844  10.727  0.2291 -0.6429 -0.6203
  128MPD2     C 1989   1.585   1.211   9.891 -0.0641  0.2793  0.3418
  128MPD2    C1 1990   1.679   1.204   9.988  0.0153 -0.3007 -0.3927
  128MPD2    C2 1991   1.781   1.298   9.992 -0.3334  1.2402  0.4645
  128MPD2    C3 1992   1.798   1.387   9.887 -0.3682  0.4945  0.0354
  128MPD2    C4 1993   1.710   1.384   9.785 -0.1749 -0.2547 -0.4476
  128MPD2    C5 1994   1.605   1.299   9.791  0.5337 -0.1675  0.6105
  128MPD2     H 1995   1.856   1.293  10.069  0.0326  1.4008  0.1157
  128MPD2    H1 1996   1.712   1.441   9.693 -1.8432 -1.8547 -1.4842
  128MPD2    H2 1997   1.496   1.149   9.890 -0.2387  0.5225  0.6098
  128MPD2    H3 1998   1.533   1.294   9.711 -0.8699  0.5444  1.8261
  128MPD2     N 1999   1.914   1.460   9.878 -0.3502  0.0862  0.1416
  128MPD2    H5 2000   1.983   1.447   9.951 -1.6597  0.3198  1.4174
  128MPD2    N1 2001   1.658   1.116  10.098 -0.2553  0.0937  0.1005
  128MPD2    H7 2002   1.567   1.070  10.101  0.0003 -0.5402 -1.8243
  129TMC2    C1 2003   4.412   1.988   1.399  0.2532 -0.0801  0.0479
  129TMC2    C2 2004   4.410   2.123   1.386 -0.3449  0.4247  0.4349
  129TMC2    C3 2005   4.289   2.186   1.403  0.2756 -0.1966  0.2469
  129TMC2    C4 2006   4.290   1.926   1.382 -0.5305  0.4304  0.1738
  129TMC2    C5 2007   4.174   1.993   1.396 -0.2432  0.3763  1.1265
  129TMC2    C6 2008   4.166   2.129   1.416  0.3300 -0.6753  0.3353
  129TMC2     C 2009   4.525   1.909   1.446 -0.2204  0.1441  0.1040
  129TMC2     O 2010   4.499   1.790   1.460 -0.4078  0.2493 -0.6156
  129TMC2     H 2011   4.491   2.195   1.389 -0.1743  0.1481  2.5503
  129TMC2    H1 2012   4.294   1.818   1.392  2.3692  0.4779 -0.4428
  129TMC2    H2 2013   4.077   2.191   1.430 -0.1867 -1.1837 -0.7298
  129TMC2    C7 2014   4.051   1.918   1.394 -0.2017  0.3681 -0.8036
  129TMC2    C8 2015   4.298   2.307   1.478  0.2305 -0.3414 -0.3637
  129TMC2    O1 2016   4.057   1.797   1.368  0.0813 -0.5851 -0.2235
  129TMC2    O2 2017   4.381   2.396   1.467 -0.4514  0.4129 -0.1722
  129TMC2    O5 2018   4.242   2.280   1.599  0.5351  0.0081  0.0820
  129TMC2    H5 2019   4.192   2.196   1.598  0.7085 -0.0829 -1.9922
  130MPD2     C 2020   0.044   1.775   1.525  0.0901  0.6473  0.6535
  130MPD2    C1 2021   0.026   1.915   1.503 -0.7882  0.3178  0.7356
  130MPD2    C2 2022   0.138   1.997   1.497 -0.7344 -0.6541  0.2247
  130MPD2    C3 2023   0.266   1.935   1.507 -1.4456  0.2382 -0.1634
  130MPD2    C4 2024   0.275   1.801   1.534  0.7520  0.2580 -0.9958
  130MPD2    C5 2025   0.165   1.719   1.546 -0.2843  0.4295  0.1969
  130MPD2     H 2026   0.138   2.104   1.476 -1.0845 -0.3305  1.9163
  130MPD2    H1 2027   0.368   1.748   1.550 -0.5700 -1.8181 -0.1187
  130MPD2    H2 2028   4.697   1.704   1.532  0.3368  0.2211 -0.7184
  130MPD2    H3 2029   0.169   1.612   1.559 -2.3625  0.2201 -0.9966
  130MPD2     N 2030   0.381   2.011   1.496  0.1221 -0.4091 -0.6013
  130MPD2    H5 2031   0.376   2.111   1.515 -0.5754 -1.2093  3.5914
  130MPD2    N1 2032   4.637   1.978   1.470 -0.0970  0.6494 -0.3657
  130MPD2    H7 2033   4.635   2.080   1.474  0.7426  0.7359 -2.0492
  131TMC2    C1 2034   4.375   0.827  10.380  0.0797  0.2106 -0.5664
  131TMC2    C2 2035   4.395   0.904  10.489 -0.4024 -0.5871 -0.0010
  131TMC2    C3 2036   4.435   1.033  10.483 -0.7789  0.5907  0.3350
  131TMC2    C4 2037   4.406   0.878  10.253  0.4366 -0.0787 -0.5919
  131TMC2    C5 2038   4.433   1.010  10.245  0.5425 -0.5807 -0.4746
  131TMC2    C6 2039   4.452   1.090  10.360  0.2106 -0.3883 -0.2458
  131TMC2     C 2040   4.358   0.685  10.403 -0.4366  0.0372  0.5897
  131TMC2     O 2041   4.379   0.639  10.515 -0.7688 -0.6280  0.1650
  131TMC2     H 2042   4.366   0.857  10.582  1.1885  1.6535  1.6460
  131TMC2    H1 2043   4.401   0.828  10.158  0.8414  0.0280 -0.6677
  131TMC2    H2 2044   4.461   1.198  10.358  2.1960 -0.5393  0.1219
  131TMC2    C7 2045   4.415   1.070  10.111  0.2427  0.7367  0.5408
  131TMC2    C8 2046   4.403   1.128  10.584  0.2479 -0.5101  0.3039
  131TMC2    O1 2047   4.367   1.006  10.018  0.0974  0.1062  0.0290
  131TMC2    O2 2048   4.358   1.238  10.567  0.6720  0.1846 -0.4194
  131TMC2    O5 2049   4.395   1.065  10.699 -0.3245  0.5105  0.2472
  131TMC2    H5 2050   4.451   0.986  10.715 -2.2247 -0.6501  1.1523
  132MPD2     C 2051   4.151   0.460  10.203 -0.4014 -0.3983 -0.2432
  132MPD2    C1 2052   4.231   0.499  10.312  0.0690  0.4325 -0.0984
  132MPD2    C2 2053   4.234   0.416  10.425  0.1765 -0.0858 -0.1148
  132MPD2    C3 2054   4.157   0.302  10.433 -0.0284  0.1673 -0.2473
  132MPD2    C4 2055   4.086   0.262  10.328  1.2067  0.7681 -0.0373
  132MPD2    C5 2056   4.084   0.345  10.219 -0.3038  0.2840  1.5303
  132MPD2     H 2057   4.299   0.445  10.507 -0.0953  0.4636 -0.0928
  132MPD2    H1 2058   4.017   0.178  10.325  1.5776  0.4097  1.1416
  132MPD2    H2 2059   4.150   0.520  10.113 -0.4240  1.2850  0.8840
  132MPD2    H3 2060   4.025   0.317  10.132  0.4700 -1.0766  1.4390
  132MPD2     N 2061   4.156   0.239  10.566  0.4760 -1.0616  0.4649
  132MPD2    H5 2062   4.217   0.265  10.643  2.1266 -0.8555 -0.9065
  132MPD2    N1 2063   4.296   0.622  10.297  0.1268  0.1469  0.2193
  132MPD2    H7 2064   4.269   0.672  10.213 -0.2495 -0.6195 -0.1265
  133TMC2    C1 2065   3.339   4.721   9.907  0.5802  0.3573 -0.8318
  133TMC2    C2 2066   3.269   4.662   9.804 -0.3184  0.0488  0.8621
  133TMC2    C3 2067   3.298   4.532   9.775 -0.2075  0.9700  0.8199
  133TMC2    C4 2068   3.443   4.647   9.967 -0.6996  0.2218  0.3479
  133TMC2    C5 2069   3.465   4.518   9.937  0.1407  0.9944  0.5532
  133TMC2    C6 2070   3.390   4.452   9.844  0.3152  0.2090  0.0147
  133TMC2     C 2071   3.337   0.133   9.916  0.3435  0.5504  0.6443
  133TMC2     O 2072   3.442   0.189   9.903  0.2997 -0.2503 -0.8427
  133TMC2     H 2073   3.203   4.722   9.743 -1.8768 -0.6811  1.8242
  133TMC2    H1 2074   3.499   4.695  10.046  0.5608  1.1325 -1.1086
  133TMC2    H2 2075   3.413   4.350   9.815 -1.2933  0.2467 -1.3879
  133TMC2    C7 2076   3.542   4.431  10.017  0.7760  0.2306  0.4019
  133TMC2    C8 2077   3.254   4.499   9.636 -0.0828 -0.2881  0.0231
  133TMC2    O1 2078   3.522   4.312  10.014 -0.3367  0.3256 -0.2217
  133TMC2    O2 2079   3.174   4.569   9.580  0.5561 -0.1730 -0.1630
  133TMC2    O5 2080   3.362   4.460   9.572 -0.0040  0.3023 -0.3400
  133TMC2    H5 2081   3.437   4.425   9.624  0.3520 -0.6744 -1.4946
  134MPD2     C 2082   3.049   0.364   9.877 -0.0860  0.5429  0.1190
  134MPD2    C1 2083   3.183   0.325   9.879  0.2161  0.1932  0.3012
  134MPD2    C2 2084   3.276   0.438   9.875  0.1642 -0.0834  0.5400
  134MPD2    C3 2085   3.233   0.574   9.875 -0.0635 -0.6949 -0.6327
  134MPD2    C4 2086   3.094   0.599   9.864  0.3435  0.0991  0.8432
  134MPD2    C5 2087   3.007   0.491   9.865  0.4938 -0.3833  0.1231
  134MPD2     H 2088   3.380   0.412   9.889  0.4582  1.2057  0.7841
  134MPD2    H1 2089   3.058   0.700   9.853 -0.8485 -0.6915 -2.5992
  134MPD2    H2 2090   2.970   0.294   9.903 -0.4470  0.0084 -2.4335
  134MPD2    H3 2091   2.899   0.503   9.860  0.3760 -1.9990 -1.1193
  134MPD2     N 2092   3.314   0.690   9.877  0.5545  1.2097  0.5556
  134MPD2    H5 2093   3.265   0.777   9.859 -1.4548 -0.6560 -2.8992
  134MPD2    N1 2094   3.213   0.184   9.892 -0.1300  0.3755  0.2785
  134MPD2    H7 2095   3.134   0.120   9.892 -0.2082  0.4648 -0.7029
  135TMC2    C1 2096   1.162   2.827   9.785 -0.5823  0.0272  0.3371
  135TMC2    C2 2097   1.063   2.865   9.868 -0.3086 -0.2039  0.0555
  135TMC2    C3 2098   1.053   2.809   9.992  0.7241 -0.4172 -0.4322
  135TMC2    C4 2099   1.238   2.716   9.809  0.2158  0.1738  0.1289
  135TMC2    C5 2100   1.232   2.663   9.936 -0.2195  0.4055  0.2749
  135TMC2    C6 2101   1.141   2.711  10.031 -0.3041 -0.3025 -0.5263
  135TMC2     C 2102   1.162   2.879   9.647 -0.1673 -0.2269 -0.2602
  135TMC2     O 2103   1.047   2.923   9.613 -0.6976 -0.4849 -0.0148
  135TMC2     H 2104   0.990   2.940   9.842  0.9744  1.0624  0.1025
  135TMC2    H1 2105   1.305   2.670   9.737 -2.0080 -1.8011 -0.6943
  135TMC2    H2 2106   1.130   2.668  10.130  1.5850  0.6041  0.0672
  135TMC2    C7 2107   1.298   2.543   9.958  0.0461 -1.0823  0.0063
  135TMC2    C8 2108   0.942   2.860  10.066  0.0899  0.1438 -0.4909
  135TMC2    O1 2109   1.392   2.512   9.888 -0.2724 -0.2213  0.2649
  135TMC2    O2 2110   0.903   2.978  10.065 -0.0107  0.5707  0.8920
  135TMC2    O5 2111   0.911   2.766  10.159 -0.2769  0.6177  0.4698
  135TMC2    H5 2112   0.938   2.678  10.126 -0.3320  0.9575 -0.4612
  136MPD2     C 2113   1.198   2.919   9.355 -0.6486 -0.6853 -0.3462
  136MPD2    C1 2114   1.300   2.893   9.433 -0.7031  0.2706 -0.5624
  136MPD2    C2 2115   1.422   2.855   9.380 -0.4413 -0.1693 -0.0778
  136MPD2    C3 2116   1.434   2.846   9.239 -0.3336 -0.0050  0.2727
  136MPD2    C4 2117   1.331   2.889   9.161 -0.4525  0.0669  0.8068
  136MPD2    C5 2118   1.209   2.922   9.214  0.6889 -0.0342  0.2061
  136MPD2     H 2119   1.502   2.823   9.446 -0.7952 -1.8212 -0.4440
  136MPD2    H1 2120   1.336   2.884   9.053  3.1292 -0.2487  0.9972
  136MPD2    H2 2121   1.104   2.953   9.397 -0.5563  0.3867 -0.9903
  136MPD2    H3 2122   1.129   2.961   9.152  0.0134 -2.2588 -0.3420
  136MPD2     N 2123   1.546   2.802   9.168  0.2739 -0.7334 -0.3908
  136MPD2    H5 2124   1.527   2.798   9.069  0.1148  0.4380 -0.4044
  136MPD2    N1 2125   1.283   2.868   9.571  0.6912  0.2941  0.2189
  136MPD2    H7 2126   1.366   2.838   9.621  1.4327 -0.2365 -1.3293
  137TMC2    C1 2127   1.160   1.907   9.936  0.1053 -0.4775 -0.4997
  137TMC2    C2 2128   1.284   1.960   9.904  0.6058 -0.1552  0.1871
  137TMC2    C3 2129   1.282   2.034   9.788  0.2104  0.1198  0.8541
  137TMC2    C4 2130   1.057   1.896   9.851 -0.3444 -0.2885 -0.6092
  137TMC2    C5 2131   1.069   1.971   9.740 -0.5100 -0.1772  0.1233
  137TMC2    C6 2132   1.180   2.032   9.703  0.4617 -0.0119 -0.7027
  137TMC2     C 2133   1.170   1.832  10.063  0.1726 -0.0917  0.4391
  137TMC2     O 2134   1.283   1.814  10.106 -0.2881 -0.2758 -0.8981
  137TMC2     H 2135   1.370   1.962   9.970 -1.3696 -1.0095  2.7869
  137TMC2    H1 2136   0.965   1.841   9.869 -0.5298  0.4989  0.8795
  137TMC2    H2 2137   1.199   2.074   9.605  1.3509 -0.4127 -0.7074
  137TMC2    C7 2138   0.954   1.989   9.658 -0.0613 -0.5219 -0.4868
  137TMC2    C8 2139   1.394   2.124   9.759 -0.1627 -0.2833 -0.0196
  137TMC2    O1 2140   0.970   2.018   9.542  0.1014 -0.4676  0.8798
  137TMC2    O2 2141   1.394   2.222   9.687  0.9864 -0.7069  0.3013
  137TMC2    O5 2142   1.503   2.042   9.778 -0.0730  0.0933  0.3185
  137TMC2    H5 2143   1.494   1.982   9.856 -1.0219  1.8172  1.5444
  138MPD2     C 2144   0.878   1.689  10.237  0.1956  0.2398  0.0784
  138MPD2    C1 2145   1.011   1.716  10.214 -0.2083  0.0542 -0.6882
  138MPD2    C2 2146   1.112   1.648  10.280  0.3593 -0.0776 -0.3731
  138MPD2    C3 2147   1.087   1.560  10.383  0.6476 -0.1224  0.2858
  138MPD2    C4 2148   0.953   1.531  10.405 -0.2816  0.0244 -0.3475
  138MPD2    C5 2149   0.855   1.587  10.333  0.4491 -0.3458 -0.4398
  138MPD2     H 2150   1.217   1.666  10.258  1.0068 -1.9482  1.1942
  138MPD2    H1 2151   0.928   1.472  10.492  0.1955 -1.3238 -1.1229
  138MPD2    H2 2152   0.795   1.736  10.184 -1.1259 -0.5725  1.4171
  138MPD2    H3 2153   0.753   1.562  10.361  0.7344 -2.7737 -1.5423
  138MPD2     N 2154   1.191   1.514  10.469 -0.2265  0.2254  0.7761
  138MPD2    H5 2155   1.283   1.556  10.458  0.1617 -0.6357  0.6725
  138MPD2    N1 2156   1.042   1.811  10.114 -0.3580  0.1279 -0.4217
  138MPD2    H7 2157   0.968   1.870  10.077 -0.7842 -0.2408 -0.1605
  139TMC2    C1 2158   2.221   4.370  13.561  0.3281 -0.5862 -0.3609
  139TMC2    C2 2159   2.237   4.420  13.436  0.2863  0.3389  0.6935
  139TMC2    C3 2160   2.142   4.511  13.390  0.6268  0.4413  0.1133
  139TMC2    C4 2161   2.113   4.395  13.644  0.4945 -0.6104 -0.1807
  139TMC2    C5 2162   2.018   4.476  13.582  0.2536 -0.1485  0.4175
  139TMC2    C6 2163   2.025   4.535  13.463  0.0286  0.0151  0.3012
  139TMC2     C 2164   2.306   4.264  13.592  0.5997 -0.2457  1.3991
  139TMC2     O 2165   2.425   4.275  13.564 -0.0713 -0.0263  0.3964
  139TMC2     H 2166   2.318   4.399  13.367 -1.0417 -0.0122 -0.7561
  139TMC2    H1 2167   2.097   4.354  13.743 -2.1735  1.2397  0.1511
  139TMC2    H2 2168   1.942   4.597  13.431 -1.2769 -0.9270  1.9040
  139TMC2    C7 2169   1.905   4.516  13.662 -0.1072  0.1531  0.0111
  139TMC2    C8 2170   2.140   4.528  13.247 -0.2735 -0.0326  0.2431
  139TMC2    O1 2171   1.813   4.574  13.604  0.1799  0.4620 -0.1522
  139TMC2    O2 2172   2.183   4.439  13.170 -0.2603 -0.5953 -0.2137
  139TMC2    O5 2173   2.034   4.605  13.228  0.4861  0.2347  0.3149
  139TMC2    H5 2174   2.046   4.689  13.277  0.9006  0.7900 -0.7254
  140MPD2     C 2175   2.220   3.945  13.756 -0.0432  0.2621 -0.4954
  140MPD2    C1 2176   2.299   4.040  13.699  0.6702  0.5047  0.5714
  140MPD2    C2 2177   2.425   3.999  13.673 -0.2826  0.2169  0.6560
  140MPD2    C3 2178   2.476   3.873  13.690 -0.4016  0.0659 -0.2918
  140MPD2    C4 2179   2.394   3.780  13.753  0.1550  0.3780  0.7078
  140MPD2    C5 2180   2.269   3.818  13.782 -0.1212 -0.0240  0.3341
  140MPD2     H 2181   2.496   4.069  13.631 -3.6234  1.6655 -2.5608
  140MPD2    H1 2182   2.414   3.676  13.774  0.6779  0.1305 -0.9798
  140MPD2    H2 2183   2.117   3.964  13.783 -0.3195 -0.0135 -1.3428
  140MPD2    H3 2184   2.201   3.746  13.825  0.4744 -1.4900 -1.1868
  140MPD2     N 2185   2.612   3.847  13.664  0.0669 -0.1232  0.0365
  140MPD2    H5 2186   2.664   3.933  13.651 -1.3225  0.6110 -0.7154
  140MPD2    N1 2187   2.240   4.160  13.664  0.4808  0.0278 -0.1414
  140MPD2    H7 2188   2.142   4.162  13.690  0.1545 -0.9043 -1.2705
  141TMC2    C1 2189   2.365   1.136  14.029  0.8250 -0.0593 -0.5161
  141TMC2    C2 2190   2.449   1.031  14.072 -0.0045  0.0291  0.3894
  141TMC2    C3 2191   2.551   1.062  14.168 -0.3756 -0.3627 -0.5288
  141TMC2    C4 2192   2.370   1.257  14.082 -0.4705 -0.6391 -0.2648
  141TMC2    C5 2193   2.465   1.281  14.177  1.2222 -0.0443  0.1154
  141TMC2    C6 2194   2.552   1.184  14.224  0.0101  0.3192  0.1107
  141TMC2     C 2195   2.319   1.132  13.891  0.7059  0.1115  0.7690
  141TMC2     O 2196   2.317   1.241  13.835  0.0687  0.4036 -0.5765
  141TMC2     H 2197   2.448   0.929  14.035  0.3006 -0.1186  0.7866
  141TMC2    H1 2198   2.299   1.336  14.056 -0.9775 -0.5344  1.4345
  141TMC2    H2 2199   2.640   1.213  14.281  0.9043 -1.2803 -0.4703
  141TMC2    C7 2200   2.482   1.426  14.198 -0.4287  0.1869  0.3185
  141TMC2    C8 2201   2.632   0.956  14.218 -0.2882  0.6891 -0.0840
  141TMC2    O1 2202   2.431   1.500  14.117 -0.2269 -0.2328 -0.2320
  141TMC2    O2 2203   2.647   0.853  14.152 -0.2942 -0.2842 -0.1916
  141TMC2    O5 2204   2.604   0.969  14.347  0.2787  0.3891 -0.6425
  141TMC2    H5 2205   2.566   1.056  14.373  0.8667  0.2353  0.7498
  142TMC2    C1 2206   4.453   0.125  10.269 -0.8818  0.2715  0.2265
  142TMC2    C2 2207   4.383   0.113  10.148  0.4479  0.4592 -0.4997
  142TMC2    C3 2208   4.395   0.214  10.059 -0.6943 -0.2161 -0.1690
  142TMC2    C4 2209   4.536   0.231  10.287 -0.4195 -0.4279 -0.0025
  142TMC2    C5 2210   4.544   0.333  10.194  0.5045 -0.7079 -0.0095
  142TMC2    C6 2211   4.474   0.330  10.078 -0.0612 -0.0180 -0.8549
  142TMC2     C 2212   4.413   0.036  10.374 -0.2842  0.0649  0.1408
  142TMC2     O 2213   4.375   4.657  10.339 -0.3191 -0.4715  0.6826
  142TMC2     H 2214   4.318   0.032  10.118 -0.7872  0.7368  1.3898
  142TMC2    H1 2215   4.597   0.231  10.377  0.8390 -1.3787 -0.8562
  142TMC2    H2 2216   4.481   0.414  10.009  1.7605  0.0296 -0.6025
  142TMC2    C7 2217   4.625   0.445  10.243 -0.1070  0.7841 -0.5617
  142TMC2    C8 2218   4.323   0.199   9.932  0.4704  0.4139 -0.3067
  142TMC2    O1 2219   4.681   0.424  10.348 -0.0628 -0.2809 -0.1205
  142TMC2    O2 2220   4.220   0.136   9.912  0.4984  0.0865  0.1004
  142TMC2    O5 2221   4.383   0.284   9.842 -0.1094 -0.4173 -0.0150
  142TMC2    H5 2222   4.469   0.320   9.873 -0.2297  0.1672 -0.3421
  143MPD2     C 2223   4.477   4.593  10.844  0.2716  0.1257  0.3088
  143MPD2    C1 2224   4.413   4.537  10.739 -0.3700  0.0821  0.0509
  143MPD2    C2 2225   4.398   4.607  10.622 -0.1450  0.6772  0.3662
  143MPD2    C3 2226   4.449   0.003  10.618 -0.0622  0.0281 -0.4590
  143MPD2    C4 2227   4.500   0.066  10.732  1.1101 -0.4978  0.7131
  143MPD2    C5 2228   4.512   4.722  10.847 -0.2440  0.4602  0.3829
  143MPD2     H 2229   4.362   4.557  10.533  1.8909 -1.3094  0.6560
  143MPD2    H1 2230   4.541   0.166  10.740  2.2580 -0.7944 -1.3192
  143MPD2    H2 2231   4.493   4.543  10.939 -3.6183  0.3745  1.0937
  143MPD2    H3 2232   4.556   0.022  10.940 -1.3978  0.8371  0.7889
  143MPD2     N 2233   4.455   0.080  10.500  0.3481 -0.0912  0.3575
  143MPD2    H5 2234   4.486   0.177  10.507 -1.6958  0.6194 -0.7954
  143MPD2    N1 2235   4.380   4.402  10.751  0.6310  0.3705  0.7130
  143MPD2    H7 2236   4.414   4.354  10.834  1.5518 -1.1327 -0.5531
  144TMC2    C1 2237   3.899   3.241   0.958  0.8049 -0.9802  0.5265
  144TMC2    C2 2238   3.989   3.184   0.877 -0.1765  0.3078 -0.2727
  144TMC2    C3 2239   4.117   3.219   0.898 -0.0455  0.2814  0.5052
  144TMC2    C4 2240   3.926   3.324   1.064 -0.1041 -0.1700  0.5006
  144TMC2    C5 2241   4.055   3.347   1.091  0.4509  0.3590  0.2521
  144TMC2    C6 2242   4.145   3.307   1.001 -0.2598  0.8849  0.0795
  144TMC2     C 2243   3.764   3.221   0.913  0.5915  0.3304  0.6397
  144TMC2     O 2244   3.754   3.126   0.837 -0.9495  1.2671 -0.0298
  144TMC2     H 2245   3.967   3.111   0.799 -1.7447  1.0631 -0.5447
  144TMC2    H1 2246   3.851   3.333   1.141  1.1593 -1.6315  1.9064
  144TMC2    H2 2247   4.243   3.352   1.014  0.7063 -1.9277  2.5543
  144TMC2    C7 2248   4.093   3.426   1.210 -0.6204 -0.4083 -0.2549
  144TMC2    C8 2249   4.220   3.167   0.811  0.8203 -0.8416 -0.4778
  144TMC2    O1 2250   4.213   3.437   1.228 -0.2031  0.7394 -0.0653
  144TMC2    O2 2251   4.197   3.146   0.692 -0.5867 -0.4075  0.5990
  144TMC2    O5 2252   4.336   3.202   0.866  0.2802 -0.2962  0.0206
  144TMC2    H5 2253   4.342   3.179   0.961  2.9677 -0.6117 -0.2224
  145MPD2     C 2254   3.293   3.375   0.774  0.2855  0.7648 -0.3519
  145MPD2    C1 2255   3.364   3.261   0.743 -0.2389 -0.6732  0.1648
  145MPD2    C2 2256   3.485   3.239   0.799 -0.1419 -0.0311  0.2442
  145MPD2    C3 2257   3.539   3.328   0.892 -0.2853 -0.1443  0.1201
  145MPD2    C4 2258   3.465   3.437   0.928  0.4428 -0.4174 -0.5332
  145MPD2    C5 2259   3.347   3.462   0.873  0.1346  0.2219 -0.7683
  145MPD2     H 2260   3.542   3.152   0.770  0.1649  0.1260  0.3718
  145MPD2    H1 2261   3.492   3.507   1.006  1.1684  0.1174 -1.2602
  145MPD2    H2 2262   3.216   3.415   0.708 -0.4994  1.0619  0.7348
  145MPD2    H3 2263   3.284   3.542   0.911  1.0189  0.8012 -0.5230
  145MPD2     N 2264   3.669   3.315   0.947  0.1711 -0.1092 -0.3228
  145MPD2    H5 2265   3.691   3.395   1.006  1.4869  1.8417 -3.4669
  145MPD2    N1 2266   3.311   3.155   0.657  0.4840 -0.1782 -0.4232
  145MPD2    H7 2267   3.377   3.079   0.643  0.3950 -0.2400 -0.5075
  146TMC2    C1 2268   4.042   1.824  12.440 -0.4341 -0.0792 -0.7838
  146TMC2    C2 2269   3.927   1.830  12.360 -0.5724  0.0284  0.7212
  146TMC2    C3 2270   3.925   1.768  12.237 -0.0004 -0.5580  0.4788
  146TMC2    C4 2271   4.155   1.747  12.402  0.5675 -0.0749 -0.0882
  146TMC2    C5 2272   4.143   1.686  12.279  0.4441 -0.0324  0.2536
  146TMC2    C6 2273   4.034   1.699  12.196  0.0836  0.0425  0.3180
  146TMC2     C 2274   4.009   1.835  12.575  0.4786  0.2077 -0.0852
  146TMC2     O 2275   3.894   1.862  12.607 -0.2194 -0.0059 -0.1616
  146TMC2     H 2276   3.842   1.887  12.395 -3.3612 -2.4804 -1.9552
  146TMC2    H1 2277   4.241   1.748  12.468  1.1267 -0.6051 -0.8147
  146TMC2    H2 2278   4.042   1.658  12.096  0.3193  0.1917  0.2743
  146TMC2    C7 2279   4.262   1.634  12.208 -0.2627 -0.5760  1.4727
  146TMC2    C8 2280   3.828   1.817  12.143 -0.0074 -0.2775  0.3202
  146TMC2    O1 2281   4.251   1.605  12.093 -0.4771  0.0906 -0.3553
  146TMC2    O2 2282   3.788   1.933  12.155 -0.2835  0.8832 -0.1355
  146TMC2    O5 2283   3.841   1.761  12.021  0.0248 -0.6700  0.3186
  146TMC2    H5 2284   3.845   1.664  12.029  0.9584 -0.4697  2.2260
  147MPD2     C 2285   0.029   1.505  12.204 -0.2537 -0.1944  0.0440
  147MPD2    C1 2286   4.714   1.485  12.332 -0.8526  0.1156  0.8674
  147MPD2    C2 2287   4.578   1.520  12.356  0.6831 -0.7858  0.6561
  147MPD2    C3 2288   4.495   1.562  12.256  0.2903 -0.3913 -0.4423
  147MPD2    C4 2289   4.548   1.578  12.126  0.5929 -0.3642  0.0655
  147MPD2    C5 2290   4.681   1.553  12.109 -0.6419 -0.8671 -0.7371
  147MPD2     H 2291   4.543   1.524  12.459 -0.2721 -1.8608  0.3735
  147MPD2    H1 2292   4.485   1.608  12.043  2.1925 -1.5884 -1.5965
  147MPD2    H2 2293   0.128   1.469  12.178  0.5738  0.4634  2.2632
  147MPD2    H3 2294   4.723   1.566  12.010  0.9274 -0.3980 -0.0097
  147MPD2     N 2295   4.365   1.605  12.291  0.4281  0.0315 -0.1297
  147MPD2    H5 2296   4.342   1.603  12.390 -0.8651  1.6680 -0.3829
  147MPD2    N1 2297   0.061   1.423  12.428 -0.7953 -0.8865  0.0551
  147MPD2    H7 2298   0.161   1.417  12.413 -1.1687  0.1987 -3.0109
  148TMC2    C1 2299   3.752   1.012  10.828 -0.4240 -0.0632 -0.3615
  148TMC2    C2 2300   3.727   0.889  10.771 -0.3200  0.5768  0.3297
  148TMC2    C3 2301   3.737   0.781  10.852  0.0653  0.0524  0.8672
  148TMC2    C4 2302   3.813   1.028  10.951 -0.0142 -0.5043 -0.2103
  148TMC2    C5 2303   3.830   0.906  11.016 -0.5085  0.3254 -0.2941
  148TMC2    C6 2304   3.784   0.787  10.972  0.6538 -0.0181 -0.1026
  148TMC2     C 2305   3.720   1.139  10.759  0.2387  0.9728  0.1678
  148TMC2     O 2306   3.779   1.237  10.802  0.1857  0.3033 -0.6252
  148TMC2     H 2307   3.704   0.889  10.666 -0.6727  0.2952  0.4078
  148TMC2    H1 2308   3.848   1.126  10.982  0.1513 -0.2286 -1.2576
  148TMC2    H2 2309   3.776   0.699  11.034  0.5654 -0.0348 -0.1378
  148TMC2    C7 2310   3.908   0.903  11.131  0.4899 -0.6273 -0.6621
  148TMC2    C8 2311   3.680   0.651  10.805  0.6128 -0.7481  0.5246
  148TMC2    O1 2312   3.931   0.799  11.190  0.7980  0.0228 -0.1464
  148TMC2    O2 2313   3.708   0.550  10.856 -0.3224 -0.4544 -1.0349
  148TMC2    O5 2314   3.605   0.664  10.694 -0.7754 -0.4585  0.5294
  148TMC2    H5 2315   3.576   0.753  10.664 -2.1128 -0.1286  2.7344
  149MPD2     C 2316   3.581   1.380  10.636  0.2231 -0.5064 -0.0196
  149MPD2    C1 2317   3.551   1.248  10.608 -0.3969  0.1446  0.4016
  149MPD2    C2 2318   3.469   1.229  10.500  0.1185  0.7575  0.0436
  149MPD2    C3 2319   3.399   1.338  10.447 -0.3067 -0.2559  0.7106
  149MPD2    C4 2320   3.418   1.468  10.493 -0.1901 -0.6453  0.4358
  149MPD2    C5 2321   3.524   1.484  10.579  0.4273  0.7900  0.4130
  149MPD2     H 2322   3.469   1.139  10.439 -1.7177  0.6076  0.2629
  149MPD2    H1 2323   3.372   1.560  10.460 -1.5229 -0.8757  1.6501
  149MPD2    H2 2324   3.663   1.397  10.705  0.5621 -0.8157 -0.3413
  149MPD2    H3 2325   3.554   1.583  10.612  1.6810  0.7421 -0.5565
  149MPD2     N 2326   3.308   1.328  10.335 -0.4976  0.3792  0.2175
  149MPD2    H5 2327   3.266   1.410  10.294 -0.6358  0.1247 -0.1487
  149MPD2    N1 2328   3.618   1.137  10.667  0.0476  0.0299 -0.4528
  149MPD2    H7 2329   3.569   1.049  10.648 -2.2291  1.0523  0.6866
  150TMC2    C1 2330   1.259   4.715  12.741  0.3103 -0.0564 -0.0114
  150TMC2    C2 2331   1.228   0.109  12.724  0.3015 -0.8090  0.1283
  150TMC2    C3 2332   1.301   0.173  12.627  0.1832  0.1783  0.0180
  150TMC2    C4 2333   1.346   4.639  12.673  0.2094  0.8578  0.5544
  150TMC2    C5 2334   1.403   4.712  12.566 -0.0804  0.2713 -0.1367
  150TMC2    C6 2335   1.380   0.106  12.541  0.1310  0.2107  0.1441
  150TMC2     C 2336   1.150   4.639  12.802 -0.7085  0.4465  0.5499
  150TMC2     O 2337   1.087   4.677  12.901 -0.1948 -0.0695 -0.0450
  150TMC2     H 2338   1.159   0.156  12.794  0.0210  0.4231 -0.9691
  150TMC2    H1 2339   1.368   4.538  12.704  1.3893  0.3998 -1.7708
  150TMC2    H2 2340   1.437   0.165  12.471 -1.0277 -0.2135 -1.1554
  150TMC2    C7 2341   1.522   4.653  12.500 -0.2618 -0.1206  0.0607
  150TMC2    C8 2342   1.311   0.317  12.631 -0.1644  0.1395  0.1586
  150TMC2    O1 2343   1.571   4.708  12.402  0.4994 -0.3677 -0.5516
  150TMC2    O2 2344   1.339   0.391  12.537  0.0465  0.2065 -0.3471
  150TMC2    O5 2345   1.312   0.364  12.757  0.0723  0.3120  0.0021
  150TMC2    H5 2346   1.331   0.285  12.813 -3.9273  0.0246  0.9085
  151MPD2     C 2347   0.711   4.387  12.728  0.2757 -0.1727 -0.1233
  151MPD2    C1 2348   0.763   4.418  12.606  0.2755  0.2677  0.4925
  151MPD2    C2 2349   0.889   4.477  12.597 -0.2188 -0.3911 -0.4431
  151MPD2    C3 2350   0.959   4.502  12.712 -0.1242  0.0845 -0.0549
  151MPD2    C4 2351   0.917   4.453  12.832 -0.1130  0.3697  0.4489
  151MPD2    C5 2352   0.787   4.404  12.841  0.1255  0.2677  0.3659
  151MPD2     H 2353   0.936   4.508  12.504 -0.4419  0.5387 -0.2555
  151MPD2    H1 2354   0.983   4.443  12.918  0.0917  1.9014  0.4680
  151MPD2    H2 2355   0.610   4.349  12.741  0.8494 -1.6543 -0.0403
  151MPD2    H3 2356   0.748   4.366  12.935  0.2549 -1.6658 -0.3569
  151MPD2     N 2357   1.090   4.559  12.705  0.6737 -0.2527 -0.0243
  151MPD2    H5 2358   1.138   4.573  12.617 -0.4082  0.7835 -0.4461
  151MPD2    N1 2359   0.675   4.400  12.498 -0.2566  0.7837 -0.3822
  151MPD2    H7 2360   0.580   4.378  12.525  0.0418 -2.1511 -1.8046
  152TMC2    C1 2361   1.499   4.473  13.178  0.2131 -0.7781  0.0384
  152TMC2    C2 2362   1.556   4.378  13.258  0.4347  0.4995  0.2866
  152TMC2    C3 2363   1.694   4.355  13.237 -0.1589 -1.1185 -0.2773
  152TMC2    C4 2364   1.564   4.528  13.072 -0.2788 -0.1328  0.3660
  152TMC2    C5 2365   1.702   4.509  13.068  0.1469  0.1004  0.0268
  152TMC2    C6 2366   1.774   4.432  13.151 -0.0408 -0.1255  0.2225
  152TMC2     C 2367   1.360   4.511  13.189  0.1822  0.3010  0.5811
  152TMC2     O 2368   1.323   4.586  13.104 -0.0414  0.2384  0.4210
  152TMC2     H 2369   1.503   4.332  13.340  1.5819 -1.3970 -0.0462
  152TMC2    H1 2370   1.522   4.598  13.002  0.6478 -0.9216 -0.9761
  152TMC2    H2 2371   1.878   4.403  13.145 -0.6957 -2.3344 -0.5924
  152TMC2    C7 2372   1.768   4.578  12.953 -0.6415 -0.3083  0.3697
  152TMC2    C8 2373   1.759   4.277  13.339  0.3238 -0.4675  0.4855
  152TMC2    O1 2374   1.692   4.614  12.862  0.2152  0.4051  0.0438
  152TMC2    O2 2375   1.870   4.225  13.327 -0.0287 -0.0441  0.1488
  152TMC2    O5 2376   1.726   4.343  13.451  0.0754 -0.0798  0.6336
  152TMC2    H5 2377   1.658   4.413  13.442 -0.6240 -0.5302  2.3166
  153MPD2     C 2378   1.083   4.436  13.423  0.2430 -0.8701 -0.4884
  153MPD2    C1 2379   1.150   4.464  13.305 -0.6265  0.7918  0.4317
  153MPD2    C2 2380   1.074   4.512  13.196 -0.2097 -0.4678  0.5610
  153MPD2    C3 2381   0.939   4.534  13.206  0.5162  1.0273 -0.0615
  153MPD2    C4 2382   0.879   4.503  13.323  0.1776 -0.1444  0.6817
  153MPD2    C5 2383   0.948   4.452  13.430  0.6272  0.0911  0.0644
  153MPD2     H 2384   1.111   4.527  13.095  2.6746  0.1548  1.7387
  153MPD2    H1 2385   0.771   4.505  13.337  0.1888 -0.0319  0.7454
  153MPD2    H2 2386   1.140   4.403  13.510  1.2814 -0.8580 -1.1634
  153MPD2    H3 2387   0.900   4.424  13.523  2.4197  0.3049  1.0587
  153MPD2     N 2388   0.871   4.600  13.101 -0.8911  0.2669  0.0787
  153MPD2    H5 2389   0.936   4.624  13.026  0.8096  0.8125  1.7099
  153MPD2    N1 2390   1.285   4.442  13.290 -0.0963 -0.3838  0.6288
  153MPD2    H7 2391   1.338   4.406  13.368 -1.7892  0.5922  2.2380
  154TMC2    C1 2392   3.674   4.552   0.623 -0.4057  0.0280  0.3841
  154TMC2    C2 2393   3.694   4.433   0.679 -0.1898 -0.5900  0.0997
  154TMC2    C3 2394   3.783   4.350   0.620  0.2178 -0.8205 -0.6444
  154TMC2    C4 2395   3.749   4.595   0.513 -0.4970  0.1092 -0.2871
  154TMC2    C5 2396   3.831   4.503   0.455 -0.4324 -0.0379  0.3204
  154TMC2    C6 2397   3.849   4.376   0.506  0.1488 -0.1983  0.5411
  154TMC2     C 2398   3.580   4.644   0.689  0.0798  1.1817 -0.2053
  154TMC2     O 2399   3.550   4.608   0.803  0.5620 -0.9816  0.1125
  154TMC2     H 2400   3.628   4.399   0.758  1.2669  0.7631  1.9075
  154TMC2    H1 2401   3.736   4.694   0.470 -1.4683 -0.2686 -0.8543
  154TMC2    H2 2402   3.903   4.293   0.461  3.0982  1.6474  0.6395
  154TMC2    C7 2403   3.880   4.512   0.314 -0.7258 -0.2513  0.3064
  154TMC2    C8 2404   3.793   4.219   0.668 -0.6036  0.0827  0.0158
  154TMC2    O1 2405   3.951   4.423   0.277 -0.1824 -0.0926 -0.0741
  154TMC2    O2 2406   3.897   4.178   0.718 -0.2532  0.2991  0.7913
  154TMC2    O5 2407   3.719   4.150   0.579 -0.5732 -0.4524 -0.2798
  154TMC2    H5 2408   3.645   4.193   0.532  0.4084  2.1791  0.6265
  155MPD2     C 2409   3.404   0.192   0.552  0.0356 -0.0343 -0.0380
  155MPD2    C1 2410   3.442   0.110   0.650 -1.2819  0.5570  0.9068
  155MPD2    C2 2411   3.389   0.125   0.776 -0.0979 -0.3709 -0.5851
  155MPD2    C3 2412   3.304   0.232   0.806  0.9961 -0.5821  0.1019
  155MPD2    C4 2413   3.266   0.312   0.697  0.4089 -0.2151  0.4765
  155MPD2    C5 2414   3.314   0.293   0.573 -0.2710 -0.1742 -0.2409
  155MPD2     H 2415   3.422   0.059   0.856 -1.4120  0.1057  0.3545
  155MPD2    H1 2416   3.202   0.397   0.719  2.4940  1.4614 -0.0317
  155MPD2    H2 2417   3.431   0.165   0.450  0.9162  1.6692 -0.2598
  155MPD2    H3 2418   3.274   0.362   0.499 -0.6181 -0.5765 -0.4223
  155MPD2     N 2419   3.252   0.255   0.939 -0.3447  0.3049  0.6508
  155MPD2    H5 2420   3.277   0.184   1.007 -1.7467 -0.9043 -0.1000
  155MPD2    N1 2421   3.533   0.008   0.613  0.2051  0.2067 -0.0027
  155MPD2    H7 2422   3.565   0.004   0.516 -1.7692 -3.0459 -0.5136
  156TMC2    C1 2423   1.602   2.751  11.555 -0.9048  0.0912 -0.2532
  156TMC2    C2 2424   1.601   2.682  11.437  0.8980 -0.5769  0.4552
  156TMC2    C3 2425   1.522   2.727  11.340  0.4574  0.2850  0.1552
  156TMC2    C4 2426   1.509   2.849  11.588  0.1424  0.2011  0.0008
  156TMC2    C5 2427   1.417   2.870  11.490 -0.0468 -0.4641 -0.3495
  156TMC2    C6 2428   1.417   2.814  11.366  0.0691  0.5137  0.2026
  156TMC2     C 2429   1.696   2.713  11.660  0.9621  0.3921  0.3280
  156TMC2     O 2430   1.674   2.748  11.776 -0.2120  0.6054  0.3082
  156TMC2     H 2431   1.673   2.605  11.412 -1.3784 -2.1526 -1.1677
  156TMC2    H1 2432   1.501   2.914  11.674  0.3146 -0.4792  0.5311
  156TMC2    H2 2433   1.333   2.824  11.298 -0.0639  2.1710  0.6142
  156TMC2    C7 2434   1.313   2.969  11.510 -0.2335 -0.0993 -0.8297
  156TMC2    C8 2435   1.522   2.646  11.226 -0.2686  0.0407  0.0226
  156TMC2    O1 2436   1.273   3.023  11.407 -0.0988  0.5644  0.2691
  156TMC2    O2 2437   1.557   2.531  11.236  0.2738 -0.0523  0.2311
  156TMC2    O5 2438   1.460   2.708  11.124 -0.5792 -0.4414 -0.2700
  156TMC2    H5 2439   1.480   2.804  11.123 -2.0504 -0.1154  2.2624
  157MPD2     C 2440   1.987   2.490  11.625 -0.1236 -0.2533 -0.4841
  157MPD2    C1 2441   1.903   2.583  11.690 -0.2328 -0.2416 -0.0348
  157MPD2    C2 2442   1.922   2.602  11.824 -0.2863  0.0376 -0.6779
  157MPD2    C3 2443   2.024   2.532  11.888 -0.6740  0.4054 -0.0749
  157MPD2    C4 2444   2.102   2.442  11.825 -0.3626 -0.5277 -0.3156
  157MPD2    C5 2445   2.082   2.419  11.691  0.2601  0.2075  0.2133
  157MPD2     H 2446   1.859   2.668  11.883  0.3773  1.8376 -2.0001
  157MPD2    H1 2447   2.170   2.375  11.875 -0.6517  0.2477  1.1115
  157MPD2    H2 2448   1.969   2.473  11.520 -0.4517  0.9649 -0.6306
  157MPD2    H3 2449   2.127   2.331  11.646  1.9699  1.6514 -0.8956
  157MPD2     N 2450   2.037   2.552  12.029 -0.1848 -0.8390 -0.6338
  157MPD2    H5 2451   1.998   2.636  12.069  0.4902 -1.6524  1.7846
  157MPD2    N1 2452   1.796   2.638  11.612 -0.4847  0.2725  0.1315
  157MPD2    H7 2453   1.811   2.628  11.512 -1.3611  1.2346 -0.1005
  158TMC2    C1 2454   1.919   0.529  13.066  0.0905 -0.3758  0.0537
  158TMC2    C2 2455   1.969   0.623  12.977 -0.0504  0.0902  0.4462
  158TMC2    C3 2456   1.884   0.724  12.935 -0.0380  0.4010  0.4584
  158TMC2    C4 2457   1.797   0.546  13.123  0.0214 -0.9594 -0.3903
  158TMC2    C5 2458   1.710   0.641  13.075  0.2329 -0.4158  0.4449
  158TMC2    C6 2459   1.758   0.737  12.988 -0.1026  0.4332  0.1186
  158TMC2     C 2460   2.023   0.470  13.152  0.1142  0.0554 -1.2689
  158TMC2     O 2461   2.131   0.433  13.107  0.2598  0.1833 -0.3063
  158TMC2     H 2462   2.072   0.626  12.941  0.2188 -0.4935  1.1802
  158TMC2    H1 2463   1.761   0.463  13.181 -0.0452 -0.7944 -0.1952
  158TMC2    H2 2464   1.699   0.819  12.949 -1.7978 -0.5310  0.6782
  158TMC2    C7 2465   1.572   0.644  13.112  0.1127 -0.3377 -0.2353
  158TMC2    C8 2466   1.930   0.831  12.847  0.1584  0.2410  0.3439
  158TMC2    O1 2467   1.509   0.724  13.048 -0.2927  0.6155 -0.4361
  158TMC2    O2 2468   2.041   0.873  12.871  0.5530 -0.3342  0.5711
  158TMC2    O5 2469   1.844   0.913  12.786  0.5996 -0.0958 -0.1261
  158TMC2    H5 2470   1.763   0.865  12.760 -1.7645  2.2435  2.9502
  159MPD2     C 2471   2.257   0.401  13.606 -0.0711  0.5189  0.3653
  159MPD2    C1 2472   2.147   0.481  13.630 -0.7821  0.1781 -0.5344
  159MPD2    C2 2473   2.061   0.502  13.522 -0.5293 -0.0588 -0.6114
  159MPD2    C3 2474   2.085   0.456  13.392 -0.8567 -0.4388  0.1187
  159MPD2    C4 2475   2.190   0.369  13.374  0.4592 -0.8607 -0.2534
  159MPD2    C5 2476   2.272   0.347  13.481  0.0379  0.1153 -0.0769
  159MPD2     H 2477   1.966   0.551  13.535 -0.0571  0.7071 -0.0164
  159MPD2    H1 2478   2.223   0.340  13.275 -2.0294 -1.4114 -0.9200
  159MPD2    H2 2479   2.328   0.385  13.687 -1.2968  2.0553  1.7508
  159MPD2    H3 2480   2.361   0.286  13.475  0.2429  0.7920 -4.2023
  159MPD2     N 2481   1.998   0.494  13.287  0.4539 -0.0485  0.2790
  159MPD2    H5 2482   1.920   0.555  13.311  0.7457 -0.1042  1.3865
  159MPD2    N1 2483   2.121   0.504  13.770  0.2570 -0.2559 -0.2479
  159MPD2    H7 2484   2.199   0.483  13.831  0.9903  1.3867 -0.6366
  160TMC2    C1 2485   1.481   0.070   0.899 -0.7864  0.2595  0.4063
  160TMC2    C2 2486   1.545   0.193   0.882 -0.0512  0.8439  0.0559
  160TMC2    C3 2487   1.665   0.210   0.950  0.4770 -0.1540 -0.8171
  160TMC2    C4 2488   1.535   4.711   0.974 -0.1234 -0.2330  0.5171
  160TMC2    C5 2489   1.659   4.729   1.029  0.4338 -0.1880  0.4788
  160TMC2    C6 2490   1.726   0.111   1.021  0.8881  1.1135 -0.4484
  160TMC2     C 2491   1.336   0.075   0.883 -0.3214  0.1741 -0.0822
  160TMC2     O 2492   1.289   0.190   0.887  0.2861 -0.0863  0.2649
  160TMC2     H 2493   1.500   0.280   0.835  2.5545  1.2296 -1.7039
  160TMC2    H1 2494   1.481   4.619   0.989  0.0968  0.4285  5.6439
  160TMC2    H2 2495   1.824   0.122   1.066  0.5231 -2.1226  1.1770
  160TMC2    C7 2496   1.702   4.625   1.116  0.2043  0.1343 -0.0798
  160TMC2    C8 2497   1.710   0.341   0.966 -0.1738  0.1168 -0.2217
  160TMC2    O1 2498   1.609   4.569   1.175  0.4286  0.7799 -0.5225
  160TMC2    O2 2499   1.627   0.434   0.981 -0.0404  0.4554  0.1347
  160TMC2    O5 2500   1.833   0.351   0.912 -0.0763 -0.3790 -0.8211
  160TMC2    H5 2501   1.853   0.263   0.872 -0.1542 -0.2227 -1.2052
  161MPD2     C 2502   1.089   4.546   0.886 -0.2031  0.6580  0.2603
  161MPD2    C1 2503   1.139   4.672   0.902  0.7391  0.3303  0.4484
  161MPD2    C2 2504   1.048   0.035   0.930 -0.1792  0.1818  0.1980
  161MPD2    C3 2505   0.910   0.010   0.928  0.4371  0.1136  0.1076
  161MPD2    C4 2506   0.864   4.620   0.895 -0.1464  0.7910  0.1841
  161MPD2    C5 2507   0.957   4.523   0.871 -0.4021 -0.5605 -0.4163
  161MPD2     H 2508   1.086   0.132   0.960  0.0919 -0.0678  0.6633
  161MPD2    H1 2509   0.758   4.598   0.896 -0.1293  0.6104 -1.2308
  161MPD2    H2 2510   1.157   4.464   0.865  0.2625  0.3709  2.8790
  161MPD2    H3 2511   0.937   4.418   0.855 -3.0499 -0.0485 -0.3619
  161MPD2     N 2512   0.807   0.101   0.975  0.4016  0.3099  0.6860
  161MPD2    H5 2513   0.710   0.079   0.955  1.2139  0.1713 -2.9919
  161MPD2    N1 2514   1.279   4.689   0.894 -0.7771  0.8936  0.3354
  161MPD2    H7 2515   1.337   4.609   0.874  1.5656  2.0725  2.4201
  162TMC2    C1 2516   3.213   1.169   0.350 -0.0500  0.0088  0.8894
  162TMC2    C2 2517   3.212   1.305   0.374  0.2448  0.0244 -0.4015
  162TMC2    C3 2518   3.096   1.358   0.421  0.1081 -0.6874 -1.3599
  162TMC2    C4 2519   3.109   1.087   0.382 -0.1080  0.8171  0.5883
  162TMC2    C5 2520   3.010   1.142   0.456 -0.3865 -0.7267 -0.0560
  162TMC2    C6 2521   2.992   1.272   0.461 -0.6408 -0.0516  0.0010
  162TMC2     C 2522   3.330   1.112   0.292 -0.4918 -0.0309  0.2920
  162TMC2     O 2523   3.426   1.183   0.269 -0.3640 -0.7984  0.0477
  162TMC2     H 2524   3.297   1.362   0.339  1.6321 -0.9893  1.3238
  162TMC2    H1 2525   3.119   0.979   0.382  1.9709  1.0093  0.5968
  162TMC2    H2 2526   2.908   1.314   0.516  0.7485  2.4987  0.1748
  162TMC2    C7 2527   2.964   1.068   0.575  0.1161  0.2599 -0.0826
  162TMC2    C8 2528   3.066   1.492   0.408 -1.0951  0.3769  0.5230
  162TMC2    O1 2529   2.909   0.964   0.556  0.0523  0.2267 -0.1003
  162TMC2    O2 2530   3.154   1.575   0.434  0.1446  0.0358 -0.5150
  162TMC2    O5 2531   2.951   1.500   0.342  0.4231  0.0767 -1.1689
  162TMC2    H5 2532   2.917   1.415   0.308 -1.4256  0.8369 -1.2315
  163MPD2     C 2533   3.651   0.720   0.237 -0.7712 -0.1240 -0.0628
  163MPD2    C1 2534   3.663   0.850   0.197  0.6024 -0.2755  0.0970
  163MPD2    C2 2535   3.552   0.930   0.211 -0.0554  0.8027  0.8997
  163MPD2    C3 2536   3.432   0.889   0.272 -0.1361 -0.2741 -0.6207
  163MPD2    C4 2537   3.422   0.757   0.319 -0.6446  0.8684  0.3986
  163MPD2    C5 2538   3.529   0.675   0.289  0.0942  0.2462  0.3744
  163MPD2     H 2539   3.557   1.033   0.177 -0.9036  0.2613 -0.8512
  163MPD2    H1 2540   3.338   0.708   0.366 -0.6344 -1.4743 -2.0519
  163MPD2    H2 2541   3.736   0.654   0.221  0.6653  2.5518 -3.5618
  163MPD2    H3 2542   3.520   0.574   0.327 -0.0085  0.2784  0.4373
  163MPD2     N 2543   3.328   0.976   0.310 -0.3012 -0.4852 -0.0207
  163MPD2    H5 2544   3.254   0.934   0.364 -1.8728  0.9368 -1.0892
  163MPD2    N1 2545   3.791   0.899   0.157  0.2158  0.2213 -0.0166
  163MPD2    H7 2546   3.869   0.835   0.163 -0.0304 -0.2422 -1.5250
  164TMC2    C1 2547   0.022   1.314  11.419  0.1494  0.4024 -0.4525
  164TMC2    C2 2548   0.030   1.226  11.526 -0.4538 -0.6338 -0.4501
  164TMC2    C3 2549   4.663   1.223  11.622  0.4104 -0.1859  0.1771
  164TMC2    C4 2550   4.657   1.408  11.423  0.2202  0.4600  0.2248
  164TMC2    C5 2551   4.557   1.400  11.520 -0.2586  0.0009  0.3409
  164TMC2    C6 2552   4.567   1.317  11.630  0.4350 -0.5331  0.2378
  164TMC2     C 2553   0.145   1.326  11.344  0.5484 -0.0397  0.7672
  164TMC2     O 2554   0.250   1.312  11.404  0.4448 -1.0142  0.6345
  164TMC2     H 2555   0.113   1.155  11.528  1.3712  1.5351  0.5339
  164TMC2    H1 2556   4.643   1.479  11.342  1.7444  0.7712  0.2182
  164TMC2    H2 2557   4.487   1.300  11.701  1.7549 -2.7991  1.2029
  164TMC2    C7 2558   4.435   1.470  11.491 -0.3660  0.0528 -0.0534
  164TMC2    C8 2559   4.629   1.097  11.678  1.3339  0.4584  0.5869
  164TMC2    O1 2560   4.409   1.495  11.373  0.2276 -0.0025  0.1434
  164TMC2    O2 2561   4.514   1.057  11.661 -0.2095 -0.2366 -0.2959
  164TMC2    O5 2562   0.005   1.023  11.699  0.1192 -0.5778 -0.6409
  164TMC2    H5 2563   0.082   1.081  11.713  1.4127 -2.6232  0.6111
  165TMC2    C1 2564   1.483   3.894   1.624  0.2563 -0.0811  0.0999
  165TMC2    C2 2565   1.425   3.983   1.539 -0.0780  1.0322 -0.1967
  165TMC2    C3 2566   1.495   4.098   1.509 -1.0306  0.2518  0.1983
  165TMC2    C4 2567   1.614   3.898   1.659  0.7768  0.7350 -0.0704
  165TMC2    C5 2568   1.683   4.007   1.618  0.9225  0.3902  0.2470
  165TMC2    C6 2569   1.625   4.109   1.540  0.1988  0.5993  0.3241
  165TMC2     C 2570   1.415   3.774   1.667 -0.1041  0.2621  0.2554
  165TMC2     O 2571   1.483   3.675   1.675  0.6066  0.0856 -0.9704
  165TMC2     H 2572   1.322   3.972   1.506 -0.1890 -0.2126  0.5616
  165TMC2    H1 2573   1.647   3.831   1.738  2.7610  0.9186 -0.7410
  165TMC2    H2 2574   1.682   4.201   1.529  2.5556 -0.9555 -0.2977
  165TMC2    C7 2575   1.817   4.024   1.671 -0.0240 -0.4222 -0.1809
  165TMC2    C8 2576   1.441   4.176   1.392 -0.6290 -0.5346 -0.6999
  165TMC2    O1 2577   1.887   4.075   1.584 -0.0989  1.0488 -0.6779
  165TMC2    O2 2578   1.345   4.136   1.327  0.3720  0.3883  0.4260
  165TMC2    O5 2579   1.533   4.262   1.340 -0.1623 -0.2567 -0.2114
  165TMC2    H5 2580   1.594   4.293   1.410 -0.0357  0.8327 -0.8123
  166MPD2     C 2581   0.996   3.490   1.759  0.4881 -0.0998  0.3326
  166MPD2    C1 2582   1.129   3.453   1.752  0.3308  0.2363  0.1605
  166MPD2    C2 2583   1.226   3.546   1.716 -0.1921 -0.0006 -0.4447
  166MPD2    C3 2584   1.191   3.681   1.705  0.2660 -0.4922  0.1087
  166MPD2    C4 2585   1.058   3.718   1.717  0.1817 -0.4491  0.1186
  166MPD2    C5 2586   0.966   3.621   1.751  0.0877  0.3031  0.6542
  166MPD2     H 2587   1.325   3.509   1.692 -0.4615 -3.5799  3.8989
  166MPD2    H1 2588   1.032   3.822   1.708  2.6630  0.0038 -1.8769
  166MPD2    H2 2589   0.916   3.417   1.772  0.3666 -0.4801 -2.6132
  166MPD2    H3 2590   0.862   3.649   1.760 -0.6773 -2.1427 -0.6203
  166MPD2     N 2591   1.279   3.786   1.677 -0.3468  0.8562  0.3826
  166MPD2    H5 2592   1.231   3.875   1.675 -1.5922  0.1520 -0.9654
  166MPD2    N1 2593   1.155   3.317   1.774 -0.2610  0.3884  0.2233
  166MPD2    H7 2594   1.076   3.260   1.801  0.7200  0.1568  2.5969
  167TMC2    C1 2595   4.018   0.934  13.165 -0.0323  0.3811  0.0230
  167TMC2    C2 2596   3.945   0.958  13.278 -0.0973  0.0621 -0.5433
  167TMC2    C3 2597   3.888   0.856  13.338 -0.6511  0.5172 -0.2024
  167TMC2    C4 2598   4.015   0.820  13.100  0.2203 -0.0045 -0.1361
  167TMC2    C5 2599   3.934   0.723  13.154 -0.5066 -0.4317 -1.4014
  167TMC2    C6 2600   3.880   0.730  13.283 -1.2236 -0.2492 -0.2912
  167TMC2     C 2601   4.108   1.039  13.114  0.7330  0.1775 -1.1619
  167TMC2     O 2602   4.130   1.122  13.200  0.1814 -0.3850 -0.3580
  167TMC2     H 2603   3.953   1.045  13.341 -2.2093 -1.0301  1.2459
  167TMC2    H1 2604   4.066   0.797  13.007 -0.2881 -0.7162 -0.2440
  167TMC2    H2 2605   3.829   0.645  13.326  1.1135 -1.1860  0.6424
  167TMC2    C7 2606   3.963   0.583  13.107  0.2140  0.0151  0.3952
  167TMC2    C8 2607   3.805   0.876  13.454  0.2910 -0.4900  0.3082
  167TMC2    O1 2608   3.933   0.499  13.184 -0.4446 -0.1884  0.0586
  167TMC2    O2 2609   3.768   0.778  13.521  0.3692 -0.5934 -0.2443
  167TMC2    O5 2610   3.726   0.986  13.430  0.1944  0.6299 -0.3294
  167TMC2    H5 2611   3.760   1.043  13.358 -2.3373  2.6626  0.1054
  168MPD2     C 2612   4.357   1.154  13.000  0.3637  0.1345 -0.0692
  168MPD2    C1 2613   4.260   1.092  12.929 -0.0913 -0.1990 -0.2025
  168MPD2    C2 2614   4.265   1.093  12.796  0.4492 -0.2567 -0.5939
  168MPD2    C3 2615   4.358   1.162  12.728 -0.0334  0.4103  0.2487
  168MPD2    C4 2616   4.451   1.226  12.799  0.1852 -0.1746 -0.0139
  168MPD2    C5 2617   4.456   1.222  12.932 -0.0711 -0.2091  0.1997
  168MPD2     H 2618   4.199   1.023  12.747  2.1584 -0.5763 -2.4685
  168MPD2    H1 2619   4.521   1.294  12.752 -0.0033  0.1088  0.1184
  168MPD2    H2 2620   4.346   1.161  13.108  1.4949 -0.8181  0.0955
  168MPD2    H3 2621   4.534   1.271  12.989  0.3018  1.4106 -1.7251
  168MPD2     N 2622   4.362   1.170  12.588 -0.4504  0.0795  0.6853
  168MPD2    H5 2623   4.433   1.230  12.546  0.2784 -1.0784  0.2890
  168MPD2    N1 2624   4.151   1.022  12.987  0.0359  0.1411  0.0746
  168MPD2    H7 2625   4.098   0.960  12.927  1.1486  0.3156 -1.0894
  169MPD1     C 2626   1.477   0.010  10.915  0.4541 -0.7941 -0.1437
  169MPD1    C1 2627   1.380   0.011  10.821 -0.2590 -0.0273  0.3311
  169MPD1    C2 2628   1.336   4.632  10.754 -0.0653 -0.3547  0.2274
  169MPD1    C3 2629   1.382   4.505  10.787 -0.5248  0.4652  0.1407
  169MPD1    C4 2630   1.475   4.504  10.885 -0.0185  0.6853  0.2700
  169MPD1    C5 2631   1.520   4.614  10.953 -0.5396  0.3290  0.6439
  169MPD1     H 2632   1.269   4.646  10.670 -0.0920 -2.2070 -0.0738
  169MPD1    H1 2633   1.512   4.413  10.931  1.7931  1.0071 -0.5440
  169MPD1    H2 2634   1.518   0.099  10.961 -1.1936 -1.3830  2.4646
  169MPD1    H3 2635   1.577   4.591  11.042 -1.2802 -4.0655 -0.0238
  169MPD1     N 2636   1.328   4.404  10.710  0.1633 -0.1121 -0.9093
  169MPD1    H5 2637   1.252   4.431  10.648 -0.2470 -0.1349 -0.4137
  169MPD1    N1 2638   1.333   0.132  10.769 -0.2123  0.2343 -0.2551
  169MPD1    H6 2639   1.232   0.134  10.764 -0.2417  1.3255  1.0476
  169MPD1    H7 2640   1.365   0.208  10.828 -2.0616  0.8777 -0.1060
  170MPD1     C 2641   4.323   2.658  13.423 -0.2949  0.7686  1.1249
  170MPD1    C1 2642   4.406   2.559  13.464  0.0687  0.8408 -0.0305
  170MPD1    C2 2643   4.525   2.601  13.525 -0.1715  0.3776  0.2781
  170MPD1    C3 2644   4.561   2.732  13.523  0.3923 -0.0112  0.6122
  170MPD1    C4 2645   4.478   2.829  13.476  1.1258  0.3147 -0.3843
  170MPD1    C5 2646   4.356   2.788  13.425  0.1907 -0.4766 -0.4231
  170MPD1     H 2647   4.597   2.528  13.560 -0.7026  0.2884  1.2011
  170MPD1    H1 2648   4.498   2.935  13.460  2.6778  0.6628  3.8229
  170MPD1    H2 2649   4.225   2.635  13.382  0.9719 -1.9112 -0.3718
  170MPD1    H3 2650   4.290   2.862  13.382  1.4171  1.0414  0.2755
  170MPD1     N 2651   4.689   2.762  13.580  0.2639 -0.5219  0.4111
  170MPD1    H5 2652   0.006   2.681  13.613 -1.0055 -1.3017  0.4845
  170MPD1    N1 2653   4.359   2.430  13.484 -0.4642 -0.5943 -0.4428
  170MPD1    H6 2654   4.427   2.354  13.481 -1.3214 -1.4567  1.7297
  170MPD1    H7 2655   4.293   2.394  13.414 -0.5261 -3.0743  0.8733
  171MPD1     C 2656   3.749   3.843  15.650 -0.7257 -0.1009  0.0359
  171MPD1    C1 2657   3.835   3.767  15.577 -0.1692 -0.8939  0.6977
  171MPD1    C2 2658   3.947   3.716  15.625 -0.3444 -0.6210  0.3950
  171MPD1    C3 2659   3.967   3.734  15.764  0.2457  0.3954 -0.7917
  171MPD1    C4 2660   3.892   3.818  15.834 -0.2722  0.0938  0.3873
  171MPD1    C5 2661   3.780   3.874  15.781 -0.3636 -0.2118 -0.1844
  171MPD1     H 2662   4.015   3.654  15.566  0.4505  0.4996  0.1373
  171MPD1    H1 2663   3.900   3.841  15.940 -1.4571 -0.0938  0.5232
  171MPD1    H2 2664   3.666   3.881  15.592 -0.5992 -1.0092 -0.7243
  171MPD1    H3 2665   3.716   3.944  15.833 -0.0753  0.3345 -0.5617
  171MPD1     N 2666   4.072   3.669  15.827 -0.1356  0.2422 -0.4238
  171MPD1    H5 2667   4.118   3.720  15.902  0.6956 -1.2696  0.0992
  171MPD1    N1 2668   3.809   3.746  15.439 -0.3458 -0.1313  0.5563
  171MPD1    H6 2669   3.845   3.655  15.410  1.7765  0.9847 -0.2798
  171MPD1    H7 2670   3.707   3.744  15.430 -0.3013  1.0095 -0.2128
  172MPD1     C 2671   3.415   2.696   0.068  0.3174 -0.3554 -0.0171
  172MPD1    C1 2672   3.402   2.710   0.204  0.0880 -0.1201  0.0124
  172MPD1    C2 2673   3.483   2.797   0.281  0.9390 -0.3877  0.5672
  172MPD1    C3 2674   3.562   2.886   0.206  0.3835  0.3069 -0.2092
  172MPD1    C4 2675   3.565   2.875   0.066  0.2943 -0.6286 -0.1506
  172MPD1    C5 2676   3.485   2.790   0.003  0.0927 -0.7622 -0.2695
  172MPD1     H 2677   3.473   2.800   0.389  0.5036  2.2610  0.4542
  172MPD1    H1 2678   3.618   2.945   0.003 -0.6524  0.3022  0.0858
  172MPD1    H2 2679   3.350   2.623   0.022 -0.9458  0.9573 -0.3292
  172MPD1    H3 2680   3.493   2.789  17.633 -2.3404  0.8335 -0.4624
  172MPD1     N 2681   3.639   2.995   0.267 -0.2181  0.7847  0.0008
  172MPD1    H5 2682   3.705   3.044   0.207 -0.9584 -0.7113 -2.0119
  172MPD1    N1 2683   3.312   2.630   0.272 -0.2423 -0.0168 -0.1973
  172MPD1    H6 2684   3.353   2.542   0.303 -1.0083 -0.7432 -1.2479
  172MPD1    H7 2685   3.285   2.678   0.357  0.0181 -0.4290  0.1164
  173MPD1     C 2686   4.549   3.382  13.819  0.1990 -0.0288  0.5884
  173MPD1    C1 2687   4.458   3.351  13.919  0.5227 -0.2055 -0.1763
  173MPD1    C2 2688   4.513   3.311  14.037  0.4702 -0.3145  0.2438
  173MPD1    C3 2689   4.649   3.302  14.069 -0.9284  0.0664 -0.5410
  173MPD1    C4 2690   4.733   3.329  13.965  0.4136  0.2613 -0.1047
  173MPD1    C5 2691   4.681   3.354  13.843  0.1329 -0.3247  0.0806
  173MPD1     H 2692   4.443   3.278  14.113 -0.4367  0.5725 -0.2064
  173MPD1    H1 2693   0.106   3.324  13.971  0.5341  1.3018 -1.2832
  173MPD1    H2 2694   4.519   3.394  13.716 -0.5969 -0.2646  0.7887
  173MPD1    H3 2695   0.009   3.370  13.756  0.9597 -0.0178  0.7339
  173MPD1     N 2696   4.685   3.266  14.199 -0.1222 -0.4537 -0.2424
  173MPD1    H5 2697   4.606   3.253  14.261 -2.5448  1.8532 -2.8240
  173MPD1    N1 2698   4.320   3.341  13.892 -0.5524  0.3029  0.3357
  173MPD1    H6 2699   4.294   3.405  13.817 -1.3971 -0.6633 -0.1977
  173MPD1    H7 2700   4.263   3.355  13.975  0.2402 -0.7242  1.0522
  174MPD1     C 2701   0.714   2.618  14.386 -0.3869 -0.3558  0.8165
  174MPD1    C1 2702   0.617   2.598  14.483  0.1683 -0.0479  0.5738
  174MPD1    C2 2703   0.510   2.684  14.470 -1.0051  0.3481  0.0775
  174MPD1    C3 2704   0.500   2.790  14.383 -0.0954 -0.3250 -1.4371
  174MPD1    C4 2705   0.595   2.802  14.291  1.2250 -0.7012  0.6117
  174MPD1    C5 2706   0.699   2.717  14.291 -0.1670 -0.2062  0.4670
  174MPD1     H 2707   0.428   2.666  14.539 -0.8189  0.2795  0.2811
  174MPD1    H1 2708   0.597   2.888  14.224 -3.1151 -2.1220 -1.4190
  174MPD1    H2 2709   0.806   2.561  14.380 -1.0648 -1.3228 -0.2654
  174MPD1    H3 2710   0.781   2.746  14.225 -1.3596  1.1579 -0.4187
  174MPD1     N 2711   0.394   2.891  14.384  0.2161 -0.8033 -0.2921
  174MPD1    H5 2712   0.386   2.961  14.311 -0.1427  0.1571  0.6790
  174MPD1    N1 2713   0.621   2.490  14.567  0.7049 -0.5597  0.3382
  174MPD1    H6 2714   0.714   2.452  14.580  2.2656  3.0312 -0.2273
  174MPD1    H7 2715   0.570   2.520  14.650  2.3130  0.5117  0.9407
  175MPD1     C 2716   2.832   4.194  15.932  0.3047  0.5604  0.2911
  175MPD1    C1 2717   2.954   4.158  15.984  0.3156  0.1862 -0.2193
  175MPD1    C2 2718   2.954   4.087  16.103 -0.2692 -0.3155  0.7328
  175MPD1    C3 2719   2.837   4.062  16.176 -0.7648  0.3190  0.0697
  175MPD1    C4 2720   2.719   4.106  16.116 -0.0818  0.3053  0.3963
  175MPD1    C5 2721   2.711   4.169  15.998  0.3106 -0.0461  0.5983
  175MPD1     H 2722   3.047   4.045  16.141 -1.2890  0.3556  4.0241
  175MPD1    H1 2723   2.623   4.085  16.162 -0.3643  3.2201  1.1262
  175MPD1    H2 2724   2.825   4.250  15.840 -0.2180  0.8157  0.4866
  175MPD1    H3 2725   2.619   4.209  15.956 -0.6275 -0.5259  2.1909
  175MPD1     N 2726   2.827   3.999  16.304 -0.6491 -0.1623  0.5668
  175MPD1    H5 2727   2.739   4.015  16.352  0.6459  0.0010  2.8811
  175MPD1    N1 2728   3.068   4.149  15.903  0.1489 -0.0810 -0.6086
  175MPD1    H6 2729   3.162   4.147  15.940  0.0717 -0.1111 -0.4139
  175MPD1    H7 2730   3.067   4.221  15.830 -1.0475  1.7038  1.1456
  176MPD1     C 2731   4.433   1.285  16.200  0.0387  0.1801 -0.4166
  176MPD1    C1 2732   4.491   1.415  16.206  1.0549  0.7047 -0.0881
  176MPD1    C2 2733   4.580   1.440  16.309  0.3668  0.4465 -0.5193
  176MPD1    C3 2734   4.620   1.341  16.396  0.3360 -0.1178  0.0361
  176MPD1    C4 2735   4.573   1.207  16.382  0.1475  0.0142  0.3844
  176MPD1    C5 2736   4.477   1.182  16.281 -0.3993 -0.1270  0.3173
  176MPD1     H 2737   4.616   1.541  16.325  0.1805  0.5095 -0.4955
  176MPD1    H1 2738   4.596   1.132  16.457  3.4169  0.3330 -0.3224
  176MPD1    H2 2739   4.356   1.262  16.128 -0.8090  0.6726  0.3227
  176MPD1    H3 2740   4.438   1.084  16.254 -0.8031 -0.0210  0.5131
  176MPD1     N 2741   4.701   1.381  16.509  0.3330 -0.0436 -0.3730
  176MPD1    H5 2742   4.717   1.481  16.516  2.1837 -0.3381 -0.4866
  176MPD1    N1 2743   4.450   1.520  16.120 -0.2003 -0.5496 -0.3976
  176MPD1    H6 2744   4.520   1.587  16.089 -0.2407 -0.5420 -0.4728
  176MPD1    H7 2745   4.415   1.474  16.037 -0.8175 -0.7226 -0.0393
  177MPD1     C 2746   2.369   1.226  10.399  0.0326  0.0240  0.4540
  177MPD1    C1 2747   2.285   1.180  10.304  0.1408  0.0470  0.6495
  177MPD1    C2 2748   2.269   1.249  10.186  0.8538  0.2811  0.9428
  177MPD1    C3 2749   2.357   1.357  10.163  0.5549  0.7057 -0.3802
  177MPD1    C4 2750   2.446   1.400  10.259 -0.3372 -0.3450  0.2930
  177MPD1    C5 2751   2.440   1.334  10.376 -0.1762  0.4984 -0.0833
  177MPD1     H 2752   2.193   1.216  10.116  2.2782  0.3070 -0.6106
  177MPD1    H1 2753   2.509   1.487  10.244 -0.4099 -0.3868 -0.2718
  177MPD1    H2 2754   2.391   1.164  10.485  0.5451  1.0768  1.0768
  177MPD1    H3 2755   2.506   1.352  10.461 -0.9856  0.9315  0.4481
  177MPD1     N 2756   2.335   1.420  10.038  0.0046 -0.1300  0.6495
  177MPD1    H5 2757   2.267   1.375   9.978  1.5623 -2.7269  0.8274
  177MPD1    N1 2758   2.186   1.084  10.329 -0.2906 -0.0217  0.4761
  177MPD1    H6 2759   2.223   1.025  10.403 -1.0623 -0.6418  0.3612
  177MPD1    H7 2760   2.160   1.027  10.249 -1.6203  2.9921 -1.2309
  178MPD1     C 2761   0.127   1.962   0.249 -0.4155 -0.3880 -0.9050
  178MPD1    C1 2762   0.080   1.913   0.129 -0.7290  0.6195 -0.0921
  178MPD1    C2 2763   0.148   1.923   0.012  0.0157  0.3167  0.3480
  178MPD1    C3 2764   0.284   1.953   0.026  0.2769  0.2958 -0.3956
  178MPD1    C4 2765   0.328   1.993   0.148 -0.4437 -0.1421 -0.0580
  178MPD1    C5 2766   0.255   2.003   0.263 -0.5979 -0.7570  0.0477
  178MPD1     H 2767   0.110   1.912  17.650 -0.7508 -0.5173  0.7369
  178MPD1    H1 2768   0.432   2.020   0.157 -0.4035 -0.5605  0.7159
  178MPD1    H2 2769   0.060   1.977   0.333  0.9732  2.6007 -0.3170
  178MPD1    H3 2770   0.285   2.041   0.360 -2.6613 -0.1649  0.4602
  178MPD1     N 2771   0.382   1.942  17.664  0.5834  0.1657 -0.1956
  178MPD1    H5 2772   0.474   1.978  17.687  0.7377  0.0194 -0.5881
  178MPD1    N1 2773   4.676   1.890   0.122  0.5120 -0.0353  0.2461
  178MPD1    H6 2774   4.647   1.852   0.213 -1.1425 -0.9208 -0.6440
  178MPD1    H7 2775   4.642   1.836   0.043 -1.4916  2.1235 -0.3467
  179MPD1     C 2776   0.651   4.499  15.549  0.2122 -0.1831  1.1969
  179MPD1    C1 2777   0.522   4.447  15.517 -0.1776 -0.1778 -0.2408
  179MPD1    C2 2778   0.409   4.492  15.586  0.9480 -0.7826 -0.3823
  179MPD1    C3 2779   0.418   4.586  15.680  0.0144  0.9931 -0.5325
  179MPD1    C4 2780   0.542   4.626  15.720  0.0139 -0.3727 -0.1646
  179MPD1    C5 2781   0.652   4.584  15.655 -0.0590 -0.1302 -0.1534
  179MPD1     H 2782   0.316   4.449  15.551 -0.2889  0.9755  0.7699
  179MPD1    H1 2783   0.564   4.695  15.801  1.8585 -0.9811 -0.1454
  179MPD1    H2 2784   0.746   4.468  15.507  0.6895 -0.4240  2.4764
  179MPD1    H3 2785   0.750   4.616  15.688 -0.3121  0.7231 -0.2043
  179MPD1     N 2786   0.310   4.646  15.754 -0.3470 -0.5172 -0.1771
  179MPD1    H5 2787   0.322   4.723  15.818  1.7703  0.3211 -1.5725
  179MPD1    N1 2788   0.508   4.327  15.437 -0.3853  0.4506 -0.0147
  179MPD1    H6 2789   0.585   4.309  15.372 -0.4948 -1.3462  0.3352
  179MPD1    H7 2790   0.414   4.304  15.406 -0.8849  1.1944  0.9563
  180MPD1     C 2791   1.113   1.377  14.511 -0.6272 -0.1618 -0.7670
  180MPD1    C1 2792   1.048   1.486  14.463  0.4645 -0.6212 -0.1131
  180MPD1    C2 2793   0.913   1.480  14.444  0.2000  0.5199 -0.2437
  180MPD1    C3 2794   0.841   1.372  14.491 -0.1286  0.8717  0.9193
  180MPD1    C4 2795   0.904   1.271  14.565 -0.2887 -0.1273 -0.2083
  180MPD1    C5 2796   1.039   1.266  14.562  0.7217  0.0357  0.3517
  180MPD1     H 2797   0.852   1.555  14.395  0.9638  2.2144  1.3984
  180MPD1    H1 2798   0.850   1.187  14.605 -1.3513 -0.4795 -2.3598
  180MPD1    H2 2799   1.221   1.373  14.519 -0.7914 -1.5348  0.7304
  180MPD1    H3 2800   1.090   1.182  14.608  0.7707  0.1997  0.5927
  180MPD1     N 2801   0.703   1.382  14.481  0.4660 -0.0325  0.7471
  180MPD1    H5 2802   0.651   1.469  14.481  0.2900 -0.1439 -0.9174
  180MPD1    N1 2803   1.129   1.586  14.409 -0.6675 -0.3384 -0.4397
  180MPD1    H6 2804   1.207   1.607  14.471 -1.1240  0.9079 -0.2903
  180MPD1    H7 2805   1.068   1.667  14.398  0.9561  0.6812 -1.8934
  181MPD1     C 2806   0.874   3.570   9.375  0.5842 -0.0319  0.0076
  181MPD1    C1 2807   0.837   3.647   9.489  0.1528 -0.6800 -0.3158
  181MPD1    C2 2808   0.944   3.693   9.571 -0.1091 -0.3177 -0.1542
  181MPD1    C3 2809   1.075   3.673   9.522  0.8593 -0.4286 -0.4679
  181MPD1    C4 2810   1.100   3.599   9.411  0.3961  0.2820 -1.0195
  181MPD1    C5 2811   1.000   3.558   9.328 -0.2117  0.7742 -0.0428
  181MPD1     H 2812   0.925   3.752   9.660  0.4263 -1.3583  0.6603
  181MPD1    H1 2813   1.204   3.582   9.384  0.9421  2.3271 -0.1446
  181MPD1    H2 2814   0.796   3.530   9.312 -0.9633  2.2311  0.4776
  181MPD1    H3 2815   1.023   3.514   9.232 -1.1572 -1.0218  0.5645
  181MPD1     N 2816   1.196   3.721   9.584  0.2790  0.1741 -0.4008
  181MPD1    H5 2817   1.286   3.716   9.538  0.1414 -0.3914 -0.6148
  181MPD1    N1 2818   0.705   3.696   9.505  0.1828 -0.3114 -0.5412
  181MPD1    H6 2819   0.651   3.651   9.431 -0.3111 -1.1816  0.3595
  181MPD1    H7 2820   0.698   3.793   9.475 -0.8514  0.1953  1.3662
  182MPD1     C 2821   2.209   3.741   2.477 -0.7585  0.4550  0.1458
  182MPD1    C1 2822   2.326   3.720   2.408 -0.5140 -0.3048 -0.2119
  182MPD1    C2 2823   2.299   3.715   2.270  0.5380  0.7011 -0.0187
  182MPD1    C3 2824   2.173   3.707   2.211  0.0476  0.7812  0.6002
  182MPD1    C4 2825   2.060   3.730   2.290  0.0250 -0.4717  0.0813
  182MPD1    C5 2826   2.081   3.756   2.418 -0.1924 -0.1180  0.1416
  182MPD1     H 2827   2.386   3.704   2.207 -0.9891 -5.2169 -1.0840
  182MPD1    H1 2828   1.960   3.728   2.246  0.4832  0.7912 -1.0350
  182MPD1    H2 2829   2.213   3.760   2.584  2.2880  1.1068 -0.0638
  182MPD1    H3 2830   2.000   3.776   2.487 -0.3700  1.2358 -0.4596
  182MPD1     N 2831   2.155   3.683   2.073 -0.7385  0.8999 -0.0720
  182MPD1    H5 2832   2.064   3.705   2.034 -0.9194  0.4013  0.0693
  182MPD1    N1 2833   2.450   3.732   2.468  0.1533 -0.5719 -0.4913
  182MPD1    H6 2834   2.458   3.708   2.566  2.8865 -0.2416 -0.6179
  182MPD1    H7 2835   2.522   3.679   2.419  0.4064 -1.3295  0.7250
  183MPD1     C 2836   2.865   4.423  10.582 -0.3134  0.3527  0.2655
  183MPD1    C1 2837   2.729   4.396  10.589  0.2509  0.3109 -0.1500
  183MPD1    C2 2838   2.678   4.323  10.482  0.7805 -0.1761  0.0749
  183MPD1    C3 2839   2.750   4.267  10.381  0.2382 -0.2438 -0.7255
  183MPD1    C4 2840   2.889   4.290  10.381  0.2960 -0.4496 -0.5415
  183MPD1    C5 2841   2.941   4.366  10.481  1.0166 -0.5251  0.8956
  183MPD1     H 2842   2.570   4.313  10.471  0.5013  3.5142 -0.2990
  183MPD1    H1 2843   2.950   4.248  10.302  0.3388  0.2869 -0.8976
  183MPD1    H2 2844   2.910   4.479  10.663  0.0172  0.8045 -0.2273
  183MPD1    H3 2845   3.046   4.390  10.484  1.3451 -2.0506  1.4798
  183MPD1     N 2846   2.670   4.202  10.277  0.2123 -0.4508  0.4803
  183MPD1    H5 2847   2.571   4.186  10.296  0.2291 -2.6876 -1.3339
  183MPD1    N1 2848   2.646   4.469  10.678 -0.1026 -0.2463  0.5197
  183MPD1    H6 2849   2.560   4.417  10.695  0.7804 -2.3605 -1.4460
  183MPD1    H7 2850   2.696   4.491  10.763 -2.9877 -1.8401  2.6271
  184MPD1     C 2851   1.568   1.158  10.693  0.7988  0.2565  0.1450
  184MPD1    C1 2852   1.473   1.117  10.599 -0.5852 -0.2306  0.0058
  184MPD1    C2 2853   1.483   1.180  10.478 -0.0836 -0.2437  0.5823
  184MPD1    C3 2854   1.556   1.298  10.460 -0.6666  0.0641  0.1323
  184MPD1    C4 2855   1.644   1.340  10.564 -0.5565 -0.8246 -0.3089
  184MPD1    C5 2856   1.649   1.271  10.680  0.0197  0.0092 -0.3163
  184MPD1     H 2857   1.436   1.133  10.393 -0.7797 -1.6446  1.7468
  184MPD1    H1 2858   1.699   1.433  10.566  1.3540 -1.9571 -0.8098
  184MPD1    H2 2859   1.589   1.098  10.780  3.6740  1.5601  0.3831
  184MPD1    H3 2860   1.718   1.294  10.760  1.2408 -0.2303 -1.3047
  184MPD1     N 2861   1.555   1.371  10.340  0.2593  0.4066  0.4704
  184MPD1    H5 2862   1.624   1.445  10.337  0.7602 -0.0636  0.5448
  184MPD1    N1 2863   1.399   1.003  10.627 -0.0107  0.3916 -0.0965
  184MPD1    H6 2864   1.386   0.985  10.726  3.0221 -1.1416  0.0298
  184MPD1    H7 2865   1.323   0.991  10.560 -0.7397 -1.5633  1.0968
  185MPD1     C 2866   0.751   1.579   9.792  0.6677 -0.6168  0.2967
  185MPD1    C1 2867   0.850   1.611   9.700  0.0020 -0.3917 -0.0800
  185MPD1    C2 2868   0.977   1.576   9.735  0.2942  0.0116 -0.0261
  185MPD1    C3 2869   1.012   1.506   9.854 -1.1695  0.4800 -0.3716
  185MPD1    C4 2870   0.912   1.470   9.939 -0.7364 -0.6907  0.2592
  185MPD1    C5 2871   0.785   1.513   9.909 -0.2424 -0.0614 -0.8137
  185MPD1     H 2872   1.055   1.602   9.665 -1.2974 -1.6329 -2.4462
  185MPD1    H1 2873   0.931   1.421  10.033 -1.0090 -0.3578  0.4872
  185MPD1    H2 2874   0.645   1.590   9.777  0.7161 -1.1630 -0.4689
  185MPD1    H3 2875   0.714   1.477   9.982 -1.0887  2.9809 -0.1172
  185MPD1     N 2876   1.143   1.483   9.905 -0.2039 -0.1155 -0.1337
  185MPD1    H5 2877   1.157   1.435   9.993 -1.4085  1.6525  1.0199
  185MPD1    N1 2878   0.815   1.661   9.570 -0.4567 -0.8034  0.0317
  185MPD1    H6 2879   0.893   1.720   9.542 -0.7018 -0.2556  0.4963
  185MPD1    H7 2880   0.738   1.728   9.564 -0.2344 -0.6615 -1.1552
  186MPD1     C 2881   0.348   0.310  15.415 -0.2290 -0.1363  0.0908
  186MPD1    C1 2882   0.396   0.202  15.494 -0.1774  0.7136 -0.0751
  186MPD1    C2 2883   0.412   0.218  15.629  0.9110  0.0516  0.4784
  186MPD1    C3 2884   0.399   0.344  15.688 -0.5097  0.2341  0.5600
  186MPD1    C4 2885   0.360   0.454  15.606 -0.4657  0.2183 -0.2280
  186MPD1    C5 2886   0.335   0.433  15.473  0.0139 -0.0607 -0.0117
  186MPD1     H 2887   0.456   0.135  15.682  0.6042  0.5825  1.5684
  186MPD1    H1 2888   0.363   0.554  15.649 -0.8554  0.4576 -0.7708
  186MPD1    H2 2889   0.315   0.293  15.313  0.8994  1.7071 -0.5774
  186MPD1    H3 2890   0.305   0.511  15.403  0.6134  1.0395  0.9579
  186MPD1     N 2891   0.437   0.372  15.819 -0.1345 -0.0837  0.3170
  186MPD1    H5 2892   0.437   0.469  15.850  0.0539 -0.6007  1.9193
  186MPD1    N1 2893   0.406   0.074  15.434  0.1060 -0.3386  0.1207
  186MPD1    H6 2894   0.450   0.073  15.342  0.1373 -2.0053  0.1465
  186MPD1    H7 2895   0.455   0.003  15.488 -0.3019 -1.2462 -0.6993
  187MPD1     C 2896   4.536   2.407   0.223 -0.3870  0.6743 -0.4365
  187MPD1    C1 2897   4.581   2.284   0.179  0.6755  0.3327 -0.1307
  187MPD1    C2 2898   4.659   2.287   0.064 -0.2121 -0.5884 -0.1481
  187MPD1    C3 2899   4.681   2.405  17.732  0.3188 -0.4141  0.0816
  187MPD1    C4 2900   4.627   2.527   0.039  0.1452 -0.1327 -0.6861
  187MPD1    C5 2901   4.563   2.526   0.157 -0.8619 -0.3157  0.4251
  187MPD1     H 2902   4.684   2.190   0.023  1.0084  0.4641 -1.9388
  187MPD1    H1 2903   4.644   2.622  17.727 -1.7955  0.9032  0.6009
  187MPD1    H2 2904   4.483   2.405   0.318  1.1420  0.7584  0.4210
  187MPD1    H3 2905   4.522   2.613   0.208 -0.7234  0.2587 -0.4571
  187MPD1     N 2906   0.006   2.422  17.602 -0.3482  0.2638  0.0232
  187MPD1    H5 2907   0.001   2.516  17.565  1.0932  0.5720  0.6141
  187MPD1    N1 2908   4.573   2.171   0.262 -0.7507  0.6660  0.2434
  187MPD1    H6 2909   4.599   2.084   0.216 -0.8713  0.6339  0.2354
  187MPD1    H7 2910   4.491   2.160   0.322 -1.3296 -0.6718 -0.7846
  188MPD1     C 2911   4.645   2.570   9.656 -0.0759 -1.2846 -0.2140
  188MPD1    C1 2912   4.583   2.449   9.638  0.1911  0.2532  0.0999
  188MPD1    C2 2913   4.502   2.406   9.742  0.9154  0.2059  0.2775
  188MPD1    C3 2914   4.477   2.481   9.853  0.3445 -0.2945 -0.2393
  188MPD1    C4 2915   4.535   2.603   9.863 -0.0252  0.0841  0.2317
  188MPD1    C5 2916   4.631   2.634   9.773 -0.3682 -0.8603 -0.2578
  188MPD1     H 2917   4.446   2.314   9.730 -1.8866  1.5519  3.3173
  188MPD1    H1 2918   4.534   2.670   9.949 -0.2435 -0.0759  0.3537
  188MPD1    H2 2919   4.717   2.605   9.583 -0.5795  0.4564  0.1245
  188MPD1    H3 2920   4.685   2.727   9.791  0.9796 -1.5162 -0.8959
  188MPD1     N 2921   4.400   2.436   9.961  0.4026  0.4663  0.1158
  188MPD1    H5 2922   4.381   2.499  10.038  1.7675  0.1277  0.7303
  188MPD1    N1 2923   4.585   2.385   9.518 -0.0672 -0.2347  0.1207
  188MPD1    H6 2924   4.550   2.289   9.514 -1.1143  0.1930 -0.7686
  188MPD1    H7 2925   4.672   2.400   9.469 -0.6859 -1.0199 -1.2121
  189MPD1     C 2926   1.930   3.284   0.592 -0.2545  0.6117  0.0704
  189MPD1    C1 2927   1.864   3.210   0.496  0.2324  0.1021  0.2921
  189MPD1    C2 2928   1.744   3.255   0.445  0.1120 -0.1179 -0.0064
  189MPD1    C3 2929   1.699   3.381   0.485  0.1403  0.0344 -0.3531
  189MPD1    C4 2930   1.760   3.450   0.594 -0.2246 -0.3037 -0.2733
  189MPD1    C5 2931   1.876   3.394   0.646  0.3371  0.0217  0.4318
  189MPD1     H 2932   1.684   3.202   0.372 -0.4670  1.0930 -0.4124
  189MPD1    H1 2933   1.726   3.546   0.630  2.2721  0.1586  0.8613
  189MPD1    H2 2934   2.029   3.252   0.623  0.4355  1.2444 -1.4882
  189MPD1    H3 2935   1.928   3.445   0.726 -0.8603  0.4862  0.9122
  189MPD1     N 2936   1.581   3.427   0.421 -0.1340  0.1379  0.3513
  189MPD1    H5 2937   1.534   3.365   0.355  0.5889 -0.8061  0.7248
  189MPD1    N1 2938   1.920   3.080   0.465 -0.4164 -0.5051 -0.5961
  189MPD1    H6 2939   1.890   3.035   0.378 -0.8963 -0.1608 -0.6043
  189MPD1    H7 2940   2.021   3.074   0.473 -0.4765  0.0360  0.5286
  190MPD1     C 2941   1.031   2.402  15.224 -0.0216  0.3564  0.1372
  190MPD1    C1 2942   1.104   2.287  15.201  0.3948  0.3967 -0.1870
  190MPD1    C2 2943   1.056   2.180  15.274 -0.2038  0.3179 -0.3343
  190MPD1    C3 2944   0.951   2.184  15.364 -0.1184  0.7143  0.4005
  190MPD1    C4 2945   0.897   2.304  15.397  0.3786 -0.5837  0.2502
  190MPD1    C5 2946   0.936   2.415  15.324  0.0840 -0.2359  1.0852
  190MPD1     H 2947   1.097   2.082  15.250  0.8963  0.1970  2.1206
  190MPD1    H1 2948   0.811   2.315  15.462  0.3639  1.9159 -0.1960
  190MPD1    H2 2949   1.047   2.493  15.167 -1.9767  0.0120 -0.9685
  190MPD1    H3 2950   0.884   2.508  15.343  0.4160 -0.6026  3.8438
  190MPD1     N 2951   0.917   2.057  15.422  0.3560 -0.1372  0.0214
  190MPD1    H5 2952   0.962   1.977  15.379 -0.2339  0.5446 -1.9110
  190MPD1    N1 2953   1.185   2.270  15.086 -0.6630 -0.3871 -0.2757
  190MPD1    H6 2954   1.241   2.352  15.065 -3.3924  1.2261 -1.3525
  190MPD1    H7 2955   1.249   2.191  15.086 -1.4192 -1.0010  0.0296
  191MPD1     C 2956   4.168   3.242  13.230 -0.2875 -0.2341 -0.1046
  191MPD1    C1 2957   4.255   3.326  13.163  0.8311 -0.2034  0.3519
  191MPD1    C2 2958   4.227   3.462  13.164  0.1093  0.2322  0.4986
  191MPD1    C3 2959   4.118   3.518  13.221 -0.8084  0.3580  0.0332
  191MPD1    C4 2960   4.031   3.431  13.291 -0.2348  0.3437 -0.0853
  191MPD1    C5 2961   4.062   3.292  13.299  0.3885  0.2269  0.5435
  191MPD1     H 2962   4.302   3.527  13.120  0.0719  0.2414  0.4486
  191MPD1    H1 2963   3.945   3.471  13.343  0.4068  0.7435  0.6725
  191MPD1    H2 2964   4.192   3.137  13.242 -3.1078 -0.5701  2.8394
  191MPD1    H3 2965   3.998   3.239  13.369  0.1736 -0.0518  0.1299
  191MPD1     N 2966   4.091   3.652  13.188  0.4520  0.4381 -0.9847
  191MPD1    H5 2967   4.164   3.690  13.128  0.9131 -0.8721 -1.2637
  191MPD1    N1 2968   4.389   3.284  13.144 -0.4507  0.2295  0.7751
  191MPD1    H6 2969   4.403   3.183  13.132  1.2638  0.6245 -0.6516
  191MPD1    H7 2970   4.433   3.326  13.063 -2.4573  0.3107 -0.2629
  192MPD1     C 2971   3.401   4.499  13.269  0.1752  0.9112  0.5818
  192MPD1    C1 2972   3.386   4.358  13.293 -0.5471  0.6834 -0.4198
  192MPD1    C2 2973   3.504   4.284  13.288 -0.2836 -0.7575 -0.1314
  192MPD1    C3 2974   3.629   4.342  13.255 -0.4697  0.4269 -0.3441
  192MPD1    C4 2975   3.634   4.477  13.219 -0.0719  0.0422 -0.1740
  192MPD1    C5 2976   3.518   4.552  13.220 -0.3600 -0.2812  0.3028
  192MPD1     H 2977   3.494   4.178  13.305 -0.4259 -0.6688  0.3127
  192MPD1    H1 2978   3.728   4.527  13.203  0.0297 -0.1902 -0.3170
  192MPD1    H2 2979   3.315   4.565  13.278 -0.4425  0.3936 -1.5594
  192MPD1    H3 2980   3.523   4.658  13.196 -1.6050 -0.2065  0.3936
  192MPD1     N 2981   3.752   4.266  13.251 -0.4385 -0.4204  0.8947
  192MPD1    H5 2982   3.835   4.324  13.238  1.4083 -2.9047  1.6599
  192MPD1    N1 2983   3.272   4.306  13.344  0.8878  0.4726  0.2094
  192MPD1    H6 2984   3.253   4.210  13.317 -0.2311  0.9071 -0.5791
  192MPD1    H7 2985   3.194   4.368  13.319 -0.3151 -0.8982  0.5874
  193MPD1     C 2986   4.152   3.378  16.224 -0.7301 -0.2042  0.2685
  193MPD1    C1 2987   4.052   3.466  16.217 -0.1980  0.2856 -0.0083
  193MPD1    C2 2988   4.025   3.557  16.317  0.2747  0.0675  0.7886
  193MPD1    C3 2989   4.108   3.568  16.423 -0.6471  0.4765  0.1729
  193MPD1    C4 2990   4.220   3.489  16.426  0.5976 -0.2293 -0.0246
  193MPD1    C5 2991   4.243   3.398  16.325  0.3101  0.1271  0.1489
  193MPD1     H 2992   3.930   3.609  16.311 -0.4687 -1.3366  0.4420
  193MPD1    H1 2993   4.292   3.499  16.506  1.0761 -0.2423 -0.4571
  193MPD1    H2 2994   4.168   3.310  16.141  1.3806 -0.6659  1.0394
  193MPD1    H3 2995   4.324   3.329  16.345  0.7509 -0.2044 -2.7808
  193MPD1     N 2996   4.089   3.655  16.528  0.0080  0.1080  0.4394
  193MPD1    H5 2997   4.159   3.649  16.601 -0.5028 -0.9673  0.8485
  193MPD1    N1 2998   3.988   3.488  16.095  0.3433  0.3089  0.3507
  193MPD1    H6 2999   3.981   3.407  16.034  0.0736 -0.4969  1.4528
  193MPD1    H7 3000   3.895   3.525  16.109 -0.0528  0.1493 -1.8363
  194MPD1     C 3001   2.612   1.188  16.578  0.1042 -0.1636 -0.1191
  194MPD1    C1 3002   2.729   1.166  16.643 -0.0140  0.0990 -0.1523
  194MPD1    C2 3003   2.725   1.111  16.768  0.7510  0.2817 -0.0969
  194MPD1    C3 3004   2.605   1.081  16.830  0.5280 -0.7877 -0.3223
  194MPD1    C4 3005   2.486   1.115  16.765 -0.2744 -1.2444  0.4185
  194MPD1    C5 3006   2.495   1.166  16.637 -0.3858  0.5168  0.6068
  194MPD1     H 3007   2.820   1.073  16.805 -0.5916  0.0309  3.1068
  194MPD1    H1 3008   2.389   1.084  16.804 -0.5028  0.6695  1.3397
  194MPD1    H2 3009   2.607   1.215  16.473 -0.3597 -0.7170 -0.2392
  194MPD1    H3 3010   2.405   1.177  16.578 -1.5585  0.3978  2.3934
  194MPD1     N 3011   2.599   1.008  16.961 -0.3464 -0.0385 -0.2127
  194MPD1    H5 3012   2.509   0.976  16.995 -1.5177  1.5176 -1.8289
  194MPD1    N1 3013   2.853   1.178  16.582  0.2690 -0.2754 -0.2630
  194MPD1    H6 3014   2.921   1.211  16.650  1.7039 -1.1695 -1.2639
  194MPD1    H7 3015   2.852   1.249  16.509 -0.6714  1.2956  1.2662
  195MPD1     C 3016   4.534   2.948  17.463 -0.5495 -0.1827 -0.1316
  195MPD1    C1 3017   4.584   2.846  17.379 -0.2785  0.2811 -0.2633
  195MPD1    C2 3018   4.537   2.719  17.388 -0.4015  0.1240 -0.4228
  195MPD1    C3 3019   4.430   2.688  17.485 -0.2951 -0.5648 -0.0463
  195MPD1    C4 3020   4.382   2.795  17.561 -0.2499  0.1686 -0.1201
  195MPD1    C5 3021   4.432   2.925  17.549 -0.0781 -0.0022  0.2396
  195MPD1     H 3022   4.581   2.647  17.320  1.0896  0.9709 -0.3421
  195MPD1    H1 3023   4.298   2.773  17.626  1.1675  0.1428  1.6899
  195MPD1    H2 3024   4.584   3.043  17.453  0.9841 -0.9810 -0.0834
  195MPD1    H3 3025   4.391   3.002  17.613 -1.8508 -0.1858 -0.6870
  195MPD1     N 3026   4.380   2.560  17.512 -0.4568  0.4570  0.1705
  195MPD1    H5 3027   4.329   2.555  17.599  0.8755 -0.3005  0.9071
  195MPD1    N1 3028   4.697   2.870  17.301 -0.6930 -0.0488  0.2074
  195MPD1    H6 3029   4.693   2.968  17.273  0.9028  0.0096  0.1863
  195MPD1    H7 3030   4.685   2.806  17.223  3.1480 -0.4354 -0.0811
  196MPD1     C 3031   3.435   2.290   0.256 -0.1044 -0.3332 -0.0697
  196MPD1    C1 3032   3.352   2.213   0.327  0.0224  0.0253 -0.0496
  196MPD1    C2 3033   3.338   2.244   0.461  0.1335 -0.0308  0.0065
  196MPD1    C3 3034   3.408   2.346   0.523  0.4096 -0.4751  0.5243
  196MPD1    C4 3035   3.487   2.433   0.445 -0.4668  0.4954  0.0531
  196MPD1    C5 3036   3.500   2.401   0.315  0.2685 -0.2799 -0.0979
  196MPD1     H 3037   3.279   2.176   0.521  1.8704  0.5361  2.3448
  196MPD1    H1 3038   3.547   2.511   0.490 -0.9257  1.7137 -1.4926
  196MPD1    H2 3039   3.455   2.258   0.154 -1.4566 -1.2418 -0.0461
  196MPD1    H3 3040   3.556   2.469   0.252  1.1047  2.3054  3.4310
  196MPD1     N 3041   3.386   2.373   0.660  0.4098 -0.4468  0.0377
  196MPD1    H5 3042   3.444   2.445   0.702 -3.2646  2.0688  0.8301
  196MPD1    N1 3043   3.303   2.098   0.263 -0.1664 -0.6534 -0.2099
  196MPD1    H6 3044   3.266   2.115   0.170 -0.8817  0.0006  0.1990
  196MPD1    H7 3045   3.220   2.061   0.307  0.9322 -2.5341  0.2365
  197MPD1     C 3046   3.127   4.334   0.345  0.5354 -0.6220 -0.6800
  197MPD1    C1 3047   3.125   4.470   0.333 -0.1638 -0.7053  0.6576
  197MPD1    C2 3048   3.119   4.527   0.210 -0.0443 -0.3096 -0.0897
  197MPD1    C3 3049   3.124   4.448   0.095 -0.7004 -0.3260  0.3274
  197MPD1    C4 3050   3.143   4.312   0.111  0.5577 -0.8221  0.3945
  197MPD1    C5 3051   3.134   4.247   0.233  0.2017 -0.3783 -0.8979
  197MPD1     H 3052   3.122   4.636   0.204  1.0807 -0.2314  1.8530
  197MPD1    H1 3053   3.151   4.257   0.018  0.7387  0.0399 -0.0973
  197MPD1    H2 3054   3.123   4.284   0.442  1.3958  0.6935  0.0419
  197MPD1    H3 3055   3.134   4.139   0.237 -3.6719 -0.3777 -0.6801
  197MPD1     N 3056   3.124   4.498  17.703 -0.3357  0.0037  0.1231
  197MPD1    H5 3057   3.131   4.429  17.628  2.3401  0.3787  0.0257
  197MPD1    N1 3058   3.120   4.554   0.448 -0.1831 -0.0856 -0.2677
  197MPD1    H6 3059   3.145   4.650   0.428 -2.7570  0.6343 -0.0362
  197MPD1    H7 3060   3.165   4.513   0.529  0.7293 -1.2212 -1.3410
  198MPD1     C 3061   0.536   2.034  15.147 -0.2544  0.3195  0.4096
  198MPD1    C1 3062   0.496   2.150  15.086  0.4163 -0.4032 -0.2697
  198MPD1    C2 3063   0.479   2.271  15.147  0.0045 -0.2077  0.1740
  198MPD1    C3 3064   0.513   2.283  15.277  0.4311 -0.2585 -0.3272
  198MPD1    C4 3065   0.560   2.174  15.344  0.0765  0.2338 -0.1234
  198MPD1    C5 3066   0.581   2.055  15.275 -0.0501 -0.3168  0.0673
  198MPD1     H 3067   0.445   2.357  15.090  0.3008  0.3078  0.7706
  198MPD1    H1 3068   0.599   2.183  15.444 -0.8265 -1.8162  0.4111
  198MPD1    H2 3069   0.540   1.934  15.106  0.7628  0.5282  0.0147
  198MPD1    H3 3070   0.628   1.965  15.313  1.0015 -0.2158 -0.9661
  198MPD1     N 3071   0.501   2.413  15.333 -0.4298  0.1969 -0.3099
  198MPD1    H5 3072   0.478   2.492  15.275  1.6746  1.4347  0.5194
  198MPD1    N1 3073   0.458   2.130  14.954 -0.0635 -0.4066  0.1135
  198MPD1    H6 3074   0.517   2.059  14.913  0.7327  0.8158 -0.8510
  198MPD1    H7 3075   0.462   2.216  14.899  0.9296 -0.0272  0.7842
  199MPD1     C 3076   1.956   2.799   9.747  0.0642 -0.4870  0.3261
  199MPD1    C1 3077   1.885   2.819   9.630 -0.1243 -0.6550  0.0741
  199MPD1    C2 3078   1.812   2.936   9.617 -0.8620  0.2328  0.5172
  199MPD1    C3 3079   1.791   3.020   9.728 -0.3120  0.7414 -0.3106
  199MPD1    C4 3080   1.869   2.992   9.840  0.3706  0.0317 -0.2224
  199MPD1    C5 3081   1.957   2.891   9.844  0.7058 -0.2791 -0.4612
  199MPD1     H 3082   1.755   2.955   9.526 -0.6751 -2.8818 -0.2307
  199MPD1    H1 3083   1.867   3.059   9.925  2.0054  0.6473 -0.6604
  199MPD1    H2 3084   2.019   2.711   9.755  0.5206 -0.3081 -1.4306
  199MPD1    H3 3085   2.021   2.881   9.931 -1.9190 -0.6132  1.4498
  199MPD1     N 3086   1.699   3.136   9.735 -0.3269 -0.4843 -0.8483
  199MPD1    H5 3087   1.695   3.183   9.825 -1.7758 -0.4960 -0.9020
  199MPD1    N1 3088   1.904   2.733   9.522  0.2490  0.7620 -0.5444
  199MPD1    H6 3089   1.953   2.646   9.545  1.6334  1.7935  0.3868
  199MPD1    H7 3090   1.818   2.711   9.471  0.8714  1.8483 -2.0701
  200MPD1     C 3091   1.233   3.808  15.118 -0.3554 -0.8427 -0.5287
  200MPD1    C1 3092   1.177   3.704  15.048  0.0839  0.3129 -0.4917
  200MPD1    C2 3093   1.252   3.657  14.943  0.0474  0.1316  0.0876
  200MPD1    C3 3094   1.379   3.687  14.922 -0.4976 -0.0368  0.6327
  200MPD1    C4 3095   1.441   3.789  15.000  0.3337 -0.1412  0.0952
  200MPD1    C5 3096   1.363   3.842  15.103 -0.0008  0.3065  0.0686
  200MPD1     H 3097   1.213   3.591  14.866  1.0952 -1.7093  1.1410
  200MPD1    H1 3098   1.543   3.823  14.985  0.3837 -0.6428 -0.6855
  200MPD1    H2 3099   1.193   3.853  15.208  3.1560  0.1629  0.5193
  200MPD1    H3 3100   1.409   3.915  15.168 -0.2047  0.4825  0.0169
  200MPD1     N 3101   1.452   3.617  14.827 -0.2540  0.0819 -0.6798
  200MPD1    H5 3102   1.394   3.569  14.760  1.0636 -1.2961 -0.8380
  200MPD1    N1 3103   1.039   3.676  15.060  0.0812  0.0319 -0.3279
  200MPD1    H6 3104   1.030   3.580  15.029  0.9687  0.3119 -1.4660
  200MPD1    H7 3105   1.004   3.683  15.155 -3.3984  0.4232 -1.6302
  201MPD1     C 3106   3.040   2.797  13.266  0.4794 -0.2277  1.1604
  201MPD1    C1 3107   3.033   2.662  13.236 -0.9334  0.3947 -0.7446
  201MPD1    C2 3108   3.139   2.605  13.173  0.8152 -0.1676  0.2944
  201MPD1    C3 3109   3.258   2.677  13.143  0.4090 -0.1771 -0.0527
  201MPD1    C4 3110   3.264   2.808  13.185 -0.6803  0.2766 -0.5473
  201MPD1    C5 3111   3.153   2.874  13.231 -0.1782  0.8039  0.2771
  201MPD1     H 3112   3.129   2.497  13.162 -0.6280 -0.1465  1.4732
  201MPD1    H1 3113   3.353   2.871  13.181 -0.9975  0.6729 -1.3255
  201MPD1    H2 3114   2.958   2.854  13.307 -0.8173 -2.1054  1.1990
  201MPD1    H3 3115   3.158   2.979  13.258 -0.4530  0.2325  2.6317
  201MPD1     N 3116   3.367   2.610  13.084 -0.7201 -0.1562  0.1848
  201MPD1    H5 3117   3.351   2.510  13.088  0.2902 -0.2838  0.9474
  201MPD1    N1 3118   2.926   2.583  13.278 -0.9663  0.0752 -0.7400
  201MPD1    H6 3119   2.836   2.632  13.282 -1.8319 -1.6534  0.5950
  201MPD1    H7 3120   2.917   2.505  13.213 -1.2239 -0.2851 -0.2702
  202MPD1     C 3121   3.476   3.369  10.728 -0.6976  0.7353 -0.6543
  202MPD1    C1 3122   3.541   3.289  10.646  0.0224  0.4512  0.0014
  202MPD1    C2 3123   3.474   3.260  10.532  0.3080 -0.0972 -0.0182
  202MPD1    C3 3124   3.336   3.251  10.521  0.7168  0.0770 -0.5658
  202MPD1    C4 3125   3.271   3.316  10.620 -0.5574 -0.4020 -0.2821
  202MPD1    C5 3126   3.342   3.383  10.718 -0.4419 -1.0075  0.2434
  202MPD1     H 3127   3.534   3.215  10.455  1.9688  0.1604  1.1328
  202MPD1    H1 3128   3.163   3.321  10.624 -0.4762  1.8357 -1.4597
  202MPD1    H2 3129   3.527   3.419  10.810 -0.7729 -1.7737  0.9345
  202MPD1    H3 3130   3.297   3.455  10.784 -1.1078 -3.3515  2.3352
  202MPD1     N 3131   3.265   3.198  10.415  0.1150 -0.4841 -0.5041
  202MPD1    H5 3132   3.163   3.203  10.422  0.3270  0.9069  1.6268
  202MPD1    N1 3133   3.676   3.308  10.638 -0.0082  0.4463 -0.2555
  202MPD1    H6 3134   3.718   3.223  10.602 -2.1829 -1.3714  1.5055
  202MPD1    H7 3135   3.718   3.323  10.729 -1.5855 -0.4778  0.6265
  203MPD1     C 3136   1.983   3.168  12.417  0.0420  0.4185  0.2333
  203MPD1    C1 3137   2.046   3.104  12.310  0.3136  0.1869 -0.6569
  203MPD1    C2 3138   2.138   3.001  12.341  0.2084 -0.5231  0.2184
  203MPD1    C3 3139   2.170   2.970  12.471  0.0789 -0.4772 -1.1447
  203MPD1    C4 3140   2.117   3.041  12.574  0.3345 -0.3226 -0.1850
  203MPD1    C5 3141   2.034   3.146  12.546 -0.1750 -0.0843  0.6229
  203MPD1     H 3142   2.192   2.946  12.264  2.1543  1.2379  0.3062
  203MPD1    H1 3143   2.142   3.018  12.677 -2.0217 -0.3790  0.3625
  203MPD1    H2 3144   1.893   3.227  12.409 -0.0053  0.5104  1.4229
  203MPD1    H3 3145   1.986   3.193  12.631  1.3632  0.1272  1.3804
  203MPD1     N 3146   2.261   2.862  12.486  0.5438 -0.6523 -0.2382
  203MPD1    H5 3147   2.300   2.822  12.401 -1.2291 -1.2089 -0.7738
  203MPD1    N1 3148   1.982   3.103  12.183  0.0876 -0.2191  0.3615
  203MPD1    H6 3149   2.053   3.085  12.112 -0.4373  3.4252 -1.0938
  203MPD1    H7 3150   1.937   3.189  12.153  0.9177 -0.7575 -2.5217
  204MPD1     C 3151   1.873   0.331   0.116 -0.9099 -0.2140  0.7208
  204MPD1    C1 3152   1.918   0.286  17.732 -0.6762 -0.2608 -0.8526
  204MPD1    C2 3153   1.931   0.149  17.718  0.2353  0.2402 -0.6851
  204MPD1    C3 3154   1.882   0.059   0.067  0.1798 -0.3449 -0.2509
  204MPD1    C4 3155   1.840   0.108   0.187 -0.1637  0.0857 -0.4550
  204MPD1    C5 3156   1.836   0.243   0.209 -0.2655 -0.3325  0.3779
  204MPD1     H 3157   1.981   0.105  17.633  0.2887  1.9121 -1.5331
  204MPD1    H1 3158   1.826   0.042   0.272  0.1592  1.0245  0.3211
  204MPD1    H2 3159   1.875   0.438   0.135  1.6962 -0.3533  1.3131
  204MPD1    H3 3160   1.807   0.271   0.310 -1.8321  2.5366 -0.8647
  204MPD1     N 3161   1.884   4.656   0.036 -0.3133 -0.4138  0.1451
  204MPD1    H5 3162   1.928   4.631  17.686 -1.4730 -0.8391 -0.3201
  204MPD1    N1 3163   1.979   0.381  17.647  0.3955  0.1626 -0.3430
  204MPD1    H6 3164   1.985   0.341  17.554  2.2333 -0.3474 -0.0151
  204MPD1    H7 3165   1.934   0.472  17.643 -1.5669 -0.7216  1.7994
  205MPD1     C 3166   1.606   3.528  17.548  0.0993 -0.0096 -0.1507
  205MPD1    C1 3167   1.683   3.416  17.536  0.0809  0.2622  0.2266
  205MPD1    C2 3168   1.761   3.394  17.644  0.4562  0.0501 -0.0482
  205MPD1    C3 3169   1.770   3.473   0.023  0.4284 -0.9517  0.1290
  205MPD1    C4 3170   1.693   3.580   0.023  0.7258 -0.3097 -0.4528
  205MPD1    C5 3171   1.612   3.607  17.660 -0.0068 -0.0779 -0.8591
  205MPD1     H 3172   1.830   3.310  17.640  0.4241 -0.0022  0.5173
  205MPD1    H1 3173   1.698   3.651   0.104 -1.7350  0.3657 -0.8901
  205MPD1    H2 3174   1.554   3.561  17.459  0.4279 -0.4270 -0.4969
  205MPD1    H3 3175   1.563   3.703  17.668 -0.0209 -0.0642 -1.0936
  205MPD1     N 3176   1.856   3.447   0.131 -0.1421  0.1060 -0.2422
  205MPD1    H5 3177   1.860   3.517   0.204 -2.2455  1.4331 -1.4032
  205MPD1    N1 3178   1.707   3.370  17.408  0.0701  0.4937 -0.7653
  205MPD1    H6 3179   1.745   3.278  17.432  1.5241  1.2338 -0.2338
  205MPD1    H7 3180   1.627   3.346  17.349  0.0532 -0.9908 -0.1546
  206MPD1     C 3181   2.452   1.136  15.751  0.2078 -0.1222  0.7823
  206MPD1    C1 3182   2.467   1.061  15.865  0.3494  0.5709  0.1117
  206MPD1    C2 3183   2.361   1.050  15.950  0.4452 -0.3770  0.4549
  206MPD1    C3 3184   2.246   1.119  15.927  0.0779 -0.4472  0.1723
  206MPD1    C4 3185   2.225   1.186  15.807  0.6113 -0.4178  0.1492
  206MPD1    C5 3186   2.330   1.200  15.722 -0.0435  0.2505  0.3446
  206MPD1     H 3187   2.365   0.981  16.034  0.6073  0.2846  0.9856
  206MPD1    H1 3188   2.129   1.234  15.789  0.8971 -0.8238 -2.4270
  206MPD1    H2 3189   2.528   1.157  15.677 -0.2618  1.5780  0.7731
  206MPD1    H3 3190   2.321   1.261  15.633  1.3609  0.0554  0.0747
  206MPD1     N 3191   2.140   1.109  16.012  0.0464  0.3841  0.1779
  206MPD1    H5 3192   2.057   1.157  15.980 -0.7379 -0.6645  0.6666
  206MPD1    N1 3193   2.577   0.977  15.868 -0.0495 -0.2534 -0.3086
  206MPD1    H6 3194   2.597   0.944  15.963 -0.4260  0.7715  0.1290
  206MPD1    H7 3195   2.655   1.023  15.822  0.3524  0.3213  0.9257
  207MPD1     C 3196   3.614   3.951  10.330 -0.6840 -0.3406  0.2797
  207MPD1    C1 3197   3.710   3.868  10.300  0.0683 -0.0216  0.2199
  207MPD1    C2 3198   3.830   3.878  10.372  0.1570 -0.3647 -0.0980
  207MPD1    C3 3199   3.839   3.966  10.488  0.9052  0.2664  0.7004
  207MPD1    C4 3200   3.726   4.036  10.524  0.4318 -0.3238 -0.1343
  207MPD1    C5 3201   3.610   4.023  10.444 -0.6473 -0.8328  0.3675
  207MPD1     H 3202   3.920   3.829  10.338  0.5417  0.7535 -0.7166
  207MPD1    H1 3203   3.720   4.101  10.611  0.6616 -1.7160  0.9268
  207MPD1    H2 3204   3.540   3.969  10.253 -1.3732 -1.5387  0.6608
  207MPD1    H3 3205   3.525   4.084  10.475  0.4389  0.3364  1.0225
  207MPD1     N 3206   3.962   3.987  10.553  0.1531  0.2755  0.3409
  207MPD1    H5 3207   3.954   4.052  10.631 -1.1677 -0.8145  1.1181
  207MPD1    N1 3208   3.701   3.800  10.175  0.1513  0.2793 -0.2148
  207MPD1    H6 3209   3.605   3.795  10.141 -0.2781  1.4589  0.8492
  207MPD1    H7 3210   3.750   3.712  10.159  1.2470  0.8015  0.2749
  208MPD1     C 3211   3.094   3.762   1.341  0.3617 -0.0114 -0.4153
  208MPD1    C1 3212   3.057   3.678   1.445 -0.3253  0.1504 -0.6187
  208MPD1    C2 3213   3.032   3.544   1.409 -0.0563 -0.2325 -0.2772
  208MPD1    C3 3214   3.060   3.490   1.286  0.2774 -0.1356 -0.0797
  208MPD1    C4 3215   3.102   3.576   1.189  0.3896 -0.2548 -0.8037
  208MPD1    C5 3216   3.117   3.708   1.210  0.0902 -0.0792 -0.4362
  208MPD1     H 3217   2.981   3.481   1.480  1.8690  0.0523  1.3588
  208MPD1    H1 3218   3.097   3.544   1.086  2.3446  0.8759 -1.2256
  208MPD1    H2 3219   3.101   3.869   1.354  1.2786 -0.5061  3.1953
  208MPD1    H3 3220   3.145   3.783   1.137  1.1258 -0.9950 -0.9904
  208MPD1     N 3221   3.031   3.352   1.259  0.4122  0.4544 -0.1710
  208MPD1    H5 3222   2.996   3.290   1.332  1.0285  0.3295  0.0153
  208MPD1    N1 3223   3.012   3.741   1.564  0.0149 -0.4652  0.3704
  208MPD1    H6 3224   3.060   3.831   1.573 -1.2455  0.3343 -0.8034
  208MPD1    H7 3225   3.031   3.679   1.642  0.3547  1.0034  1.4555
  209MPD1     C 3226   0.436   3.671  11.625  0.2251 -0.3757  0.0288
  209MPD1    C1 3227   0.418   3.582  11.526 -0.0429  0.4217  0.3400
  209MPD1    C2 3228   0.441   3.621  11.395  0.3781  0.0570 -0.6182
  209MPD1    C3 3229   0.506   3.739  11.381 -0.2240  0.3216  0.3998
  209MPD1    C4 3230   0.535   3.828  11.483 -0.1645 -0.3812 -0.4692
  209MPD1    C5 3231   0.505   3.792  11.609  0.1211 -0.3534  0.1182
  209MPD1     H 3232   0.433   3.554  11.310 -0.7163 -0.3273 -0.2106
  209MPD1    H1 3233   0.581   3.926  11.478  1.9680 -1.5612 -4.1043
  209MPD1    H2 3234   0.398   3.635  11.721  0.3361  0.1512  0.2706
  209MPD1    H3 3235   0.536   3.842  11.700 -0.0833 -0.1883  0.0972
  209MPD1     N 3236   0.527   3.775  11.248  0.5008 -0.7883 -0.2077
  209MPD1    H5 3237   0.503   3.705  11.179 -1.0311 -0.3148 -0.1537
  209MPD1    N1 3238   0.335   3.465  11.545 -0.1425 -0.3894  0.5203
  209MPD1    H6 3239   0.357   3.416  11.631  0.5818  0.3507  0.7589
  209MPD1    H7 3240   0.372   3.401  11.475 -0.6732 -1.5358  1.2942
  210MPD1     C 3241   0.920   4.424  10.450  0.4681 -0.1779  0.4708
  210MPD1    C1 3242   0.944   4.433  10.589  0.7576  0.3470 -0.1359
  210MPD1    C2 3243   0.910   4.322  10.670 -0.5629 -0.1694  0.4483
  210MPD1    C3 3244   0.832   4.224  10.616 -0.4894  0.3597 -0.0370
  210MPD1    C4 3245   0.814   4.223  10.482 -0.0023  0.3970 -0.7319
  210MPD1    C5 3246   0.865   4.316  10.396  0.3461  0.2901  0.2047
  210MPD1     H 3247   0.929   4.335  10.776  2.4087  0.0273 -0.1181
  210MPD1    H1 3248   0.749   4.154  10.430 -0.3234 -0.4994  0.8719
  210MPD1    H2 3249   0.961   4.506  10.392 -0.7340 -0.1907 -0.3969
  210MPD1    H3 3250   0.837   4.305  10.292 -0.7801  1.9335  0.3447
  210MPD1     N 3251   0.754   4.124  10.685  0.1230 -1.0998  0.1738
  210MPD1    H5 3252   0.715   4.049  10.628 -1.4560 -0.2895  0.1821
  210MPD1    N1 3253   1.032   4.539  10.624 -0.1185 -0.3054  0.4940
  210MPD1    H6 3254   1.025   4.622  10.565 -0.3120  1.0012  2.3497
  210MPD1    H7 3255   1.025   4.569  10.721 -1.7984  1.0673 -0.0416
  211MPD1     C 3256   2.709   3.176  16.000  0.1822  0.2628  0.5909
  211MPD1    C1 3257   2.744   3.258  16.102  0.2518  0.1458  0.3484
  211MPD1    C2 3258   2.642   3.330  16.165  0.1644  0.1173  1.5020
  211MPD1    C3 3259   2.507   3.322  16.123  0.1730 -0.2018 -0.1125
  211MPD1    C4 3260   2.477   3.239  16.017 -0.8426 -0.0864 -0.1523
  211MPD1    C5 3261   2.583   3.178  15.956 -0.8576  0.2771 -0.2586
  211MPD1     H 3262   2.663   3.383  16.257 -0.4033  1.0514  1.1006
  211MPD1    H1 3263   2.376   3.216  15.985 -1.0225 -0.0682  0.3969
  211MPD1    H2 3264   2.777   3.115  15.942 -1.7938 -0.6795 -0.7617
  211MPD1    H3 3265   2.575   3.109  15.872 -0.2976 -0.7471  0.5341
  211MPD1     N 3266   2.403   3.391  16.200 -0.2455  0.1033  0.5686
  211MPD1    H5 3267   2.429   3.436  16.287  2.4482 -1.3732  0.5038
  211MPD1    N1 3268   2.878   3.257  16.139 -0.1832  0.2183  0.1446
  211MPD1    H6 3269   2.911   3.330  16.202  0.2300 -0.8032  1.1222
  211MPD1    H7 3270   2.935   3.260  16.055 -0.5208 -0.2574 -0.0971
  212MPD1     C 3271   1.601   1.058  15.942  0.3759  0.0182 -0.1229
  212MPD1    C1 3272   1.500   1.123  15.997  0.5998  0.3822 -0.9784
  212MPD1    C2 3273   1.453   1.068  16.113  1.0600  0.5807 -0.7399
  212MPD1    C3 3274   1.524   0.981  16.180 -0.2716 -0.0940  0.0441
  212MPD1    C4 3275   1.633   0.924  16.123  0.0034  0.0161  0.3738
  212MPD1    C5 3276   1.673   0.959  16.000 -0.2980 -0.1203  0.0226
  212MPD1     H 3277   1.353   1.087  16.149  2.0515 -1.7941  3.2810
  212MPD1    H1 3278   1.681   0.841  16.175 -0.5688 -0.6431 -0.1454
  212MPD1    H2 3279   1.635   1.087  15.843 -1.5444  1.0122 -0.4964
  212MPD1    H3 3280   1.752   0.903  15.951  0.1066  2.7125 -2.6107
  212MPD1     N 3281   1.485   0.929  16.305 -0.7716 -0.0382  0.1230
  212MPD1    H5 3282   1.529   0.841  16.330  0.3910  0.5097 -0.0345
  212MPD1    N1 3283   1.422   1.210  15.925  0.2403  0.1898 -0.2000
  212MPD1    H6 3284   1.474   1.273  15.864  1.5055 -0.9348 -0.2768
  212MPD1    H7 3285   1.358   1.261  15.985 -1.0229  0.4599 -1.7993
  213MPD1     C 3286   4.474   1.621  15.713 -0.2106 -0.0468 -0.3733
  213MPD1    C1 3287   4.423   1.555  15.602  0.7263  0.1002  0.6790
  213MPD1    C2 3288   4.327   1.623  15.522 -0.2913  0.0806 -0.8175
  213MPD1    C3 3289   4.304   1.755  15.532  0.4013  0.2527  0.0478
  213MPD1    C4 3290   4.366   1.821  15.639  1.2760 -0.1063 -0.0224
  213MPD1    C5 3291   4.438   1.754  15.733  0.0432 -0.2682 -0.0983
  213MPD1     H 3292   4.273   1.572  15.443 -0.8178 -1.3822  0.4827
  213MPD1    H1 3293   4.348   1.926  15.658 -1.1072 -0.5594  0.3415
  213MPD1    H2 3294   4.527   1.579  15.798 -1.2153 -0.3417  0.1035
  213MPD1    H3 3295   4.484   1.806  15.816 -0.1520 -1.8385  0.9912
  213MPD1     N 3296   4.218   1.811  15.443  0.5678  0.1882 -0.0615
  213MPD1    H5 3297   4.179   1.752  15.370 -0.2353  0.2707  0.2983
  213MPD1    N1 3298   4.416   1.414  15.606  0.5633  0.4160  0.6045
  213MPD1    H6 3299   4.399   1.375  15.513  0.7995  0.3865  0.5725
  213MPD1    H7 3300   4.505   1.384  15.646 -0.3634 -2.1365  0.7621
  214MPD1     C 3301   3.674   1.566  14.685  0.7300 -0.0554  0.4414
  214MPD1    C1 3302   3.734   1.520  14.800 -0.6691 -0.2525  0.1321
  214MPD1    C2 3303   3.782   1.605  14.898 -0.7783 -0.3835 -0.3287
  214MPD1    C3 3304   3.771   1.745  14.872  0.2184 -0.1666  0.3082
  214MPD1    C4 3305   3.720   1.789  14.752 -0.0718 -0.1186 -0.8868
  214MPD1    C5 3306   3.671   1.698  14.663 -0.1930 -0.3974  0.1488
  214MPD1     H 3307   3.840   1.555  14.974  2.2332  0.6004 -2.0040
  214MPD1    H1 3308   3.707   1.895  14.729 -0.1276 -0.7212 -3.6024
  214MPD1    H2 3309   3.642   1.497  14.609  0.9709 -0.2116  0.4806
  214MPD1    H3 3310   3.636   1.725  14.564  2.4523 -0.6390 -0.8550
  214MPD1     N 3311   3.829   1.841  14.950  0.5901 -0.3685  0.6709
  214MPD1    H5 3312   3.830   1.937  14.915  1.1592 -0.9054 -0.7835
  214MPD1    N1 3313   3.749   1.383  14.819 -0.2676 -0.1166  0.0660
  214MPD1    H6 3314   3.672   1.335  14.774 -1.6565  0.0415  2.2679
  214MPD1    H7 3315   3.746   1.362  14.919  0.9855  0.0905  0.1538
  215MPD1     C 3316   4.270   2.832  11.114 -0.1465  0.4059  0.2506
  215MPD1    C1 3317   4.327   2.899  11.218  0.8622 -0.3809  0.0714
  215MPD1    C2 3318   4.304   3.029  11.232 -0.4183  0.0902 -0.0626
  215MPD1    C3 3319   4.215   3.103  11.156  0.3093  0.3753  0.1404
  215MPD1    C4 3320   4.165   3.036  11.047 -0.0740  0.1813 -0.1847
  215MPD1    C5 3321   4.197   2.905  11.025 -0.7303  0.2430  0.8174
  215MPD1     H 3322   4.352   3.083  11.314  1.1433  1.8414 -2.1159
  215MPD1    H1 3323   4.099   3.088  10.978 -0.2216 -1.9189 -1.6433
  215MPD1    H2 3324   4.296   2.730  11.088  2.6665  1.2371 -0.2272
  215MPD1    H3 3325   4.146   2.859  10.941  1.0358 -1.1985  0.5339
  215MPD1     N 3326   4.182   3.239  11.187  0.2605 -0.4351  0.1354
  215MPD1    H5 3327   4.223   3.277  11.271 -1.1301  0.8034  0.2590
  215MPD1    N1 3328   4.437   2.850  11.294  0.0632  0.4158 -0.3726
  215MPD1    H6 3329   4.433   2.748  11.300 -1.1059  0.5923  1.9063
  215MPD1    H7 3330   4.437   2.887  11.389 -0.1052  0.9215 -0.5728
  216MPD1     C 3331   1.296   1.255   0.276 -0.6816  0.2595  0.5624
  216MPD1    C1 3332   1.410   1.263   0.363 -0.5538 -0.5197 -0.0158
  216MPD1    C2 3333   1.463   1.150   0.406 -0.1548  0.7464 -0.1440
  216MPD1    C3 3334   1.422   1.021   0.362 -0.6284 -0.3744  0.0989
  216MPD1    C4 3335   1.312   1.014   0.277 -0.0440  0.1744  1.0813
  216MPD1    C5 3336   1.249   1.135   0.240  0.8330 -0.1020 -0.2414
  216MPD1     H 3337   1.536   1.154   0.486 -1.4730 -0.0755  1.0879
  216MPD1    H1 3338   1.276   0.922   0.232  1.4044 -0.7637  1.8419
  216MPD1    H2 3339   1.235   1.338   0.242  0.8059  0.8891 -0.5832
  216MPD1    H3 3340   1.170   1.133   0.165  0.9031 -0.1826 -0.3129
  216MPD1     N 3341   1.502   0.915   0.409  0.2198  0.5888 -0.1564
  216MPD1    H5 3342   1.594   0.935   0.445  0.9133 -1.5720 -0.7040
  216MPD1    N1 3343   1.435   1.391   0.424 -0.0366 -0.3015 -0.3126
  216MPD1    H6 3344   1.426   1.466   0.356 -1.2104 -1.6746 -1.6695
  216MPD1    H7 3345   1.533   1.389   0.452  0.2092 -1.0145 -1.2463
  217MPD1     C 3346   1.710   2.935   8.328  0.2422  0.5648  0.0729
  217MPD1    C1 3347   1.818   2.866   8.367 -0.8811  0.5294  0.9706
  217MPD1    C2 3348   1.806   2.770   8.473  0.4531  0.4936  0.0553
  217MPD1    C3 3349   1.692   2.770   8.554  0.4474  0.5785  0.3858
  217MPD1    C4 3350   1.589   2.842   8.507  0.2418 -0.5554  0.1341
  217MPD1    C5 3351   1.596   2.923   8.394 -0.1028 -0.6819 -0.2783
  217MPD1     H 3352   1.893   2.712   8.501  1.2405  0.7936 -1.8268
  217MPD1    H1 3353   1.501   2.864   8.567 -0.1287 -0.6287 -0.3888
  217MPD1    H2 3354   1.717   2.997   8.239 -0.1278  0.3544 -0.1045
  217MPD1    H3 3355   1.503   2.966   8.358  0.4656  1.8963  1.3425
  217MPD1     N 3356   1.681   2.717   8.690 -0.3846  0.5589 -0.2535
  217MPD1    H5 3357   1.596   2.724   8.745  0.0521 -0.1677  0.4983
  217MPD1    N1 3358   1.930   2.848   8.287 -0.3582  0.2320 -0.3373
  217MPD1    H6 3359   1.952   2.934   8.236 -2.9310  1.4241  0.5804
  217MPD1    H7 3360   2.018   2.831   8.335  0.4617  1.5230 -1.3617
  218MPD1     C 3361   3.355   3.710  13.462 -0.4385 -0.4490 -0.1627
  218MPD1    C1 3362   3.452   3.796  13.418 -0.5549 -0.2023 -0.2649
  218MPD1    C2 3363   3.550   3.742  13.331  0.7772 -0.3080  0.3370
  218MPD1    C3 3364   3.561   3.607  13.299 -0.7305  0.1580  0.0999
  218MPD1    C4 3365   3.467   3.525  13.358  0.0365 -0.1454  0.6963
  218MPD1    C5 3366   3.365   3.579  13.430  0.2956  0.2984  0.7316
  218MPD1     H 3367   3.624   3.812  13.293 -2.3569  1.9754 -1.6436
  218MPD1    H1 3368   3.464   3.421  13.327  0.1680 -0.4303  1.6537
  218MPD1    H2 3369   3.279   3.752  13.527 -0.5434  0.1379 -0.6697
  218MPD1    H3 3370   3.281   3.517  13.459  0.2451  0.1367  0.2224
  218MPD1     N 3371   3.656   3.568  13.199 -0.3486  0.9506 -0.5405
  218MPD1    H5 3372   3.713   3.642  13.159  1.3395 -0.2521 -0.3344
  218MPD1    N1 3373   3.441   3.934  13.437 -0.3436  0.1551 -0.0994
  218MPD1    H6 3374   3.391   3.959  13.522 -2.5351 -0.4182 -1.2150
  218MPD1    H7 3375   3.530   3.982  13.438  1.0284 -2.3865  0.2245
  219MPD1     C 3376   3.824   3.736  12.264 -0.0493 -0.7544  0.2482
  219MPD1    C1 3377   3.818   3.805  12.382 -0.0263  0.5083  1.0738
  219MPD1    C2 3378   3.829   3.730  12.499 -0.6071 -0.4156  0.4280
  219MPD1    C3 3379   3.848   3.594  12.504  0.3226  0.7102  0.2661
  219MPD1    C4 3380   3.858   3.530  12.384 -1.2116 -0.5518 -0.6184
  219MPD1    C5 3381   3.846   3.599  12.264  0.8536  0.0035 -0.3046
  219MPD1     H 3382   3.812   3.795  12.584  0.4045 -0.6519  0.8158
  219MPD1    H1 3383   3.870   3.422  12.389 -1.0813 -0.6205 -2.4126
  219MPD1    H2 3384   3.809   3.778  12.165  1.7731  1.8338  1.0563
  219MPD1    H3 3385   3.836   3.544  12.171 -0.3390 -0.1249 -0.0960
  219MPD1     N 3386   3.872   3.523  12.627 -0.2044 -0.8445 -0.0727
  219MPD1    H5 3387   3.872   3.422  12.618  1.8036 -1.0321  1.9748
  219MPD1    N1 3388   3.772   3.935  12.393  0.0786  0.5682  0.4816
  219MPD1    H6 3389   3.813   3.976  12.477 -1.0575 -0.0234  1.3121
  219MPD1    H7 3390   3.801   3.986  12.310 -3.4252  0.4500 -0.7835
  220MPD1     C 3391   3.937   3.206  10.137 -0.2641 -0.1723 -0.5941
  220MPD1    C1 3392   3.919   3.232  10.273 -0.6132  0.6823  0.5330
  220MPD1    C2 3393   3.813   3.309  10.309  0.8918 -0.5912  0.4974
  220MPD1    C3 3394   3.728   3.363  10.218 -0.3949 -0.4873 -0.3162
  220MPD1    C4 3395   3.744   3.330  10.086  0.5386  0.7293 -0.5541
  220MPD1    C5 3396   3.856   3.263  10.044  0.0172 -0.3741 -0.4262
  220MPD1     H 3397   3.807   3.335  10.414 -1.5219  1.0699 -0.0620
  220MPD1    H1 3398   3.679   3.361  10.006  0.0585 -2.6285 -1.4407
  220MPD1    H2 3399   4.024   3.149  10.107  2.5063  2.2538  2.8445
  220MPD1    H3 3400   3.867   3.244   9.938 -0.8830  0.2808 -0.6374
  220MPD1     N 3401   3.624   3.437  10.276  0.4840  0.2395  0.8781
  220MPD1    H5 3402   3.628   3.450  10.377 -1.4653 -1.8148  1.2160
  220MPD1    N1 3403   4.012   3.174  10.364 -0.0867  0.2638 -0.2405
  220MPD1    H6 3404   4.059   3.244  10.421  3.0423 -0.6892 -1.6180
  220MPD1    H7 3405   4.085   3.134  10.306  0.3958  0.0028  0.5408
  221MPD1     C 3406   2.416   3.028  16.350 -0.5375  0.3315 -0.7722
  221MPD1    C1 3407   2.282   3.007  16.346 -0.4477  0.1816 -0.2321
  221MPD1    C2 3408   2.228   2.893  16.420  0.2512  0.4181 -0.2559
  221MPD1    C3 3409   2.315   2.804  16.483 -0.3268 -0.3365  0.2779
  221MPD1    C4 3410   2.448   2.830  16.479  0.2608  1.2109 -0.9059
  221MPD1    C5 3411   2.499   2.929  16.403 -0.0185 -0.2351  0.1004
  221MPD1     H 3412   2.120   2.886  16.427  0.1828  0.7084 -0.9872
  221MPD1    H1 3413   2.517   2.758  16.522 -0.4121  0.3875 -1.2067
  221MPD1    H2 3414   2.457   3.115  16.299  0.1801  1.4116  1.6523
  221MPD1    H3 3415   2.607   2.934  16.392 -0.2144  1.1358 -1.1373
  221MPD1     N 3416   2.277   2.697  16.564 -0.4487  0.2882  0.6667
  221MPD1    H5 3417   2.364   2.656  16.597  0.3571  2.0823  0.7825
  221MPD1    N1 3418   2.197   3.096  16.276  0.0057  0.1973  0.1140
  221MPD1    H6 3419   2.244   3.138  16.196  0.2351 -0.3664 -0.0457
  221MPD1    H7 3420   2.113   3.052  16.238 -0.2864 -0.0533  1.0501
  222MPD1     C 3421   0.765   0.810  17.439 -0.7988  0.4132 -0.1060
  222MPD1    C1 3422   0.828   0.927  17.407  0.0568  0.5627  0.0530
  222MPD1    C2 3423   0.838   1.027  17.499 -0.3150  0.2868  1.0611
  222MPD1    C3 3424   0.800   1.008  17.630 -0.1904 -0.5740  0.1537
  222MPD1    C4 3425   0.733   0.888  17.660 -0.1920  0.0771  0.5376
  222MPD1    C5 3426   0.716   0.792  17.564 -0.1549  0.3648  1.2038
  222MPD1     H 3427   0.902   1.113  17.480 -0.3101 -0.4447 -2.3103
  222MPD1    H1 3428   0.680   0.871   0.014 -0.8920  1.7447  0.4475
  222MPD1    H2 3429   0.755   0.727  17.370  0.6679 -0.7574  1.0736
  222MPD1    H3 3430   0.665   0.702  17.598 -0.2853 -0.4017 -1.0110
  222MPD1     N 3431   0.816   1.104  17.732 -0.2375  0.1227  0.2611
  222MPD1    H5 3432   0.774   1.083   0.084 -0.0611 -0.0974  0.2924
  222MPD1    N1 3433   0.859   0.953  17.271  0.1134  0.2297 -0.3459
  222MPD1    H6 3434   0.931   1.024  17.268  0.1235  0.3733  3.4702
  222MPD1    H7 3435   0.900   0.866  17.238  0.7235  0.5678 -0.4722
  223MPD1     C 3436   0.218   1.341   0.683  0.1108 -0.6936 -0.2476
  223MPD1    C1 3437   0.343   1.354   0.745  0.1622  0.8391 -0.1799
  223MPD1    C2 3438   0.457   1.356   0.661  1.0541  0.1734  0.2444
  223MPD1    C3 3439   0.451   1.346   0.525 -0.2839 -0.2194  0.1297
  223MPD1    C4 3440   0.327   1.339   0.467 -0.3611 -0.8773 -0.2023
  223MPD1    C5 3441   0.216   1.338   0.550  0.2881  0.4316  0.0430
  223MPD1     H 3442   0.555   1.358   0.707 -0.0325  0.3314  2.5521
  223MPD1    H1 3443   0.299   1.347   0.363  1.3380  0.5052 -0.5388
  223MPD1    H2 3444   0.133   1.343   0.751  1.8546  1.1836  1.8899
  223MPD1    H3 3445   0.126   1.347   0.491 -0.5241 -1.5116  1.0160
  223MPD1     N 3446   0.575   1.337   0.453 -0.6089 -0.8157 -0.3115
  223MPD1    H5 3447   0.660   1.326   0.507 -0.1971  3.4285 -0.1165
  223MPD1    N1 3448   0.358   1.356   0.883 -0.4080  0.1729  0.7160
  223MPD1    H6 3449   0.456   1.368   0.909 -0.0322 -1.7181  0.1959
  223MPD1    H7 3450   0.292   1.413   0.936 -0.9205 -0.6581  0.9585
  224MPD1     C 3451   1.778   3.056   8.732 -0.7364  0.5675 -0.0707
  224MPD1    C1 3452   1.915   3.069   8.749 -0.0252 -0.4613  0.6577
  224MPD1    C2 3453   1.966   3.068   8.876  0.3994  1.0924 -0.7944
  224MPD1    C3 3454   1.880   3.068   8.981 -0.2485 -0.0626 -0.7703
  224MPD1    C4 3455   1.741   3.061   8.964  0.2264 -0.4892  0.2115
  224MPD1    C5 3456   1.692   3.038   8.838 -0.3414 -0.2902  0.1815
  224MPD1     H 3457   2.074   3.071   8.890  0.0558  0.6735  1.9260
  224MPD1    H1 3458   1.666   3.057   9.042  0.9433 -1.7683  0.8427
  224MPD1    H2 3459   1.730   3.063   8.635 -2.9070 -2.3158  0.7935
  224MPD1    H3 3460   1.588   3.032   8.808  0.4176 -5.4918 -1.4290
  224MPD1     N 3461   1.933   3.072   9.110 -0.4302  0.0803 -0.5046
  224MPD1    H5 3462   1.863   3.078   9.184 -0.0155  2.4223 -0.2879
  224MPD1    N1 3463   1.997   3.032   8.643  0.1228 -0.1936  0.0927
  224MPD1    H6 3464   2.085   3.084   8.643  1.1139 -1.8953 -1.8035
  224MPD1    H7 3465   1.959   3.038   8.549  1.2291  1.3500 -0.2637
  225MPD1     C 3466   3.747   4.406  12.831  0.0611  0.2204  0.3649
  225MPD1    C1 3467   3.748   4.305  12.738  0.0907  0.0764 -1.0432
  225MPD1    C2 3468   3.630   4.285  12.669  0.3547  0.0463  0.3864
  225MPD1    C3 3469   3.512   4.343  12.703 -0.0399 -0.1008  0.1027
  225MPD1    C4 3470   3.525   4.458  12.774 -0.3168 -0.0318 -1.0371
  225MPD1    C5 3471   3.638   4.486  12.841 -0.1003 -0.3499 -0.2352
  225MPD1     H 3472   3.631   4.207  12.594 -0.2058 -1.5389  1.9948
  225MPD1    H1 3473   3.443   4.527  12.790 -1.5329 -1.3641 -1.5649
  225MPD1    H2 3474   3.833   4.432  12.891  1.3756 -0.2048 -1.3253
  225MPD1    H3 3475   3.639   4.573  12.905 -0.8036 -1.4092  1.2209
  225MPD1     N 3476   3.381   4.311  12.649  0.6426  0.1596 -0.0103
  225MPD1    H5 3477   3.309   4.379  12.670 -0.8419 -1.2939 -0.3792
  225MPD1    N1 3478   3.872   4.245  12.703  0.2771  0.1324  0.0359
  225MPD1    H6 3479   3.941   4.243  12.777  0.2074 -2.8361  0.0159
  225MPD1    H7 3480   3.869   4.160  12.645 -1.9704  0.5773 -0.5088
  226MPD1     C 3481   1.253   0.648   9.847 -0.6877  0.0686 -0.0666
  226MPD1    C1 3482   1.287   0.630   9.976  0.1908  0.5272 -0.2770
  226MPD1    C2 3483   1.347   0.510  10.013  1.0948  0.3252 -0.2681
  226MPD1    C3 3484   1.380   0.415   9.922  0.4885 -0.1711  0.6330
  226MPD1    C4 3485   1.341   0.437   9.790  0.3047  0.5113  0.0607
  226MPD1    C5 3486   1.278   0.551   9.753  0.2296  0.4306 -0.2196
  226MPD1     H 3487   1.397   0.508  10.109 -0.3967 -1.6689  0.4710
  226MPD1    H1 3488   1.366   0.355   9.723 -0.5651  2.1187 -2.2372
  226MPD1    H2 3489   1.207   0.738   9.809  0.6164  0.9027  0.3150
  226MPD1    H3 3490   1.260   0.567   9.647  1.5229 -0.6941 -0.6001
  226MPD1     N 3491   1.463   0.308   9.964 -0.1791 -0.1279 -0.3429
  226MPD1    H5 3492   1.511   0.302  10.053 -1.1579 -0.0923  0.1822
  226MPD1    N1 3493   1.258   0.726  10.076 -0.3181  0.1367 -0.4236
  226MPD1    H6 3494   1.338   0.746  10.137  0.1978 -0.8816 -0.7718
  226MPD1    H7 3495   1.219   0.814  10.042 -0.6948  0.6161  1.2132
  227MPD1     C 3496   2.292   0.217  10.463 -0.4150  0.2890  0.7631
  227MPD1    C1 3497   2.296   0.095  10.407  0.3572 -0.1224 -0.2893
  227MPD1    C2 3498   2.202   0.069  10.318  0.3174 -0.3501 -0.3608
  227MPD1    C3 3499   2.108   0.159  10.268 -0.2851 -1.0175 -0.0547
  227MPD1    C4 3500   2.111   0.286  10.315 -0.4270  0.9757  0.3248
  227MPD1    C5 3501   2.196   0.315  10.421  0.7846  0.6365  0.1210
  227MPD1     H 3502   2.195   4.705  10.274  0.0583 -0.1403 -0.7959
  227MPD1    H1 3503   2.050   0.367  10.275 -1.4656 -0.3319 -0.7036
  227MPD1    H2 3504   2.350   0.233  10.552  0.9080  1.5870 -0.3322
  227MPD1    H3 3505   2.197   0.411  10.469  0.5282 -0.1291  1.6512
  227MPD1     N 3506   2.011   0.114  10.179 -0.0281 -0.0386 -0.3151
  227MPD1    H5 3507   2.024   0.016  10.155  3.1168 -0.3010  2.4965
  227MPD1    N1 3508   2.377   4.726  10.459 -0.5615  0.7729 -0.1537
  227MPD1    H6 3509   2.466   0.026  10.494  0.8510 -0.9920 -1.9812
  227MPD1    H7 3510   2.385   4.654  10.387  0.1768 -1.1470  1.8551
  228MPD1     C 3511   0.876   1.571  12.404  0.1752  0.1882  0.0218
  228MPD1    C1 3512   0.754   1.611  12.352 -0.0677  0.8538 -0.1671
  228MPD1    C2 3513   0.640   1.546  12.396  0.2713  0.2852 -0.6563
  228MPD1    C3 3514   0.642   1.451  12.500 -0.4530  0.6732  0.0209
  228MPD1    C4 3515   0.763   1.399  12.534  0.1449  0.4944 -0.1802
  228MPD1    C5 3516   0.877   1.474  12.501 -0.1027 -0.3033 -0.3379
  228MPD1     H 3517   0.545   1.561  12.346 -1.4691  0.6843  2.7306
  228MPD1    H1 3518   0.777   1.316  12.601  0.7279  0.5759 -0.2013
  228MPD1    H2 3519   0.967   1.616  12.365  0.8928  0.8792  2.5052
  228MPD1    H3 3520   0.972   1.441  12.540 -0.2906 -0.6212 -0.1475
  228MPD1     N 3521   0.514   1.416  12.558  0.3114  0.0161 -0.1955
  228MPD1    H5 3522   0.440   1.483  12.540 -0.7669 -1.4351 -1.2659
  228MPD1    N1 3523   0.751   1.687  12.231 -0.6909  0.1689  0.2783
  228MPD1    H6 3524   0.800   1.776  12.227 -1.1522  0.3379 -1.5323
  228MPD1    H7 3525   0.658   1.718  12.203 -0.5638  0.3433  0.0593
  229MPD1     C 3526   0.572   0.957  15.709  0.2410 -0.3708  0.2551
  229MPD1    C1 3527   0.584   0.939  15.573 -0.1563 -0.0747  0.1630
  229MPD1    C2 3528   0.611   0.813  15.523  0.3060 -0.5033 -0.4944
  229MPD1    C3 3529   0.635   0.708  15.612  0.4781  0.4033 -0.7342
  229MPD1    C4 3530   0.615   0.727  15.748  0.2269  0.3663  0.4535
  229MPD1    C5 3531   0.581   0.852  15.796  0.3566  0.4320  0.1568
  229MPD1     H 3532   0.624   0.801  15.416 -1.8054 -3.0634 -0.4713
  229MPD1    H1 3533   0.637   0.643  15.812  2.5380  0.3245 -0.4061
  229MPD1    H2 3534   0.559   1.053  15.757 -1.3865 -1.3875  1.8724
  229MPD1    H3 3535   0.582   0.870  15.903 -2.1325 -2.9324  0.7341
  229MPD1     N 3536   0.676   0.584  15.574 -0.7214 -0.3657  0.0648
  229MPD1    H5 3537   0.711   0.524  15.647  1.0441  0.2026 -0.3176
  229MPD1    N1 3538   0.570   1.041  15.480 -0.3034  0.3744 -0.5132
  229MPD1    H6 3539   0.589   1.132  15.522  1.0163  0.1860 -0.7232
  229MPD1    H7 3540   0.642   1.026  15.410 -1.0800  0.1094 -1.2504
  230MPD1     C 3541   0.764   4.649  16.146 -0.6050 -0.0231  0.2644
  230MPD1    C1 3542   0.819   4.576  16.047 -0.0419  0.6759  0.4917
  230MPD1    C2 3543   0.860   4.640  15.934  0.9663  0.3395  0.1129
  230MPD1    C3 3544   0.837   0.041  15.919  0.6348  0.4011  0.8703
  230MPD1    C4 3545   0.764   0.112  16.007  0.2949 -0.7172 -0.4274
  230MPD1    C5 3546   0.730   0.046  16.120 -0.0891 -0.3060 -0.1673
  230MPD1     H 3547   0.909   4.581  15.857  1.7822  2.5595 -1.0751
  230MPD1    H1 3548   0.736   0.217  16.002 -1.1878 -1.0466  0.7467
  230MPD1    H2 3549   0.731   4.606  16.240 -0.3133  0.9230  0.7991
  230MPD1    H3 3550   0.684   0.106  16.198  0.9436 -0.9412  0.9286
  230MPD1     N 3551   0.866   0.099  15.789 -0.3583  0.5788 -0.3071
  230MPD1    H5 3552   0.925   0.040  15.732 -1.1268  0.7764 -1.3184
  230MPD1    N1 3553   0.861   4.440  16.070 -0.4300 -0.4244  0.0410
  230MPD1    H6 3554   0.796   4.391  16.132 -1.8570 -1.3832 -2.2181
  230MPD1    H7 3555   0.870   4.388  15.983  0.3012  0.0725 -0.1747
  231MPD1     C 3556   3.320   2.286  15.389 -0.4777  0.0984 -0.0580
  231MPD1    C1 3557   3.312   2.308  15.252  0.5948  0.2442 -0.4675
  231MPD1    C2 3558   3.430   2.338  15.184 -0.2174 -0.0023  0.1210
  231MPD1    C3 3559   3.556   2.356  15.255  0.2779  0.0633  0.4657
  231MPD1    C4 3560   3.561   2.338  15.386  0.3004 -0.5158 -0.7626
  231MPD1    C5 3561   3.444   2.304  15.448 -0.6166  0.1465  0.2969
  231MPD1     H 3562   3.424   2.350  15.076  4.4062  0.4861 -0.0903
  231MPD1    H1 3563   3.648   2.362  15.447 -2.7209 -0.4267  3.5381
  231MPD1    H2 3564   3.235   2.264  15.451  0.1485 -1.8299  0.1332
  231MPD1    H3 3565   3.442   2.295  15.556  1.1655 -0.9230  0.2584
  231MPD1     N 3566   3.660   2.391  15.168  0.5821 -0.2450 -0.3048
  231MPD1    H5 3567   3.630   2.412  15.073  0.4939  2.3817  0.2920
  231MPD1    N1 3568   3.192   2.284  15.192 -0.4457  0.7100  0.7450
  231MPD1    H6 3569   3.188   2.357  15.121 -1.5851 -0.4343 -0.3798
  231MPD1    H7 3570   3.120   2.293  15.263 -0.1266 -0.1945  1.1655
  232MPD1     C 3571   0.944   0.133   0.525 -0.1760 -0.7280 -0.5083
  232MPD1    C1 3572   0.854   0.165   0.429 -0.0990  0.5152  0.0784
  232MPD1    C2 3573   0.786   0.066   0.361 -0.7363 -0.7382 -0.1918
  232MPD1    C3 3574   0.788   4.666   0.399  0.6094 -0.6246 -0.0149
  232MPD1    C4 3575   0.867   4.640   0.513 -0.1842  0.0813 -0.9882
  232MPD1    C5 3576   0.950   4.734   0.568  0.8075  0.9633  0.5179
  232MPD1     H 3577   0.719   0.097   0.282  0.6417  1.1433 -0.6328
  232MPD1    H1 3578   0.867   4.545   0.565 -2.3006  0.1616 -0.8520
  232MPD1    H2 3579   1.008   0.205   0.574 -0.9124 -0.6060  0.2772
  232MPD1    H3 3580   1.011   4.704   0.652  1.5190 -0.5016 -0.5222
  232MPD1     N 3581   0.718   4.568   0.321 -0.5740 -0.3966 -0.0372
  232MPD1    H5 3582   0.655   4.601   0.249 -0.6325  0.7755  0.5458
  232MPD1    N1 3583   0.869   0.294   0.381 -0.0214  0.7136 -0.3273
  232MPD1    H6 3584   0.784   0.331   0.340 -1.1629  0.6256  1.9356
  232MPD1    H7 3585   0.885   0.361   0.456  1.9148 -0.3022  0.1666
  233MPD1     C 3586   0.571   3.629   0.927 -0.2979  0.4227 -0.4279
  233MPD1    C1 3587   0.597   3.650   1.061  0.2435 -0.8027  0.3048
  233MPD1    C2 3588   0.724   3.617   1.097 -0.0320 -0.3267  0.1280
  233MPD1    C3 3589   0.811   3.539   1.014  0.5798  0.1264  0.3595
  233MPD1    C4 3590   0.779   3.527   0.880 -0.0001 -0.7665  0.6444
  233MPD1    C5 3591   0.655   3.568   0.839  0.1006  0.5256  0.2974
  233MPD1     H 3592   0.751   3.633   1.201 -0.9664  0.2744  0.2858
  233MPD1    H1 3593   0.841   3.477   0.806  1.2211 -2.3844  2.7615
  233MPD1    H2 3594   0.472   3.654   0.893 -0.5396  0.8404  0.5709
  233MPD1    H3 3595   0.613   3.569   0.739 -1.2899 -0.7795  0.8654
  233MPD1     N 3596   0.933   3.480   1.057 -0.1385 -0.4001 -0.2876
  233MPD1    H5 3597   0.974   3.404   1.004  2.4908  1.5367 -1.0345
  233MPD1    N1 3598   0.513   3.736   1.138 -0.2245 -0.3311 -0.3020
  233MPD1    H6 3599   0.521   3.728   1.239 -2.6945 -0.8307 -0.1317
  233MPD1    H7 3600   0.414   3.722   1.116 -0.5944  2.0695 -0.1815
  234MPD1     C 3601   2.637   1.373   9.815  0.4780 -0.3716  0.1231
  234MPD1    C1 3602   2.553   1.398   9.705 -0.3742  0.1168 -0.3726
  234MPD1    C2 3603   2.526   1.526   9.655  0.8181  0.5848 -0.3396
  234MPD1    C3 3604   2.597   1.635   9.713  0.5257 -0.3161 -0.6484
  234MPD1    C4 3605   2.689   1.609   9.815 -0.7764  0.0670 -1.1915
  234MPD1    C5 3606   2.706   1.477   9.863  0.6701 -0.6742  0.2436
  234MPD1     H 3607   2.451   1.537   9.578 -2.7231 -0.4594  2.9773
  234MPD1    H1 3608   2.761   1.679   9.856 -1.7600  0.3092  0.1530
  234MPD1    H2 3609   2.652   1.277   9.864 -2.7449 -1.3694 -0.8285
  234MPD1    H3 3610   2.782   1.459   9.938  0.1254  1.3599  1.2955
  234MPD1     N 3611   2.577   1.765   9.663 -0.5170  0.4201 -0.7353
  234MPD1    H5 3612   2.498   1.780   9.601 -0.9280  0.8476 -0.1034
  234MPD1    N1 3613   2.477   1.286   9.663 -0.2868  0.1061  1.0989
  234MPD1    H6 3614   2.512   1.194   9.688  0.9251  0.3048  0.1824
  234MPD1    H7 3615   2.439   1.281   9.568  1.8060  0.8471  0.2142
  235MPD1     C 3616   4.026   4.064  10.965  0.2032  0.1312  0.2681
  235MPD1    C1 3617   3.915   4.132  10.917 -0.0624  0.0295  0.3130
  235MPD1    C2 3618   3.928   4.272  10.917  0.3356 -0.5042  0.4166
  235MPD1    C3 3619   4.046   4.339  10.956 -0.2873 -0.0902  0.0172
  235MPD1    C4 3620   4.148   4.259  11.013  0.0060  1.0932  0.0272
  235MPD1    C5 3621   4.138   4.127  11.019  0.8400 -0.2471  0.3015
  235MPD1     H 3622   3.843   4.329  10.881  1.4963 -0.7490 -2.7121
  235MPD1    H1 3623   4.237   4.296  11.062  1.5328 -2.3366 -0.1498
  235MPD1    H2 3624   4.026   3.956  10.953 -2.3685  0.1463  0.2755
  235MPD1    H3 3625   4.226   4.070  11.048  0.6744  0.9757  3.1780
  235MPD1     N 3626   4.051   4.477  10.936 -0.0006 -0.0247 -0.3877
  235MPD1    H5 3627   3.972   4.519  10.887  1.1409 -0.3580 -2.5314
  235MPD1    N1 3628   3.811   4.064  10.858  0.5732 -0.0976 -0.0534
  235MPD1    H6 3629   3.801   3.967  10.889 -1.2233  0.6563  1.6872
  235MPD1    H7 3630   3.721   4.110  10.848  1.2275  0.5375 -3.0246
  236MPD1     C 3631   3.007   1.947   9.905  0.0447 -0.1268 -0.5352
  236MPD1    C1 3632   3.041   1.867   9.798  0.3543  0.1266  0.3594
  236MPD1    C2 3633   3.061   1.728   9.816 -0.2023  0.4767 -0.0155
  236MPD1    C3 3634   3.045   1.681   9.943  0.9848  0.4200 -0.2353
  236MPD1    C4 3635   3.013   1.763  10.049 -0.1823  0.3067  0.1282
  236MPD1    C5 3636   2.996   1.895  10.033 -0.3461  0.4356 -0.2496
  236MPD1     H 3637   3.075   1.668   9.727  1.5353 -0.9101  1.2037
  236MPD1    H1 3638   3.004   1.714  10.146 -0.2326  0.7470  0.3473
  236MPD1    H2 3639   2.999   2.055   9.893  0.5446  0.0021  0.3030
  236MPD1    H3 3640   2.977   1.965  10.114  1.7914  1.2691 -0.4716
  236MPD1     N 3641   3.060   1.551   9.984 -0.1274 -0.6156 -0.3056
  236MPD1    H5 3642   3.064   1.543  10.085  2.0415 -1.9202 -0.5122
  236MPD1    N1 3643   3.083   1.918   9.675 -0.4218 -0.1765 -0.0670
  236MPD1    H6 3644   3.027   1.998   9.645 -1.1459 -1.0779 -1.1169
  236MPD1    H7 3645   3.073   1.850   9.600  2.1340  0.8422 -1.3162
  237MPD1     C 3646   4.060   3.505  15.110  0.1374  0.6016  0.6817
  237MPD1    C1 3647   4.056   3.485  15.244  0.3120  0.0229 -0.7112
  237MPD1    C2 3648   3.935   3.466  15.302  0.0253 -0.1314 -0.2959
  237MPD1    C3 3649   3.819   3.446  15.222 -0.8809  0.4141  0.0204
  237MPD1    C4 3650   3.828   3.461  15.089  0.0826 -0.0245 -0.5556
  237MPD1    C5 3651   3.948   3.493  15.031 -0.1532 -0.3245 -0.2155
  237MPD1     H 3652   3.933   3.468  15.410 -1.5469 -1.3988 -0.3087
  237MPD1    H1 3653   3.737   3.462  15.030 -0.2876  0.1127  0.0221
  237MPD1    H2 3654   4.151   3.534  15.059 -0.3189 -2.2584 -1.7873
  237MPD1    H3 3655   3.945   3.513  14.925 -1.4517  0.6147 -0.0049
  237MPD1     N 3656   3.693   3.414  15.276  0.1786 -0.7931  0.1854
  237MPD1    H5 3657   3.618   3.404  15.208  0.5909  0.3153 -0.4402
  237MPD1    N1 3658   4.171   3.515  15.313 -0.4101 -0.2313 -0.0875
  237MPD1    H6 3659   4.168   3.488  15.411 -0.4243  1.1128  0.2853
  237MPD1    H7 3660   4.260   3.478  15.280  0.8326  1.5857  1.2140
  238MPD1     C 3661   1.108   2.414  14.490  0.2453  0.2763 -0.2692
  238MPD1    C1 3662   1.039   2.357  14.598  0.1874 -0.1454  0.4902
  238MPD1    C2 3663   0.920   2.289  14.572 -0.0076 -0.1654  0.3741
  238MPD1    C3 3664   0.870   2.278  14.444 -0.0980 -0.4996 -0.4112
  238MPD1    C4 3665   0.936   2.344  14.347  0.2267 -0.0315 -0.2347
  238MPD1    C5 3666   1.055   2.404  14.368  0.2605 -0.1970 -0.0331
  238MPD1     H 3667   0.867   2.232  14.647  0.5469 -0.9516  0.1693
  238MPD1    H1 3668   0.895   2.327  14.248  0.2624 -0.9139 -0.0920
  238MPD1    H2 3669   1.209   2.453  14.494  0.1625  0.4349  0.2957
  238MPD1    H3 3670   1.110   2.457  14.291 -1.2906 -0.3764 -1.2566
  238MPD1     N 3671   0.746   2.218  14.411  1.0618  0.1403 -0.0887
  238MPD1    H5 3672   0.735   2.223  14.310  1.2774  0.1209 -0.1141
  238MPD1    N1 3673   1.105   2.334  14.716 -0.6556  0.7109  0.1404
  238MPD1    H6 3674   1.042   2.321  14.795  1.5554 -0.9814  1.6284
  238MPD1    H7 3675   1.178   2.399  14.745  0.1060  0.4458 -1.2116
  239MPD1     C 3676   1.025   2.625  14.856  0.0368  0.1738  0.0362
  239MPD1    C1 3677   1.130   2.678  14.781 -0.6034 -0.2317  0.0924
  239MPD1    C2 3678   1.092   2.775  14.690  0.2185 -0.3762 -0.0857
  239MPD1    C3 3679   0.962   2.787  14.648 -0.6920  0.3093 -0.1439
  239MPD1    C4 3680   0.864   2.720  14.714 -0.3914  0.4375  0.9060
  239MPD1    C5 3681   0.892   2.651  14.824 -0.7140 -0.1169  0.0502
  239MPD1     H 3682   1.179   2.820  14.644  0.5833 -1.3333 -0.3441
  239MPD1    H1 3683   0.765   2.748  14.678 -1.0384 -1.4455  1.2552
  239MPD1    H2 3684   1.044   2.573  14.949  0.4399  0.9026  0.3609
  239MPD1    H3 3685   0.814   2.594  14.873 -0.2634 -0.9297 -0.1847
  239MPD1     N 3686   0.920   2.873  14.540  0.0436  0.0687 -0.4460
  239MPD1    H5 3687   0.821   2.893  14.536  0.0331  0.3775  1.5786
  239MPD1    N1 3688   1.262   2.670  14.826 -0.6941 -0.6094  0.2261
  239MPD1    H6 3689   1.290   2.579  14.861 -0.2596 -0.9980 -1.0978
  239MPD1    H7 3690   1.327   2.690  14.750  1.1595  0.3924  2.0836
  240MPD1     C 3691   0.205   2.673  14.008 -0.8566  0.1882  0.2140
  240MPD1    C1 3692   0.160   2.733  14.122  0.1577 -0.2130 -0.1537
  240MPD1    C2 3693   0.171   2.662  14.243  0.8062  0.1801 -0.4084
  240MPD1    C3 3694   0.225   2.535  14.255  0.5116 -0.4120 -0.2152
  240MPD1    C4 3695   0.272   2.479  14.136  0.4075 -0.6551 -0.5438
  240MPD1    C5 3696   0.249   2.544  14.014  0.2437  0.0790  0.2121
  240MPD1     H 3697   0.133   2.700  14.336 -0.4772 -0.4733 -0.6699
  240MPD1    H1 3698   0.317   2.381  14.127  0.3690 -0.8501  1.3707
  240MPD1    H2 3699   0.205   2.721  13.911 -0.9074 -0.4070 -0.0801
  240MPD1    H3 3700   0.281   2.497  13.922  0.9438  1.0834 -0.0497
  240MPD1     N 3701   0.233   2.467  14.380 -0.2850  0.3029  0.2341
  240MPD1    H5 3702   0.198   2.523  14.457 -1.5306  0.8613 -0.7493
  240MPD1    N1 3703   0.107   2.862  14.118  1.0299 -0.0943 -0.5377
  240MPD1    H6 3704   0.068   2.880  14.026  0.6115 -1.5884 -0.6473
  240MPD1    H7 3705   0.026   2.869  14.179 -0.7405  0.7649 -2.9724
  241MPD1     C 3706   0.249   2.717  15.337 -0.1308  0.1913  0.0677
  241MPD1    C1 3707   0.323   2.747  15.221  0.0838 -0.7770  0.3263
  241MPD1    C2 3708   0.310   2.665  15.109 -0.1957  0.3515  0.0965
  241MPD1    C3 3709   0.233   2.548  15.102  0.4960 -0.1181 -0.6203
  241MPD1    C4 3710   0.161   2.521  15.215  0.7154 -0.0376  0.0819
  241MPD1    C5 3711   0.160   2.613  15.323 -0.5057 -0.0958 -0.2460
  241MPD1     H 3712   0.371   2.696  15.025 -0.5077  0.1027 -0.2198
  241MPD1    H1 3713   0.099   2.433  15.223  2.2528 -1.1522 -0.4565
  241MPD1    H2 3714   0.241   2.777  15.427 -1.6759 -2.4295  1.6831
  241MPD1    H3 3715   0.097   2.584  15.406  0.7652  0.0627  0.7737
  241MPD1     N 3716   0.220   2.458  14.989  0.1142 -0.2696 -0.5191
  241MPD1    H5 3717   0.161   2.376  14.999 -1.3446  0.5292 -2.5971
  241MPD1    N1 3718   0.415   2.859  15.216  0.3491 -0.1510 -0.2733
  241MPD1    H6 3719   0.401   2.933  15.284  1.6972 -0.4771  0.3626
  241MPD1    H7 3720   0.402   2.906  15.127 -1.0621 -1.1166 -0.5844
  242MPD1     C 3721   0.160   1.809  15.509  0.1850 -0.5997 -0.7065
  242MPD1    C1 3722   0.286   1.771  15.464 -0.4896  0.2628  0.3559
  242MPD1    C2 3723   0.307   1.640  15.417 -0.4762 -0.3629  0.1499
  242MPD1    C3 3724   0.204   1.560  15.387 -0.2983 -0.4350 -0.5067
  242MPD1    C4 3725   0.076   1.601  15.408  0.3451  0.1544 -0.5097
  242MPD1    C5 3726   0.051   1.726  15.468  0.1858 -0.4159  0.3002
  242MPD1     H 3727   0.409   1.603  15.413 -0.5288 -0.6296  1.1778
  242MPD1    H1 3728   4.728   1.541  15.373  1.7616 -2.3988  0.5338
  242MPD1    H2 3729   0.143   1.902  15.561 -1.2524 -1.4210  0.3034
  242MPD1    H3 3730   4.681   1.752  15.475  0.1180 -0.5901 -0.0671
  242MPD1     N 3731   0.220   1.437  15.327  0.5326 -0.1784 -0.4932
  242MPD1    H5 3732   0.145   1.369  15.338 -0.2785  1.1346  1.9886
  242MPD1    N1 3733   0.390   1.856  15.496  1.0639  0.7559 -0.2798
  242MPD1    H6 3734   0.465   1.844  15.428  2.0150  3.2147  0.3388
  242MPD1    H7 3735   0.360   1.953  15.488  1.1055  0.8343  0.5082
  243MPD1     C 3736   1.444   4.390   0.191 -0.5726 -0.5076 -0.0100
  243MPD1    C1 3737   1.423   4.357   0.061  0.6368 -0.1709 -0.1588
  243MPD1    C2 3738   1.511   4.270   0.001 -0.4332 -0.0895 -0.0103
  243MPD1    C3 3739   1.601   4.195   0.076 -0.0931 -0.5997  0.0775
  243MPD1    C4 3740   1.617   4.227   0.209 -0.4829 -0.6578  0.1856
  243MPD1    C5 3741   1.545   4.326   0.264  0.6305 -0.2518  0.5592
  243MPD1     H 3742   1.498   4.228  17.641 -1.0674  1.0840 -0.4239
  243MPD1    H1 3743   1.701   4.185   0.263  0.3848 -0.2454 -0.8450
  243MPD1    H2 3744   1.394   4.478   0.229 -2.0988 -1.3845  0.0444
  243MPD1    H3 3745   1.567   4.364   0.363 -0.5616 -0.2406  0.8143
  243MPD1     N 3746   1.662   4.090   0.010  0.3044  0.6679  0.3127
  243MPD1    H5 3747   1.652   4.082  17.648 -0.6289 -0.6901  0.5107
  243MPD1    N1 3748   1.337   4.446  17.728 -0.0639 -0.1538  0.3442
  243MPD1    H6 3749   1.263   4.472   0.055  1.6995 -0.6687  2.5556
  243MPD1    H7 3750   1.309   4.412  17.636  0.0934  0.8696 -0.0807
  244MPD1     C 3751   2.466   3.324   0.017  0.1440 -0.0924 -1.1033
  244MPD1    C1 3752   2.399   3.313  17.635 -0.1923  0.0653 -0.3529
  244MPD1    C2 3753   2.297   3.402  17.612 -0.5358  0.0377  0.0332
  244MPD1    C3 3754   2.248   3.485  17.713  0.0501  0.1977 -1.1804
  244MPD1    C4 3755   2.327   3.498   0.088  0.3096  0.2385 -0.5444
  244MPD1    C5 3756   2.445   3.426   0.101 -0.6849  0.4966 -0.1941
  244MPD1     H 3757   2.248   3.407  17.516  1.1035  4.0262 -0.5948
  244MPD1    H1 3758   2.304   3.575   0.161 -0.1232  0.0101 -0.4419
  244MPD1    H2 3759   2.542   3.253   0.049 -0.4978 -0.5948 -0.7005
  244MPD1    H3 3760   2.502   3.440   0.192  1.3185 -1.0600 -1.2050
  244MPD1     N 3761   2.144   3.568  17.675 -0.2303 -0.7787  0.6434
  244MPD1    H5 3762   2.090   3.547  17.591  0.5605 -0.1583 -0.0249
  244MPD1    N1 3763   2.431   3.217  17.542  0.8101 -0.2497  0.1689
  244MPD1    H6 3764   2.530   3.230  17.524  0.8174 -3.5174 -2.3268
  244MPD1    H7 3765   2.397   3.248  17.451 -1.5512 -1.8167  0.5165
  245MPD1     C 3766   2.974   4.466  13.136  0.8315  0.0383  0.3753
  245MPD1    C1 3767   2.931   4.434  13.264 -0.8935 -0.0565 -0.9433
  245MPD1    C2 3768   2.955   4.523  13.368 -0.0483  0.4235  0.1107
  245MPD1    C3 3769   2.977   4.654  13.339 -0.6098  0.8334  0.2638
  245MPD1    C4 3770   2.997   4.697  13.206 -0.1130  0.0761  0.4294
  245MPD1    C5 3771   3.010   4.597  13.113  0.4812 -0.0098  0.4688
  245MPD1     H 3772   2.928   4.504  13.471 -1.5962  4.8637  0.5123
  245MPD1    H1 3773   3.011   0.066  13.178 -2.5528 -0.2072 -1.7306
  245MPD1    H2 3774   2.977   4.394  13.055 -0.3107  1.3576 -0.8409
  245MPD1    H3 3775   3.050   4.628  13.017 -1.5055 -0.7194 -0.5863
  245MPD1     N 3776   2.983   0.004  13.451  0.3819 -0.0228  0.2170
  245MPD1    H5 3777   2.996   4.685  13.536 -1.9472 -0.6615  0.1735
  245MPD1    N1 3778   2.895   4.304  13.290  0.0214  0.6960 -0.8439
  245MPD1    H6 3779   2.837   4.302  13.374 -0.0284  0.5568 -0.8805
  245MPD1    H7 3780   2.836   4.275  13.212 -1.6051  1.7315  0.0016
  246MPD1     C 3781   3.944   4.311  10.336 -0.0986 -0.6176 -0.4608
  246MPD1    C1 3782   3.933   4.445  10.325  0.5245  0.4436  0.5288
  246MPD1    C2 3783   3.842   4.500  10.232 -0.0405 -0.2678 -0.6274
  246MPD1    C3 3784   3.744   4.427  10.169  0.0868 -0.4900 -0.3809
  246MPD1    C4 3785   3.755   4.289  10.185  0.9790 -0.4330 -0.3784
  246MPD1    C5 3786   3.858   4.236  10.261  0.5629 -0.2328 -0.2367
  246MPD1     H 3787   3.835   4.608  10.237 -0.1552 -0.2702 -0.7488
  246MPD1    H1 3788   3.696   4.213  10.136 -0.7884  0.7672 -0.0974
  246MPD1    H2 3789   4.025   4.261  10.388  0.9692  1.8664  0.2664
  246MPD1    H3 3790   3.874   4.129  10.275  0.1128 -0.5038 -1.8366
  246MPD1     N 3791   3.639   4.497  10.091  0.1233 -0.0277  0.4297
  246MPD1    H5 3792   3.645   4.598  10.084  1.6065  0.0456  2.5736
  246MPD1    N1 3793   4.022   4.525  10.402 -0.2182 -0.8014  0.2855
  246MPD1    H6 3794   3.989   4.618  10.426  4.3049  0.8971  0.0549
  246MPD1    H7 3795   4.072   4.487  10.482 -1.0794 -0.9111  0.7673
  247MPD1     C 3796   3.060   0.568  16.985 -0.1244 -0.5996 -0.2520
  247MPD1    C1 3797   3.032   0.452  17.059  0.7627 -0.3748  0.1144
  247MPD1    C2 3798   3.011   0.333  16.988  0.1029 -0.2356  0.0054
  247MPD1    C3 3799   3.031   0.329  16.850 -0.1680 -0.3280 -0.4971
  247MPD1    C4 3800   3.073   0.439  16.784 -0.2487 -0.7647 -0.4959
  247MPD1    C5 3801   3.093   0.558  16.853  0.1436  0.1190 -0.0609
  247MPD1     H 3802   2.966   0.241  17.025  1.3380  0.3718  2.9757
  247MPD1    H1 3803   3.085   0.444  16.676 -0.0752 -1.7826 -0.5305
  247MPD1    H2 3804   3.075   0.664  17.032  0.1822 -1.7825  2.0407
  247MPD1    H3 3805   3.117   0.646  16.793  0.4999  0.7463  1.0083
  247MPD1     N 3806   3.005   0.213  16.774  0.6192 -1.0836  0.2121
  247MPD1    H5 3807   3.014   0.217  16.673  0.1892  0.4205  0.2395
  247MPD1    N1 3808   2.980   0.457  17.188  0.1855  0.1360 -0.4231
  247MPD1    H6 3809   2.994   0.376  17.248 -2.7881 -0.4350 -0.5211
  247MPD1    H7 3810   3.007   0.544  17.234 -0.6336  0.7730 -1.1563
  248MPD1     C 3811   3.932   4.732  17.593  0.1952 -0.0252  0.1990
  248MPD1    C1 3812   3.878   0.090  17.679 -0.4936  0.2863  1.0629
  248MPD1    C2 3813   3.844   0.052   0.066  0.4777 -0.1833  0.0021
  248MPD1    C3 3814   3.875   4.663   0.118  0.3676  0.2783  0.6893
  248MPD1    C4 3815   3.934   4.573   0.028 -0.2785  0.1499  0.4672
  248MPD1    C5 3816   3.958   4.608  17.641  0.6735 -0.0966  0.5772
  248MPD1     H 3817   3.790   0.121   0.130  1.3124 -0.3185  0.8446
  248MPD1    H1 3818   3.965   4.473   0.056 -1.4612 -0.1732  0.6401
  248MPD1    H2 3819   3.965   0.019  17.492  0.3812 -2.3351 -0.2243
  248MPD1    H3 3820   4.009   4.538  17.576  0.6474  2.1236 -1.8463
  248MPD1     N 3821   3.840   4.628   0.253  0.0018 -0.4338 -0.8862
  248MPD1    H5 3822   3.790   4.702   0.303  1.5451 -0.3717  0.5604
  248MPD1    N1 3823   3.840   0.212  17.625  0.5790  0.6085 -0.1600
  248MPD1    H6 3824   3.854   0.287  17.693 -0.0117 -0.1186  0.7618
  248MPD1    H7 3825   3.893   0.242  17.544  0.5327 -2.4753 -1.3274
  249MPD1     C 3826   0.346   4.025  10.221  0.1855  0.4270  0.1282
  249MPD1    C1 3827   0.332   4.013  10.358 -0.2124 -0.5590  0.0574
  249MPD1    C2 3828   0.386   4.120  10.432 -0.4931 -0.3361  0.4452
  249MPD1    C3 3829   0.441   4.228  10.364 -0.1963 -0.2696  0.3544
  249MPD1    C4 3830   0.453   4.231  10.231 -0.2890 -0.4212  0.1703
  249MPD1    C5 3831   0.408   4.130  10.160  0.0468  0.4888  0.5580
  249MPD1     H 3832   0.386   4.104  10.539 -2.6431 -1.2415  0.3118
  249MPD1    H1 3833   0.479   4.315  10.167 -1.2311 -2.0469 -2.3433
  249MPD1    H2 3834   0.307   3.947  10.155  2.8233 -0.5615 -0.2869
  249MPD1    H3 3835   0.398   4.143  10.053 -4.2152  1.0597  1.0272
  249MPD1     N 3836   0.493   4.334  10.443  0.1694 -0.0534  0.6005
  249MPD1    H5 3837   0.461   4.340  10.539  0.4682 -1.1535  0.7611
  249MPD1    N1 3838   0.241   3.916  10.414 -0.1039  0.2093  0.6190
  249MPD1    H6 3839   0.262   3.914  10.513  1.9951 -0.1705  0.1671
  249MPD1    H7 3840   0.248   3.824  10.370 -4.5678 -0.5565  1.4908
  250MPD2     C 3841   2.195   3.080  13.189 -0.7736 -0.2270  0.0649
  250MPD2    C1 3842   2.067   3.141  13.192  0.1464  0.4453 -0.5021
  250MPD2    C2 3843   1.954   3.071  13.136 -0.0122 -0.1418  0.8640
  250MPD2    C3 3844   1.976   2.941  13.102 -0.2745 -0.6444  0.7088
  250MPD2    C4 3845   2.101   2.885  13.099 -0.2697 -0.3526 -0.1524
  250MPD2    C5 3846   2.208   2.955  13.139 -0.0754  0.1198  0.2955
  250MPD2     H 3847   1.857   3.118  13.146 -0.2928 -1.0186  2.2209
  250MPD2    H1 3848   2.119   2.779  13.085 -0.1499 -0.4298  0.5962
  250MPD2    H2 3849   2.283   3.128  13.231  0.6066 -2.2523 -0.5566
  250MPD2    H3 3850   2.303   2.904  13.153 -0.8154 -1.6230 -0.9269
  250MPD2     N 3851   1.867   2.856  13.066 -0.0122 -0.6009 -0.0926
  250MPD2    H5 3852   1.882   2.761  13.033 -0.6990 -0.6448 -0.2803
  250MPD2    N1 3853   2.071   3.270  13.251 -0.1509 -0.3444 -0.9959
  250MPD2    H7 3854   2.154   3.294  13.304  0.7655 -1.8580 -1.7443
  251TMC3    C1 3855   2.000   3.487  13.293  0.3408 -0.4110  0.0001
  251TMC3    C2 3856   1.899   3.560  13.351 -0.4120 -0.5808  0.3569
  251TMC3    C3 3857   1.939   3.679  13.410 -0.4885  0.0975  0.3691
  251TMC3    C4 3858   2.128   3.525  13.284 -0.1589  0.7532 -0.1226
  251TMC3    C5 3859   2.162   3.650  13.339  0.2655 -0.2473 -0.3981
  251TMC3    C6 3860   2.066   3.723  13.408 -0.0491 -0.8820  0.2464
  251TMC3     C 3861   1.961   3.349  13.254 -0.2456 -1.1215 -0.7799
  251TMC3     O 3862   1.842   3.327  13.231  0.1768 -0.1219 -0.7880
  251TMC3     H 3863   1.800   3.528  13.382  0.3381 -1.2575  2.0238
  251TMC3    H1 3864   2.194   3.472  13.216 -1.0554 -1.6086  0.8702
  251TMC3    H2 3865   2.109   3.812  13.453 -2.4883  1.7776 -2.6511
  251TMC3    C7 3866   2.296   3.706  13.317  0.1516  0.4407  0.2581
  251TMC3    C8 3867   1.844   3.756  13.484  0.4675 -0.5921 -0.1729
  251TMC3    O1 3868   2.388   3.626  13.300  0.0848 -0.2002  0.0531
  251TMC3    O2 3869   1.880   3.837  13.571  0.0238 -0.1826 -0.0929
  252TMC3    C1 3870   1.306   4.193  10.619 -0.2966  0.2403 -0.4324
  252TMC3    C2 3871   1.237   4.265  10.526  0.2108 -0.0909 -0.3835
  252TMC3    C3 3872   1.242   4.215  10.394 -0.0297 -0.2654 -0.1445
  252TMC3    C4 3873   1.387   4.089  10.575  0.5075  0.0858 -0.1492
  252TMC3    C5 3874   1.385   4.042  10.446  0.2252 -0.1712  0.0536
  252TMC3    C6 3875   1.314   4.107  10.352  0.0674 -0.0774  0.1572
  252TMC3     C 3876   1.373   4.276  10.718  0.2863  0.2944  0.5342
  252TMC3     O 3877   1.428   4.219  10.810 -0.1398  0.3944  0.1538
  252TMC3     H 3878   1.167   4.344  10.549  0.6322  0.0416  0.4725
  252TMC3    H1 3879   1.452   4.032  10.641  1.9263  2.8391  0.8485
  252TMC3    H2 3880   1.329   4.089  10.246 -0.6773 -0.2976  0.0835
  252TMC3    C7 3881   1.507   3.972  10.413 -0.1440  0.1684 -0.1462
  252TMC3    C8 3882   1.232   4.321  10.289 -0.1632 -0.2067  0.4521
  252TMC3    O1 3883   1.604   4.001  10.479  0.2353  0.0803  0.2285
  252TMC3    O2 3884   1.177   4.291  10.180  0.5004 -0.0713 -0.4804
  253MPD2     C 3885   3.185   3.820  15.386 -0.8573  0.3566  0.6605
  253MPD2    C1 3886   3.061   3.766  15.386 -0.5460  0.1074 -0.4696
  253MPD2    C2 3887   3.006   3.745  15.509 -0.0625  0.2101  0.3151
  253MPD2    C3 3888   3.063   3.784  15.625 -0.3900  0.5462  0.2396
  253MPD2    C4 3889   3.186   3.853  15.623 -0.1338 -0.0944 -0.1944
  253MPD2    C5 3890   3.247   3.868  15.506 -0.7911  0.1913  0.3375
  253MPD2     H 3891   2.920   3.679  15.516  0.0566  0.0489  0.2689
  253MPD2    H1 3892   3.232   3.881  15.717 -2.3091  2.9393 -0.0348
  253MPD2    H2 3893   3.241   3.838  15.295 -1.0461 -2.0889  0.0691
  253MPD2    H3 3894   3.345   3.913  15.493 -0.6287  0.3506  2.2046
  253MPD2     N 3895   3.005   3.757  15.751 -0.2786 -0.4527 -0.6407
  253MPD2    H5 3896   3.059   3.775  15.836  1.0785  1.1117 -1.8372
  253MPD2    N1 3897   2.993   3.727  15.271  0.7170  0.4510  0.0771
  253MPD2    H7 3898   2.905   3.677  15.282 -0.4191  2.2889 -0.8242
  254TMC3    C1 3899   2.838   3.676  15.899  0.4459  0.3317 -0.5006
  254TMC3    C2 3900   2.708   3.704  15.947 -0.2114  0.5145 -0.1904
  254TMC3    C3 3901   2.688   3.682  16.087  0.1181 -0.1092 -0.2620
  254TMC3    C4 3902   2.937   3.637  15.981 -0.0494  0.3388  0.1739
  254TMC3    C5 3903   2.914   3.619  16.113  0.1401  0.1021 -0.0387
  254TMC3    C6 3904   2.793   3.639  16.175 -0.3910  0.1766  0.2726
  254TMC3     C 3905   2.875   3.716  15.761  0.3084 -0.4092 -0.3297
  254TMC3     O 3906   2.778   3.714  15.687  0.0218 -0.1191  0.2722
  254TMC3     H 3907   2.631   3.744  15.883 -0.4213  1.4359  0.6321
  254TMC3    H1 3908   3.038   3.623  15.943 -0.5219 -3.4191  0.2611
  254TMC3    H2 3909   2.782   3.607  16.278  0.4146  0.4231  0.4345
  254TMC3    C7 3910   3.023   3.586  16.201  0.0124  0.0377 -0.4559
  254TMC3    C8 3911   2.573   3.729  16.155 -0.3218 -0.1429  0.6252
  254TMC3    O1 3912   2.985   3.504  16.279  0.0301  0.5889  0.5078
  254TMC3    O2 3913   2.578   3.733  16.277 -0.2457 -0.4791  0.1168
  255MPD2     C 3914   0.788   1.428  10.887 -0.3241  0.0980  0.0772
  255MPD2    C1 3915   0.910   1.486  10.864 -0.6399 -0.4018 -0.4315
  255MPD2    C2 3916   1.023   1.425  10.909  0.1133 -0.0945  0.2171
  255MPD2    C3 3917   1.022   1.307  10.974  1.1796  0.1667  0.7466
  255MPD2    C4 3918   0.900   1.238  10.974 -0.9993  0.1395 -0.8721
  255MPD2    C5 3919   0.785   1.298  10.936 -0.0450  0.7693  0.0283
  255MPD2     H 3920   1.116   1.480  10.909  0.8224 -1.3174 -1.1211
  255MPD2    H1 3921   0.890   1.148  11.033  0.6197 -0.5165 -1.6252
  255MPD2    H2 3922   0.697   1.479  10.859 -0.2651 -1.1600 -2.4138
  255MPD2    H3 3923   0.683   1.261  10.941 -0.6190  2.4773  1.0185
  255MPD2     N 3924   1.138   1.233  11.017  0.6533  0.1722 -0.3321
  255MPD2    H5 3925   1.120   1.151  11.074  0.2098  2.5803  3.0265
  255MPD2    N1 3926   0.912   1.604  10.781  0.4827 -0.4850 -0.5730
  255MPD2    H7 3927   0.823   1.626  10.738  1.1135  1.0474 -1.1048
  256TMC3    C1 3928   1.012   1.790  10.648 -0.0681 -0.7754 -0.8242
  256TMC3    C2 3929   1.115   1.828  10.574  0.8717  0.2155  0.2630
  256TMC3    C3 3930   1.082   1.926  10.485  0.7898  0.1263 -0.4703
  256TMC3    C4 3931   0.884   1.841  10.642  0.3503  0.5940 -0.4145
  256TMC3    C5 3932   0.853   1.923  10.539 -0.7084 -0.6715  0.0475
  256TMC3    C6 3933   0.954   1.973  10.459  0.2626 -0.4137 -0.0089
  256TMC3     C 3934   1.029   1.679  10.739 -0.3491 -0.6204 -0.1883
  256TMC3     O 3935   1.143   1.652  10.772  0.3344 -0.5998 -0.5817
  256TMC3     H 3936   1.219   1.804  10.592  0.8613  0.7059  0.9748
  256TMC3    H1 3937   0.803   1.811  10.708 -0.3038  1.4695 -0.8212
  256TMC3    H2 3938   0.936   2.055  10.391 -0.5333 -1.7461 -1.4089
  256TMC3    C7 3939   0.715   1.945  10.492  0.1283 -0.3669  0.1568
  256TMC3    C8 3940   1.191   1.989  10.422 -0.2613  0.0756 -0.0766
  256TMC3    O1 3941   0.702   1.994  10.382  0.7095  1.0661 -1.1470
  256TMC3    O2 3942   1.296   1.928  10.424  0.5108  0.2880 -0.2656
  257MPD2     C 3943   0.362   3.652  13.747 -0.2852  0.2482 -0.0745
  257MPD2    C1 3944   0.303   3.596  13.639  0.3712  0.5658 -0.2980
  257MPD2    C2 3945   0.278   3.458  13.640  0.1885  0.0340  0.1345
  257MPD2    C3 3946   0.302   3.383  13.746  0.0548 -0.4368 -0.3138
  257MPD2    C4 3947   0.361   3.440  13.856  0.0390 -0.4779  0.0999
  257MPD2    C5 3948   0.384   3.572  13.853 -0.2460  0.6383 -0.1065
  257MPD2     H 3949   0.244   3.412  13.548  0.6341  0.8582 -0.4330
  257MPD2    H1 3950   0.384   3.384  13.946 -0.0210 -0.2706  0.2450
  257MPD2    H2 3951   0.392   3.756  13.740 -1.3804  0.3965 -2.8109
  257MPD2    H3 3952   0.440   3.611  13.938  0.6760  1.6105 -1.1480
  257MPD2     N 3953   0.281   3.246  13.736 -0.3445  0.4026 -0.0718
  257MPD2    H5 3954   0.232   3.227  13.649 -1.2624 -1.2330  0.7928
  257MPD2    N1 3955   0.294   3.674  13.521 -0.3069  0.3571 -0.1860
  257MPD2    H7 3956   0.326   3.770  13.523 -2.3985  1.0255  1.3773
  258TMC3    C1 3957   0.287   3.019  13.782 -0.4046 -0.5857  0.0730
  258TMC3    C2 3958   0.156   3.006  13.741 -0.1809 -0.6762  0.5633
  258TMC3    C3 3959   0.127   2.892  13.675  0.1116  0.0074  0.1390
  258TMC3    C4 3960   0.384   2.924  13.767 -0.2384 -0.2747 -0.3422
  258TMC3    C5 3961   0.344   2.810  13.700 -0.0856  0.1550  0.3772
  258TMC3    C6 3962   0.222   2.795  13.645  0.8396  0.1317 -0.4825
  258TMC3     C 3963   0.330   3.151  13.823 -0.4155 -0.2191 -0.3161
  258TMC3     O 3964   0.416   3.163  13.910  0.2014 -0.0788  0.3131
  258TMC3     H 3965   0.077   3.073  13.774 -1.0653 -1.6763  0.4936
  258TMC3    H1 3966   0.482   2.959  13.797 -1.5767  1.4063  2.1278
  258TMC3    H2 3967   0.187   2.700  13.608 -1.5326  0.9413 -0.3067
  258TMC3    C7 3968   0.451   2.729  13.638  0.6025 -0.0159  0.7632
  258TMC3    C8 3969   4.729   2.891  13.611 -0.2855  1.0758  0.0544
  258TMC3    O1 3970   0.429   2.672  13.532  0.1027  0.1291  0.1268
  258TMC3    O2 3971   4.681   2.999  13.581 -0.0765 -0.4454 -0.4375
  259MPD2     C 3972   3.956   0.547   0.698  0.4890 -0.9354  0.1288
  259MPD2    C1 3973   4.023   0.455   0.780 -0.2923  0.1450 -0.0761
  259MPD2    C2 3974   4.132   0.392   0.729 -0.3050 -0.2109  0.5479
  259MPD2    C3 3975   4.174   0.428   0.603  0.6765 -0.1474 -0.0707
  259MPD2    C4 3976   4.100   0.519   0.526  0.2239  0.1705 -0.0284
  259MPD2    C5 3977   3.988   0.577   0.573 -0.0467  0.0150  0.1919
  259MPD2     H 3978   4.184   0.319   0.790  0.4398 -0.1273  0.0169
  259MPD2    H1 3979   4.122   0.539   0.422 -2.2822 -0.6423 -0.7215
  259MPD2    H2 3980   3.874   0.609   0.733  1.8097  0.1216  1.3427
  259MPD2    H3 3981   3.936   0.657   0.522  1.6008  1.0331  0.0972
  259MPD2     N 3982   4.280   0.352   0.547  0.7464  0.1953 -1.0498
  259MPD2    H5 3983   4.330   0.288   0.609 -0.8734  0.4606  0.5282
  259MPD2    N1 3984   3.976   0.448   0.916 -0.8840  0.0674  0.2537
  259MPD2    H7 3985   3.901   0.513   0.939 -0.5821  0.8211 -0.8843
  260TMC3    C1 3986   4.455   0.289   0.390 -0.0207  0.4458  0.1861
  260TMC3    C2 3987   4.515   0.315   0.265 -0.2040  0.3571 -0.5666
  260TMC3    C3 3988   4.644   0.271   0.252 -0.0101  0.0635  0.0066
  260TMC3    C4 3989   4.529   0.246   0.502  0.1322  0.0541 -0.5359
  260TMC3    C5 3990   4.666   0.215   0.481  0.0936  0.2771 -0.0228
  260TMC3    C6 3991   4.721   0.232   0.359  0.3147 -0.0326 -0.1917
  260TMC3     C 3992   4.323   0.359   0.410 -0.2373 -0.1283 -0.7112
  260TMC3     O 3993   4.288   0.424   0.315  0.6140 -0.3749 -0.3298
  260TMC3     H 3994   4.460   0.338   0.175 -0.9714 -0.2658 -0.2549
  260TMC3    H1 3995   4.481   0.232   0.598 -0.7717  0.5572 -0.9119
  260TMC3    H2 3996   0.091   0.214   0.341 -0.6362 -2.5064 -3.3596
  260TMC3    C7 3997   4.709   0.092   0.539 -0.3952  0.1553  0.9759
  260TMC3    C8 3998   4.674   0.195   0.129 -0.1257  0.5916 -0.1162
  260TMC3    O1 3999   0.058   0.037   0.473 -0.6352 -0.0649 -0.4442
  260TMC3    O2 4000   4.622   0.237   0.025  0.1475  0.0912  0.1466
  261MPD2     C 4001   1.072   2.801  12.767 -0.3815 -0.4144  0.3469
  261MPD2    C1 4002   1.169   2.898  12.809 -0.7917 -0.0104  0.2008
  261MPD2    C2 4003   1.124   3.023  12.821 -0.2992  0.2621  0.1023
  261MPD2    C3 4004   0.998   3.063  12.778  0.8536 -0.3061  0.4730
  261MPD2    C4 4005   0.909   2.966  12.739  1.0971  0.6474 -0.1120
  261MPD2    C5 4006   0.944   2.836  12.729  0.5446 -0.1092 -0.4523
  261MPD2     H 4007   1.195   3.094  12.862 -0.0979 -0.3550  0.8112
  261MPD2    H1 4008   0.803   2.981  12.720  0.8637 -1.9022 -0.8513
  261MPD2    H2 4009   1.094   2.696  12.751 -1.5895 -0.3053 -1.9965
  261MPD2    H3 4010   0.877   2.760  12.690  1.1131 -0.1916 -1.2637
  261MPD2     N 4011   0.946   3.194  12.801 -0.0378  0.2257  0.2325
  261MPD2    H5 4012   1.013   3.261  12.838  0.2374 -0.6916  1.3609
  261MPD2    N1 4013   1.302   2.864  12.832 -0.7955 -0.1759  0.5661
  261MPD2    H7 4014   1.372   2.937  12.844  0.8286 -1.9759  2.1539
  262TMC3    C1 4015   0.811   3.391  12.768  0.2510 -0.1445 -0.1176
  262TMC3    C2 4016   0.702   3.445  12.705 -0.7147 -0.5478  0.6451
  262TMC3    C3 4017   0.679   3.576  12.728  0.5327 -0.3510 -0.5043
  262TMC3    C4 4018   0.901   3.473  12.833 -0.3394 -0.3121 -0.9574
  262TMC3    C5 4019   0.877   3.609  12.844  0.2608 -0.0015  0.1598
  262TMC3    C6 4020   0.761   3.660  12.800  0.4080 -0.2000 -0.0625
  262TMC3     C 4021   0.826   3.243  12.761 -0.2416  0.1535  0.3129
  262TMC3     O 4022   0.730   3.184  12.706 -0.0208  0.2160  0.1351
  262TMC3     H 4023   0.626   3.384  12.658  0.1794 -1.8766  0.9221
  262TMC3    H1 4024   0.983   3.436  12.894 -0.9665 -2.0849 -1.1893
  262TMC3    H2 4025   0.740   3.766  12.812 -0.8141 -0.6379  1.6150
  262TMC3    C7 4026   0.996   3.686  12.795 -0.1319 -0.2998  0.9013
  262TMC3    C8 4027   0.625   3.648  12.616  0.5453  0.0662 -0.1308
  262TMC3    O1 4028   1.110   3.650  12.829  0.0112 -0.1306 -0.6860
  262TMC3    O2 4029   0.690   3.747  12.585 -0.1839 -0.0278  0.4619
  263MPD2     C 4030   1.874   2.984  11.669 -0.7419 -0.9218 -0.1242
  263MPD2    C1 4031   1.946   2.960  11.560  0.7340  0.2285  0.0721
  263MPD2    C2 4032   1.907   3.017  11.445  0.0137  0.0177 -0.1754
  263MPD2    C3 4033   1.796   3.102  11.429  0.2504 -0.3751  0.2666
  263MPD2    C4 4034   1.726   3.126  11.547  0.2141  0.3708  0.0131
  263MPD2    C5 4035   1.765   3.066  11.660 -0.1965  0.3908 -0.1008
  263MPD2     H 4036   1.957   2.986  11.354 -2.1309 -1.0188 -1.0035
  263MPD2    H1 4037   1.648   3.200  11.552  0.2191  0.3448  0.4880
  263MPD2    H2 4038   1.906   2.953  11.768 -0.0162 -1.9767 -0.6995
  263MPD2    H3 4039   1.713   3.087  11.752  1.1174 -1.3345  1.0347
  263MPD2     N 4040   1.763   3.150  11.302  0.3468 -0.1446  0.2586
  263MPD2    H5 4041   1.838   3.143  11.234 -1.1977  1.3959 -1.6238
  263MPD2    N1 4042   2.053   2.875  11.579 -0.0999  0.6963 -0.7871
  263MPD2    H7 4043   2.066   2.836  11.672  1.7089  1.0785 -0.8804
  264TMC3    C1 4044   1.637   3.314  11.164 -0.3186 -0.1925  0.0160
  264TMC3    C2 4045   1.571   3.431  11.171 -0.0277 -0.2200  0.2157
  264TMC3    C3 4046   1.586   3.517  11.072 -0.7985 -0.5652  0.0499
  264TMC3    C4 4047   1.708   3.273  11.049 -0.1109  0.1082 -0.2736
  264TMC3    C5 4048   1.697   3.346  10.944  0.0875 -0.4898 -0.5981
  264TMC3    C6 4049   1.641   3.468  10.957 -0.9748  0.3351 -0.2725
  264TMC3     C 4050   1.649   3.231  11.284 -0.7434 -0.7355  1.2443
  264TMC3     O 4051   1.554   3.242  11.356 -0.7505 -0.7548  0.6701
  264TMC3     H 4052   1.515   3.466  11.257  0.3962 -1.7194  1.0875
  264TMC3    H1 4053   1.748   3.173  11.056  0.8926  0.4332 -1.4266
  264TMC3    H2 4054   1.645   3.529  10.868 -0.6832  2.6136  1.2994
  264TMC3    C7 4055   1.778   3.330  10.826  0.0486  1.0434 -0.6258
  264TMC3    C8 4056   1.661   3.634  11.114  0.7188 -0.0586 -0.4605
  264TMC3    O1 4057   1.860   3.414  10.798  0.1932  0.5663 -0.0496
  264TMC3    O2 4058   1.767   3.650  11.056  0.1457 -0.4960  0.2318
  265MPD2     C 4059   4.572   2.992  15.739  0.0754 -0.4460 -0.2996
  265MPD2    C1 4060   4.521   3.094  15.665 -0.2780  0.3303  0.1511
  265MPD2    C2 4061   4.545   3.083  15.525  0.2569 -0.4838 -0.3181
  265MPD2    C3 4062   4.618   2.985  15.466  0.6433 -0.4912  0.6802
  265MPD2    C4 4063   4.649   2.874  15.541 -0.3184 -0.0063  0.1874
  265MPD2    C5 4064   4.626   2.878  15.680  0.5388 -0.0470  0.3209
  265MPD2     H 4065   4.509   3.160  15.458  0.4027 -0.0701  0.0781
  265MPD2    H1 4066   4.694   2.786  15.496 -0.2611  0.4128 -0.5816
  265MPD2    H2 4067   4.554   2.991  15.846  0.1917  0.7757 -0.2729
  265MPD2    H3 4068   4.643   2.797  15.749 -1.1589 -0.3356  0.3973
  265MPD2     N 4069   4.641   2.975  15.331  0.4193  0.0497  0.0725
  265MPD2    H5 4070   4.667   2.882  15.298 -0.3503  0.0765 -0.6193
  265MPD2    N1 4071   4.461   3.206  15.712  0.2301 -0.2114  0.3285
  265MPD2    H7 4072   4.421   3.275  15.649  1.8099  2.1083  1.8520
  266TMC3    C1 4073   4.419   3.383  15.865 -0.9840 -0.2452 -0.5654
  266TMC3    C2 4074   4.453   3.448  15.986 -0.1874  0.1833 -0.8310
  266TMC3    C3 4075   4.407   3.576  16.012  0.2006 -0.5969 -0.4329
  266TMC3    C4 4076   4.334   3.442  15.778  0.0750  0.3344 -0.5666
  266TMC3    C5 4077   4.281   3.564  15.818 -0.4003 -0.0835 -0.2438
  266TMC3    C6 4078   4.309   3.632  15.937  1.0894  0.3089  0.1336
  266TMC3     C 4079   4.459   3.246  15.844  0.5941 -0.4144 -0.3499
  266TMC3     O 4080   4.492   3.187  15.946 -0.2695  0.1344  0.7051
  266TMC3     H 4081   4.523   3.400  16.054  0.0841  3.0814  0.9010
  266TMC3    H1 4082   4.297   3.403  15.684  2.7582 -1.2434 -0.9565
  266TMC3    H2 4083   4.262   3.725  15.966  1.5915  0.1426  1.4529
  266TMC3    C7 4084   4.145   3.568  15.764  0.4897 -0.8659 -1.2457
  266TMC3    C8 4085   4.433   3.616  16.150  0.1155  0.1333 -0.0798
  266TMC3    O1 4086   4.099   3.482  15.689  0.0327 -0.0899 -0.2100
  266TMC3    O2 4087   4.542   3.572  16.196 -0.5989 -0.4660  0.2717
  267MPD2     C 4088   2.328   0.923   0.507 -0.1139  0.3943 -0.7777
  267MPD2    C1 4089   2.318   0.789   0.543  0.2872 -0.2344  0.1639
  267MPD2    C2 4090   2.186   0.747   0.562  0.0199  0.3204 -0.2184
  267MPD2    C3 4091   2.074   0.827   0.551  0.2366  0.6506 -0.3251
  267MPD2    C4 4092   2.095   0.956   0.529  0.0146  0.0326  0.2586
  267MPD2    C5 4093   2.221   1.008   0.510 -0.9165 -0.3450 -0.5499
  267MPD2     H 4094   2.182   0.639   0.572 -0.4491  0.5482  1.8483
  267MPD2    H1 4095   2.005   1.016   0.529 -0.5110 -0.7613  2.8845
  267MPD2    H2 4096   2.425   0.962   0.479 -0.8950  3.4088  0.7142
  267MPD2    H3 4097   2.239   1.113   0.488  0.7844 -0.6290 -0.5441
  267MPD2     N 4098   1.946   0.787   0.564  0.2256 -0.6426  0.2441
  267MPD2    H5 4099   1.871   0.856   0.565  0.2228 -0.6185 -1.8429
  267MPD2    N1 4100   2.433   0.716   0.550 -0.2254  0.0739  0.1694
  267MPD2    H7 4101   2.518   0.767   0.532  0.1060 -0.9853 -1.3133
  268TMC3    C1 4102   2.576   0.535   0.595  0.3294 -0.8105 -0.0929
  268TMC3    C2 4103   2.675   0.585   0.506  0.2200  0.3691  0.6259
  268TMC3    C3 4104   2.796   0.524   0.502 -0.0577 -0.2092  0.2519
  268TMC3    C4 4105   2.607   0.421   0.668  0.9194 -0.0619 -0.2236
  268TMC3    C5 4106   2.733   0.380   0.679 -0.5751 -0.6586  0.5279
  268TMC3    C6 4107   2.831   0.425   0.594 -0.6837  0.5971 -0.3788
  268TMC3     C 4108   2.446   0.587   0.587 -0.0517 -0.4024 -0.3413
  268TMC3     O 4109   2.360   0.508   0.622 -0.4956  0.2139 -0.2194
  268TMC3     H 4110   2.657   0.663   0.433 -0.0672 -1.9112 -1.7442
  268TMC3    H1 4111   2.539   0.388   0.746  0.1887 -0.2419 -0.9444
  268TMC3    H2 4112   2.928   0.378   0.605  0.0914  2.5639  1.3476
  268TMC3    C7 4113   2.755   0.257   0.751 -0.4019 -0.2652  0.1156
  268TMC3    C8 4114   2.900   0.560   0.411 -0.8471  0.4045 -0.3189
  268TMC3    O1 4115   2.656   0.227   0.821 -0.2653  0.3170 -0.0685
  268TMC3    O2 4116   3.016   0.561   0.451  0.3549  0.6237 -0.1653
  269MPD2     C 4117   2.206   3.573  15.652 -0.8474  0.3093  0.5967
  269MPD2    C1 4118   2.086   3.613  15.710  0.0925  0.4158  0.3274
  269MPD2    C2 4119   2.040   3.739  15.672  0.7497  0.4183 -1.3116
  269MPD2    C3 4120   2.111   3.816  15.582 -0.0754  0.2461  0.6988
  269MPD2    C4 4121   2.234   3.773  15.532  0.2447  0.4501  0.7713
  269MPD2    C5 4122   2.273   3.645  15.562  0.6367 -0.3947  0.2797
  269MPD2     H 4123   1.940   3.766  15.705  0.4467 -0.2635 -1.6558
  269MPD2    H1 4124   2.289   3.830  15.458 -0.5885 -0.1326 -0.2775
  269MPD2    H2 4125   2.235   3.470  15.669  0.5966  0.3853 -1.5041
  269MPD2    H3 4126   2.357   3.593  15.517  1.0879 -1.0315  1.8312
  269MPD2     N 4127   2.050   3.932  15.552  0.2530  0.4155 -0.5684
  269MPD2    H5 4128   1.965   3.951  15.605  0.4239  2.0800 -0.8887
  269MPD2    N1 4129   2.020   3.515  15.791  0.3487 -0.4038  0.2094
  269MPD2    H7 4130   2.072   3.429  15.808  1.0686  0.0330  0.2610
  270TMC3    C1 4131   1.829   3.405  15.874 -0.6919 -0.3352  0.1478
  270TMC3    C2 4132   1.705   3.359  15.831 -0.1900  0.3654  0.5465
  270TMC3    C3 4133   1.670   3.229  15.838 -0.5708 -0.5706 -0.2424
  270TMC3    C4 4134   1.921   3.316  15.932  0.1829  0.2608 -0.0155
  270TMC3    C5 4135   1.882   3.187  15.939  0.4153  0.3369  0.1596
  270TMC3    C6 4136   1.757   3.144  15.896  0.2030  0.4146 -0.3437
  270TMC3     C 4137   1.885   3.529  15.820 -0.4550 -0.3551  0.0864
  270TMC3     O 4138   1.808   3.623  15.794  0.4144  0.2587  0.2836
  270TMC3     H 4139   1.638   3.425  15.777  0.8486  1.0325  0.0895
  270TMC3    H1 4140   2.016   3.340  15.979 -0.1320  2.6044 -0.5399
  270TMC3    H2 4141   1.728   3.040  15.897  5.4342 -1.0395 -1.9368
  270TMC3    C7 4142   1.986   3.096  15.985 -0.6478 -0.4555 -0.2033
  270TMC3    C8 4143   1.625   3.160  15.718  0.2311  0.1039 -0.0282
  270TMC3    O1 4144   2.104   3.122  15.973 -0.3308 -0.3408 -0.4736
  270TMC3    O2 4145   1.696   3.074  15.673  0.4184  0.0731  0.5250
  271MPD2     C 4146   1.255   3.245  13.960 -0.4579  0.4384 -0.1345
  271MPD2    C1 4147   1.197   3.256  14.082  1.0469 -0.0039 -0.3506
  271MPD2    C2 4148   1.071   3.313  14.093  0.4668  0.0181 -0.1628
  271MPD2    C3 4149   0.999   3.361  13.984  0.8443  0.1094  0.7574
  271MPD2    C4 4150   1.061   3.342  13.862 -0.0028 -0.6874 -0.1720
  271MPD2    C5 4151   1.188   3.292  13.846  0.4084 -0.2280 -0.7579
  271MPD2     H 4152   1.025   3.326  14.190  1.1501  0.4561  0.0993
  271MPD2    H1 4153   1.001   3.361  13.774  0.5593 -1.5352 -0.7305
  271MPD2    H2 4154   1.346   3.189  13.941 -0.4548  0.0916  0.8759
  271MPD2    H3 4155   1.238   3.268  13.752  3.0535 -3.3160  1.4375
  271MPD2     N 4156   0.876   3.428  13.994 -0.4291 -0.0842  0.0186
  271MPD2    H5 4157   0.835   3.465  13.909  0.9674  0.8884 -0.2368
  271MPD2    N1 4158   1.254   3.211  14.203  0.3407 -0.1155  0.3080
  271MPD2    H7 4159   1.198   3.222  14.287 -0.1084 -1.6386  0.2150
  272TMC3    C1 4160   1.434   3.161  14.352  0.0209  0.1245  0.1988
  272TMC3    C2 4161   1.553   3.100  14.367  0.1880 -0.8012 -0.3343
  272TMC3    C3 4162   1.596   3.074  14.495  0.2653 -0.0322  0.8129
  272TMC3    C4 4163   1.352   3.170  14.459 -0.0980  0.4551 -0.1901
  272TMC3    C5 4164   1.395   3.147  14.582  0.5697  0.1879 -0.3736
  272TMC3    C6 4165   1.521   3.106  14.611 -0.2531 -0.0333  0.7232
  272TMC3     C 4166   1.392   3.185  14.219 -0.5580 -0.0352  0.0969
  272TMC3     O 4167   1.481   3.180  14.135 -0.2566  0.1311 -0.3077
  272TMC3     H 4168   1.622   3.088  14.285  2.3893  0.0470  1.4184
  272TMC3    H1 4169   1.265   3.235  14.453  0.0255  0.6220 -0.1614
  272TMC3    H2 4170   1.556   3.094  14.713  0.6639 -3.0864  0.0560
  272TMC3    C7 4171   1.303   3.179  14.686  0.4371 -0.3376  0.6069
  272TMC3    C8 4172   1.736   3.022  14.504 -0.2733  0.3281 -0.5675
  272TMC3    O1 4173   1.185   3.173  14.653 -0.2501  0.7615  0.0723
  272TMC3    O2 4174   1.798   3.016  14.402  0.3394 -0.0573 -0.5973
  273MPD2     C 4175   2.600   2.006  11.538 -0.0955 -0.1034 -0.6404
  273MPD2    C1 4176   2.652   2.131  11.546 -0.3111 -0.2265 -0.6617
  273MPD2    C2 4177   2.662   2.213  11.431  0.3182 -0.5151  0.1622
  273MPD2    C3 4178   2.633   2.158  11.307 -0.2851  0.2001  0.1565
  273MPD2    C4 4179   2.577   2.031  11.299 -0.0525  0.3649  0.4492
  273MPD2    C5 4180   2.559   1.957  11.410 -0.3400  0.6212 -0.0695
  273MPD2     H 4181   2.694   2.316  11.437  1.4130 -0.7555 -1.6382
  273MPD2    H1 4182   2.552   1.990  11.201  2.1055  1.1999 -0.4541
  273MPD2    H2 4183   2.589   1.942  11.625  1.5653  0.0203 -0.3391
  273MPD2    H3 4184   2.515   1.859  11.393  0.7359  0.1943 -0.3786
  273MPD2     N 4185   2.648   2.231  11.187 -0.1993  0.1603  0.9961
  273MPD2    H5 4186   2.611   2.196  11.099 -2.3071 -0.5014  2.1410
  273MPD2    N1 4187   2.706   2.171  11.680  0.1778 -0.2863 -0.7031
  273MPD2    H7 4188   2.712   2.099  11.752  0.4209  2.1509  1.7049
  274TMC3    C1 4189   2.715   2.406  11.045  0.0292 -0.3176 -0.2132
  274TMC3    C2 4190   2.591   2.417  10.983  0.4316 -0.2381  0.0452
  274TMC3    C3 4191   2.568   2.526  10.905 -0.3977  0.6325 -0.6525
  274TMC3    C4 4192   2.811   2.495  11.009 -0.1650 -0.4356  0.7445
  274TMC3    C5 4193   2.781   2.604  10.926 -0.3334 -0.2792  0.8977
  274TMC3    C6 4194   2.661   2.619  10.865  0.3177 -0.7725  0.3883
  274TMC3     C 4195   2.725   2.343  11.174  0.4069  0.3094 -0.2954
  274TMC3     O 4196   2.818   2.388  11.248 -0.6843  0.0703  0.0617
  274TMC3     H 4197   2.506   2.356  11.014 -1.2454  1.0155 -2.1078
  274TMC3    H1 4198   2.909   2.489  11.054 -0.0096  1.2135  0.6053
  274TMC3    H2 4199   2.634   2.709  10.811  1.7586  1.0423  2.6644
  274TMC3    C7 4200   2.878   2.710  10.904 -0.1972 -0.5450 -0.2553
  274TMC3    C8 4201   2.442   2.529  10.831  0.0888 -0.7416  0.0519
  274TMC3    O1 4202   2.882   2.772  10.795 -0.4031 -0.0282 -0.0513
  274TMC3    O2 4203   2.356   2.451  10.863  0.3029  0.4674 -0.6636
  275MPD2     C 4204   2.831   4.410  14.552 -0.3039  0.7091  0.2623
  275MPD2    C1 4205   2.726   4.442  14.634 -0.8641 -0.4385  0.3184
  275MPD2    C2 4206   2.627   4.347  14.656 -0.1557 -0.4515  0.2979
  275MPD2    C3 4207   2.632   4.223  14.599  0.0926  0.3107  0.1133
  275MPD2    C4 4208   2.729   4.192  14.508  0.1299  0.2393  0.3007
  275MPD2    C5 4209   2.826   4.285  14.492 -0.2841  0.0415  0.3623
  275MPD2     H 4210   2.544   4.371  14.722 -0.2331 -0.3422  0.1616
  275MPD2    H1 4211   2.748   4.092  14.473  0.3249  0.1189  0.7556
  275MPD2    H2 4212   2.911   4.477  14.522  1.5465 -2.3359 -1.5814
  275MPD2    H3 4213   2.903   4.251  14.424  1.3675  2.1895  1.1578
  275MPD2     N 4214   2.535   4.124  14.619 -0.2750  0.2562  0.1255
  275MPD2    H5 4215   2.563   4.030  14.594 -1.0151  0.6674 -2.3003
  275MPD2    N1 4216   2.711   4.575  14.685  0.1015 -0.1650  0.1447
  275MPD2    H7 4217   2.620   4.597  14.724  0.0823 -1.0618  0.6082
  276TMC3    C1 4218   2.774   0.040  14.790  0.1924 -0.4117 -0.5106
  276TMC3    C2 4219   2.644   0.024  14.834 -0.1169  0.4388  0.0448
  276TMC3    C3 4220   2.621   0.029  14.967 -0.6403 -0.1331 -0.2190
  276TMC3    C4 4221   2.873   0.072  14.873  0.4363 -0.4487  0.3212
  276TMC3    C5 4222   2.849   0.082  15.006  0.0813 -0.3991 -0.1377
  276TMC3    C6 4223   2.728   0.039  15.055  0.1786  0.2851 -0.1643
  276TMC3     C 4224   2.814   4.662  14.710 -0.1377 -0.3204 -0.6954
  276TMC3     O 4225   2.935   4.650  14.689  0.3055  0.0232  0.2680
  276TMC3     H 4226   2.559   0.016  14.767 -0.1649 -0.6255  0.2316
  276TMC3    H1 4227   2.974   0.084  14.834  0.1720  0.0855 -0.2027
  276TMC3    H2 4228   2.721   0.045  15.163  3.5892 -1.3913  0.1549
  276TMC3    C7 4229   2.951   0.122  15.103 -0.0055  0.1020 -0.4294
  276TMC3    C8 4230   2.514   4.676  15.003  0.3644 -0.5803  0.5356
  276TMC3    O1 4231   2.939   0.072  15.212  0.3010 -0.0899 -0.3945
  276TMC3    O2 4232   2.397   4.723  15.004 -0.1602 -0.5892 -0.9659
  277MPD2     C 4233   4.363   3.867  13.426  0.2063 -0.3617 -0.1781
  277MPD2    C1 4234   4.234   3.896  13.458 -0.1729  0.4961 -0.4631
  277MPD2    C2 4235   4.152   3.801  13.516  0.3945 -0.2524 -0.1838
  277MPD2    C3 4236   4.197   3.669  13.536 -0.3077  0.0996 -0.3258
  277MPD2    C4 4237   4.327   3.645  13.494  0.1652  0.6016 -0.4245
  277MPD2    C5 4238   4.407   3.736  13.443  0.8400 -0.3672 -0.2936
  277MPD2     H 4239   4.053   3.821  13.556  0.6239  0.2281  0.1486
  277MPD2    H1 4240   4.370   3.547  13.512  1.8323  0.8944 -2.8751
  277MPD2    H2 4241   4.437   3.935  13.386  0.0524 -0.2156 -0.2109
  277MPD2    H3 4242   4.510   3.715  13.419  0.2324 -1.7558 -1.6648
  277MPD2     N 4243   4.117   3.577  13.608  0.2212  0.2762 -0.1763
  277MPD2    H5 4244   4.027   3.615  13.635 -0.4299 -0.8741 -0.7280
  277MPD2    N1 4245   4.192   4.030  13.448 -0.0002  0.6228  0.7321
  277MPD2    H7 4246   4.259   4.094  13.408 -0.7548  0.2789 -1.1008
  278TMC3    C1 4247   4.028   3.382  13.688  0.3242 -0.2452  0.5017
  278TMC3    C2 4248   4.018   3.245  13.666 -0.4356 -0.3597  0.0313
  278TMC3    C3 4249   3.960   3.165  13.756  0.4100 -0.1078  0.6167
  278TMC3    C4 4250   3.974   3.428  13.801 -0.3778  0.0977 -0.1142
  278TMC3    C5 4251   3.910   3.344  13.890  0.5798  0.1144  0.0596
  278TMC3    C6 4252   3.899   3.209  13.869  0.4151 -0.0261  0.1793
  278TMC3     C 4253   4.143   3.447  13.642  0.1215  0.1909  0.1970
  278TMC3     O 4254   4.243   3.385  13.619  0.3205 -0.4667  0.0568
  278TMC3     H 4255   4.071   3.209  13.579  1.9355 -0.0948  1.3722
  278TMC3    H1 4256   3.983   3.533  13.827  0.9814 -0.2765  0.9150
  278TMC3    H2 4257   3.846   3.146  13.940 -0.5597 -0.0746 -0.5870
  278TMC3    C7 4258   3.827   3.406  13.988 -0.4431 -0.2865  0.4018
  278TMC3    C8 4259   3.984   3.023  13.745 -0.1012 -0.1196 -0.1824
  278TMC3    O1 4260   3.871   3.512  14.030 -0.6644  0.3143  0.2173
  278TMC3    O2 4261   4.029   2.974  13.852 -0.6579 -0.3553  0.2230
  279MPD2     C 4262   4.180   3.420   0.162  0.1597 -0.2403 -0.1267
  279MPD2    C1 4263   4.068   3.452   0.230 -0.8604  0.1281 -0.2519
  279MPD2    C2 4264   3.999   3.562   0.189 -0.5385 -0.2515  0.2768
  279MPD2    C3 4265   4.025   3.631   0.068  0.9794 -0.1401  0.2446
  279MPD2    C4 4266   4.137   3.598   0.000 -0.7813  0.2185  0.6811
  279MPD2    C5 4267   4.214   3.493   0.056 -0.2680 -0.7297  0.2203
  279MPD2     H 4268   3.916   3.584   0.255 -2.0753 -1.7215 -1.1959
  279MPD2    H1 4269   4.174   3.648  17.650 -1.7450  0.8525  0.6441
  279MPD2    H2 4270   4.244   3.339   0.195  2.1051  1.3916  0.1185
  279MPD2    H3 4271   4.301   3.455   0.003 -0.6676  0.1542 -1.0839
  279MPD2     N 4272   3.939   3.728   0.014 -0.2182 -0.0368  0.2675
  279MPD2    H5 4273   3.963   3.771  17.664 -0.6538 -0.3063  0.0164
  279MPD2    N1 4274   4.015   3.370   0.327  0.0613 -0.6945  0.4653
  279MPD2    H7 4275   3.925   3.389   0.370  1.1908  0.4282  2.3278
  280TMC3    C1 4276   3.956   3.201   0.464  0.0117 -0.1042 -0.2865
  280TMC3    C2 4277   3.866   3.111   0.424 -0.0950 -0.3529 -0.1535
  280TMC3    C3 4278   3.734   3.129   0.445 -0.2584  0.3038  0.4417
  280TMC3    C4 4279   3.916   3.301   0.553  0.1415  0.1403 -0.4578
  280TMC3    C5 4280   3.781   3.313   0.578 -0.5762  0.0105 -0.2056
  280TMC3    C6 4281   3.686   3.232   0.526  0.1955  0.3908  0.1622
  280TMC3     C 4282   4.050   3.244   0.359  0.3334  0.2062 -0.3799
  280TMC3     O 4283   4.126   3.171   0.301 -0.2186  0.0428 -0.2782
  280TMC3     H 4284   3.899   3.035   0.353 -0.8515 -1.0681  0.2552
  280TMC3    H1 4285   3.985   3.371   0.600  1.8585 -0.6974 -1.7135
  280TMC3    H2 4286   3.580   3.242   0.547 -0.2579 -1.7686 -1.1746
  280TMC3    C7 4287   3.743   3.452   0.600  0.3197 -0.7090  0.1226
  280TMC3    C8 4288   3.633   3.033   0.400  1.1007  0.5912  0.1196
  280TMC3    O1 4289   3.830   3.538   0.628 -0.4426  0.5175  0.5653
  280TMC3    O2 4290   3.547   3.003   0.483  0.0506 -0.2031 -0.0797
  281TMC3    C1 4291   2.800   3.730  13.607 -1.1588 -0.4855 -0.0685
  281TMC3    C2 4292   2.810   3.808  13.495 -0.3859  0.5446 -0.3607
  281TMC3    C3 4293   2.889   3.771  13.394 -0.1558  0.5211  0.7034
  281TMC3    C4 4294   2.865   3.614  13.613  0.2092 -0.2633 -0.0139
  281TMC3    C5 4295   2.945   3.574  13.509 -0.1938 -0.1863 -0.1253
  281TMC3    C6 4296   2.957   3.654  13.401 -0.5282 -0.7015 -0.0116
  281TMC3     C 4297   2.675   3.728  13.676  0.1678 -0.1823 -0.0960
  281TMC3     O 4298   2.634   3.615  13.696 -0.5919 -0.1576  0.1811
  281TMC3     H 4299   2.744   3.893  13.480  0.7305  1.3972 -0.4588
  281TMC3    H1 4300   2.844   3.542  13.691 -0.2777  1.3985  1.3718
  281TMC3    H2 4301   3.006   3.610  13.314  1.5347 -2.2692  1.9470
  281TMC3    C7 4302   2.966   3.433  13.487  0.1221 -0.2996 -0.4626
  281TMC3    C8 4303   2.815   3.786  13.265  0.4068 -0.2484 -0.4298
  281TMC3    O1 4304   3.067   3.405  13.427 -0.4274  0.1888  0.1340
  281TMC3    O2 4305   2.763   3.679  13.237  0.3728  0.4853  0.2089
  282MPD2     C 4306   4.201   0.022  15.064 -0.0721 -0.1046  0.1602
  282MPD2    C1 4307   4.063   0.053  15.097  0.2650  0.0463 -0.7461
  282MPD2    C2 4308   3.958   4.734  15.028  0.5361  0.0258 -0.0182
  282MPD2    C3 4309   3.986   4.656  14.920 -0.2508  0.9043 -0.0154
  282MPD2    C4 4310   4.114   4.644  14.874 -0.3056 -0.2796 -0.6110
  282MPD2    C5 4311   4.219   4.681  14.950  0.5909  0.2106 -0.0248
  282MPD2     H 4312   3.851   0.004  15.048  0.5737  1.5281 -0.1728
  282MPD2    H1 4313   4.143   4.598  14.780  1.6401  0.1867 -0.2406
  282MPD2    H2 4314   4.289   0.053  15.119 -1.2020 -0.7936  2.3813
  282MPD2    H3 4315   4.320   4.650  14.927 -1.2417 -4.0579 -2.3593
  282MPD2     N 4316   3.880   4.600  14.844 -0.4692  0.3508 -0.2490
  282MPD2    H5 4317   3.789   4.620  14.883  0.1477 -0.2495  1.4635
  282MPD2    N1 4318   4.027   0.148  15.190 -0.9985 -0.2028  0.1516
  282MPD2    H7 4319   3.927   0.162  15.200 -1.1141 -0.4095 -0.7184
  283TMC3    C1 4320   4.042   0.302  15.359 -0.3431  0.0005 -0.3572
  283TMC3    C2 4321   4.095   0.423  15.385 -0.0125 -0.9013 -0.4002
  283TMC3    C3 4322   4.061   0.480  15.505 -0.4443 -0.4633 -0.6926
  283TMC3    C4 4323   3.960   0.241  15.452  0.2563 -0.1351 -0.7661
  283TMC3    C5 4324   3.931   0.301  15.571  0.2933  0.6069  0.0634
  283TMC3    C6 4325   3.985   0.422  15.603  0.5563 -0.9122  0.3777
  283TMC3     C 4326   4.115   0.219  15.267 -0.2098 -0.4904 -0.5305
  283TMC3     O 4327   4.237   0.226  15.271  0.1086  0.1779  0.1208
  283TMC3     H 4328   4.166   0.462  15.313 -0.7786  1.5326  0.1882
  283TMC3    H1 4329   3.936   0.137  15.434 -1.7371  0.0671  0.7263
  283TMC3    H2 4330   3.968   0.459  15.704 -0.7150 -0.5209  0.0214
  283TMC3    C7 4331   3.842   0.229  15.668 -0.2408 -0.6108 -0.2725
  283TMC3    C8 4332   4.136   0.596  15.547  0.8079 -0.7825  0.2733
  283TMC3    O1 4333   3.817   0.283  15.772  0.6278  0.3310 -0.1231
  283TMC3    O2 4334   4.157   0.607  15.666 -0.0887  0.0083  0.3626
  284MPD2     C 4335   2.108   4.285  12.213  0.2003  0.0460 -0.6286
  284MPD2    C1 4336   2.125   4.303  12.074 -0.7691 -0.1722 -0.6366
  284MPD2    C2 4337   2.081   4.198  11.986 -0.9172 -0.3441 -0.1594
  284MPD2    C3 4338   2.055   4.069  12.043  0.2788  0.2728  0.1008
  284MPD2    C4 4339   2.051   4.053  12.181  0.3319  0.1954 -0.1905
  284MPD2    C5 4340   2.073   4.165  12.266 -0.3805 -0.2116 -0.3910
  284MPD2     H 4341   2.090   4.222  11.880  0.2796 -1.4536 -0.2952
  284MPD2    H1 4342   2.030   3.952  12.213 -0.4709 -0.0702 -1.5595
  284MPD2    H2 4343   2.138   4.367  12.279 -0.1278  1.0068 -1.6697
  284MPD2    H3 4344   2.072   4.163  12.374  1.1652 -0.4239 -0.3796
  284MPD2     N 4345   2.019   3.960  11.957  0.1151 -0.3181 -0.0244
  284MPD2    H5 4346   2.019   3.868  12.001  1.1764 -0.3399 -0.0706
  284MPD2    N1 4347   2.182   4.415  12.017 -0.6807 -0.2360 -0.5440
  284MPD2    H7 4348   2.194   4.417  11.916 -0.2933  0.1238 -0.4900
  285TMC3    C1 4349   2.283   4.618  11.997  0.8575  0.5853 -0.0748
  285TMC3    C2 4350   2.386   4.572  11.926 -0.0185 -0.1432 -0.3496
  285TMC3    C3 4351   2.464   4.661  11.861  0.3326  0.3705  0.2840
  285TMC3    C4 4352   2.249   0.013  12.016 -0.4109  0.7834 -0.5705
  285TMC3    C5 4353   2.314   0.102  11.934 -0.0724  0.0227 -0.1831
  285TMC3    C6 4354   2.426   0.058  11.862 -0.5007 -0.4696  0.0375
  285TMC3     C 4355   2.221   4.528  12.087  0.1523 -0.7420 -0.1131
  285TMC3     O 4356   2.215   4.564  12.202  0.0187  0.0692  0.2614
  285TMC3     H 4357   2.409   4.466  11.928 -1.5769 -0.4224  2.2766
  285TMC3    H1 4358   2.163   0.042  12.076  0.1410  0.2473  0.4913
  285TMC3    H2 4359   2.482   0.137  11.813 -0.2248  0.1990  1.4372
  285TMC3    C7 4360   2.262   0.230  11.893  0.4190 -0.2086 -0.0416
  285TMC3    C8 4361   2.499   4.610  11.732  0.3566  0.1835 -0.0306
  285TMC3    O1 4362   2.337   0.311  11.835  0.0575  0.0273  0.8832
  285TMC3    O2 4363   2.475   4.489  11.700  0.6284 -0.5668 -0.1440
  286MPD2     C 4364   2.990   3.448   1.998  0.3663 -0.2058  0.2640
  286MPD2    C1 4365   2.951   3.440   1.865  0.2715  1.2704  0.3638
  286MPD2    C2 4366   3.009   3.354   1.776 -0.2101 -0.8029  0.2206
  286MPD2    C3 4367   3.118   3.279   1.811  0.2697 -0.2679 -0.1730
  286MPD2    C4 4368   3.158   3.285   1.942  0.2216 -0.4640  0.0723
  286MPD2    C5 4369   3.094   3.368   2.032 -0.1696 -0.0060 -0.0451
  286MPD2     H 4370   2.961   3.341   1.680  0.8078  3.0218 -0.7965
  286MPD2    H1 4371   3.232   3.217   1.985 -0.7947 -1.0741  0.8731
  286MPD2    H2 4372   2.943   3.508   2.074 -0.4192 -0.2663 -0.1763
  286MPD2    H3 4373   3.135   3.372   2.133 -0.8551 -0.4806  0.2562
  286MPD2     N 4374   3.177   3.183   1.721  0.4056 -0.2266 -0.8097
  286MPD2    H5 4375   3.250   3.126   1.763  0.5307  0.7605  0.3017
  286MPD2    N1 4376   2.851   3.518   1.812 -0.2928 -0.1049 -0.0903
  286MPD2    H7 4377   2.828   3.492   1.716  0.2322 -1.0346  0.0261
  287TMC3    C1 4378   3.259   3.083   1.519 -0.4260  0.3133 -0.6498
  287TMC3    C2 4379   3.228   3.039   1.397 -0.2884 -0.2888  0.3226
  287TMC3    C3 4380   3.329   2.996   1.320  0.4815 -0.5544  0.0760
  287TMC3    C4 4381   3.390   3.087   1.562 -0.4234  0.2504  0.0438
  287TMC3    C5 4382   3.483   3.026   1.488 -0.1535 -0.0891 -0.1762
  287TMC3    C6 4383   3.458   2.979   1.366  0.3488 -0.1830  0.0409
  287TMC3     C 4384   3.166   3.170   1.582  1.0334 -0.9674 -0.2556
  287TMC3     O 4385   3.076   3.214   1.511 -0.4513 -0.1585 -0.2375
  287TMC3     H 4386   3.122   3.045   1.374 -0.4918 -0.4532  1.2265
  287TMC3    H1 4387   3.406   3.133   1.659  0.9904 -0.3049  0.0749
  287TMC3    H2 4388   3.530   2.921   1.310 -2.0783 -3.8134  0.6601
  287TMC3    C7 4389   3.610   2.978   1.547 -0.3793 -0.1892 -0.1349
  287TMC3    C8 4390   3.296   2.927   1.201  0.2857 -1.1423 -0.3439
  287TMC3    O1 4391   3.707   2.927   1.490  0.2123 -0.2181 -0.0314
  287TMC3    O2 4392   3.195   2.854   1.193  0.2871 -0.1086  0.3053
  288TMC3    C1 4393   0.188   2.984  14.454  0.2851  0.2881 -0.6323
  288TMC3    C2 4394   0.078   2.970  14.534 -0.1864 -0.5838  0.4518
  288TMC3    C3 4395   4.723   3.074  14.537  0.0319 -0.4927  0.1022
  288TMC3    C4 4396   0.203   3.091  14.370  0.2273  0.0653 -0.1707
  288TMC3    C5 4397   0.100   3.186  14.372 -0.8767  0.4663  0.8362
  288TMC3    C6 4398   4.730   3.182  14.453  0.6240  0.7146 -0.0451
  288TMC3     C 4399   0.297   2.892  14.480  0.0802  0.3868 -0.2511
  288TMC3     O 4400   0.288   2.823  14.582  0.4440 -0.1428  0.4349
  288TMC3     H 4401   0.060   2.876  14.584  2.1665 -0.2088  1.9993
  288TMC3    H1 4402   0.286   3.108  14.303  0.9901 -2.3661  0.1574
  288TMC3    H2 4403   4.655   3.258  14.470 -0.6458 -0.4824 -0.3368
  288TMC3    C7 4404   0.085   3.252  14.243 -0.3617 -0.0478  0.4046
  288TMC3    C8 4405   4.633   3.081  14.648  0.1035 -0.0409 -0.0408
  288TMC3    O1 4406   0.183   3.266  14.175 -0.2365  0.7705  0.2760
  288TMC3    O2 4407   4.625   3.189  14.709  0.3527  0.2141 -0.2994
  289MPD2     C 4408   4.669   1.898  15.019 -0.3676  0.3869 -0.2202
  289MPD2    C1 4409   4.666   1.944  14.889 -0.0850  0.0225  0.2246
  289MPD2    C2 4410   4.554   1.928  14.805  0.4671 -0.7731  0.3526
  289MPD2    C3 4411   4.446   1.854  14.853 -0.1369 -0.0117  0.3734
  289MPD2    C4 4412   4.445   1.804  14.982 -0.0887  0.8640  0.4069
  289MPD2    C5 4413   4.554   1.830  15.063 -0.1935  0.1882 -0.0800
  289MPD2     H 4414   4.544   1.967  14.704 -1.2109  0.9796  1.1998
  289MPD2    H1 4415   4.362   1.742  15.013  0.7643 -0.6743 -0.3967
  289MPD2    H2 4416   0.021   1.906  15.083  0.1134 -0.5242 -0.7745
  289MPD2    H3 4417   4.548   1.792  15.165 -3.1330  3.1739  0.8396
  289MPD2     N 4418   4.327   1.836  14.777  0.4135  0.4652 -0.8057
  289MPD2    H5 4419   4.251   1.790  14.825  0.9939 -1.9924 -2.2564
  289MPD2    N1 4420   0.038   2.030  14.853 -0.1479 -0.8610  0.0977
  289MPD2    H7 4421   0.110   2.049  14.922  1.0480 -1.1720 -1.0781
  290TMC3    C1 4422   4.163   1.912  14.620 -0.1049 -0.1926  0.1656
  290TMC3    C2 4423   4.142   2.027  14.552  0.5849 -0.4868  0.0075
  290TMC3    C3 4424   4.052   2.035  14.448  0.7427  0.4638  0.1707
  290TMC3    C4 4425   4.095   1.803  14.580  0.0349  0.1548 -0.9802
  290TMC3    C5 4426   4.000   1.814  14.486  0.3531 -0.9092 -0.0596
  290TMC3    C6 4427   3.987   1.922  14.406 -0.9149 -0.6700  0.2280
  290TMC3     C 4428   4.303   1.891  14.655  0.1520  0.0015  0.0883
  290TMC3     O 4429   4.380   1.927  14.566 -0.0489 -0.3950  0.4110
  290TMC3     H 4430   4.195   2.115  14.585 -1.1526 -0.1051  1.7922
  290TMC3    H1 4431   4.099   1.715  14.643 -1.8856  0.1860 -0.8024
  290TMC3    H2 4432   3.919   1.930  14.322  1.4317  0.3122 -1.5596
  290TMC3    C7 4433   3.940   1.685  14.450 -0.2058 -0.0947 -0.1492
  290TMC3    C8 4434   4.096   2.130  14.349  0.4164  0.5224  0.1991
  290TMC3    O1 4435   4.007   1.587  14.489  0.6006 -0.6534 -0.3354
  290TMC3    O2 4436   4.102   2.103  14.230  0.1484 -0.6665  0.2523
  291MPD2     C 4437   3.831   2.319   0.359 -0.6695  0.2623  0.1635
  291MPD2    C1 4438   3.855   2.202   0.297 -0.8441  0.5914 -0.5058
  291MPD2    C2 4439   3.967   2.183   0.218 -0.2981 -0.1470 -0.3805
  291MPD2    C3 4440   4.053   2.287   0.197  0.0964  0.2593 -0.5941
  291MPD2    C4 4441   4.025   2.406   0.257  0.3165 -0.2541 -0.5634
  291MPD2    C5 4442   3.913   2.428   0.331  0.6523 -0.3256  0.8532
  291MPD2     H 4443   3.993   2.085   0.178  1.0998 -0.8590  2.2617
  291MPD2    H1 4444   4.103   2.481   0.247 -2.6068  3.1247  2.0960
  291MPD2    H2 4445   3.755   2.337   0.434 -2.0047 -2.2317 -0.5903
  291MPD2    H3 4446   3.899   2.522   0.382  3.3992 -1.1095  3.0619
  291MPD2     N 4447   4.169   2.282   0.119 -0.1839 -0.1703 -0.3406
  291MPD2    H5 4448   4.200   2.372   0.084 -0.6172  0.8863  1.9673
  291MPD2    N1 4449   3.762   2.100   0.319  0.0351  0.0565 -0.0212
  291MPD2    H7 4450   3.688   2.114   0.387  0.9962  1.1075  0.8177
  292TMC3    C1 4451   3.669   1.878   0.309 -0.5794  0.3493 -0.0736
  292TMC3    C2 4452   3.571   1.931   0.388 -0.1640 -0.0257  0.6545
  292TMC3    C3 4453   3.471   1.841   0.424 -0.4193  0.8224  0.1360
  292TMC3    C4 4454   3.685   1.743   0.278 -0.3969 -0.0864 -1.0497
  292TMC3    C5 4455   3.577   1.667   0.305 -0.3537 -0.9848 -0.0635
  292TMC3    C6 4456   3.467   1.714   0.374 -0.1136 -0.2382 -0.1418
  292TMC3     C 4457   3.781   1.971   0.273 -0.0685  0.3573 -0.7653
  292TMC3     O 4458   3.869   1.910   0.216 -0.6057  0.8342 -0.1890
  292TMC3     H 4459   3.554   2.034   0.420 -0.2087 -0.1182  0.9298
  292TMC3    H1 4460   3.757   1.718   0.202 -0.3504 -1.4887 -0.5492
  292TMC3    H2 4461   3.375   1.659   0.389 -0.6739  1.4566  2.7116
  292TMC3    C7 4462   3.562   1.564   0.211  0.2010  0.6741 -0.0919
  292TMC3    C8 4463   3.379   1.884   0.530 -0.0515 -0.0463  0.4674
  292TMC3    O1 4464   3.662   1.503   0.177  0.6258  0.3198  0.0942
  292TMC3    O2 4465   3.418   1.979   0.596  0.2159  0.8699 -0.0947
  293MPD2     C 4466   0.038   3.752  12.761 -0.1957 -0.4928 -0.3758
  293MPD2    C1 4467   4.730   3.651  12.839 -0.2715 -0.0041 -0.3348
  293MPD2    C2 4468   0.079   3.580  12.923 -0.7015 -0.3880  0.0661
  293MPD2    C3 4469   0.214   3.605  12.917  0.4950 -0.2692 -0.3367
  293MPD2    C4 4470   0.263   3.705  12.834 -0.5530  0.6057 -0.1719
  293MPD2    C5 4471   0.171   3.772  12.749  0.0148  0.9555  0.9850
  293MPD2     H 4472   0.032   3.516  12.997  2.4167  0.4646  2.8174
  293MPD2    H1 4473   0.369   3.718  12.819 -0.6682  0.2282 -1.3024
  293MPD2    H2 4474   4.701   3.806  12.701 -0.8802 -1.3768 -0.3529
  293MPD2    H3 4475   0.209   3.849  12.683 -1.2175  1.4869  0.8825
  293MPD2     N 4476   0.297   3.544  13.018 -0.6674 -0.4194 -0.3094
  293MPD2    H5 4477   0.247   3.483  13.082 -1.0170 -1.1551 -1.2767
  293MPD2    N1 4478   4.586   3.633  12.848 -0.1266 -0.0510 -0.1917
  293MPD2    H7 4479   4.530   3.690  12.785  0.4352 -0.1673 -0.8001
  294TMC3    C1 4480   4.383   3.510  12.853 -0.5260  0.5555 -0.4346
  294TMC3    C2 4481   4.349   3.388  12.790 -0.1594 -0.3369  0.2250
  294TMC3    C3 4482   4.258   3.406  12.687 -0.4707 -0.4243 -0.0111
  294TMC3    C4 4483   4.320   3.634  12.833  0.0570 -0.2693 -0.1712
  294TMC3    C5 4484   4.223   3.639  12.737 -0.0986  0.4202 -1.3109
  294TMC3    C6 4485   4.198   3.526  12.661 -0.3078 -0.4398 -0.4865
  294TMC3     C 4486   4.523   3.515  12.893  0.0949 -0.0201 -0.2014
  294TMC3     O 4487   4.557   3.412  12.945 -0.1333 -0.0389  0.6222
  294TMC3     H 4488   4.408   3.297  12.792 -0.6898 -0.6894 -0.2318
  294TMC3    H1 4489   4.343   3.727  12.883  1.1939 -1.6358  1.8241
  294TMC3    H2 4490   4.139   3.533  12.569 -1.6354  0.9668  0.4653
  294TMC3    C7 4491   4.186   3.776  12.702  0.2004  0.0338 -0.1883
  294TMC3    C8 4492   4.247   3.311  12.582  0.3162 -0.0985  1.5920
  294TMC3    O1 4493   4.159   3.855  12.791  0.3332 -0.1041 -0.2647
  294TMC3    O2 4494   4.252   3.354  12.466 -0.3191 -0.2282  0.3296
  295MPD2     C 4495   1.387   2.283   1.152  0.1594  0.6398  0.0844
  295MPD2    C1 4496   1.281   2.239   1.069  0.0374  0.0780  0.5908
  295MPD2    C2 4497   1.165   2.201   1.133 -0.1852 -0.0040  0.7188
  295MPD2    C3 4498   1.151   2.206   1.272 -1.0627 -0.7339 -0.0805
  295MPD2    C4 4499   1.259   2.242   1.352 -1.0991 -0.5963  0.2138
  295MPD2    C5 4500   1.374   2.282   1.290  0.3564  0.0473 -0.8480
  295MPD2     H 4501   1.084   2.154   1.078 -0.8153 -0.5276  2.0950
  295MPD2    H1 4502   1.249   2.255   1.459 -1.0297  0.5715  0.0807
  295MPD2    H2 4503   1.473   2.330   1.105  0.5112 -2.2430 -2.0916
  295MPD2    H3 4504   1.447   2.340   1.345 -0.4153  3.1832 -3.1301
  295MPD2     N 4505   1.031   2.169   1.338  0.5469 -0.3221 -0.3283
  295MPD2    H5 4506   1.036   2.139   1.435  0.8853 -0.2228 -0.3158
  295MPD2    N1 4507   1.280   2.234   0.929  0.3003  0.1199  0.1280
  295MPD2    H7 4508   1.196   2.190   0.894 -0.2075  1.2301 -0.0295
  296TMC3    C1 4509   0.813   2.145   1.370  0.2556  0.2699  0.1569
  296TMC3    C2 4510   0.819   2.240   1.467  0.0516  0.0571  0.3031
  296TMC3    C3 4511   0.717   2.244   1.559  0.3793 -0.8578  0.0597
  296TMC3    C4 4512   0.710   2.055   1.357  0.4302  0.4543 -1.0413
  296TMC3    C5 4513   0.616   2.058   1.459  0.1723  1.1874 -0.1407
  296TMC3    C6 4514   0.616   2.149   1.562  0.1572 -0.7811  0.2488
  296TMC3     C 4515   0.914   2.144   1.275  0.0599 -0.2279 -0.3311
  296TMC3     O 4516   0.870   2.154   1.160  0.5446 -0.5937 -0.7220
  296TMC3     H 4517   0.885   2.324   1.452 -1.3219  0.8107 -1.5687
  296TMC3    H1 4518   0.711   1.978   1.280  2.1992 -0.3772 -0.1805
  296TMC3    H2 4519   0.539   2.142   1.638 -1.5197 -2.5732 -1.6052
  296TMC3    C7 4520   0.510   1.957   1.466 -0.2796  0.0081  0.2526
  296TMC3    C8 4521   0.675   2.379   1.605 -0.2622  0.5977  0.6143
  296TMC3    O1 4522   0.544   1.847   1.430  0.1820  0.3627  0.2642
  296TMC3    O2 4523   0.557   2.389   1.636  0.6954 -0.1793  0.3584
  297MPD2     C 4524   3.351   3.863  16.865  1.0916 -0.4533  0.1221
  297MPD2    C1 4525   3.301   3.882  16.738 -0.3805 -0.0475 -0.5650
  297MPD2    C2 4526   3.358   3.973  16.642 -0.5131 -1.3998 -1.1814
  297MPD2    C3 4527   3.476   4.042  16.670  0.8580 -0.0327 -0.6688
  297MPD2    C4 4528   3.531   4.016  16.794  0.3146 -0.9188 -0.3891
  297MPD2    C5 4529   3.476   3.923  16.887  0.3784  0.4148 -0.0753
  297MPD2     H 4530   3.306   3.987  16.549  1.0668 -1.1064 -2.0191
  297MPD2    H1 4531   3.627   4.054  16.825 -0.0388 -0.6610  0.3807
  297MPD2    H2 4532   3.309   3.797  16.941 -3.2394  1.9613 -0.1834
  297MPD2    H3 4533   3.529   3.902  16.979 -0.1667  2.0942  0.6334
  297MPD2     N 4534   3.533   4.131  16.582 -0.1486 -0.0272 -0.2780
  297MPD2    H5 4535   3.612   4.185  16.615 -0.3999  0.1865 -0.0290
  297MPD2    N1 4536   3.181   3.823  16.687 -0.0150  0.3744 -0.4782
  297MPD2    H7 4537   3.145   3.873  16.606  0.4363  0.1942 -0.7935
  298TMC3    C1 4538   2.966   3.744  16.685  0.5427 -0.2142  0.0960
  298TMC3    C2 4539   2.982   3.784  16.549  0.2794  0.5910  0.4947
  298TMC3    C3 4540   2.899   3.879  16.498  0.0829  0.5668 -0.1072
  298TMC3    C4 4541   2.871   3.814  16.762  0.0759  0.6008 -0.4512
  298TMC3    C5 4542   2.802   3.914  16.702  0.0743  0.0009 -0.4808
  298TMC3    C6 4543   2.817   3.957  16.577  0.1748 -0.3663  0.1785
  298TMC3     C 4544   3.094   3.741  16.753  0.1978  0.2648 -0.5971
  298TMC3     O 4545   3.101   3.688  16.864  0.2325  0.5560 -0.5330
  298TMC3     H 4546   3.062   3.735  16.495  0.6984  0.8140  0.9144
  298TMC3    H1 4547   2.867   3.806  16.870  1.8620 -1.2911 -0.5369
  298TMC3    H2 4548   2.781   4.052  16.539  1.4226 -0.6195 -1.6110
  298TMC3    C7 4549   2.689   3.964  16.775 -0.1608 -0.2439  0.1142
  298TMC3    C8 4550   2.929   3.934  16.368 -0.1055  0.2482  0.3277
  298TMC3    O1 4551   2.697   3.948  16.896 -0.0090  0.1975 -1.0382
  298TMC3    O2 4552   3.036   3.891  16.327  0.5836  0.4129 -0.1302
  299MPD2     C 4553   3.136   4.178  11.365  0.3035 -0.3401  0.0074
  299MPD2    C1 4554   3.224   4.253  11.293 -1.0189 -0.2627 -0.4073
  299MPD2    C2 4555   3.235   4.228  11.159 -0.4919  0.5540 -0.7134
  299MPD2    C3 4556   3.155   4.133  11.096  0.1429 -0.3285 -0.2154
  299MPD2    C4 4557   3.070   4.055  11.174 -0.6796 -0.1149 -0.6677
  299MPD2    C5 4558   3.060   4.084  11.304  0.0496 -0.1213 -0.1645
  299MPD2     H 4559   3.314   4.271  11.097  0.3392 -0.3685 -0.2934
  299MPD2    H1 4560   3.006   3.977  11.134 -2.2398  0.4763  0.6768
  299MPD2    H2 4561   3.121   4.202  11.469  2.0502 -0.4028  0.2836
  299MPD2    H3 4562   2.987   4.028  11.361  0.6536 -1.1641 -0.4197
  299MPD2     N 4563   3.152   4.103  10.957  0.0809  0.0296 -0.4976
  299MPD2    H5 4564   3.089   4.029  10.930 -0.4947 -1.2114  4.1684
  299MPD2    N1 4565   3.304   4.344  11.371  0.1257 -0.5298  0.4032
  299MPD2    H7 4566   3.276   4.359  11.467 -0.2554 -0.8037  0.3323
  300TMC3    C1 4567   3.178   4.133  10.728  0.1172  0.1310  0.2812
  300TMC3    C2 4568   3.270   4.160  10.631  0.2511  0.1737 -0.2653
  300TMC3    C3 4569   3.252   4.106  10.505 -0.0303 -0.0697  0.5574
  300TMC3    C4 4570   3.069   4.055  10.697 -0.3716 -0.3847  0.4546
  300TMC3    C5 4571   3.049   4.008  10.571 -0.0691  0.0491  0.5124
  300TMC3    C6 4572   3.144   4.020  10.477 -0.5915  0.6204 -0.3124
  300TMC3     C 4573   3.225   4.160  10.858 -0.4608 -0.0216  0.3111
  300TMC3     O 4574   3.328   4.219  10.879  0.2801 -0.3135  0.2182
  300TMC3     H 4575   3.365   4.210  10.649  0.1522  0.2841 -0.0553
  300TMC3    H1 4576   2.991   4.048  10.772 -1.5114 -2.0029 -0.8875
  300TMC3    H2 4577   3.131   3.974  10.379  1.2400 -0.0227 -0.2455
  300TMC3    C7 4578   2.923   3.951  10.531  0.6399  0.2131 -0.0864
  300TMC3    C8 4579   3.280   4.215  10.410 -0.1016 -0.4110  0.4877
  300TMC3    O1 4580   2.920   3.879  10.430  0.7252 -0.8146  0.4402
  300TMC3    O2 4581   3.320   4.322  10.444  0.4827 -0.3350 -0.4724
  301MPD2     C 4582   0.792   1.074   1.174 -0.2307 -0.3447 -0.3849
  301MPD2    C1 4583   0.669   1.038   1.219  0.0412  0.2003 -0.1045
  301MPD2    C2 4584   0.640   0.903   1.219  0.2207 -0.3254  0.4246
  301MPD2    C3 4585   0.726   0.816   1.162 -0.1277  0.0302 -0.3042
  301MPD2    C4 4586   0.846   0.855   1.115 -0.5575  0.4808 -0.2262
  301MPD2    C5 4587   0.882   0.982   1.127  0.2584 -0.2871 -0.1355
  301MPD2     H 4588   0.552   0.864   1.269 -1.0766 -1.6462 -2.9017
  301MPD2    H1 4589   0.920   0.784   1.079  0.1114  1.0005  0.1274
  301MPD2    H2 4590   0.829   1.175   1.187 -0.0637 -0.2393 -1.6299
  301MPD2    H3 4591   0.983   1.002   1.095 -0.5465  0.5739 -2.1529
  301MPD2     N 4592   0.708   0.677   1.150  0.0797  0.1660  0.0810
  301MPD2    H5 4593   0.794   0.626   1.132 -1.0541 -2.0488  0.8740
  301MPD2    N1 4594   0.572   1.124   1.268 -0.0598  0.2037 -0.0940
  301MPD2    H7 4595   0.492   1.081   1.315 -0.0525  1.9529  1.5495
  302TMC3    C1 4596   0.590   0.473   1.134 -0.3759  0.6828  0.5118
  302TMC3    C2 4597   0.693   0.424   1.058  0.2168 -0.0578  0.3982
  302TMC3    C3 4598   0.694   0.287   1.047 -0.3181  0.2345  0.5598
  302TMC3    C4 4599   0.473   0.402   1.153  0.9353  0.0777  0.6194
  302TMC3    C5 4600   0.471   0.271   1.119  0.1596 -0.3122  0.0693
  302TMC3    C6 4601   0.586   0.212   1.077 -0.6401 -0.2745 -0.4576
  302TMC3     C 4602   0.586   0.613   1.152  0.4894  0.3996 -0.2459
  302TMC3     O 4603   0.474   0.666   1.161 -0.5312 -0.1539  0.6709
  302TMC3     H 4604   0.781   0.479   1.027 -0.3078  0.6922  0.2272
  302TMC3    H1 4605   0.404   0.450   1.222 -0.6771 -1.1660 -0.1250
  302TMC3    H2 4606   0.585   0.105   1.092 -3.3576 -0.4560 -1.9243
  302TMC3    C7 4607   0.367   0.193   1.184  0.4619  0.0518  0.4401
  302TMC3    C8 4608   0.825   0.229   1.014 -0.4824 -0.1217  0.1442
  302TMC3    O1 4609   0.398   0.089   1.238 -0.0434 -0.1534  0.1627
  302TMC3    O2 4610   0.933   0.289   1.024  0.5056  0.6342 -0.5477
  303MPD2     C 4611   0.593   3.550  10.720  0.8346  0.1513 -0.1495
  303MPD2    C1 4612   0.651   3.433  10.755  0.7506  0.1210 -0.3334
  303MPD2    C2 4613   0.656   3.342  10.652  0.9983 -0.4554 -0.4321
  303MPD2    C3 4614   0.620   3.361  10.520 -0.7314  0.3443 -0.2071
  303MPD2    C4 4615   0.579   3.485  10.489  0.0750  0.1825 -0.1474
  303MPD2    C5 4616   0.550   3.571  10.594 -0.4524 -0.4119  0.0017
  303MPD2     H 4617   0.718   3.256  10.671  0.6466  0.2516  3.8489
  303MPD2    H1 4618   0.553   3.511  10.387 -2.5657  1.2869  0.8247
  303MPD2    H2 4619   0.577   3.628  10.794  0.1868  0.7182 -0.8943
  303MPD2    H3 4620   0.514   3.672  10.577  0.0221 -0.1897  0.3245
  303MPD2     N 4621   0.633   3.265  10.418  0.3864 -0.1681  0.0570
  303MPD2    H5 4622   0.621   3.287  10.320 -4.0132  0.8143  0.8340
  303MPD2    N1 4623   0.695   3.414  10.888 -0.6146 -0.2304 -0.1275
  303MPD2    H7 4624   0.678   3.488  10.956  0.7126 -0.2775  0.2484
  304TMC3    C1 4625   0.769   3.296  11.078 -0.2845 -0.1245 -0.5324
  304TMC3    C2 4626   0.657   3.320  11.154  0.2244 -0.5694 -0.0481
  304TMC3    C3 4627   0.655   3.278  11.285 -0.7446 -0.0709  0.1048
  304TMC3    C4 4628   0.860   3.209  11.125 -0.1322  0.0831 -0.1775
  304TMC3    C5 4629   0.864   3.170  11.256  0.2977  0.4717 -0.2963
  304TMC3    C6 4630   0.764   3.214  11.340 -0.1298  0.5861 -0.1394
  304TMC3     C 4631   0.757   3.297  10.932  0.1175 -0.4816 -0.2532
  304TMC3     O 4632   0.819   3.206  10.870 -0.0756  0.1896 -0.2621
  304TMC3     H 4633   0.565   3.363  11.114  0.8222  1.4673  0.7691
  304TMC3    H1 4634   0.950   3.198  11.066 -1.2376 -1.1445 -1.6220
  304TMC3    H2 4635   0.757   3.179  11.443  2.7089 -1.9143 -0.8067
  304TMC3    C7 4636   0.886   3.027  11.277 -0.0627  0.3787  0.7888
  304TMC3    C8 4637   0.540   3.221  11.341  1.1145  0.0750 -0.2563
  304TMC3    O1 4638   0.873   2.968  11.175  0.2808  0.0551  0.0149
  304TMC3    O2 4639   0.502   3.276  11.441  0.2426  0.3806 -0.7076
  305MPD2     C 4640   4.053   0.951  13.960  0.5068 -0.1433 -0.3917
  305MPD2    C1 4641   4.102   0.828  13.986 -0.2397  0.3175 -0.2790
  305MPD2    C2 4642   4.060   0.727  13.898 -0.1360 -0.2236  0.4296
  305MPD2    C3 4643   3.968   0.744  13.798  0.3239  0.1678 -0.5810
  305MPD2    C4 4644   3.910   0.870  13.789  0.7715  0.1389 -0.3471
  305MPD2    C5 4645   3.963   0.971  13.867 -0.3028  0.3598  0.2988
  305MPD2     H 4646   4.113   0.635  13.921  3.9990  1.7869 -1.1114
  305MPD2    H1 4647   3.839   0.901  13.712  0.8227  1.6274  0.1986
  305MPD2    H2 4648   4.085   1.035  14.021 -0.1173 -0.6455  0.6391
  305MPD2    H3 4649   3.936   1.076  13.859 -1.3485  0.1958  1.6782
  305MPD2     N 4650   3.926   0.645  13.710 -0.6855 -0.3437 -0.1454
  305MPD2    H5 4651   3.847   0.660  13.648 -0.8730 -0.6493  0.0189
  305MPD2    N1 4652   4.198   0.823  14.088  0.0836  0.0522 -0.5261
  305MPD2    H7 4653   4.218   0.913  14.130 -1.1855 -0.8615  2.0594
  306TMC3    C1 4654   4.385   0.739  14.221 -0.0862 -0.5382  0.7918
  306TMC3    C2 4655   4.435   0.630  14.290  0.7463  0.4229  0.4490
  306TMC3    C3 4656   4.535   0.660  14.383 -0.5992 -0.5736 -0.0610
  306TMC3    C4 4657   4.421   0.867  14.254  0.1493 -0.0381 -0.1768
  306TMC3    C5 4658   4.521   0.881  14.338 -0.1926 -0.6486 -0.1212
  306TMC3    C6 4659   4.586   0.784  14.406  0.8355  0.5899 -0.3053
  306TMC3     C 4660   4.269   0.712  14.137  0.5787  0.2754 -0.3295
  306TMC3     O 4661   4.250   0.593  14.104  0.0311 -0.2420  0.3462
  306TMC3     H 4662   4.409   0.526  14.269  0.8572  0.8881 -2.0732
  306TMC3    H1 4663   4.394   0.952  14.191 -1.1749 -1.2400 -1.2471
  306TMC3    H2 4664   4.665   0.796  14.479  1.4214 -0.2958 -0.7954
  306TMC3    C7 4665   4.544   1.017  14.385  0.3736  1.2778  0.0348
  306TMC3    C8 4666   4.552   0.556  14.486  0.1433 -0.3308 -0.4182
  306TMC3    O1 4667   4.535   1.106  14.302  0.1094  0.8941  0.2382
  306TMC3    O2 4668   4.645   0.571  14.562 -0.5975  0.0117  0.2665
  307MPD2     C 4669   2.633   3.531   0.522  0.0154 -0.6685 -0.1608
  307MPD2    C1 4670   2.527   3.603   0.571 -0.9748  0.4165 -0.5286
  307MPD2    C2 4671   2.483   3.586   0.702  0.6529  0.4801  1.1101
  307MPD2    C3 4672   2.526   3.468   0.765 -0.3044  0.0735  0.4108
  307MPD2    C4 4673   2.617   3.386   0.708 -0.1035 -0.3222 -0.3866
  307MPD2    C5 4674   2.679   3.425   0.594  0.0332  0.1073  0.5309
  307MPD2     H 4675   2.412   3.657   0.743 -0.4274 -0.0936  0.2517
  307MPD2    H1 4676   2.652   3.303   0.768  1.7875  0.0356 -0.9994
  307MPD2    H2 4677   2.681   3.549   0.427 -1.5547 -1.5977 -1.1263
  307MPD2    H3 4678   2.764   3.367   0.561 -0.0351 -0.1395  0.7823
  307MPD2     N 4679   2.466   3.441   0.889 -0.6818 -0.3013 -0.1725
  307MPD2    H5 4680   2.401   3.516   0.909  1.8763  1.0307  3.2336
  307MPD2    N1 4681   2.464   3.710   0.489  0.3843 -0.1758  0.6544
  307MPD2    H7 4682   2.378   3.756   0.518  0.4458  1.4228 -1.6903
  308TMC3    C1 4683   2.146   3.341   1.070 -0.2229  0.2700 -0.0538
  308TMC3    C2 4684   2.128   3.447   1.152 -0.3729  0.7326 -0.2117
  308TMC3    C3 4685   2.249   3.508   1.192 -0.4590  0.7715 -0.6687
  308TMC3    C4 4686   2.267   3.286   1.050 -0.2566 -0.5086 -0.1050
  308TMC3    C5 4687   2.379   3.351   1.083  0.3460  0.1439  0.3827
  308TMC3    C6 4688   2.376   3.476   1.146  0.2095 -0.0739 -0.6621
  308TMC3     C 4689   2.037   3.266   1.025  0.5477 -0.2642 -0.6526
  308TMC3     O 4690   2.058   3.160   0.970  0.5264  0.6470  0.2415
  308TMC3     H 4691   2.035   3.484   1.194 -0.2600 -1.7314  2.2325
  308TMC3    H1 4692   2.282   3.211   0.973 -0.6777  1.3389 -1.9702
  308TMC3    H2 4693   2.466   3.528   1.177 -0.0009 -1.5957  2.5106
  308TMC3    C7 4694   2.480   3.338   0.973  0.1548  0.7863 -0.3549
  308TMC3    C8 4695   2.239   3.634   1.251 -0.5331 -0.6325 -0.0116
  308TMC3    O1 4696   2.533   3.228   0.956 -0.2166 -0.1483  0.0227
  308TMC3    O2 4697   2.319   3.652   1.343 -0.1858 -0.0200  0.9621
  309MPD2     C 4698   1.363   3.925  17.628  0.0851 -0.2449 -0.1542
  309MPD2    C1 4699   1.277   3.942  17.520  0.1141  0.8327  0.7314
  309MPD2    C2 4700   1.155   3.998  17.546 -0.1105  0.1110  0.1073
  309MPD2    C3 4701   1.126   4.043  17.675 -0.1622 -0.4831  0.0224
  309MPD2    C4 4702   1.217   4.046   0.040 -0.2772 -0.3559  0.6268
  309MPD2    C5 4703   1.330   3.981   0.014 -0.2355 -0.6413  0.6381
  309MPD2     H 4704   1.087   3.997  17.462  1.3054  1.5537 -1.0606
  309MPD2    H1 4705   1.193   4.080   0.140 -0.8818 -1.5796  0.8956
  309MPD2    H2 4706   1.448   3.857  17.628 -0.5564 -1.0139  2.1276
  309MPD2    H3 4707   1.401   3.968   0.095  0.0232  2.4198  0.8914
  309MPD2     N 4708   1.004   4.103  17.704  0.3252 -0.5315 -0.2828
  309MPD2    H5 4709   0.984   4.138   0.059  0.6437 -1.5284  0.1587
  309MPD2    N1 4710   1.306   3.896  17.387 -0.9782  0.2671 -0.1253
  309MPD2    H7 4711   1.224   3.911  17.328  0.2019 -0.9703 -2.1214
  310TMC3    C1 4712   1.424   3.781  17.214  0.4084  0.6031  1.1973
  310TMC3    C2 4713   1.341   3.850  17.127  0.3082 -1.0771 -0.0091
  310TMC3    C3 4714   1.338   3.807  16.999 -0.7718 -0.5458  0.0466
  310TMC3    C4 4715   1.504   3.676  17.177  0.5899 -0.0942  0.2303
  310TMC3    C5 4716   1.496   3.640  17.042 -0.6834 -0.0469  0.3607
  310TMC3    C6 4717   1.420   3.702  16.947  0.0515 -0.2110 -0.2790
  310TMC3     C 4718   1.420   3.818  17.356  0.2412  0.0108 -0.0733
  310TMC3     O 4719   1.510   3.786  17.428 -0.1788  0.0875 -0.3444
  310TMC3     H 4720   1.287   3.941  17.152  1.0138 -0.0883 -2.1618
  310TMC3    H1 4721   1.577   3.638  17.247  0.5257 -1.4779 -0.4728
  310TMC3    H2 4722   1.421   3.669  16.844 -0.5233 -1.0946  0.0001
  310TMC3    C7 4723   1.608   3.571  16.978 -0.0865 -0.6079 -0.7772
  310TMC3    C8 4724   1.256   3.879  16.904 -0.5903 -0.8389 -0.1176
  310TMC3    O1 4725   1.604   3.556  16.858 -0.1468  0.6800 -0.3169
  310TMC3    O2 4726   1.293   3.867  16.788  0.6978  0.1836 -0.0540
  311MPD2     C 4727   2.964   0.621  12.440  0.8369 -0.3502 -0.4451
  311MPD2    C1 4728   2.971   0.682  12.563  0.4264  0.2365  0.0442
  311MPD2    C2 4729   2.896   0.630  12.664  0.0348 -0.0637  0.2494
  311MPD2    C3 4730   2.849   0.499  12.657  0.2738 -0.1001 -0.3200
  311MPD2    C4 4731   2.868   0.431  12.539  0.7057 -1.1766  0.0364
  311MPD2    C5 4732   2.920   0.495  12.426  0.7899 -0.7346 -0.7252
  311MPD2     H 4733   2.887   0.695  12.751  0.9228  0.4756 -0.0537
  311MPD2    H1 4734   2.837   0.327  12.536  1.7024 -1.4455 -1.2237
  311MPD2    H2 4735   3.006   0.653  12.345  0.8677  0.2417 -0.2322
  311MPD2    H3 4736   2.926   0.453  12.327 -0.0114 -1.6666 -0.3766
  311MPD2     N 4737   2.782   0.442  12.766  0.1496 -0.4917  0.2646
  311MPD2    H5 4738   2.786   0.494  12.853 -0.6753 -0.6102  0.3703
  311MPD2    N1 4739   3.043   0.801  12.595  0.1332 -0.6341 -0.5896
  311MPD2    H7 4740   3.028   0.854  12.681 -1.5546 -3.4266  0.8192
  312TMC3    C1 4741   2.649   0.284  12.887 -0.1483  0.2422  0.4985
  312TMC3    C2 4742   2.566   0.176  12.882  0.3023 -0.0918 -0.0951
  312TMC3    C3 4743   2.521   0.119  12.994  0.7113 -0.3514  0.0325
  312TMC3    C4 4744   2.694   0.339  13.005  0.3779  0.2984  0.6060
  312TMC3    C5 4745   2.657   0.275  13.122 -0.1802  0.1620  0.4345
  312TMC3    C6 4746   2.571   0.170  13.111 -0.2628  0.0077  0.7552
  312TMC3     C 4747   2.706   0.322  12.761  0.2306 -0.2000 -0.1108
  312TMC3     O 4748   2.670   0.258  12.661 -0.5009  0.0514 -0.1762
  312TMC3     H 4749   2.552   0.124  12.788  0.7595  1.0171 -0.7898
  312TMC3    H1 4750   2.762   0.422  13.013 -0.9477  1.6125 -1.5650
  312TMC3    H2 4751   2.527   0.140  13.205  0.9363 -2.2330  0.5877
  312TMC3    C7 4752   2.658   0.357  13.244 -0.6559  0.3941  0.4366
  312TMC3    C8 4753   2.381   0.081  13.002 -0.3490  0.6260 -0.4165
  312TMC3    O1 4754   2.667   0.478  13.229  0.2864  0.0087  0.4004
  312TMC3    O2 4755   2.331   0.042  13.106  0.8467 -0.6118  0.2296
  313MPD2     C 4756   1.909   4.527  11.481  0.6212  0.3013 -0.1680
  313MPD2    C1 4757   1.960   4.618  11.385 -0.3130  0.1514 -0.5406
  313MPD2    C2 4758   1.947   4.582  11.249 -0.7370  0.5452  0.2468
  313MPD2    C3 4759   1.885   4.466  11.212  0.9260  1.2571  0.0886
  313MPD2    C4 4760   1.830   4.381  11.310 -0.4869  0.0164  0.8080
  313MPD2    C5 4761   1.839   4.423  11.440  0.1224  0.2356 -0.0570
  313MPD2     H 4762   1.987   4.648  11.173  0.3585  2.2399  2.2977
  313MPD2    H1 4763   1.787   4.285  11.287  0.8496 -0.4810  0.3792
  313MPD2    H2 4764   1.924   4.545  11.587  0.5612 -1.3663  0.1264
  313MPD2    H3 4765   1.816   4.358  11.523 -0.3227  0.5517  0.0685
  313MPD2     N 4766   1.875   4.433  11.072 -0.5371 -0.0532  0.5140
  313MPD2    H5 4767   1.931   4.480  11.001  1.0296  1.8597  3.0052
  313MPD2    N1 4768   2.037   0.002  11.423  0.3232  0.2995 -0.6785
  313MPD2    H7 4769   2.043   0.074  11.352  3.2733  0.7837  0.0605
  314TMC3    C1 4770   2.092   0.166  11.563  0.1716  0.6265 -0.3375
  314TMC3    C2 4771   2.216   0.218  11.540 -0.0210 -0.8537 -0.2037
  314TMC3    C3 4772   2.223   0.343  11.495  0.6331  0.3012 -0.6504
  314TMC3    C4 4773   1.980   0.240  11.533 -0.0872  0.3419 -0.7550
  314TMC3    C5 4774   1.994   0.371  11.505  0.0558 -0.2312  1.1284
  314TMC3    C6 4775   2.114   0.425  11.472 -0.5560 -0.6015 -0.4560
  314TMC3     C 4776   2.079   0.029  11.554  0.3605  0.0072 -0.4066
  314TMC3     O 4777   2.104   4.693  11.650  0.1568  0.3374 -0.4866
  314TMC3     H 4778   2.298   0.149  11.553  0.3163 -0.2523  0.9113
  314TMC3    H1 4779   1.879   0.204  11.547  0.5255 -1.7579 -1.6547
  314TMC3    H2 4780   2.137   0.527  11.445 -1.4148 -0.4934 -0.7541
  314TMC3    C7 4781   1.869   0.439  11.472 -0.3301  0.2590 -0.1318
  314TMC3    C8 4782   2.352   0.397  11.463  0.6429  0.5743 -0.0909
  314TMC3    O1 4783   1.779   0.428  11.557 -0.4670  0.1198 -0.3778
  314TMC3    O2 4784   2.358   0.468  11.365 -0.2090  0.0362  0.0392
  315MPD2     C 4785   2.821   3.167   0.122 -0.6264 -0.0637 -0.1606
  315MPD2    C1 4786   2.849   3.195   0.253 -0.3039  0.9299  0.2624
  315MPD2    C2 4787   2.869   3.331   0.286 -0.6817 -0.3312 -0.1502
  315MPD2    C3 4788   2.876   3.431   0.183  0.7973 -0.2415 -0.2368
  315MPD2    C4 4789   2.836   3.398   0.059  0.6971  0.0102  0.0710
  315MPD2    C5 4790   2.807   3.269   0.027  0.6680  0.3896  0.5914
  315MPD2     H 4791   2.888   3.357   0.389  2.9862  0.0482 -0.8979
  315MPD2    H1 4792   2.844   3.477  17.725  0.5310 -0.9880 -1.0337
  315MPD2    H2 4793   2.834   3.068   0.079  1.7423  0.2246 -0.0973
  315MPD2    H3 4794   2.783   3.251  17.661  2.1059  1.5178  0.0592
  315MPD2     N 4795   2.900   3.559   0.233 -0.0638  0.2365 -0.1142
  315MPD2    H5 4796   2.926   3.563   0.331 -1.5452 -0.2683  0.2964
  315MPD2    N1 4797   2.868   3.109   0.356  0.4640  1.2874 -0.2693
  315MPD2    H7 4798   2.904   3.151   0.441 -2.8377 -0.0649  1.8094
  316TMC3    C1 4799   2.907   3.794   0.243 -0.4124 -0.2590  0.7362
  316TMC3    C2 4800   3.001   3.776   0.344 -0.7063  0.2589 -0.2493
  316TMC3    C3 4801   3.038   3.883   0.421  0.3113  0.4342  0.6461
  316TMC3    C4 4802   2.839   3.917   0.221 -0.2532 -0.3279  0.2374
  316TMC3    C5 4803   2.869   4.014   0.314  0.2313  0.0914 -0.0576
  316TMC3    C6 4804   2.976   4.006   0.404 -0.2596 -0.9329 -0.3177
  316TMC3     C 4805   2.869   3.678   0.165  0.9720 -0.0692 -0.2887
  316TMC3     O 4806   2.792   3.694   0.075  0.1633 -0.4104 -0.5956
  316TMC3     H 4807   3.048   3.681   0.364 -1.0748  0.2284  0.4815
  316TMC3    H1 4808   2.759   3.925   0.149 -0.2156  0.6443  0.2923
  316TMC3    H2 4809   2.998   4.087   0.472 -0.7636 -0.1147 -1.1462
  316TMC3    C7 4810   2.793   4.139   0.309  0.4059 -0.1089  0.2631
  316TMC3    C8 4811   3.151   3.880   0.515  0.8863  0.6487  1.0475
  316TMC3    O1 4812   2.801   4.201   0.412 -0.2299 -0.1384 -0.0931
  316TMC3    O2 4813   3.162   3.980   0.582 -0.4577 -0.1473 -0.5113
  317MPD2     C 4814   3.975   1.796  12.874 -0.1545 -0.0406 -0.3957
  317MPD2    C1 4815   4.096   1.777  12.802  0.7904  0.4930 -0.0679
  317MPD2    C2 4816   4.210   1.720  12.860  0.2038 -0.5036  0.0050
  317MPD2    C3 4817   4.207   1.689  12.991  0.0654  0.9570 -0.1929
  317MPD2    C4 4818   4.096   1.717  13.062  0.5129 -0.1278  0.0644
  317MPD2    C5 4819   3.980   1.766  13.011 -0.0745  0.2095  0.0821
  317MPD2     H 4820   4.298   1.708  12.798 -0.5216 -0.1841 -1.0875
  317MPD2    H1 4821   4.093   1.693  13.167 -1.1546 -0.6771 -0.1075
  317MPD2    H2 4822   3.883   1.846  12.843  0.8193  2.6713  1.0436
  317MPD2    H3 4823   3.895   1.763  13.079  1.6179 -1.5644  2.0987
  317MPD2     N 4824   4.321   1.630  13.054  0.4032  0.5533 -0.1311
  317MPD2    H5 4825   4.303   1.603  13.150  3.1879  0.7115  0.4416
  317MPD2    N1 4826   4.109   1.805  12.660  0.1026 -0.0440 -0.1430
  317MPD2    H7 4827   4.194   1.772  12.615  0.7783 -1.0825  1.8729
  318TMC3    C1 4828   4.514   1.508  13.083 -0.3570 -0.5467  0.5851
  318TMC3    C2 4829   4.444   1.427  13.177  0.8567  1.1111 -0.3092
  318TMC3    C3 4830   4.514   1.347  13.263  0.2896  0.4797  0.3129
  318TMC3    C4 4831   4.653   1.490  13.064  1.0047 -0.5709  0.0531
  318TMC3    C5 4832   4.712   1.397  13.135 -0.3148  0.2847 -0.2023
  318TMC3    C6 4833   4.644   1.318  13.226  0.1754  0.6220  0.1415
  318TMC3     C 4834   4.441   1.598  12.995 -0.1476 -0.4978 -1.3021
  318TMC3     O 4835   4.488   1.625  12.885 -0.2985  0.2996 -0.4436
  318TMC3     H 4836   4.336   1.435  13.186  0.9525  2.3663 -0.3362
  318TMC3    H1 4837   4.709   1.562  13.006 -2.2871  1.3792 -0.7192
  318TMC3    H2 4838   4.696   1.251  13.294  2.3207  1.6109 -0.5284
  318TMC3    C7 4839   0.119   1.424  13.157  0.5828 -0.2389 -0.5969
  318TMC3    C8 4840   4.447   1.260  13.360  0.4146  0.3327  0.4863
  318TMC3    O1 4841   0.190   1.486  13.085  0.1224  0.3051  0.1864
  318TMC3    O2 4842   4.491   1.149  13.380  0.7599  0.3592 -0.0028
  319MPD2     C 4843   0.879   3.397  16.404 -0.0353  0.0101  0.0323
  319MPD2    C1 4844   0.764   3.402  16.481 -0.0859  0.5816 -0.3499
  319MPD2    C2 4845   0.647   3.383  16.413  0.2264  0.5058  0.4150
  319MPD2    C3 4846   0.635   3.348  16.279  0.5149  0.3307  0.2677
  319MPD2    C4 4847   0.754   3.324  16.207  0.3919  0.0263  0.0145
  319MPD2    C5 4848   0.870   3.362  16.272  0.2668 -0.1989 -0.7204
  319MPD2     H 4849   0.560   3.398  16.476 -1.0239  0.6427 -1.3554
  319MPD2    H1 4850   0.754   3.300  16.102  1.5200  0.9007 -0.1862
  319MPD2    H2 4851   0.978   3.427  16.438 -0.5633  1.9395 -0.1674
  319MPD2    H3 4852   0.956   3.355  16.206 -0.9864 -0.6579 -2.3049
  319MPD2     N 4853   0.515   3.319  16.209 -0.3545 -0.1523 -0.0334
  319MPD2    H5 4854   0.523   3.275  16.118  1.8963 -0.3122  0.2298
  319MPD2    N1 4855   0.763   3.430  16.619  0.3708  0.3926 -0.0579
  319MPD2    H7 4856   0.676   3.430  16.672  1.5061 -0.4635  1.8073
  320TMC3    C1 4857   0.286   3.327  16.151  0.1638  1.1419  0.1336
  320TMC3    C2 4858   0.235   3.415  16.059 -0.6630  0.4070  0.3174
  320TMC3    C3 4859   0.165   3.375  15.948  0.1566  0.1009  0.3741
  320TMC3    C4 4860   0.281   3.193  16.129  0.6073 -0.3227  0.0772
  320TMC3    C5 4861   0.211   3.153  16.015  0.0990  0.1920  0.3609
  320TMC3    C6 4862   0.152   3.236  15.925 -0.3197  0.7449 -0.2668
  320TMC3     C 4863   0.394   3.378  16.237  0.2153 -0.2640  0.5697
  320TMC3     O 4864   0.354   3.438  16.334 -0.1838  0.2635 -0.0753
  320TMC3     H 4865   0.249   3.521  16.075 -0.5486  0.5490 -0.7258
  320TMC3    H1 4866   0.332   3.125  16.197  1.1224  0.4708  0.4812
  320TMC3    H2 4867   0.093   3.196  15.844 -0.8251 -1.8418  1.3762
  320TMC3    C7 4868   0.166   3.016  16.009  0.0548  0.0399  0.1767
  320TMC3    C8 4869   0.079   3.464  15.881 -0.2836  0.3537 -0.0131
  320TMC3    O1 4870   0.186   2.967  15.899  0.4483 -0.0301 -0.0285
  320TMC3    O2 4871   0.059   3.573  15.930  0.5442  0.0933  0.1907
  321TMC3    C1 4872   0.840   3.488  16.826 -0.0211  0.3428  0.0230
  321TMC3    C2 4873   0.762   3.395  16.886  0.4110 -0.1720 -0.2616
  321TMC3    C3 4874   0.705   3.434  17.006  0.0466  0.3780 -0.3903
  321TMC3    C4 4875   0.896   3.597  16.894  0.3444  0.5678 -0.1584
  321TMC3    C5 4876   0.836   3.630  17.012 -0.2318  0.8546  0.2022
  321TMC3    C6 4877   0.731   3.558  17.051 -0.4924 -0.3373 -0.1440
  321TMC3     C 4878   0.873   3.467  16.690  0.4210 -0.1009  0.0479
  321TMC3     O 4879   0.986   3.494  16.651 -0.0411  0.2168 -0.5349
  321TMC3     H 4880   0.745   3.303  16.832  0.1425 -0.8054  0.9193
  321TMC3    H1 4881   0.963   3.668  16.846  0.6123 -0.7843 -1.7697
  321TMC3    H2 4882   0.679   3.587  17.141 -0.7596  1.0549 -0.7468
  321TMC3    C7 4883   0.931   3.648  17.126 -0.2416  0.5816 -0.4538
  321TMC3    C8 4884   0.727   3.340  17.119  0.5449 -0.2499  0.9408
  321TMC3    O1 4885   1.045   3.637  17.084 -0.2283  0.2511  0.7601
  321TMC3    O2 4886   0.734   3.390  17.232 -0.4080  0.1954  0.7289
  322MPD2     C 4887   4.125   4.647  13.857  0.0064 -0.4345  0.0945
  322MPD2    C1 4888   4.196   4.572  13.946  0.2635  0.1325  0.1874
  322MPD2    C2 4889   4.276   4.466  13.906  0.1164 -0.4840  0.6613
  322MPD2    C3 4890   4.285   4.446  13.772  0.4176 -0.2916 -0.1786
  322MPD2    C4 4891   4.223   4.531  13.670  0.2957 -0.4906 -0.0283
  322MPD2    C5 4892   4.147   4.635  13.718 -0.9495 -0.4586 -0.0432
  322MPD2     H 4893   4.329   4.401  13.975 -0.8076 -0.9976  0.8911
  322MPD2    H1 4894   4.241   4.515  13.564  0.9640 -0.5703  0.1000
  322MPD2    H2 4895   4.052   4.718  13.891 -0.4393 -1.0391  0.3895
  322MPD2    H3 4896   4.103   4.712  13.656  0.1243 -0.1937 -0.4841
  322MPD2     N 4897   4.376   4.347  13.739  0.6515 -0.5716  0.0248
  322MPD2    H5 4898   4.396   4.280  13.813 -0.2137 -0.2582  0.5403
  322MPD2    N1 4899   4.196   4.611  14.082 -0.0556  0.1595  0.1420
  322MPD2    H7 4900   4.167   4.707  14.093 -0.9301 -0.0621 -0.2172
  323TMC3    C1 4901   4.238   4.600  14.322 -0.1860  0.3736 -0.0525
  323TMC3    C2 4902   4.298   4.728  14.323  0.6142 -0.1983 -0.4344
  323TMC3    C3 4903   4.363   0.039  14.435 -0.0920 -0.0735 -0.2546
  323TMC3    C4 4904   4.247   4.517  14.433 -0.1875 -0.1712  0.4888
  323TMC3    C5 4905   4.305   4.569  14.541  0.2671  0.1136 -0.1348
  323TMC3    C6 4906   4.351   4.700  14.544 -0.1872  0.4173  0.0969
  323TMC3     C 4907   4.238   4.533  14.194  0.4892 -0.2712  0.5345
  323TMC3     O 4908   4.248   4.409  14.192 -0.2399 -0.3155 -0.4163
  323TMC3     H 4909   4.317   0.040  14.227  1.6693  0.9951  0.3504
  323TMC3    H1 4910   4.232   4.410  14.427 -1.3186  0.0943 -1.4972
  323TMC3    H2 4911   4.396   0.004  14.634  1.6160  0.9715 -1.0548
  323TMC3    C7 4912   4.386   4.482  14.623 -0.3602  0.0574 -0.2848
  323TMC3    C8 4913   4.496   0.092  14.430 -0.2418 -0.3756  0.7652
  323TMC3    O1 4914   4.346   4.365  14.636  0.0732 -0.5710  0.3577
  323TMC3    O2 4915   4.572   0.066  14.520 -0.6932  0.1932  0.1489
  324MPD2     C 4916   0.885   0.379  14.483  0.7370  0.4382  0.4524
  324MPD2    C1 4917   0.912   0.486  14.395 -0.0027 -0.1915  0.0508
  324MPD2    C2 4918   0.811   0.532  14.313 -0.5291  0.3307 -0.5997
  324MPD2    C3 4919   0.681   0.486  14.313  0.3255 -0.5056  0.2936
  324MPD2    C4 4920   0.658   0.396  14.420  0.6655 -0.7337 -0.1673
  324MPD2    C5 4921   0.756   0.340  14.493 -0.8564 -0.2721  0.7688
  324MPD2     H 4922   0.845   0.603  14.238 -3.2494  1.3865 -0.8287
  324MPD2    H1 4923   0.555   0.362  14.423 -0.2467  2.1192  0.6429
  324MPD2    H2 4924   0.952   0.330  14.552 -0.7848 -2.3596 -0.0434
  324MPD2    H3 4925   0.738   0.263  14.568 -0.3493  0.2008  1.3767
  324MPD2     N 4926   0.575   0.525  14.231  0.6636 -0.4147  0.3412
  324MPD2    H5 4927   0.485   0.478  14.240  1.2780 -1.4263  1.2818
  324MPD2    N1 4928   1.038   0.545  14.392 -0.4394  0.0195  0.1913
  324MPD2    H7 4929   1.060   0.620  14.328 -1.3402 -0.7380 -0.9833
  325TMC3    C1 4930   0.464   0.609  14.046 -0.0716 -0.1823 -0.8970
  325TMC3    C2 4931   0.418   0.492  13.988 -0.4107 -0.3915 -0.3649
  325TMC3    C3 4932   0.314   0.500  13.903  0.3981  0.1199 -0.5730
  325TMC3    C4 4933   0.424   0.736  14.010  0.2294 -0.1717  0.9164
  325TMC3    C5 4934   0.315   0.735  13.927  0.3076 -0.6434 -0.3442
  325TMC3    C6 4935   0.249   0.623  13.880  0.0861 -0.5002  0.0248
  325TMC3     C 4936   0.588   0.604  14.118  0.0890 -0.0433 -0.2489
  325TMC3     O 4937   0.680   0.679  14.085  0.4203  0.0197 -0.4324
  325TMC3     H 4938   0.468   0.401  14.018 -1.1595  0.5058  3.5049
  325TMC3    H1 4939   0.471   0.824  14.054 -1.8438 -0.8592  4.4848
  325TMC3    H2 4940   0.174   0.627  13.801 -0.7260 -2.3850  0.7095
  325TMC3    C7 4941   0.255   0.866  13.882 -0.1580  0.4913  0.1141
  325TMC3    C8 4942   0.293   0.395  13.797 -0.4317 -0.1961 -0.1587
  325TMC3    O1 4943   0.171   0.851  13.791  0.1529  0.0277  0.1083
  325TMC3    O2 4944   0.381   0.313  13.790  0.1891 -0.3684  0.3765
  326MPD2     C 4945   2.053   2.552  11.076 -0.3100 -0.0437 -0.1162
  326MPD2    C1 4946   2.001   2.639  10.989  0.3580 -0.1156 -0.7539
  326MPD2    C2 4947   2.076   2.749  10.949  0.5977  0.1687 -0.4354
  326MPD2    C3 4948   2.207   2.758  10.980  0.2410  0.2172 -0.1209
  326MPD2    C4 4949   2.249   2.672  11.079  0.1679  0.1689  0.7361
  326MPD2    C5 4950   2.177   2.565  11.127  0.4641  0.5045  0.2241
  326MPD2     H 4951   2.029   2.819  10.882 -0.1115 -3.0253 -3.2804
  326MPD2    H1 4952   2.350   2.661  11.118  0.9048 -0.4055 -1.3170
  326MPD2    H2 4953   1.981   2.493  11.132  1.1254 -1.7016 -0.0394
  326MPD2    H3 4954   2.214   2.499  11.205 -0.6144 -0.5031 -0.1063
  326MPD2     N 4955   2.301   2.853  10.924 -0.1942 -0.1975 -0.4091
  326MPD2    H5 4956   2.394   2.854  10.965 -0.5734 -2.9356  0.4949
  326MPD2    N1 4957   1.884   2.621  10.922  0.0302 -0.6380  1.0278
  326MPD2    H7 4958   1.855   2.697  10.861 -1.4217 -1.9939  0.0360
  327TMC3    C1 4959   1.695   2.515  10.827 -0.4173 -0.3503  0.6016
  327TMC3    C2 4960   1.596   2.608  10.834  0.0280  0.1448 -0.0590
  327TMC3    C3 4961   1.570   2.686  10.724 -0.2182 -0.0849  0.5875
  327TMC3    C4 4962   1.769   2.495  10.708  0.2092 -0.2578 -0.4296
  327TMC3    C5 4963   1.742   2.582  10.600 -1.0001 -0.5238 -0.7813
  327TMC3    C6 4964   1.643   2.672  10.609  0.3569 -0.2104 -0.4888
  327TMC3     C 4965   1.789   2.515  10.940  0.3466 -0.3828  0.4314
  327TMC3     O 4966   1.792   2.417  11.014  0.1441  0.4107  0.3334
  327TMC3     H 4967   1.558   2.618  10.935  0.0133 -0.2577 -0.0260
  327TMC3    H1 4968   1.846   2.420  10.698  0.2654 -0.4414  1.4731
  327TMC3    H2 4969   1.609   2.735  10.527  1.9322  1.6637  0.2904
  327TMC3    C7 4970   1.860   2.625  10.531 -0.4608 -0.1218  0.3118
  327TMC3    C8 4971   1.446   2.760  10.707  0.0903  0.1173 -0.2921
  327TMC3    O1 4972   1.839   2.694  10.432 -0.3308 -0.0214  0.6444
  327TMC3    O2 4973   1.428   2.841  10.615  0.2067  0.5988  0.5104
  328MPD2     C 4974   0.136   2.048  16.827 -0.3087  0.3842  0.7373
  328MPD2    C1 4975   0.067   1.953  16.759  0.1288 -0.5255 -0.1110
  328MPD2    C2 4976   4.687   1.986  16.686  0.1834 -0.1723 -0.5399
  328MPD2    C3 4977   4.646   2.116  16.679  0.6126 -0.0266 -0.1805
  328MPD2    C4 4978   4.713   2.210  16.747 -0.3639 -0.5128 -0.0935
  328MPD2    C5 4979   0.089   2.179  16.824  0.0842  0.3226  0.1240
  328MPD2     H 4980   4.625   1.909  16.643 -0.3395 -0.7001  1.1344
  328MPD2    H1 4981   4.680   2.314  16.747 -0.8798 -0.6828 -0.9494
  328MPD2    H2 4982   0.222   2.028  16.890 -1.4962 -3.3579  1.1827
  328MPD2    H3 4983   0.140   2.248  16.890  0.0206 -0.3674  0.8961
  328MPD2     N 4984   4.529   2.159  16.603 -0.2980 -0.3059 -0.7994
  328MPD2    H5 4985   4.524   2.260  16.597  1.3777 -0.1775 -0.0396
  328MPD2    N1 4986   0.118   1.821  16.778  0.2750  0.1556 -0.4172
  328MPD2    H7 4987   0.189   1.804  16.849 -0.3936 -1.9420 -0.2392
  329TMC3    C1 4988   0.125   1.597  16.772 -0.2265 -0.1316  0.2394
  329TMC3    C2 4989   0.085   1.576  16.904  0.6934 -0.6992 -0.8224
  329TMC3    C3 4990   0.038   1.449  16.940 -0.1319  0.0697  0.1617
  329TMC3    C4 4991   0.119   1.495  16.679 -0.4363  0.4678  0.8291
  329TMC3    C5 4992   0.069   1.372  16.713 -0.4171  0.7522  0.0043
  329TMC3    C6 4993   0.031   1.350  16.846  0.2285 -0.6063 -0.0471
  329TMC3     C 4994   0.064   1.714  16.719 -0.3458  0.1312 -0.0569
  329TMC3     O 4995   4.728   1.696  16.619  0.8177 -0.1089 -0.2339
  329TMC3     H 4996   0.083   1.660  16.973 -1.7947 -0.6814 -0.9103
  329TMC3    H1 4997   0.168   1.514  16.584 -0.0046 -2.1439  0.5141
  329TMC3    H2 4998   4.716   1.257  16.869 -0.2038 -0.8078 -1.7817
  329TMC3    C7 4999   0.010   1.298  16.607 -0.3935  0.1938  0.0399
  329TMC3    C8 5000   4.655   1.447  17.020  0.6964 -0.6823  0.1628
  329TMC3    O1 5001   4.720   1.182  16.627  0.0391  0.0764  0.0624
  329TMC3    O2 5002   4.558   1.388  16.973  0.0781  0.5987  0.1256
  330TMC3    C1 5003   2.195   1.810   9.823  0.6546  0.0538 -0.0505
  330TMC3    C2 5004   2.076   1.754   9.785  0.2290  0.2031  0.3884
  330TMC3    C3 5005   2.072   1.613   9.796  0.0747 -0.9396  0.2345
  330TMC3    C4 5006   2.290   1.743   9.894  0.3921 -0.0673 -0.9037
  330TMC3    C5 5007   2.283   1.607   9.903 -0.3428 -0.3687 -0.1156
  330TMC3    C6 5008   2.181   1.543   9.846 -0.1754 -0.2680  0.5155
  330TMC3     C 5009   2.189   1.948   9.831 -0.8960 -0.3160  0.2850
  330TMC3     O 5010   2.263   1.999   9.913 -0.2580 -0.0633  0.1520
  330TMC3     H 5011   1.991   1.804   9.741 -0.4050  0.5071  1.9380
  330TMC3    H1 5012   2.376   1.797   9.932 -0.1456 -1.4618  2.3287
  330TMC3    H2 5013   2.171   1.435   9.847  0.5132 -0.3458 -0.8856
  330TMC3    C7 5014   2.370   1.550  10.005  0.9336 -0.3241 -0.4282
  330TMC3    C8 5015   1.943   1.556   9.778 -0.3011 -0.0996 -0.4259
  330TMC3    O1 5016   2.456   1.622  10.054  0.0783  0.4778 -0.3711
  330TMC3    O2 5017   1.855   1.615   9.718 -0.3034 -0.5283  0.8031
  331MPD2     C 5018   0.937   0.536  12.377  0.9118  0.0465  0.4739
  331MPD2    C1 5019   0.833   0.457  12.329  0.5762  0.0578  0.2406
  331MPD2    C2 5020   0.808   0.337  12.395  0.6651 -0.0169 -0.7402
  331MPD2    C3 5021   0.873   0.298  12.509 -0.0381 -0.0005  0.7789
  331MPD2    C4 5022   0.968   0.383  12.553 -0.0429 -0.1860 -0.0929
  331MPD2    C5 5023   1.002   0.490  12.483 -0.2972 -0.5712 -0.3857
  331MPD2     H 5024   0.729   0.270  12.365  0.5038  0.9950 -2.5278
  331MPD2    H1 5025   1.023   0.358  12.644  1.5157  0.7350 -0.7931
  331MPD2    H2 5026   0.965   0.631  12.332  1.5511 -0.1409  0.4909
  331MPD2    H3 5027   1.090   0.546  12.514 -0.3393 -0.8003  0.1521
  331MPD2     N 5028   0.829   0.189  12.590  0.0936  0.0796  0.0719
  331MPD2    H5 5029   0.756   0.138  12.540 -0.9134  1.1536  0.4347
  331MPD2    N1 5030   0.748   0.518  12.229 -0.0137  0.3335  0.0335
  331MPD2    H7 5031   0.775   0.614  12.209  0.6130  0.2316  0.4254
  332TMC3    C1 5032   0.769   0.090  12.795 -1.0862 -0.2528  0.5555
  332TMC3    C2 5033   0.641   0.081  12.747 -0.0558 -0.7866  0.5771
  332TMC3    C3 5034   0.552   0.009  12.822 -0.4176 -0.4108 -0.5189
  332TMC3    C4 5035   0.800   0.045  12.917 -0.4097 -0.1516  0.2979
  332TMC3    C5 5036   0.701   4.723  12.992  0.2078 -0.5811  0.0062
  332TMC3    C6 5037   0.583   4.695  12.939  0.8451  0.3513  0.3934
  332TMC3     C 5038   0.864   0.171  12.727 -0.0088  0.8660  0.4548
  332TMC3     O 5039   0.944   0.225  12.807  0.2825 -1.0588 -0.1877
  332TMC3     H 5040   0.606   0.136  12.660 -0.6507  0.0069  1.3057
  332TMC3    H1 5041   0.902   0.057  12.951  0.4529 -1.1615 -1.9545
  332TMC3    H2 5042   0.510   4.661  13.011 -2.3069 -0.7696 -3.2859
  332TMC3    C7 5043   0.737   4.643  13.104  0.2261 -0.1206  0.2710
  332TMC3    C8 5044   0.410   0.032  12.800  0.8844 -0.0469  0.4628
  332TMC3    O1 5045   0.657   4.638  13.199 -0.1052 -0.5827  0.1587
  332TMC3    O2 5046   0.389   0.123  12.722  0.0501  0.2012  0.6989
  333MPD2     C 5047   0.825   0.484  11.722 -0.5389 -0.0682 -0.4986
  333MPD2    C1 5048   0.758   0.591  11.661 -0.5199  0.3636 -0.6064
  333MPD2    C2 5049   0.633   0.564  11.605  0.3658 -0.2519 -0.4697
  333MPD2    C3 5050   0.568   0.445  11.633  0.4781  0.3290 -0.3759
  333MPD2    C4 5051   0.626   0.345  11.705  0.3162 -0.7159 -0.0298
  333MPD2    C5 5052   0.756   0.368  11.748 -0.0588 -0.6007 -0.7102
  333MPD2     H 5053   0.579   0.646  11.559 -0.1132 -0.8332 -0.9286
  333MPD2    H1 5054   0.576   0.252  11.730  0.2535 -0.6032  0.2595
  333MPD2    H2 5055   0.929   0.489  11.753 -0.3163 -0.8394 -1.1336
  333MPD2    H3 5056   0.797   0.286  11.805 -0.3048  0.0799  0.4342
  333MPD2     N 5057   0.444   0.426  11.566 -0.5280 -0.5229  0.7777
  333MPD2    H5 5058   0.408   0.498  11.504  1.2626  2.1199  2.7910
  333MPD2    N1 5059   0.836   0.709  11.645  0.5351 -0.3414 -0.1659
  333MPD2    H7 5060   0.927   0.706  11.690  0.4555  2.4789  0.1624
  334TMC3    C1 5061   0.916   0.917  11.580 -0.4735  0.4117 -0.1068
  334TMC3    C2 5062   1.049   0.875  11.601 -0.5270  0.1246  0.3038
  334TMC3    C3 5063   1.155   0.958  11.576 -1.2130  0.5291 -0.1382
  334TMC3    C4 5064   0.893   1.046  11.529  0.1770 -0.1816  0.2371
  334TMC3    C5 5065   1.003   1.119  11.488  0.0387 -0.0585  0.2652
  334TMC3    C6 5066   1.134   1.081  11.524 -1.1262  0.5216 -0.5959
  334TMC3     C 5067   0.806   0.822  11.572  0.2513  0.2501 -0.8807
  334TMC3     O 5068   0.702   0.852  11.517 -0.5825 -0.1836  0.3565
  334TMC3     H 5069   1.069   0.773  11.630  0.5725 -0.4198 -2.3718
  334TMC3    H1 5070   0.795   1.081  11.500  1.0215  0.1817 -2.2257
  334TMC3    H2 5071   1.221   1.139  11.496 -0.9253  0.6837  0.3755
  334TMC3    C7 5072   1.000   1.224  11.394  0.0724  0.7470 -0.3613
  334TMC3    C8 5073   1.289   0.897  11.581  1.1020  0.1448  0.0924
  334TMC3    O1 5074   1.107   1.282  11.372 -0.0108  0.2791 -0.0886
  334TMC3    O2 5075   1.302   0.802  11.657 -0.4897 -0.1471 -0.5910
  335TMC3    C1 5076   0.480   1.851  17.466 -0.1141  0.4142 -0.0770
  335TMC3    C2 5077   0.476   1.745  17.379  0.5998 -0.0340 -0.2913
  335TMC3    C3 5078   0.596   1.709  17.318  0.0552  1.0562 -0.1454
  335TMC3    C4 5079   0.594   1.909  17.502  0.0785  0.1901  0.4866
  335TMC3    C5 5080   0.705   1.875  17.438  0.0059 -0.1557  0.0634
  335TMC3    C6 5081   0.708   1.776  17.342 -0.1593 -0.7841  0.3855
  335TMC3     C 5082   0.365   1.877  17.545 -0.3334  0.0151 -0.2256
  335TMC3     O 5083   0.263   1.838  17.491 -0.6515 -0.6659 -0.1774
  335TMC3     H 5084   0.378   1.710  17.348  0.3326  1.9364 -1.6648
  335TMC3    H1 5085   0.608   1.987  17.575  0.5293  1.6049 -1.1189
  335TMC3    H2 5086   0.799   1.749  17.288 -2.0678  0.5274 -3.4498
  335TMC3    C7 5087   0.822   1.964  17.426 -0.9285  0.2899 -0.0820
  335TMC3    C8 5088   0.599   1.620  17.208  0.0557  0.3431  0.0988
  335TMC3    O1 5089   0.879   1.974  17.320  0.7841  0.0640  0.2031
  335TMC3    O2 5090   0.698   1.632  17.134  0.5010  0.0891 -0.2006
  336MPD2     C 5091   0.111   0.101  16.403  0.1339 -0.3687 -0.2166
  336MPD2    C1 5092   0.128   0.001  16.308  0.0909  0.2531  0.4013
  336MPD2    C2 5093   0.142   4.609  16.353 -0.3593  0.1865 -0.4441
  336MPD2    C3 5094   0.167   4.583  16.493  0.0838 -0.1130  0.2671
  336MPD2    C4 5095   0.158   4.684  16.580  0.3621  0.7079 -0.0621
  336MPD2    C5 5096   0.126   0.073  16.540 -0.2287 -0.1200  0.0425
  336MPD2     H 5097   0.155   4.527  16.283 -0.6150 -0.1098 -0.1476
  336MPD2    H1 5098   0.187   4.668  16.683  1.3080 -1.3717 -0.6493
  336MPD2    H2 5099   0.093   0.203  16.372  0.3549 -0.4143 -0.4976
  336MPD2    H3 5100   0.131   0.146  16.620 -0.1450 -0.2884  0.1905
  336MPD2     N 5101   0.195   4.449  16.533 -0.2944  0.3683  0.2856
  336MPD2    H5 5102   0.213   4.443  16.632  0.5342  3.8769  0.3648
  336MPD2    N1 5103   0.114   0.020  16.166 -0.7798 -0.2976  0.2288
  336MPD2    H7 5104   0.136   4.677  16.105 -0.9821 -0.6253  0.5685
  337TMC3    C1 5105   0.042   0.111  15.961  0.2017  0.0291 -0.5352
  337TMC3    C2 5106   4.658   0.142  15.902  0.7103 -0.0185  0.4575
  337TMC3    C3 5107   4.620   0.061  15.793 -0.4800  0.0693  0.2612
  337TMC3    C4 5108   0.132   0.024  15.907  0.2621  0.2289 -0.0835
  337TMC3    C5 5109   0.084   4.683  15.801 -0.4295  0.2679  0.6779
  337TMC3    C6 5110   4.695   4.692  15.745 -0.3320  0.1762  0.2333
  337TMC3     C 5111   0.055   0.131  16.106  1.0908  0.8506 -0.2730
  337TMC3     O 5112   0.006   0.230  16.148  0.0459  0.2074 -0.5861
  337TMC3     H 5113   4.587   0.197  15.962  0.1737  2.0533 -2.1134
  337TMC3    H1 5114   0.228   0.012  15.957  1.0186  0.8133 -1.3890
  337TMC3    H2 5115   4.664   4.616  15.674 -0.7370  2.1043 -1.6699
  337TMC3    C7 5116   0.180   4.604  15.737 -0.6267 -0.5709  0.5986
  337TMC3    C8 5117   4.474   0.037  15.788 -0.1891  0.0384  0.7425
  337TMC3    O1 5118   0.132   4.517  15.666  1.0100  0.3426 -0.4491
  337TMC3    O2 5119   4.410   0.047  15.894 -0.0820 -0.1869  0.1805
  338MPD2     C 5120   1.077   3.962   1.291 -0.4150  0.5894  0.5882
  338MPD2    C1 5121   1.006   3.911   1.191 -0.1976  0.4801 -0.3571
  338MPD2    C2 5122   0.875   3.956   1.193 -0.1473 -0.2854  0.7515
  338MPD2    C3 5123   0.810   4.034   1.289  0.6953  0.0575 -0.3007
  338MPD2    C4 5124   0.898   4.080   1.395 -0.1609 -0.0277 -0.5366
  338MPD2    C5 5125   1.029   4.043   1.386 -0.1035  0.7287 -0.2434
  338MPD2     H 5126   0.812   3.929   1.109  1.2753 -1.8658  0.2102
  338MPD2    H1 5127   0.856   4.134   1.478  0.6003  0.2993 -0.3661
  338MPD2    H2 5128   1.184   3.943   1.287  0.0826  3.1551  2.1345
  338MPD2    H3 5129   1.096   4.091   1.456 -1.8120  0.3944  1.6304
  338MPD2     N 5130   0.671   4.067   1.275 -0.5967 -0.2133 -0.5819
  338MPD2    H5 5131   0.624   4.036   1.190 -1.9250  0.5101 -0.1036
  338MPD2    N1 5132   1.054   3.834   1.073  0.2790  0.0718 -0.5723
  338MPD2    H7 5133   0.994   3.840   0.992  0.6499  1.2764 -0.7544
  339TMC3    C1 5134   0.464   4.143   1.317 -0.0349 -0.2616 -0.5047
  339TMC3    C2 5135   0.365   4.095   1.404  0.6564  0.7914  0.7333
  339TMC3    C3 5136   0.249   4.053   1.341  0.6600 -0.1516  0.0626
  339TMC3    C4 5137   0.446   4.176   1.182  0.4884 -0.2261 -0.3032
  339TMC3    C5 5138   0.323   4.132   1.127  0.6673 -0.3582 -0.2095
  339TMC3    C6 5139   0.230   4.075   1.210 -0.1545  0.2030  0.0443
  339TMC3     C 5140   0.599   4.138   1.364 -0.3844  0.0227 -0.4283
  339TMC3     O 5141   0.619   4.173   1.484  0.0795  0.1997 -0.2172
  339TMC3     H 5142   0.373   4.072   1.510  0.0006  0.6173  0.7431
  339TMC3    H1 5143   0.527   4.210   1.119  1.1617  0.1442  0.7614
  339TMC3    H2 5144   0.142   4.031   1.164 -1.3547  2.3270  0.3211
  339TMC3    C7 5145   0.324   4.113   0.987  0.0743 -0.3547 -0.2202
  339TMC3    C8 5146   0.159   3.962   1.409  1.3368 -0.0673  0.2364
  339TMC3    O1 5147   0.393   4.198   0.930 -0.4003  0.1914  0.3350
  339TMC3    O2 5148   0.051   3.933   1.352 -0.0526  0.0933 -0.1544
  340MPD2     C 5149   0.215   1.964  10.577 -0.5471  0.2712 -0.4126
  340MPD2    C1 5150   0.284   1.980  10.459  0.0516 -0.0124  0.1448
  340MPD2    C2 5151   0.421   1.978  10.468  0.0892 -0.1900  0.7180
  340MPD2    C3 5152   0.489   1.964  10.588 -0.0650  0.6394  0.7005
  340MPD2    C4 5153   0.420   1.963  10.709  0.4096  0.3964  0.1422
  340MPD2    C5 5154   0.283   1.960  10.697  0.1556  0.3988  0.3825
  340MPD2     H 5155   0.480   1.980  10.378  2.7271 -0.4462  2.4436
  340MPD2    H1 5156   0.469   1.936  10.802 -0.8675 -0.9410  0.4129
  340MPD2    H2 5157   0.107   1.960  10.590 -0.8001  2.4700 -1.8376
  340MPD2    H3 5158   0.223   1.950  10.787 -1.4228  0.1934 -0.7071
  340MPD2     N 5159   0.625   1.938  10.599  0.0570 -0.2815  0.5619
  340MPD2    H5 5160   0.675   1.915  10.685 -2.9260  2.2021  2.9113
  340MPD2    N1 5161   0.208   1.984  10.339  0.3580 -0.5364  0.1512
  340MPD2    H7 5162   0.109   1.968  10.356 -0.2026  0.5876 -2.1525
  341TMC3    C1 5163   0.158   1.948  10.107 -0.0097  0.9748 -0.5546
  341TMC3    C2 5164   0.065   1.849  10.123 -0.2221 -0.5553  0.2537
  341TMC3    C3 5165   0.005   1.785  10.018 -0.2736 -0.0587  0.9228
  341TMC3    C4 5166   0.200   1.988   9.984 -0.8564  0.3071  0.6949
  341TMC3    C5 5167   0.153   1.914   9.875 -0.8944 -0.5149  0.1844
  341TMC3    C6 5168   0.050   1.817   9.893 -0.1239  0.2263 -0.3240
  341TMC3     C 5169   0.254   1.965  10.215  0.1183  0.0772 -0.1783
  341TMC3     O 5170   0.372   1.971  10.175 -0.3366 -0.1514 -0.3279
  341TMC3     H 5171   0.036   1.808  10.219 -1.2265 -0.2030  0.1022
  341TMC3    H1 5172   0.280   2.061   9.977  0.1532 -0.8476  0.2828
  341TMC3    H2 5173   0.026   1.753   9.809 -0.8310  1.0091 -0.7145
  341TMC3    C7 5174   0.236   1.901   9.753 -0.0714 -1.3966 -0.1723
  341TMC3    C8 5175   4.668   1.660  10.044 -0.4826 -0.8537  0.0565
  341TMC3    O1 5176   0.183   1.869   9.651  0.5584 -0.1589 -0.0563
  341TMC3    O2 5177   4.677   1.616  10.158 -0.1854  0.1550  0.1663
  342MPD2     C 5178   3.362   0.185   0.123 -0.8206  0.4020  0.1498
  342MPD2    C1 5179   3.463   0.187   0.024 -0.2410 -0.4692 -0.2067
  342MPD2    C2 5180   3.489   0.310  17.699  0.1080  0.1891 -0.0567
  342MPD2    C3 5181   3.432   0.430   0.006 -0.2198  0.1944  0.0593
  342MPD2    C4 5182   3.340   0.420   0.112  0.4254 -0.2816  0.0292
  342MPD2    C5 5183   3.303   0.299   0.166 -0.2091  0.4760 -0.2211
  342MPD2     H 5184   3.548   0.312  17.608  1.2503 -0.3325  0.6678
  342MPD2    H1 5185   3.283   0.502   0.154  0.6941 -0.9877  1.7387
  342MPD2    H2 5186   3.324   0.094   0.168 -0.2945 -1.3076 -2.9160
  342MPD2    H3 5187   3.230   0.302   0.246  2.8718  2.5358  2.4988
  342MPD2     N 5188   3.465   0.557  17.687  1.1228  0.3708  0.2142
  342MPD2    H5 5189   3.425   0.646  17.716  0.5443  0.1207  0.1854
  342MPD2    N1 5190   3.526   0.074  17.706  0.1445 -0.3608  0.0824
  342MPD2    H7 5191   3.581   0.088  17.622 -0.2664  1.4601  0.1108
  343TMC3    C1 5192   3.564   4.575  17.678 -0.6650  0.7299  0.0069
  343TMC3    C2 5193   3.620   4.601  17.556  0.8883  0.1371  0.0882
  343TMC3    C3 5194   3.609   4.505  17.462  0.9322 -0.0757 -0.0568
  343TMC3    C4 5195   3.510   4.454  17.712  0.5953 -0.1597 -0.2712
  343TMC3    C5 5196   3.493   4.359  17.613  1.2685  0.0329  0.3159
  343TMC3    C6 5197   3.541   4.389  17.491  0.2852  0.1295 -0.5511
  343TMC3     C 5198   3.516   4.683   0.027  0.0609  0.0208  0.1495
  343TMC3     O 5199   3.472   4.661   0.135  0.3812 -0.2582 -0.4143
  343TMC3     H 5200   3.669   4.694  17.528 -0.2373  0.9636  0.8622
  343TMC3    H1 5201   3.449   4.447   0.063  0.6244 -0.9111 -0.3155
  343TMC3    H2 5202   3.529   4.319  17.409  1.3033 -1.7415  0.9062
  343TMC3    C7 5203   3.427   4.235  17.642 -0.2918  0.3027 -0.4256
  343TMC3    C8 5204   3.656   4.536  17.326  0.6953 -0.0095 -0.3157
  343TMC3    O1 5205   3.388   4.171  17.546 -0.5332 -0.0371 -0.0532
  343TMC3    O2 5206   3.668   4.653  17.302  0.5161 -0.5090  0.2742
  344MPD2     C 5207   3.613   0.325  11.592  0.9609 -0.2721  0.4957
  344MPD2    C1 5208   3.691   0.246  11.508  0.3815  0.4495 -0.2322
  344MPD2    C2 5209   3.797   0.302  11.447 -0.3030  0.0054  0.4028
  344MPD2    C3 5210   3.828   0.438  11.466 -0.8699 -0.0614  0.6000
  344MPD2    C4 5211   3.758   0.514  11.552  0.7442  0.4264 -0.1593
  344MPD2    C5 5212   3.640   0.461  11.606 -0.4065  0.1478 -0.0921
  344MPD2     H 5213   3.853   0.235  11.384 -2.6830 -0.1029 -1.5905
  344MPD2    H1 5214   3.780   0.618  11.575  1.3854 -0.1160  1.6908
  344MPD2    H2 5215   3.521   0.294  11.640  0.6042  0.0301  0.0031
  344MPD2    H3 5216   3.573   0.515  11.670 -0.2353 -1.6360  1.5982
  344MPD2     N 5217   3.942   0.506  11.415  0.1710  0.8444  0.4349
  344MPD2    H5 5218   3.976   0.588  11.465  1.0335  1.7901 -1.7250
  344MPD2    N1 5219   3.676   0.102  11.502  0.6789 -0.1679  0.1291
  344MPD2    H7 5220   3.729   0.053  11.431  0.6581  0.7209 -0.5017
  345TMC3    C1 5221   4.153   0.532  11.316  0.2283  0.0527  0.7393
  345TMC3    C2 5222   4.198   0.601  11.431 -0.4103 -0.3064  0.1893
  345TMC3    C3 5223   4.273   0.710  11.398 -0.4973 -0.4649  0.3765
  345TMC3    C4 5224   4.182   0.569  11.185 -0.1238 -0.5457  0.6459
  345TMC3    C5 5225   4.269   0.678  11.168  0.7282 -0.2853 -0.2787
  345TMC3    C6 5226   4.321   0.741  11.278  0.3488 -0.4799  0.6018
  345TMC3     C 5227   4.029   0.459  11.323  0.9029  0.2259 -0.2088
  345TMC3     O 5228   4.005   0.368  11.241 -0.0888  0.3774 -0.4894
  345TMC3     H 5229   4.157   0.589  11.531  0.0649 -0.6687  0.3449
  345TMC3    H1 5230   4.110   0.528  11.116  0.6505 -0.7425 -0.0478
  345TMC3    H2 5231   4.399   0.814  11.260 -0.2137 -0.1856 -0.7096
  345TMC3    C7 5232   4.283   0.742  11.040 -0.6852 -0.0272 -0.0230
  345TMC3    C8 5233   4.330   0.787  11.511  0.1147  0.2124  0.3281
  345TMC3    O1 5234   4.349   0.844  11.042 -0.6467 -0.5350  0.0839
  345TMC3    O2 5235   4.404   0.724  11.579  0.2184  0.5151 -0.3970
  346MPD2     C 5236   0.054   0.664  14.129  0.6269 -0.1627  0.0508
  346MPD2    C1 5237   4.733   0.776  14.073  0.0433  0.1843 -0.6210
  346MPD2    C2 5238   0.030   0.903  14.129 -0.0062  0.9730  0.3204
  346MPD2    C3 5239   0.117   0.910  14.234 -0.1426 -0.3103 -0.7054
  346MPD2    C4 5240   0.173   0.789  14.289  0.5231  0.0824  0.2533
  346MPD2    C5 5241   0.137   0.672  14.245  0.5414  0.2409 -0.6704
  346MPD2     H 5242   4.726   0.996  14.089  0.5812  0.9682 -0.2625
  346MPD2    H1 5243   0.236   0.789  14.377  0.6428  0.0975  0.1686
  346MPD2    H2 5244   0.022   0.565  14.100  0.5571  0.7954 -3.2460
  346MPD2    H3 5245   0.174   0.588  14.303  0.4149  0.9557  0.4336
  346MPD2     N 5246   0.158   1.040  14.282 -0.7697  0.4424 -0.4189
  346MPD2    H5 5247   0.137   1.123  14.229  0.0642  0.6725 -0.3858
  346MPD2    N1 5248   4.635   0.769  13.975 -0.6521  0.0203  0.4634
  346MPD2    H7 5249   4.591   0.853  13.939  1.1320  1.2893  1.2663
  347TMC3    C1 5250   0.293   1.202  14.396 -0.0333 -0.1666 -0.0827
  347TMC3    C2 5251   0.277   1.291  14.296  0.4700 -0.3055 -0.9569
  347TMC3    C3 5252   0.374   1.384  14.260 -0.0428  0.1340  1.1836
  347TMC3    C4 5253   0.403   1.218  14.479  0.1906 -0.7344  0.5037
  347TMC3    C5 5254   0.489   1.320  14.446  0.4263 -0.2157 -0.4164
  347TMC3    C6 5255   0.483   1.408  14.341 -0.5783  0.4664  0.5676
  347TMC3     C 5256   0.248   1.065  14.383 -0.2097  0.1321  0.0550
  347TMC3     O 5257   0.288   0.983  14.462 -0.3214 -0.6096 -0.5255
  347TMC3     H 5258   0.200   1.271  14.222 -3.3099 -2.0310  3.3814
  347TMC3    H1 5259   0.419   1.161  14.570 -0.5391 -3.6749 -1.2269
  347TMC3    H2 5260   0.560   1.474  14.303  0.6841 -2.0761 -1.2858
  347TMC3    C7 5261   0.620   1.278  14.487  0.1904 -0.2659  0.2130
  347TMC3    C8 5262   0.370   1.481  14.156  0.3279  0.3043 -0.5100
  347TMC3    O1 5263   0.640   1.155  14.481 -0.9418  0.5016 -0.2783
  347TMC3    O2 5264   0.398   1.594  14.189 -0.0551 -0.7940 -0.0963
  348MPD2     C 5265   3.111   1.688  11.979 -0.2547  0.7277 -0.3660
  348MPD2    C1 5266   3.100   1.621  11.862 -0.4337 -0.3393  0.0679
  348MPD2    C2 5267   3.080   1.690  11.744 -0.2343  0.1009 -1.0701
  348MPD2    C3 5268   3.065   1.829  11.740  0.5774 -0.2330  0.8089
  348MPD2    C4 5269   3.068   1.898  11.866 -0.4133  0.3018 -0.1563
  348MPD2    C5 5270   3.096   1.824  11.983  0.7746  0.7810 -0.9806
  348MPD2     H 5271   3.055   1.642  11.651 -0.1754  0.5883 -1.3363
  348MPD2    H1 5272   3.064   2.006  11.871 -0.3239  0.3822 -1.7240
  348MPD2    H2 5273   3.124   1.639  12.075 -0.5992 -0.0994 -0.7369
  348MPD2    H3 5274   3.121   1.874  12.076 -1.6886  2.1875 -1.0852
  348MPD2     N 5275   3.030   1.878  11.612  0.4004 -0.0746  0.4371
  348MPD2    H5 5276   3.039   1.810  11.538  2.6915 -1.4366  1.9537
  348MPD2    N1 5277   3.100   1.481  11.843 -0.0463  0.5240  0.4531
  348MPD2    H7 5278   3.076   1.445  11.751  1.1496  0.9951 -0.0350
  349TMC3    C1 5279   3.116   1.250  11.897 -0.5290  0.0217  0.5338
  349TMC3    C2 5280   3.190   1.157  11.958  0.1915 -0.4271 -0.1945
  349TMC3    C3 5281   3.199   1.029  11.908  0.4505 -0.9453  0.4904
  349TMC3    C4 5282   3.033   1.219  11.790  0.3033  0.0641 -0.6549
  349TMC3    C5 5283   3.032   1.085  11.752  0.5249 -0.1010  0.0702
  349TMC3    C6 5284   3.114   0.990  11.807 -0.0850  0.8748  0.0383
  349TMC3     C 5285   3.125   1.392  11.941 -0.4340 -0.3936  0.1341
  349TMC3     O 5286   3.173   1.405  12.053 -0.5483  0.7841  0.1885
  349TMC3     H 5287   3.247   1.178  12.048  0.0936 -3.9210  0.6898
  349TMC3    H1 5288   2.953   1.286  11.760  0.0359  0.6941  1.4779
  349TMC3    H2 5289   3.098   0.883  11.793  1.5500  0.3711  2.0908
  349TMC3    C7 5290   2.923   1.041  11.665 -0.6970  0.0861  0.5397
  349TMC3    C8 5291   3.253   0.932  12.002 -0.0376 -0.9651 -0.8581
  349TMC3    O1 5292   2.852   0.944  11.697 -0.1846 -0.6598 -0.0637
  349TMC3    O2 5293   3.264   0.976  12.114 -0.0817 -0.9759 -0.4632
  350MPD2     C 5294   1.563   4.364  10.045  0.0447 -0.2437  0.0977
  350MPD2    C1 5295   1.607   4.239  10.077  0.4524  0.8762 -0.5159
  350MPD2    C2 5296   1.661   4.216  10.201  0.0255 -0.2514  0.1857
  350MPD2    C3 5297   1.671   4.311  10.296 -0.2814  0.0059 -0.1182
  350MPD2    C4 5298   1.655   4.442  10.254 -0.6072 -0.2750 -0.0792
  350MPD2    C5 5299   1.601   4.461  10.130  0.0436  0.6407  1.0256
  350MPD2     H 5300   1.686   4.114  10.227  0.1615 -0.1046  0.6255
  350MPD2    H1 5301   1.656   4.525  10.324  1.7345  0.0442 -0.4791
  350MPD2    H2 5302   1.518   4.389   9.949  0.4617  2.4393  0.5840
  350MPD2    H3 5303   1.581   4.562  10.097  0.8393  0.3954 -0.2081
  350MPD2     N 5304   1.709   4.275  10.428  0.8115  1.2350  0.4358
  350MPD2    H5 5305   1.731   4.177  10.442  2.6963  1.7346  0.9032
  350MPD2    N1 5306   1.599   4.136   9.980 -0.0040  0.2688 -0.9926
  350MPD2    H7 5307   1.656   4.057  10.007  0.9862  0.7281 -1.7328
  351TMC3    C1 5308   1.477   3.991   9.840  0.0383 -1.0979 -0.1674
  351TMC3    C2 5309   1.587   3.917   9.813  0.7471  0.4174  0.4335
  351TMC3    C3 5310   1.566   3.808   9.727  0.3870  0.0953 -0.1603
  351TMC3    C4 5311   1.351   3.959   9.803 -0.7199  0.0566  0.6192
  351TMC3    C5 5312   1.338   3.842   9.735  0.7135 -0.2362 -0.3196
  351TMC3    C6 5313   1.445   3.771   9.688 -0.3784 -0.7690 -0.5791
  351TMC3     C 5314   1.499   4.128   9.888 -0.0069  0.9825 -0.1875
  351TMC3     O 5315   1.404   4.204   9.861  0.0943 -0.4178  0.3616
  351TMC3     H 5316   1.683   3.955   9.844  0.9530  0.1570  0.1063
  351TMC3    H1 5317   1.267   4.013   9.845  1.0370  2.5261  0.9910
  351TMC3    H2 5318   1.439   3.678   9.631  0.0484 -1.1183 -0.0488
  351TMC3    C7 5319   1.203   3.802   9.697  0.0557  0.5872  0.2415
  351TMC3    C8 5320   1.677   3.718   9.705 -0.2168  0.1941 -0.2707
  351TMC3    O1 5321   1.112   3.856   9.756  0.3603 -0.8443 -0.2017
  351TMC3    O2 5322   1.660   3.634   9.617  0.8227  0.0556  0.3932
  352MPD2     C 5323   0.559   1.915   0.798  0.0609  0.1026  0.1527
  352MPD2    C1 5324   0.477   1.812   0.765 -0.9101 -0.4013  0.7375
  352MPD2    C2 5325   0.427   1.734   0.863 -0.5136  0.1115 -0.1495
  352MPD2    C3 5326   0.465   1.757   0.997 -0.1614  0.3678 -0.3877
  352MPD2    C4 5327   0.560   1.849   1.030  0.5179 -0.7599 -0.4215
  352MPD2    C5 5328   0.601   1.935   0.928 -0.1362  0.1974 -0.8530
  352MPD2     H 5329   0.355   1.655   0.847  1.4908 -1.6333 -0.5791
  352MPD2    H1 5330   0.607   1.853   1.127 -0.5585 -0.8852  0.1069
  352MPD2    H2 5331   0.604   1.975   0.720  0.5725 -1.0708 -0.4546
  352MPD2    H3 5332   0.671   2.016   0.945  0.8275 -0.7180 -0.5513
  352MPD2     N 5333   0.412   1.688   1.106  0.2766  0.7510  0.5026
  352MPD2    H5 5334   0.464   1.703   1.191  2.1065  2.0153 -0.8510
  352MPD2    N1 5335   0.446   1.791   0.630  0.4657  0.0166 -0.2462
  352MPD2    H7 5336   0.497   1.846   0.562 -0.0591 -1.2522 -1.6699
  353TMC3    C1 5337   0.305   1.502   1.198  0.1000 -0.2330  0.4021
  353TMC3    C2 5338   0.435   1.455   1.238 -0.1453  0.3959 -0.1951
  353TMC3    C3 5339   0.443   1.323   1.279  0.3878 -0.4620  0.2016
  353TMC3    C4 5340   0.197   1.426   1.204 -0.1285  0.2439 -0.0881
  353TMC3    C5 5341   0.215   1.295   1.244  0.0301  0.3503  1.1023
  353TMC3    C6 5342   0.335   1.241   1.288 -0.6730 -0.4877 -0.2859
  353TMC3     C 5343   0.298   1.605   1.101  0.0787  0.6827  0.1372
  353TMC3     O 5344   0.225   1.582   1.007 -0.4224  0.1847 -0.3772
  353TMC3     H 5345   0.519   1.516   1.208 -0.8466  1.5433  0.1877
  353TMC3    H1 5346   0.100   1.466   1.175 -1.8405 -1.0799  3.8744
  353TMC3    H2 5347   0.340   1.135   1.312 -0.4993 -0.0566  1.5589
  353TMC3    C7 5348   0.101   1.197   1.220  0.3093  0.5223 -0.0501
  353TMC3    C8 5349   0.576   1.257   1.248  0.1067  0.4525 -0.5298
  353TMC3    O1 5350   0.132   1.080   1.209 -0.0325  0.1609  0.1216
  353TMC3    O2 5351   0.664   1.331   1.210 -0.2368  0.2231  0.2854
  354TMC3    C1 5352   2.406   2.038  13.507  0.6572 -0.2695 -0.3382
  354TMC3    C2 5353   2.543   2.061  13.509  0.6613  0.5415 -0.7201
  354TMC3    C3 5354   2.627   2.019  13.413 -0.9673  1.4017  0.0815
  354TMC3    C4 5355   2.354   1.963  13.402  0.1965 -0.3633 -0.0395
  354TMC3    C5 5356   2.439   1.935  13.295  0.3930  0.1221  0.1158
  354TMC3    C6 5357   2.576   1.956  13.307  0.0466  0.1556  0.1791
  354TMC3     C 5358   2.346   2.003  13.634  0.6496  0.7798 -0.0342
  354TMC3     O 5359   2.303   1.890  13.641 -0.1201  0.1244  0.4534
  354TMC3     H 5360   2.584   2.097  13.603 -1.1306  1.2966 -0.2265
  354TMC3    H1 5361   2.246   1.958  13.399  0.1052  1.9223 -1.1592
  354TMC3    H2 5362   2.641   1.925  13.227  0.2045  1.9817 -0.4076
  354TMC3    C7 5363   2.378   1.958  13.164 -0.2032 -0.3554 -0.2111
  354TMC3    C8 5364   2.735   2.105  13.377  0.5063  0.1220 -0.5077
  354TMC3    O1 5365   2.259   1.982  13.166 -0.0953  0.1226 -0.2754
  354TMC3    O2 5366   2.847   2.066  13.397  0.0681 -0.4819  0.2390
  355MPD2     C 5367   2.395   3.219  11.568 -0.3039 -0.5969  0.2006
  355MPD2    C1 5368   2.470   3.291  11.666  0.0692  0.4710 -0.5912
  355MPD2    C2 5369   2.531   3.220  11.768 -0.2680 -0.1760  0.8728
  355MPD2    C3 5370   2.523   3.079  11.760  0.0398 -0.2644  0.5131
  355MPD2    C4 5371   2.457   3.019  11.653  0.0412  0.3391  0.5273
  355MPD2    C5 5372   2.390   3.090  11.556  0.3178  0.3928 -0.1743
  355MPD2     H 5373   2.566   3.275  11.854  1.8989 -0.5014  0.1939
  355MPD2    H1 5374   2.451   2.911  11.647 -1.3925  0.3504  1.7053
  355MPD2    H2 5375   2.344   3.278  11.492  0.4874  0.3084  0.3682
  355MPD2    H3 5376   2.330   3.043  11.478  2.2962 -0.6815 -1.0334
  355MPD2     N 5377   2.578   2.987  11.848 -0.4826 -0.6042  0.2895
  355MPD2    H5 5378   2.539   2.894  11.835 -1.3882 -0.4899  2.1394
  355MPD2    N1 5379   2.463   3.433  11.657  0.4822 -0.6863  0.2399
  355MPD2    H7 5380   2.426   3.466  11.569  2.7064 -0.2082 -0.5129
  356TMC3    C1 5381   2.744   3.130  11.968 -0.3811  0.1309  0.5121
  356TMC3    C2 5382   2.816   3.179  11.863 -0.4757  0.0483 -0.0257
  356TMC3    C3 5383   2.893   3.289  11.885 -0.0183 -0.2117 -0.8146
  356TMC3    C4 5384   2.749   3.181  12.095 -0.0418  0.7102 -0.5553
  356TMC3    C5 5385   2.830   3.288  12.110 -0.2347  0.0183  0.1097
  356TMC3    C6 5386   2.900   3.348  12.011  0.0551 -0.4313 -0.2771
  356TMC3     C 5387   2.667   3.010  11.957 -0.0070  0.4799 -0.3664
  356TMC3     O 5388   2.696   2.929  12.044  0.1211  0.3522 -0.5045
  356TMC3     H 5389   2.801   3.142  11.762 -2.6248  1.2092 -0.1356
  356TMC3    H1 5390   2.716   3.125  12.181  1.2574 -0.9040 -1.1148
  356TMC3    H2 5391   2.984   3.413  12.033 -1.3160  1.3392 -0.3467
  356TMC3    C7 5392   2.884   3.296  12.249 -0.0597 -0.4914  0.2762
  356TMC3    C8 5393   2.923   3.382  11.779  0.3828 -0.4956 -0.3260
  356TMC3    O1 5394   2.875   3.203  12.327 -0.2245 -0.0119 -0.3935
  356TMC3    O2 5395   2.923   3.335  11.666 -0.2050  0.3939  0.0236
  357MPD2     C 5396   1.795   3.848   1.345  0.1910 -0.6279  0.0091
  357MPD2    C1 5397   1.789   3.744   1.433  0.3515 -0.1908  1.3051
  357MPD2    C2 5398   1.676   3.666   1.422  0.3524  1.0782 -0.1121
  357MPD2    C3 5399   1.569   3.707   1.338  0.2891 -0.7816  0.5281
  357MPD2    C4 5400   1.574   3.824   1.274 -0.5174 -0.3883 -0.1384
  357MPD2    C5 5401   1.693   3.896   1.270  0.5192  0.0086 -0.2160
  357MPD2     H 5402   1.682   3.569   1.470 -0.9098  1.0497  0.0006
  357MPD2    H1 5403   1.495   3.871   1.216 -0.7222 -1.2930 -0.5937
  357MPD2    H2 5404   1.881   3.913   1.341 -0.1518  0.1024  4.4050
  357MPD2    H3 5405   1.708   3.979   1.202 -0.3657  0.7656  0.5178
  357MPD2     N 5406   1.456   3.632   1.302  0.6849  0.4170  0.4827
  357MPD2    H5 5407   1.386   3.675   1.242 -0.9399 -2.0314  0.6046
  357MPD2    N1 5408   1.897   3.720   1.522  0.1554  0.2865 -0.0955
  357MPD2    H7 5409   1.981   3.774   1.512  0.9878 -0.4535  2.7426
  358TMC3    C1 5410   2.038   3.626   1.671 -0.1764 -0.3259 -0.0496
  358TMC3    C2 5411   2.129   3.569   1.585 -0.1543 -0.0390 -0.3799
  358TMC3    C3 5412   2.255   3.536   1.623 -0.7074 -0.3449 -0.7576
  358TMC3    C4 5413   2.062   3.643   1.811 -0.0058  0.4450 -0.4259
  358TMC3    C5 5414   2.194   3.612   1.846 -0.4307  0.2487  0.2558
  358TMC3    C6 5415   2.285   3.560   1.752  0.1226  0.2210 -0.2441
  358TMC3     C 5416   1.899   3.633   1.628 -0.4349  0.4025  0.0374
  358TMC3     O 5417   1.812   3.584   1.699 -0.3242  0.3192  0.1052
  358TMC3     H 5418   2.123   3.564   1.476  0.3469  1.6682 -0.4892
  358TMC3    H1 5419   1.989   3.698   1.870  0.5114 -1.6292  2.1357
  358TMC3    H2 5420   2.380   3.521   1.789 -0.8678  0.0091  2.0794
  358TMC3    C7 5421   2.245   3.634   1.979 -0.2989  0.1960  0.0895
  358TMC3    C8 5422   2.320   3.418   1.565  0.0132  0.1196  0.0296
  358TMC3    O1 5423   2.360   3.596   2.002  0.2475  0.1347 -0.1293
  358TMC3    O2 5424   2.445   3.414   1.577  0.3998 -0.0798  0.4640
  359MPD2     C 5425   2.856   1.901  12.327 -0.0237  0.3042 -0.3571
  359MPD2    C1 5426   2.754   1.982  12.273  1.1577 -0.5075  0.2987
  359MPD2    C2 5427   2.621   1.961  12.318  0.3229  0.0871  0.3951
  359MPD2    C3 5428   2.592   1.852  12.389 -0.5436 -0.4908  0.7339
  359MPD2    C4 5429   2.692   1.779  12.447  0.3846  0.6914  0.1712
  359MPD2    C5 5430   2.821   1.807  12.422 -0.2163 -0.3111 -0.3787
  359MPD2     H 5431   2.542   2.021  12.275  0.3955 -0.6901 -0.8411
  359MPD2    H1 5432   2.673   1.699  12.518 -0.4596  0.4759 -0.3055
  359MPD2    H2 5433   2.961   1.916  12.302  0.7268 -1.3736  1.8209
  359MPD2    H3 5434   2.897   1.743  12.466 -1.3112 -2.8155 -2.1518
  359MPD2     N 5435   2.459   1.816  12.426 -0.4550 -0.2691  0.0675
  359MPD2    H5 5436   2.446   1.768  12.514  4.1253  1.7563  1.8785
  359MPD2    N1 5437   2.778   2.089  12.184 -0.1681 -0.5017  0.6144
  359MPD2    H7 5438   2.698   2.133  12.140  0.3066 -0.1955  0.0636
  360TMC3    C1 5439   2.887   2.261  12.066 -0.1470  0.7558  0.0255
  360TMC3    C2 5440   2.987   2.357  12.073  0.1093  0.2584  0.4464
  360TMC3    C3 5441   2.991   2.438  11.964  0.2797  0.4337 -0.2617
  360TMC3    C4 5442   2.802   2.239  11.958  0.5779 -0.4525  0.9041
  360TMC3    C5 5443   2.827   2.315  11.845 -0.1146 -0.0549 -0.2280
  360TMC3    C6 5444   2.914   2.418  11.850  0.5544  0.1609  0.2325
  360TMC3     C 5445   2.898   2.153  12.165  0.1152 -0.5469  0.4043
  360TMC3     O 5446   3.011   2.123  12.206  0.0873  0.4196  0.8030
  360TMC3     H 5447   3.041   2.369  12.166 -0.0271  0.5790  0.4849
  360TMC3    H1 5448   2.728   2.159  11.958 -1.4266  1.3947  1.4319
  360TMC3    H2 5449   2.925   2.481  11.762 -0.1032 -1.4286 -1.0038
  360TMC3    C7 5450   2.761   2.293  11.711 -0.2119  0.2482  0.3353
  360TMC3    C8 5451   3.090   2.546  11.949 -1.0504 -0.3018  0.9112
  360TMC3    O1 5452   2.767   2.391  11.638  0.2673  0.1667 -0.8673
  360TMC3    O2 5453   3.068   2.637  11.870 -0.3812  0.3538  0.4059
  361MPD2     C 5454   4.390   0.142  16.331  0.7981 -0.0337  0.2698
  361MPD2    C1 5455   4.370   0.223  16.439 -0.4102 -0.7867 -0.0488
  361MPD2    C2 5456   4.424   0.190  16.564  0.4035 -0.0658 -0.4627
  361MPD2    C3 5457   4.517   0.080  16.573 -0.1832 -0.0228 -0.2283
  361MPD2    C4 5458   4.534   0.003  16.463  0.0369 -0.1483 -0.5755
  361MPD2    C5 5459   4.469   0.030  16.349 -0.0551 -0.3637 -0.9106
  361MPD2     H 5460   4.405   0.254  16.649  1.0831 -0.9303  0.3418
  361MPD2    H1 5461   4.611   4.662  16.459  0.8454  0.5564  1.8050
  361MPD2    H2 5462   4.338   0.166  16.239 -1.4168 -0.1027  1.4952
  361MPD2    H3 5463   4.484   4.706  16.260 -0.3846  0.3031 -1.4060
  361MPD2     N 5464   4.595   0.056  16.686 -0.1661  0.5415  0.0614
  361MPD2    H5 5465   4.660   4.714  16.674 -2.9356 -1.6496 -0.7266
  361MPD2    N1 5466   4.287   0.331  16.435 -0.7261 -0.2235  0.2270
  361MPD2    H7 5467   4.275   0.380  16.523  0.5215  0.8402 -0.1933
  362TMC3    C1 5468   4.156   0.521  16.355 -0.5160 -0.7555  0.0690
  362TMC3    C2 5469   4.106   0.534  16.490  0.5321  0.7566 -0.2268
  362TMC3    C3 5470   4.017   0.633  16.519 -0.0656  0.3322  0.1531
  362TMC3    C4 5471   4.105   0.601  16.263  0.3480  0.0554  0.5727
  362TMC3    C5 5472   4.018   0.697  16.304  0.4104  0.2608 -0.6164
  362TMC3    C6 5473   3.971   0.726  16.424 -0.1417 -0.2178 -0.3714
  362TMC3     C 5474   4.254   0.415  16.327  0.1895 -0.1860  0.2857
  362TMC3     O 5475   4.274   0.405  16.206 -0.5833  0.1640 -0.3894
  362TMC3     H 5476   4.137   0.474  16.574 -1.5917  1.6475  1.1899
  362TMC3    H1 5477   4.154   0.588  16.167  0.7752  3.5225  0.3392
  362TMC3    H2 5478   3.904   0.810  16.440  0.1092 -0.0266 -0.3274
  362TMC3    C7 5479   3.961   0.778  16.198  0.0796  0.5508 -0.0608
  362TMC3    C8 5480   3.983   0.644  16.663 -0.8108 -0.0027  0.1762
  362TMC3    O1 5481   3.938   0.896  16.231  0.2613  0.0741  0.0286
  362TMC3    O2 5482   4.042   0.574  16.744 -0.2506 -0.4663  0.1277
  363TMC3    C1 5483   2.623   4.095  10.082  0.9860  0.1953  0.5980
  363TMC3    C2 5484   2.631   3.962  10.063  0.7713 -0.5713 -0.7811
  363TMC3    C3 5485   2.512   3.893  10.046  0.4634 -0.4176 -0.5916
  363TMC3    C4 5486   2.505   4.167  10.090  0.7929 -0.3878 -0.0807
  363TMC3    C5 5487   2.398   4.096  10.043  0.7953  0.0376 -0.5399
  363TMC3    C6 5488   2.389   3.957  10.028  0.1753  0.4843 -0.0108
  363TMC3     C 5489   2.728   4.138  10.173  0.0674 -0.3498 -0.2286
  363TMC3     O 5490   2.848   4.122  10.145 -0.1174 -0.3245  0.0191
  363TMC3     H 5491   2.727   3.913  10.052  1.9603  2.1270 -2.3314
  363TMC3    H1 5492   2.497   4.272  10.115 -0.3119 -0.1736 -1.3300
  363TMC3    H2 5493   2.296   3.908  10.004  1.5298 -2.9080  1.6376
  363TMC3    C7 5494   2.271   4.170  10.038 -0.4203  0.3560  0.1874
  363TMC3    C8 5495   2.510   3.753  10.001  0.6221  0.0499  0.2886
  363TMC3    O1 5496   2.258   4.269  10.103 -0.0878  0.3165  0.5520
  363TMC3    O2 5497   2.404   3.715   9.950 -0.5239 -0.6367 -0.1360
  364MPD2     C 5498   0.998   2.931  10.885  0.4658 -0.1849  0.9774
  364MPD2    C1 5499   1.048   2.960  10.766 -0.3793  0.0401 -0.2804
  364MPD2    C2 5500   1.171   2.896  10.740  0.2485  0.0071  0.1725
  364MPD2    C3 5501   1.231   2.805  10.829 -0.1111  0.1632 -0.6587
  364MPD2    C4 5502   1.170   2.776  10.948  0.2478  0.7668 -0.0580
  364MPD2    C5 5503   1.050   2.834  10.967 -0.2952  0.1448  0.2451
  364MPD2     H 5504   1.221   2.909  10.645 -0.7598  1.1749 -0.1942
  364MPD2    H1 5505   1.215   2.710  11.021  0.2238 -1.0882 -1.7302
  364MPD2    H2 5506   0.896   2.964  10.904 -0.1378 -1.7324  0.4379
  364MPD2    H3 5507   1.000   2.813  11.061 -2.5261  0.3502 -0.8964
  364MPD2     N 5508   1.363   2.737  10.817  0.0449  0.3646 -0.2053
  364MPD2    H5 5509   1.383   2.664  10.884  1.9892  0.9772 -0.1218
  364MPD2    N1 5510   0.991   3.055  10.675 -0.1212 -0.3394 -0.6244
  364MPD2    H7 5511   0.912   3.106  10.715 -0.1602  1.2021 -2.6670
  365TMC3    C1 5512   0.970   3.172  10.465  0.0092  0.3097 -0.0171
  365TMC3    C2 5513   0.988   3.146  10.333  0.1628  0.2732  0.2527
  365TMC3    C3 5514   1.007   3.252  10.247  0.2649  0.0635 -0.7507
  365TMC3    C4 5515   0.947   3.296  10.522 -0.0721  0.2245  0.5333
  365TMC3    C5 5516   0.957   3.397  10.425  0.1037 -0.4503 -0.2259
  365TMC3    C6 5517   1.000   3.376  10.294 -0.7059 -0.3466  0.6904
  365TMC3     C 5518   1.037   3.076  10.547 -0.7391 -0.1229 -0.4633
  365TMC3     O 5519   1.126   3.030  10.479  0.5271 -0.0160 -0.3389
  365TMC3     H 5520   0.983   3.040  10.309  0.2628  0.1838  0.6251
  365TMC3    H1 5521   0.942   3.319  10.628  3.3220  2.6862  0.1605
  365TMC3    H2 5522   1.011   3.462  10.228 -0.3302 -0.3254  0.7864
  365TMC3    C7 5523   0.941   3.545  10.468 -0.8592  0.2819  1.0429
  365TMC3    C8 5524   1.109   3.230  10.149 -0.6576 -0.1494  0.5955
  365TMC3    O1 5525   0.957   3.637  10.388 -0.6312 -0.4584  0.0613
  365TMC3    O2 5526   1.119   3.299  10.048 -0.0494  0.3937  0.3011
  366MPD2     C 5527   0.550   3.285  15.421  0.2928 -0.0579  0.8485
  366MPD2    C1 5528   0.542   3.362  15.535 -0.1212  0.1957 -0.0041
  366MPD2    C2 5529   0.642   3.359  15.626  0.4067  0.5330  0.4853
  366MPD2    C3 5530   0.748   3.277  15.614  0.2599  0.0758  0.0071
  366MPD2    C4 5531   0.761   3.190  15.507  1.0294  0.1035  0.3725
  366MPD2    C5 5532   0.658   3.194  15.409  0.4327  0.4207  0.0224
  366MPD2     H 5533   0.631   3.425  15.712 -2.0659  0.2117  0.4180
  366MPD2    H1 5534   0.848   3.126  15.500  0.9253  0.4107 -4.2495
  366MPD2    H2 5535   0.489   3.299  15.333  1.4183 -0.9172 -0.0614
  366MPD2    H3 5536   0.674   3.137  15.319  0.3237 -3.4000  2.4438
  366MPD2     N 5537   0.869   3.283  15.698 -0.5426  0.9995  0.5785
  366MPD2    H5 5538   0.927   3.200  15.689 -1.3014  0.4486  0.7892
  366MPD2    N1 5539   0.436   3.455  15.563 -0.1590  0.2491  0.4490
  366MPD2    H7 5540   0.433   3.505  15.650  0.4202  0.7129  0.1973
  367TMC3    C1 5541   0.241   3.580  15.515  0.5930 -0.6997  0.1257
  367TMC3    C2 5542   0.262   3.640  15.630 -0.0192  0.0247 -0.3340
  367TMC3    C3 5543   0.209   3.767  15.647 -0.2152 -0.1620 -0.7353
  367TMC3    C4 5544   0.165   3.636  15.416  0.4024  0.4537 -0.5051
  367TMC3    C5 5545   0.115   3.761  15.438 -0.0819  0.4378 -0.5428
  367TMC3    C6 5546   0.140   3.839  15.548 -0.1091 -0.3194 -0.2069
  367TMC3     C 5547   0.332   3.474  15.477 -0.6823  0.0889  0.1904
  367TMC3     O 5548   0.289   3.399  15.389 -0.1841  0.4739 -0.0125
  367TMC3     H 5549   0.306   3.589  15.715 -1.9082 -1.7781 -0.4376
  367TMC3    H1 5550   0.173   3.589  15.319  0.0428 -2.0130  0.6522
  367TMC3    H2 5551   0.096   3.936  15.566 -0.9259 -0.4073 -1.7409
  367TMC3    C7 5552   0.011   3.814  15.354  0.3958 -0.4871 -0.5029
  367TMC3    C8 5553   0.275   3.837  15.760 -0.7251  0.0379 -0.1454
  367TMC3    O1 5554   4.717   3.930  15.371 -0.5691 -0.0964  0.5597
  367TMC3    O2 5555   0.322   3.774  15.854  0.5260 -0.2409 -0.8466
  368MPD2     C 5556   1.666   0.388  12.748  0.0686 -0.0474 -1.2541
  368MPD2    C1 5557   1.656   0.522  12.718  0.2711 -0.2605 -0.3525
  368MPD2    C2 5558   1.771   0.580  12.667  0.0085  0.2171 -0.3333
  368MPD2    C3 5559   1.895   0.528  12.657  0.1323 -0.6867  0.4094
  368MPD2    C4 5560   1.907   0.407  12.718 -0.2227  0.2945  0.3220
  368MPD2    C5 5561   1.791   0.336  12.750  0.1648 -0.2881 -0.6635
  368MPD2     H 5562   1.758   0.680  12.627  0.8554  0.4214 -0.0992
  368MPD2    H1 5563   2.001   0.352  12.715  0.2409  1.0305  1.0145
  368MPD2    H2 5564   1.588   0.318  12.775 -0.4229 -0.1088 -2.8504
  368MPD2    H3 5565   1.808   0.233  12.780 -1.5163  0.1067  1.6473
  368MPD2     N 5566   2.006   0.592  12.602  0.3807  0.0811 -0.2657
  368MPD2    H5 5567   2.097   0.547  12.601  0.0583 -0.5663 -0.4222
  368MPD2    N1 5568   1.535   0.590  12.733  0.3347  0.3231 -0.8008
  368MPD2    H7 5569   1.447   0.542  12.749  0.6539  0.6474  2.0153
  369TMC3    C1 5570   1.379   0.777  12.693 -0.1239 -0.9134  0.4826
  369TMC3    C2 5571   1.369   0.915  12.679 -0.3241 -0.2256  0.1902
  369TMC3    C3 5572   1.250   0.975  12.721 -0.0548 -0.1142  0.7434
  369TMC3    C4 5573   1.285   0.705  12.760  0.2411 -0.7400  0.2097
  369TMC3    C5 5574   1.173   0.771  12.807 -0.0145  0.6499  0.1201
  369TMC3    C6 5575   1.150   0.904  12.783  0.1731 -0.1866 -0.3212
  369TMC3     C 5576   1.516   0.726  12.712 -0.0126 -0.0617 -0.1444
  369TMC3     O 5577   1.602   0.819  12.710  0.3982  0.0282  0.3567
  369TMC3     H 5578   1.455   0.961  12.632 -0.2295  0.3540  0.9325
  369TMC3    H1 5579   1.297   0.599  12.778  0.7597 -0.7881 -0.4525
  369TMC3    H2 5580   1.058   0.954  12.813  0.0988  0.2475 -1.2553
  369TMC3    C7 5581   1.056   0.691  12.819  0.1830 -0.0603 -0.0814
  369TMC3    C8 5582   1.249   1.118  12.732 -0.3564  0.1176  0.3930
  369TMC3    O1 5583   1.068   0.584  12.878  0.5847  0.0963 -0.3401
  369TMC3    O2 5584   1.141   1.178  12.740  0.5798 -0.1710 -0.2027
  370TMC3    C1 5585   0.891   1.323  16.114  0.3863  0.9470  0.3463
  370TMC3    C2 5586   0.782   1.271  16.175 -0.9187 -0.3034  0.3137
  370TMC3    C3 5587   0.727   1.168  16.109  0.7826 -0.4638 -0.3046
  370TMC3    C4 5588   0.950   1.276  16.000 -0.1560  0.6296 -0.3477
  370TMC3    C5 5589   0.889   1.174  15.937  0.2530  0.0195  0.2172
  370TMC3    C6 5590   0.780   1.113  15.995  0.6758 -0.3360  0.5917
  370TMC3     C 5591   0.971   1.401  16.205 -0.4800  0.3565 -0.4223
  370TMC3     O 5592   0.984   1.366  16.324  0.1761 -0.0917  0.1061
  370TMC3     H 5593   0.741   1.307  16.268  0.4826 -0.1100  0.8565
  370TMC3    H1 5594   1.051   1.305  15.975  0.2043  1.3004  1.9308
  370TMC3    H2 5595   0.737   1.025  15.948 -1.7388  1.1988 -0.0328
  370TMC3    C7 5596   0.962   1.106  15.831 -0.3692  0.6243 -0.3009
  370TMC3    C8 5597   0.648   1.074  16.184 -0.8117 -0.0812 -0.0843
  370TMC3    O1 5598   1.063   1.158  15.781  0.3656 -0.1555  0.3126
  370TMC3    O2 5599   0.654   0.953  16.160  0.1750  0.1219 -0.0310
  371TMC3    C1 5600   2.005   4.146  15.472  0.2362  0.0913 -0.2082
  371TMC3    C2 5601   1.892   4.139  15.553 -0.1512  0.2799  0.5084
  371TMC3    C3 5602   1.826   4.258  15.590  0.1945  0.1001  0.4004
  371TMC3    C4 5603   2.056   4.262  15.421 -0.0395 -0.4473  0.1160
  371TMC3    C5 5604   1.984   4.376  15.453  0.4827 -0.2805 -0.7424
  371TMC3    C6 5605   1.872   4.377  15.536  0.1849  0.2553 -1.2582
  371TMC3     C 5606   2.090   4.032  15.463  0.6326 -0.5746  0.6008
  371TMC3     O 5607   2.169   4.019  15.377  0.8075 -0.2870 -0.0517
  371TMC3     H 5608   1.847   4.043  15.577 -0.0418 -0.5737 -2.6684
  371TMC3    H1 5609   2.135   4.265  15.347 -0.6535 -1.5960 -0.5865
  371TMC3    H2 5610   1.827   4.475  15.552 -2.2825 -0.4479 -3.9912
  371TMC3    C7 5611   2.046   4.498  15.423  0.0197 -0.3995 -0.0498
  371TMC3    C8 5612   1.708   4.228  15.669 -0.3338 -0.1614  0.3099
  371TMC3    O1 5613   1.973   4.590  15.389 -0.2513 -0.1245  0.2438
  371TMC3    O2 5614   1.696   4.118  15.727  0.3806 -0.3448  0.4683
  372MPD2     C 5615   1.302   0.581  13.212  0.0870  0.8332  0.0194
  372MPD2    C1 5616   1.417   0.525  13.260 -0.8043 -0.4877  0.1774
  372MPD2    C2 5617   1.407   0.441  13.371 -0.4395  0.1703 -0.2397
  372MPD2    C3 5618   1.286   0.410  13.431 -0.7199 -0.2942  0.2260
  372MPD2    C4 5619   1.166   0.463  13.374  0.2073  0.2963 -0.4506
  372MPD2    C5 5620   1.185   0.554  13.270 -0.0321  0.4711  0.6219
  372MPD2     H 5621   1.497   0.400  13.413 -0.8940 -1.4072 -0.8015
  372MPD2    H1 5622   1.065   0.440  13.406  0.0153  2.0548  0.1927
  372MPD2    H2 5623   1.297   0.637  13.120 -2.8597  0.8336  0.1951
  372MPD2    H3 5624   1.089   0.576  13.225 -0.0293 -1.6408 -0.4095
  372MPD2     N 5625   1.287   0.328  13.545 -0.6107  0.3357 -0.1797
  372MPD2    H5 5626   1.375   0.288  13.577 -1.4762 -0.2192  1.4727
  372MPD2    N1 5627   1.545   0.553  13.211 -0.1185  0.2288  0.6884
  372MPD2    H7 5628   1.621   0.504  13.257  1.4511  0.4871 -1.6262
  373TMC3    C1 5629   1.189   0.223  13.741  0.5384  0.4132  0.2455
  373TMC3    C2 5630   1.143   0.274  13.864 -0.3181  0.2374 -0.2159
  373TMC3    C3 5631   1.199   0.228  13.980  0.3316 -0.4884 -0.6236
  373TMC3    C4 5632   1.295   0.132  13.732 -0.6946  0.4871 -0.3857
  373TMC3    C5 5633   1.337   0.085  13.855 -0.1164  0.5814 -0.6071
  373TMC3    C6 5634   1.295   0.130  13.976  0.0548 -0.0212 -0.2048
  373TMC3     C 5635   1.178   0.322  13.632  0.1938 -0.1865 -0.0935
  373TMC3     O 5636   1.075   0.393  13.628 -0.0780  1.0562  0.2009
  373TMC3     H 5637   1.071   0.355  13.864 -1.9108 -1.2112 -0.5068
  373TMC3    H1 5638   1.340   0.108  13.637 -0.2935 -1.2006  0.2247
  373TMC3    H2 5639   1.317   0.088  14.074  0.0238  0.6439  0.0923
  373TMC3    C7 5640   1.454   0.004  13.847  0.1217 -0.0750 -0.4391
  373TMC3    C8 5641   1.237   0.332  14.080  0.8895 -0.2817  1.0140
  373TMC3    O1 5642   1.495   4.705  13.738  0.7583  0.8070 -0.0381
  373TMC3    O2 5643   1.303   0.301  14.181 -0.0051  0.3024 -0.3705
  374TMC3    C1 5644   1.462   1.460  10.143 -0.4261 -0.3137 -0.3088
  374TMC3    C2 5645   1.568   1.548  10.131  0.0703 -0.5276  0.0410
  374TMC3    C3 5646   1.567   1.628  10.019 -0.0222  0.5692  0.1702
  374TMC3    C4 5647   1.368   1.444  10.043 -0.0277 -0.0478 -0.1068
  374TMC3    C5 5648   1.375   1.524   9.932 -0.6071  0.5046 -0.1128
  374TMC3    C6 5649   1.469   1.623   9.927 -0.3098  0.4932  0.1574
  374TMC3     C 5650   1.462   1.354  10.233 -0.4749  0.0444 -0.5109
  374TMC3     O 5651   1.381   1.261  10.215  0.6507  0.0775 -0.3912
  374TMC3     H 5652   1.652   1.542  10.199  0.0345 -1.2693  0.0268
  374TMC3    H1 5653   1.285   1.374  10.039 -0.0646 -0.1362  2.1121
  374TMC3    H2 5654   1.472   1.687   9.840  0.9826  0.6518  0.3121
  374TMC3    C7 5655   1.256   1.538   9.851  0.5397 -0.0044 -0.3226
  374TMC3    C8 5656   1.651   1.744  10.017 -0.2821  0.0996 -0.8624
  374TMC3    O1 5657   1.262   1.601   9.750 -0.6346 -0.0395 -0.0258
  374TMC3    O2 5658   1.608   1.837   9.951 -0.4119  0.2629 -0.6132
  375MPD2     C 5659   2.103   2.052  17.377 -0.6898 -0.3616  0.4595
  375MPD2    C1 5660   2.038   2.075  17.251  0.0578 -0.5796  0.4033
  375MPD2    C2 5661   2.116   2.050  17.135  0.2555 -0.2314 -0.2007
  375MPD2    C3 5662   2.251   1.997  17.142  0.0297  0.5134  0.3312
  375MPD2    C4 5663   2.311   1.991  17.263 -0.0102  0.3567  0.4377
  375MPD2    C5 5664   2.234   2.024  17.378  0.8799  0.1815  0.5469
  375MPD2     H 5665   2.068   2.071  17.040  0.8403  0.1495 -0.4104
  375MPD2    H1 5666   2.413   1.955  17.259 -0.1075  0.2787 -1.5941
  375MPD2    H2 5667   2.062   2.071  17.476  0.6760  0.4423  0.8688
  375MPD2    H3 5668   2.290   1.998  17.467  0.9206 -0.3427  0.3641
  375MPD2     N 5669   2.333   1.975  17.021  0.3524 -0.1573 -0.5125
  375MPD2    H5 5670   2.433   1.963  17.031  0.3917  2.1225  1.9550
  375MPD2    N1 5671   1.909   2.127  17.233 -0.2714 -0.6603 -0.2921
  375MPD2    H7 5672   1.889   2.166  17.141 -0.5071  1.8863  0.8386
  376TMC3    C1 5673   2.358   1.946  16.790 -0.1716  0.7398 -0.2166
  376TMC3    C2 5674   2.470   2.024  16.790 -0.3918 -1.0356 -0.1646
  376TMC3    C3 5675   2.521   2.043  16.666 -0.3595 -0.3426  0.0201
  376TMC3    C4 5676   2.305   1.887  16.682 -0.1818  0.3505 -0.7155
  376TMC3    C5 5677   2.358   1.917  16.566  0.1078  0.1287  0.0585
  376TMC3    C6 5678   2.475   1.983  16.548 -0.3431 -1.1744  0.3008
  376TMC3     C 5679   2.268   1.954  16.897  0.4906  0.3707 -0.1859
  376TMC3     O 5680   2.146   1.936  16.873 -0.1298 -0.1131  0.3027
  376TMC3     H 5681   2.507   2.085  16.871 -1.0977  1.7998 -1.9871
  376TMC3    H1 5682   2.230   1.810  16.693  0.3786 -0.0275  0.5425
  376TMC3    H2 5683   2.507   2.017  16.451 -2.3358  0.0008  0.0634
  376TMC3    C7 5684   2.307   1.851  16.454  0.2673  0.0581  0.2669
  376TMC3    C8 5685   2.657   2.084  16.657 -0.1175  0.2782  0.0053
  376TMC3    O1 5686   2.381   1.835  16.359  0.1147  0.6337 -0.2035
  376TMC3    O2 5687   2.695   2.092  16.542 -0.1460 -0.2689  0.0170
  377MPD2     C 5688   0.008   0.988  12.455 -0.4993 -0.0654 -0.3443
  377MPD2    C1 5689   0.136   0.972  12.498 -0.8720 -0.5126  0.0424
  377MPD2    C2 5690   0.153   0.915  12.618 -0.0007  0.3206  0.5776
  377MPD2    C3 5691   0.045   0.892  12.706  0.2224 -0.2354  0.5139
  377MPD2    C4 5692   4.652   0.921  12.667  0.2029 -0.0491  0.0114
  377MPD2    C5 5693   4.631   0.965  12.534 -0.3886 -0.0707  0.6153
  377MPD2     H 5694   0.255   0.895  12.651 -0.3651  0.5104  1.8103
  377MPD2    H1 5695   4.561   0.915  12.726  0.8184 -3.7632  0.6249
  377MPD2    H2 5696   4.725   1.026  12.355 -0.9000  1.2048  0.2133
  377MPD2    H3 5697   4.530   0.975  12.498  0.0795  0.5279 -0.5115
  377MPD2     N 5698   0.055   0.823  12.834 -0.4210 -0.7236 -0.4903
  377MPD2    H5 5699   4.703   0.808  12.884  0.1890 -1.1412  0.4301
  377MPD2    N1 5700   0.253   1.003  12.412  0.3098 -0.7889  0.4227
  377MPD2    H7 5701   0.236   1.037  12.317  0.6031  1.7905  1.2932
  378TMC3    C1 5702   0.505   1.240  12.207 -0.0228 -0.6391 -0.5014
  378TMC3    C2 5703   0.422   1.146  12.266  0.1098  0.2994  0.4867
  378TMC3    C3 5704   0.472   1.044  12.344 -0.2008 -0.3723  0.0700
  378TMC3    C4 5705   0.640   1.237  12.222  0.3001  0.9252  0.0732
  378TMC3    C5 5706   0.688   1.130  12.299  0.0077 -0.6290  0.0859
  378TMC3    C6 5707   0.607   1.032  12.362  0.1384  0.3310  0.4220
  378TMC3     C 5708   0.442   1.370  12.187  0.7149  0.1661 -0.5627
  378TMC3     O 5709   0.343   1.391  12.258  0.0238  0.4312  0.0124
  378TMC3     H 5710   0.318   1.172  12.248 -0.2472 -1.3365  0.2476
  378TMC3    H1 5711   0.694   1.329  12.207 -1.5702  1.9674 -0.2176
  378TMC3    H2 5712   0.644   0.955  12.429  0.7983 -0.4580 -0.8418
  378TMC3    C7 5713   0.834   1.126  12.334 -0.1317 -0.5196 -0.0973
  378TMC3    C8 5714   0.383   0.988  12.443  0.7879  0.5880  0.2356
  378TMC3    O1 5715   0.882   1.051  12.419  0.2571 -0.2960  0.7163
  378TMC3    O2 5716   0.435   0.945  12.543  0.2991  0.7606  0.3801
  379MPD2     C 5717   0.836   4.135  16.750  0.4994  0.4389  0.1846
  379MPD2    C1 5718   0.951   4.102  16.685 -0.0449  0.0502 -0.2825
  379MPD2    C2 5719   1.053   4.029  16.750  0.1560  0.2544  0.4457
  379MPD2    C3 5720   1.036   4.000  16.881 -0.0013 -0.4176  0.6754
  379MPD2    C4 5721   0.907   4.018  16.939 -0.3840 -0.2557  0.2980
  379MPD2    C5 5722   0.809   4.089  16.877 -0.2862  0.5397 -0.4674
  379MPD2     H 5723   1.138   3.997  16.691 -1.3926 -1.1362 -1.0306
  379MPD2    H1 5724   0.891   3.997  17.044  1.2776  0.3610  0.6817
  379MPD2    H2 5725   0.755   4.190  16.704 -1.0454 -2.3496 -0.3587
  379MPD2    H3 5726   0.724   4.129  16.931 -1.3976 -1.7968 -0.5310
  379MPD2     N 5727   1.135   3.929  16.953  0.0860  0.3715  0.1238
  379MPD2    H5 5728   1.116   3.924  17.053 -4.2493 -0.5823 -0.7819
  379MPD2    N1 5729   0.949   4.125  16.549 -0.3778  0.4366 -0.2652
  379MPD2    H7 5730   0.856   4.147  16.513 -0.9524 -0.6386  0.5377
  380TMC3    C1 5731   0.991   4.099  16.316  0.4793 -0.3400 -0.4594
  380TMC3    C2 5732   1.071   4.043  16.221  0.5400 -0.3936 -0.4603
  380TMC3    C3 5733   1.001   3.992  16.112  0.2094 -0.3470  0.5322
  380TMC3    C4 5734   0.860   4.128  16.306  0.3118 -0.3759  0.7542
  380TMC3    C5 5735   0.811   4.099  16.185  0.7495 -0.2459  0.5052
  380TMC3    C6 5736   0.875   4.027  16.088 -0.3341  0.1647  0.0775
  380TMC3     C 5737   1.048   4.093  16.452  0.6254  0.4613 -0.5723
  380TMC3     O 5738   1.165   4.058  16.467  0.3510  0.0565  0.0388
  380TMC3     H 5739   1.178   4.039  16.235  0.4695 -1.0054 -0.0482
  380TMC3    H1 5740   0.800   4.196  16.365  1.4220 -0.6655  2.2234
  380TMC3    H2 5741   0.835   4.010  15.989  0.7808  0.3543 -0.4073
  380TMC3    C7 5742   0.687   4.163  16.156  0.2474 -0.7025  0.3903
  380TMC3    C8 5743   1.069   3.931  15.996  0.1850  0.4091  0.5374
  380TMC3    O1 5744   0.659   4.269  16.209 -0.1606 -0.4137 -0.1099
  380TMC3    O2 5745   0.999   3.904  15.900  0.2583 -0.5393 -0.6335
  381TMC3    C1 5746   0.500   0.342  16.046  0.2566 -0.6424 -0.2173
  381TMC3    C2 5747   0.600   0.438  16.042 -0.1627  0.1612 -0.6090
  381TMC3    C3 5748   0.646   0.498  16.158  0.0030 -0.1586  0.1389
  381TMC3    C4 5749   0.451   0.297  16.165  0.1943  0.1745 -0.0495
  381TMC3    C5 5750   0.517   0.341  16.278 -0.6638 -0.2554  0.2386
  381TMC3    C6 5751   0.604   0.446  16.279  0.1666 -0.1478  0.0242
  381TMC3     C 5752   0.463   0.279  15.911 -0.1128 -0.6022 -0.7719
  381TMC3     O 5753   0.421   0.161  15.919 -0.0192  0.4323 -0.3181
  381TMC3     H 5754   0.638   0.466  15.944 -0.8778  0.2719 -0.8527
  381TMC3    H1 5755   0.388   0.209  16.162  1.6365 -0.7883 -1.9926
  381TMC3    H2 5756   0.644   0.483  16.373 -1.6753  2.4744 -0.2145
  381TMC3    C7 5757   0.481   0.281  16.404 -0.5976  0.4309 -0.4911
  381TMC3    C8 5758   0.758   0.591  16.135  0.0921  0.6062 -0.2973
  381TMC3    O1 5759   0.472   0.161  16.413  0.3224  1.1488  0.1846
  381TMC3    O2 5760   0.793   0.604  16.021  0.3807  0.3254 -0.3473
  382MPD2     C 5761   0.381   3.059  16.971 -0.6736  0.4968  0.3688
  382MPD2    C1 5762   0.350   3.028  17.101 -0.8377  0.4717 -0.3305
  382MPD2    C2 5763   0.298   2.902  17.142 -0.0775  0.0982 -0.3724
  382MPD2    C3 5764   0.284   2.803  17.050 -0.3840 -0.5270  0.2796
  382MPD2    C4 5765   0.310   2.840  16.920  0.4604 -0.2247  1.1105
  382MPD2    C5 5766   0.363   2.962  16.880 -0.6441  0.3995  0.3017
  382MPD2     H 5767   0.283   2.889  17.249 -1.0724  0.7417 -0.4377
  382MPD2    H1 5768   0.295   2.772  16.837 -0.5953  1.9942 -0.5087
  382MPD2    H2 5769   0.429   3.150  16.938  0.8536  0.6887  3.0843
  382MPD2    H3 5770   0.399   2.981  16.780  0.1935  3.3592  1.1450
  382MPD2     N 5771   0.235   2.677  17.082 -0.3034  0.1040 -0.5146
  382MPD2    H5 5772   0.203   2.618  17.007  3.0251  1.2746 -2.8570
  382MPD2    N1 5773   0.352   3.127  17.203  0.1915 -0.2253 -0.6992
  382MPD2    H7 5774   0.312   3.095  17.291  0.9223  0.8520  0.0206
  383TMC3    C1 5775   0.136   2.519  17.233  0.3682 -0.2652  0.0612
  383TMC3    C2 5776   0.066   2.450  17.139 -0.1992  0.2196 -0.2506
  383TMC3    C3 5777   0.007   2.334  17.176 -0.4860 -0.1267 -0.7976
  383TMC3    C4 5778   0.139   2.487  17.373  0.0566  0.5169  0.1786
  383TMC3    C5 5779   0.089   2.361  17.395  0.7186  0.1330 -0.1081
  383TMC3    C6 5780   0.030   2.276  17.299 -0.5170 -0.5450  0.3077
  383TMC3     C 5781   0.220   2.637  17.209 -0.1941  0.1882 -0.1823
  383TMC3     O 5782   0.260   2.686  17.316 -0.1828 -0.0085  0.3310
  383TMC3     H 5783   0.048   2.491  17.041 -0.0088  0.2996 -0.2513
  383TMC3    H1 5784   0.180   2.544  17.454  1.3233 -0.8252  0.4748
  383TMC3    H2 5785   4.717   2.184  17.331  1.1798 -0.6805  2.4982
  383TMC3    C7 5786   0.066   2.317  17.526 -0.7426  0.5953 -0.0744
  383TMC3    C8 5787   4.633   2.289  17.093 -0.2517 -0.1358 -0.3485
  383TMC3    O1 5788   0.085   2.203  17.555 -0.0662 -0.4543 -0.9486
  383TMC3    O2 5789   4.586   2.371  17.017  0.0217  0.5238 -0.3863
  384MPD2     C 5790   1.389   4.291  12.563  0.1001  0.3846 -0.2787
  384MPD2    C1 5791   1.460   4.216  12.652 -0.3361  0.3691 -0.4459
  384MPD2    C2 5792   1.568   4.146  12.594  0.1504 -0.9052 -0.1804
  384MPD2    C3 5793   1.597   4.139  12.455 -0.1235 -0.2596 -0.2114
  384MPD2    C4 5794   1.520   4.219  12.368  0.4300  0.3549 -0.1029
  384MPD2    C5 5795   1.417   4.291  12.429 -0.0534  0.0461  0.0989
  384MPD2     H 5796   1.635   4.091  12.660 -0.9729 -0.4722  1.3255
  384MPD2    H1 5797   1.534   4.208  12.261  0.4343  0.8432 -0.1513
  384MPD2    H2 5798   1.308   4.352  12.601 -1.0305 -1.7518  0.7311
  384MPD2    H3 5799   1.344   4.325  12.356  0.4154 -1.5335 -1.1039
  384MPD2     N 5800   1.696   4.054  12.410  0.5589 -0.4464  0.5221
  384MPD2    H5 5801   1.748   4.019  12.490  1.0973 -0.5166  0.1408
  384MPD2    N1 5802   1.438   4.214  12.795 -0.5066 -0.7982 -0.4930
  384MPD2    H7 5803   1.506   4.160  12.848  2.4622  3.5298  0.0715
  385TMC3    C1 5804   1.754   3.879  12.252  0.0758 -0.4781 -0.0488
  385TMC3    C2 5805   1.734   3.822  12.126 -0.3504 -0.1964 -0.1792
  385TMC3    C3 5806   1.740   3.690  12.118  0.2172  0.0256  0.8717
  385TMC3    C4 5807   1.775   3.795  12.363 -0.2893  0.1876  0.4231
  385TMC3    C5 5808   1.780   3.658  12.344 -0.1392  1.0463 -0.3406
  385TMC3    C6 5809   1.769   3.605  12.221  0.8602  0.0717  0.7047
  385TMC3     C 5810   1.718   4.020  12.275 -0.1479  0.0403 -1.1679
  385TMC3     O 5811   1.701   4.088  12.174 -0.1770  0.2002 -0.1415
  385TMC3     H 5812   1.725   3.884  12.038  1.2385 -2.9021 -2.2579
  385TMC3    H1 5813   1.803   3.833  12.460  0.1493 -0.2228  0.4602
  385TMC3    H2 5814   1.767   3.497  12.220  0.3452  0.0830  0.7827
  385TMC3    C7 5815   1.739   3.574  12.452 -0.0239  0.3463 -0.0219
  385TMC3    C8 5816   1.729   3.616  11.992 -0.8018  0.0555 -0.7097
  385TMC3    O1 5817   1.755   3.454  12.440  0.7002  0.7637  0.1871
  385TMC3    O2 5818   1.807   3.519  11.983  0.3475  0.0130  0.0587
  386TMC3    C1 5819   1.968   1.492  11.823  0.1942  0.1127 -0.3858
  386TMC3    C2 5820   2.014   1.551  11.705  0.5140 -0.4202  0.4489
  386TMC3    C3 5821   1.979   1.682  11.690  0.3176 -0.5817  0.4647
  386TMC3    C4 5822   1.914   1.558  11.925  0.7757 -0.3945 -0.8956
  386TMC3    C5 5823   1.886   1.693  11.905  0.1515  0.0607 -0.0347
  386TMC3    C6 5824   1.928   1.755  11.790  0.2202  0.5992  0.6582
  386TMC3     C 5825   2.035   1.365  11.851  0.0381  0.1576 -0.1737
  386TMC3     O 5826   2.144   1.350  11.798 -0.0585  0.1355  0.2580
  386TMC3     H 5827   2.073   1.501  11.629 -0.9740  0.2059 -1.0910
  386TMC3    H1 5828   1.874   1.502  12.009  0.3951 -1.2631 -1.6580
  386TMC3    H2 5829   1.923   1.864  11.788 -0.3386  0.5368 -0.8386
  386TMC3    C7 5830   1.775   1.747  11.975 -0.0723 -0.2348 -0.7480
  386TMC3    C8 5831   1.883   1.700  11.579  0.4506  0.6457  0.5180
  386TMC3    O1 5832   1.746   1.695  12.082 -0.1779 -0.3173 -0.1142
  386TMC3    O2 5833   1.823   1.805  11.581  0.1481 -0.4302 -0.3773
  387MPD2     C 5834   3.778   1.855   9.980  0.0518  0.7645  0.0414
  387MPD2    C1 5835   3.857   1.894  10.084 -0.3305  0.1182 -0.2528
  387MPD2    C2 5836   3.874   1.805  10.188 -0.2475  0.9665  0.3204
  387MPD2    C3 5837   3.838   1.678  10.182 -0.3943  0.4377  0.2949
  387MPD2    C4 5838   3.795   1.632  10.059 -0.4672 -0.4824  0.2614
  387MPD2    C5 5839   3.760   1.721   9.962  0.1121  0.4267  0.5340
  387MPD2     H 5840   3.922   1.841  10.279 -0.1205 -0.1812  0.7037
  387MPD2    H1 5841   3.785   1.525  10.043  1.0011 -0.3870 -1.1730
  387MPD2    H2 5842   3.753   1.929   9.904 -1.0291  0.5856  0.2137
  387MPD2    H3 5843   3.723   1.684   9.867  0.7050  1.8109 -0.2351
  387MPD2     N 5844   3.848   1.601  10.302 -0.2242  0.2894 -0.3337
  387MPD2    H5 5845   3.880   1.657  10.381 -1.2249  0.9833 -0.4298
  387MPD2    N1 5846   3.917   2.023  10.082  0.2730 -0.3574 -0.1426
  387MPD2    H7 5847   3.884   2.092  10.016  0.7721 -1.8494 -1.9558
  388TMC3    C1 5848   4.057   2.195  10.178  0.5114  0.6799  0.0270
  388TMC3    C2 5849   4.123   2.240  10.066  0.2862 -0.3299  0.2960
  388TMC3    C3 5850   4.236   2.318  10.082 -0.3665 -0.4393  0.0539
  388TMC3    C4 5851   4.118   2.221  10.302 -0.1907  0.1013  0.2501
  388TMC3    C5 5852   4.238   2.281  10.311 -0.4689 -0.2874 -0.6654
  388TMC3    C6 5853   4.297   2.320  10.202  0.1549  0.0720 -0.4688
  388TMC3     C 5854   4.013   2.063  10.174 -0.2618 -0.2191 -0.4363
  388TMC3     O 5855   4.081   2.003  10.254 -0.0497 -0.8334  0.5029
  388TMC3     H 5856   4.078   2.224   9.969 -0.3351 -2.0772  0.8787
  388TMC3    H1 5857   4.066   2.183  10.389  1.9920 -0.1279  1.4458
  388TMC3    H2 5858   4.399   2.354  10.219 -0.6330  2.2189  0.0088
  388TMC3    C7 5859   4.319   2.219  10.414  0.3803 -0.4178  0.7362
  388TMC3    C8 5860   4.317   2.324   9.960 -0.3582 -0.1057  0.1510
  388TMC3    O1 5861   4.420   2.271  10.456 -0.4190  0.3826  0.5326
  388TMC3    O2 5862   4.302   2.241   9.874  0.0806 -0.0279  0.5686
  389MPD2     C 5863   3.288   4.606  10.710 -0.3075 -0.1711  0.7316
  389MPD2    C1 5864   3.153   4.639  10.710  0.3037 -0.0896 -0.7992
  389MPD2    C2 5865   3.077   4.602  10.817  0.3382 -0.7155  0.1790
  389MPD2    C3 5866   3.136   4.536  10.926 -0.2547 -0.4364 -0.4249
  389MPD2    C4 5867   3.267   4.507  10.931  0.7012  0.2807 -0.0862
  389MPD2    C5 5868   3.340   4.543  10.822 -0.1747 -0.6253  0.0262
  389MPD2     H 5869   2.977   4.645  10.812 -0.1389 -1.9344 -0.5983
  389MPD2    H1 5870   3.314   4.472  11.022  0.7530  3.3977  1.0917
  389MPD2    H2 5871   3.344   4.639  10.623 -0.5840  1.8750  1.3243
  389MPD2    H3 5872   3.447   4.527  10.818 -0.0837  0.2611 -1.2025
  389MPD2     N 5873   3.061   4.491  11.034  0.1369  0.5120 -0.0573
  389MPD2    H5 5874   3.123   4.482  11.114 -0.3247 -0.4045  0.1992
  389MPD2    N1 5875   3.113   4.706  10.596  0.0097  0.3063  0.1138
  389MPD2    H7 5876   3.176   4.705  10.517  1.1531  1.5236  1.0123
  390TMC3    C1 5877   2.873   4.409  11.172 -0.1818  0.1249 -0.5939
  390TMC3    C2 5878   2.916   4.469  11.289 -0.3227  0.1088  0.4041
  390TMC3    C3 5879   2.832   4.449  11.399  0.3856  0.1950  0.1825
  390TMC3    C4 5880   2.761   4.327  11.171  0.3998  0.4623 -0.3053
  390TMC3    C5 5881   2.673   4.322  11.282 -0.1979  0.0686  0.1175
  390TMC3    C6 5882   2.716   4.382  11.394 -1.1736 -0.3234  0.0232
  390TMC3     C 5883   2.929   4.455  11.038 -1.0974 -0.4338  0.9590
  390TMC3     O 5884   2.853   4.462  10.942  0.2905 -0.1173  0.0441
  390TMC3     H 5885   3.001   4.536  11.297 -0.0158 -0.3918  1.2986
  390TMC3    H1 5886   2.730   4.279  11.079 -2.4490 -1.0714  1.4837
  390TMC3    H2 5887   2.644   4.407  11.471 -1.1901  1.4560 -0.5822
  390TMC3    C7 5888   2.579   4.211  11.304  0.5750  0.0353  0.2314
  390TMC3    C8 5889   2.838   4.564  11.493 -1.2602  0.1282  1.1057
  390TMC3    O1 5890   2.523   4.217  11.413  0.1416  0.3258  0.3085
  390TMC3    O2 5891   2.881   4.661  11.433 -0.3860 -0.0493  0.3304
  391MPD2     C 5892   2.588   1.555  11.186  0.2387  0.1481  0.2056
  391MPD2    C1 5893   2.649   1.669  11.138  0.3373 -0.4059  0.3165
  391MPD2    C2 5894   2.638   1.692  11.005  0.1576  0.5729  0.8430
  391MPD2    C3 5895   2.544   1.620  10.925  0.3843  0.6966  0.6295
  391MPD2    C4 5896   2.465   1.521  10.983 -0.2206 -0.5094 -0.2049
  391MPD2    C5 5897   2.487   1.492  11.115 -0.2313 -0.2445 -0.3135
  391MPD2     H 5898   2.686   1.775  10.954  1.0188 -0.8199 -0.6156
  391MPD2    H1 5899   2.376   1.481  10.935 -0.6272  0.1912 -0.0450
  391MPD2    H2 5900   2.597   1.529  11.291 -1.4977 -1.2183  0.0135
  391MPD2    H3 5901   2.426   1.416  11.162  3.6906 -1.9201  2.0672
  391MPD2     N 5902   2.545   1.653  10.792  0.0071 -0.6036  0.3973
  391MPD2    H5 5903   2.619   1.716  10.767  0.3991 -0.4734  1.8957
  391MPD2    N1 5904   2.735   1.735  11.221  0.0069  0.2571 -0.0723
  391MPD2    H7 5905   2.716   1.741  11.320 -0.0424  2.8988 -0.2487
  392TMC3    C1 5906   2.474   1.675  10.557 -0.2044 -0.2528 -0.4663
  392TMC3    C2 5907   2.355   1.678  10.490  0.2469 -0.2453  0.7310
  392TMC3    C3 5908   2.357   1.767  10.384  0.0392 -0.3367 -0.3264
  392TMC3    C4 5909   2.579   1.755  10.532  0.1497 -0.1594 -0.3167
  392TMC3    C5 5910   2.576   1.830  10.418  0.8151 -0.3496  1.0464
  392TMC3    C6 5911   2.463   1.842  10.345  0.2623  0.6452  0.0999
  392TMC3     C 5912   2.453   1.620  10.693 -0.1794 -0.3846  0.0025
  392TMC3     O 5913   2.360   1.549  10.705  0.1191  0.5859  0.4320
  392TMC3     H 5914   2.265   1.624  10.518 -0.3259  0.9074  1.1240
  392TMC3    H1 5915   2.669   1.752  10.591 -1.1107  0.4282  1.6270
  392TMC3    H2 5916   2.456   1.892  10.249  1.9356  1.1027  0.2138
  392TMC3    C7 5917   2.673   1.938  10.424 -0.0064 -0.8362  1.1647
  392TMC3    C8 5918   2.242   1.752  10.301 -0.2040  0.3420 -0.0856
  392TMC3    O1 5919   2.714   1.969  10.533 -0.1266 -0.1445 -0.1320
  392TMC3    O2 5920   2.178   1.648  10.314  0.4081 -0.5737  0.2653
  393TMC3    C1 5921   1.431   4.267  11.287  0.1486  0.2708  0.1380
  393TMC3    C2 5922   1.360   4.227  11.403  0.6252  0.0031  0.0237
  393TMC3    C3 5923   1.281   4.116  11.397  0.4515 -0.3460  0.0223
  393TMC3    C4 5924   1.424   4.185  11.176 -0.8261  0.4294  0.0569
  393TMC3    C5 5925   1.361   4.065  11.181 -0.5170 -0.3778  0.3875
  393TMC3    C6 5926   1.291   4.029  11.291 -0.7078  0.3531 -0.6786
  393TMC3     C 5927   1.450   4.412  11.264 -0.5332  0.3280  0.3362
  393TMC3     O 5928   1.390   4.465  11.175 -0.1760 -0.3698 -0.2403
  393TMC3     H 5929   1.368   4.278  11.499  3.2662  0.0910 -0.2364
  393TMC3    H1 5930   1.461   4.226  11.082  0.9812 -0.0053  0.5754
  393TMC3    H2 5931   1.251   3.928  11.289  1.0542 -0.3679  0.5532
  393TMC3    C7 5932   1.390   3.958  11.080 -0.4122  0.4028  0.0976
  393TMC3    C8 5933   1.241   4.047  11.518  0.1573  0.1768  0.3115
  393TMC3    O1 5934   1.334   3.851  11.100 -0.5685  0.0546 -0.1886
  393TMC3    O2 5935   1.275   4.088  11.629  0.0063  0.6071 -0.1822
  394TMC3    C1 5936   2.975   0.100  10.457 -0.2011 -0.4599  0.0233
  394TMC3    C2 5937   2.961   0.006  10.356 -0.7883  0.8646 -0.2124
  394TMC3    C3 5938   2.974   0.056  10.231  0.4186  0.0955  0.4784
  394TMC3    C4 5939   2.984   0.236  10.443  0.9582 -0.4508 -0.0422
  394TMC3    C5 5940   2.983   0.281  10.316  0.3344  0.1071  0.4441
  394TMC3    C6 5941   2.970   0.196  10.209 -0.4300 -0.0004  0.9449
  394TMC3     C 5942   3.004   0.054  10.590 -0.2735  0.5339  0.5020
  394TMC3     O 5943   2.926   0.084  10.677 -0.1897  0.6043 -0.6103
  394TMC3     H 5944   2.936   4.637  10.375  0.9772  0.1572 -1.8335
  394TMC3    H1 5945   3.001   0.296  10.532  0.8717  1.1324 -1.0871
  394TMC3    H2 5946   2.989   0.233  10.109 -0.8431 -0.7226  0.5957
  394TMC3    C7 5947   2.971   0.423  10.289 -0.4711  0.4473 -0.7344
  394TMC3    C8 5948   3.027   4.711  10.122  0.3820  0.0024 -0.8936
  394TMC3    O1 5949   3.049   0.496  10.341  0.6631  0.0438 -0.5256
  394TMC3    O2 5950   3.002   0.011  10.005  0.4098 -0.2929 -0.5043
  395TMC3    C1 5951   3.087   1.831  14.895  0.4829 -0.1400 -0.9608
  395TMC3    C2 5952   3.007   1.804  14.790  0.2640 -0.7658 -0.6413
  395TMC3    C3 5953   3.047   1.843  14.665  0.4075  0.3515  0.1597
  395TMC3    C4 5954   3.212   1.872  14.867 -0.6802 -0.2142  0.1848
  395TMC3    C5 5955   3.248   1.925  14.750  0.6620  0.1241 -0.1761
  395TMC3    C6 5956   3.167   1.911  14.644 -0.4004  0.3706 -0.0901
  395TMC3     C 5957   3.053   1.796  15.035  0.1045  0.8644  0.5003
  395TMC3     O 5958   3.116   1.867  15.115 -0.0754  0.8215  0.2785
  395TMC3     H 5959   2.907   1.768  14.813 -0.1402  0.9171  0.2155
  395TMC3    H1 5960   3.284   1.873  14.948 -0.9077 -0.9647  0.3958
  395TMC3    H2 5961   3.189   1.955  14.547 -0.0769  0.0333 -0.1724
  395TMC3    C7 5962   3.378   1.981  14.746 -0.2815  0.2149 -0.0009
  395TMC3    C8 5963   2.949   1.857  14.559 -0.0196  0.1525  0.6557
  395TMC3    O1 5964   3.426   2.016  14.855 -0.7127  0.7941  0.3235
  395TMC3    O2 5965   2.952   1.969  14.511 -0.0247 -0.3329  0.0341
  396MPD2     C 5966   3.116   2.634  17.220 -0.0396  0.4918  0.2105
  396MPD2    C1 5967   3.247   2.681  17.255 -0.0704  0.4417 -0.0073
  396MPD2    C2 5968   3.286   2.799  17.190 -0.1328  0.2236 -0.0243
  396MPD2    C3 5969   3.186   2.866  17.114  0.0179 -0.0871 -0.3236
  396MPD2    C4 5970   3.060   2.813  17.086  0.6598  0.2471  0.1031
  396MPD2    C5 5971   3.023   2.693  17.139  0.4258  0.4070  0.7368
  396MPD2     H 5972   3.384   2.843  17.203 -0.2208  0.3106  0.3669
  396MPD2    H1 5973   2.983   2.870  17.035 -0.5169  0.4564  2.0933
  396MPD2    H2 5974   3.077   2.542  17.263  1.9697 -0.9281 -1.0003
  396MPD2    H3 5975   2.920   2.658  17.134  1.4749 -2.4597 -1.2469
  396MPD2     N 5976   3.218   2.994  17.072  0.3747  0.2799  0.6084
  396MPD2    H5 5977   3.313   3.023  17.090  0.0515  0.2134  2.4528
  396MPD2    N1 5978   3.338   2.594  17.334  0.5722 -0.7926 -0.3239
  396MPD2    H7 5979   3.296   2.520  17.390 -0.4236  1.6258  2.1009
  397TMC3    C1 5980   3.522   2.491  17.423  0.2337 -0.3711 -0.1600
  397TMC3    C2 5981   3.622   2.419  17.365 -0.2983 -0.0066 -0.2020
  397TMC3    C3 5982   3.617   2.279  17.348 -0.3669  0.1305  0.3458
  397TMC3    C4 5983   3.426   2.416  17.488 -0.5891 -0.0831 -0.1564
  397TMC3    C5 5984   3.432   2.278  17.491 -0.1130 -0.8759  0.2898
  397TMC3    C6 5985   3.524   2.206  17.414 -0.2520  0.2529  0.3507
  397TMC3     C 5986   3.471   2.600  17.342 -0.0473  0.1311  0.2603
  397TMC3     O 5987   3.555   2.668  17.290  0.1953 -0.3830  0.5203
  397TMC3     H 5988   3.672   2.476  17.287  0.0087  1.1404  0.8436
  397TMC3    H1 5989   3.355   2.462  17.555 -0.6646 -1.1548  0.5070
  397TMC3    H2 5990   3.523   2.098  17.421  0.7720  0.1459 -1.1843
  397TMC3    C7 5991   3.327   2.203  17.555 -0.3581 -0.3797  0.1104
  397TMC3    C8 5992   3.748   2.204  17.317 -0.0268 -0.2495  0.1852
  397TMC3    O1 5993   3.313   2.088  17.518  0.3330  0.4205 -0.3298
  397TMC3    O2 5994   3.766   2.110  17.386 -0.0374 -0.7334  0.2649
  398MPD2     C 5995   1.198   4.146   0.452 -0.0472 -0.7506 -0.6878
  398MPD2    C1 5996   1.276   4.049   0.499 -0.0541 -0.0415  0.4461
  398MPD2    C2 5997   1.365   4.088   0.592  0.0084  0.4581  0.6876
  398MPD2    C3 5998   1.362   4.217   0.655  0.2659  0.9252  0.2126
  398MPD2    C4 5999   1.267   4.310   0.612  0.1188  0.1924 -0.2938
  398MPD2    C5 6000   1.186   4.272   0.506  0.5086 -0.4144 -0.3155
  398MPD2     H 6001   1.449   4.026   0.622 -0.8455 -1.9562 -1.9735
  398MPD2    H1 6002   1.261   4.414   0.642  0.8031 -0.4668  2.1599
  398MPD2    H2 6003   1.135   4.125   0.366 -1.8344 -0.2655  0.4939
  398MPD2    H3 6004   1.128   4.350   0.460  1.5347 -0.3609 -1.5047
  398MPD2     N 6005   1.464   4.240   0.748  0.3750  0.8872  0.8964
  398MPD2    H5 6006   1.523   4.160   0.770 -0.6321 -0.7656 -2.4457
  398MPD2    N1 6007   1.296   3.928   0.433 -0.0367  0.4901 -0.2409
  398MPD2    H7 6008   1.372   3.874   0.473 -0.5169 -0.0808 -0.0892
  399TMC3    C1 6009   1.266   3.735   0.300  0.4970  0.4478  0.4843
  399TMC3    C2 6010   1.388   3.704   0.346  0.6132  0.0481  0.1278
  399TMC3    C3 6011   1.422   3.577   0.366 -0.1353 -0.3645 -0.7335
  399TMC3    C4 6012   1.178   3.639   0.261 -0.1060 -0.1625 -0.2019
  399TMC3    C5 6013   1.216   3.510   0.278 -0.7738  0.6340 -0.7047
  399TMC3    C6 6014   1.326   3.476   0.344  0.4282 -0.2955 -0.1122
  399TMC3     C 6015   1.215   3.864   0.340  0.3011 -0.2028 -0.3102
  399TMC3     O 6016   1.100   3.895   0.304  0.4772 -0.5007  0.7733
  399TMC3     H 6017   1.459   3.782   0.370 -0.4393  0.4645  1.9136
  399TMC3    H1 6018   1.087   3.677   0.217 -0.6274 -0.3329  0.7378
  399TMC3    H2 6019   1.345   3.376   0.382  0.8651 -0.7441 -1.4829
  399TMC3    C7 6020   1.124   3.403   0.246 -0.1301 -0.2187  0.2528
  399TMC3    C8 6021   1.545   3.556   0.439 -0.1597  0.0305 -0.0550
  399TMC3    O1 6022   1.121   3.306   0.319  0.0934 -0.2026 -0.1633
  399TMC3    O2 6023   1.604   3.654   0.482 -0.0973  0.1162  0.1418
  400TMC3    C1 6024   4.333   2.136  16.474  0.3576  0.0548  0.0941
  400TMC3    C2 6025   4.239   2.063  16.404 -0.1215 -0.4728  0.2605
  400TMC3    C3 6026   4.132   2.128  16.344 -0.1392  0.5674 -0.2925
  400TMC3    C4 6027   4.323   2.271  16.488  0.0574  0.5511 -0.3359
  400TMC3    C5 6028   4.224   2.328  16.406 -0.4049 -0.8237  0.1620
  400TMC3    C6 6029   4.134   2.266  16.324 -0.2489 -0.4973  0.1021
  400TMC3     C 6030   4.446   2.070  16.534 -0.4726  0.5765 -0.3835
  400TMC3     O 6031   4.459   1.947  16.511  0.5958  0.1887 -0.0917
  400TMC3     H 6032   4.243   1.955  16.409  0.6862 -0.3832  1.3998
  400TMC3    H1 6033   4.393   2.333  16.543 -0.9568  1.3930  0.0207
  400TMC3    H2 6034   4.060   2.316  16.262 -0.3514  1.0940  1.4904
  400TMC3    C7 6035   4.207   2.472  16.430 -0.0803 -0.7290  0.5286
  400TMC3    C8 6036   4.027   2.054  16.280 -0.2115 -0.3277 -0.5015
  400TMC3    O1 6037   4.181   2.539  16.332  0.1955  0.5834 -0.2289
  400TMC3    O2 6038   3.950   2.101  16.201  0.1788  0.1223  0.6875
  401MPD2     C 6039   2.559   0.838   0.887 -0.0461  0.2465 -0.6227
  401MPD2    C1 6040   2.673   0.879   0.960  0.4230  0.0084  0.3151
  401MPD2    C2 6041   2.744   0.792   1.033 -0.4931  0.5601  0.0463
  401MPD2    C3 6042   2.703   0.663   1.043  0.2096 -0.4142  0.3640
  401MPD2    C4 6043   2.589   0.624   0.977  0.4149  0.3141  0.2319
  401MPD2    C5 6044   2.521   0.706   0.893 -0.4106 -0.1633 -0.2967
  401MPD2     H 6045   2.831   0.823   1.090 -1.0262 -0.7487  1.5602
  401MPD2    H1 6046   2.550   0.523   0.976 -0.3534  0.6119  0.7939
  401MPD2    H2 6047   2.493   0.907   0.834 -2.0671  0.5755  2.3147
  401MPD2    H3 6048   2.429   0.669   0.850  0.1906 -1.5405 -0.4268
  401MPD2     N 6049   2.776   0.576   1.125  0.2142 -0.2759 -0.1833
  401MPD2    H5 6050   2.863   0.614   1.159 -1.2334  0.9045  2.1700
  401MPD2    N1 6051   2.722   1.008   0.956  0.0043  0.5244 -0.0255
  401MPD2    H7 6052   2.789   1.031   1.029 -0.1910  0.5790  0.1364
  402TMC3    C1 6053   2.869   0.378   1.191  0.0179 -0.2817 -0.6758
  402TMC3    C2 6054   2.860   0.253   1.246  0.3711  0.0641 -0.8937
  402TMC3    C3 6055   2.961   0.161   1.224 -0.3689  0.0642  0.2033
  402TMC3    C4 6056   2.982   0.412   1.112 -0.3356  0.4816 -0.6328
  402TMC3    C5 6057   3.079   0.319   1.093  0.8876 -0.1098 -0.3254
  402TMC3    C6 6058   3.057   0.185   1.137 -0.1579 -0.8580  0.0912
  402TMC3     C 6059   2.751   0.439   1.147  0.5249 -0.7623 -0.1684
  402TMC3     O 6060   2.649   0.371   1.131  0.5492 -0.0340  0.2909
  402TMC3     H 6061   2.768   0.227   1.297  1.4133 -1.0868  0.4050
  402TMC3    H1 6062   2.996   0.513   1.076 -0.6372  0.5138 -0.6602
  402TMC3    H2 6063   3.133   0.111   1.117  1.6080  0.6351  1.2042
  402TMC3    C7 6064   3.166   0.353   0.979 -0.9278  0.6665 -1.1087
  402TMC3    C8 6065   2.975   0.035   1.294 -1.3095 -0.5854  0.0288
  402TMC3    O1 6066   3.151   0.463   0.932 -0.1686  0.0340  0.2557
  402TMC3    O2 6067   3.060   4.691   1.255 -0.4797  0.0552  0.3941
  403MPD2     C 6068   0.881   4.018  13.295  0.6694 -0.0912 -0.0383
  403MPD2    C1 6069   0.877   3.893  13.357  0.5888  0.2399  1.0526
  403MPD2    C2 6070   0.977   3.862  13.448 -0.1052 -0.4949  0.3099
  403MPD2    C3 6071   1.046   3.964  13.511  0.4584  0.0707  0.3732
  403MPD2    C4 6072   1.049   4.087  13.458 -0.0949 -0.4944  0.6176
  403MPD2    C5 6073   0.973   4.107  13.347 -0.0420  0.1467 -0.7702
  403MPD2     H 6074   0.985   3.766  13.497 -1.0870  0.0213  1.4760
  403MPD2    H1 6075   1.118   4.165  13.491  0.8743 -1.5357  1.0516
  403MPD2    H2 6076   0.810   4.046  13.219  1.2321  0.7657 -0.2418
  403MPD2    H3 6077   0.977   4.202  13.296  0.8071  0.9813  0.8137
  403MPD2     N 6078   1.126   3.925  13.621 -0.0409  0.2620 -0.3768
  403MPD2    H5 6079   1.117   3.830  13.655 -2.1605  1.0048  1.1361
  403MPD2    N1 6080   0.776   3.797  13.322  0.1436 -0.4326  0.8398
  403MPD2    H7 6081   0.715   3.824  13.245  1.8735  2.2987  0.4262
  404TMC3    C1 6082   0.648   3.596  13.333  0.0387 -0.1630 -0.0314
  404TMC3    C2 6083   0.591   3.504  13.417  0.0671  0.2171  0.0642
  404TMC3    C3 6084   0.495   3.422  13.369  0.0515 -0.2494  0.2692
  404TMC3    C4 6085   0.602   3.614  13.210  0.3071  0.7310  0.7787
  404TMC3    C5 6086   0.499   3.539  13.160 -0.0414  0.4494 -0.1484
  404TMC3    C6 6087   0.449   3.437  13.240 -0.2523 -0.0327 -0.4974
  404TMC3     C 6088   0.756   3.676  13.384 -0.8526  0.0396 -0.2402
  404TMC3     O 6089   0.821   3.626  13.472 -0.2740  0.6445  0.2213
  404TMC3     H 6090   0.621   3.501  13.521 -0.0652 -1.0611  0.0673
  404TMC3    H1 6091   0.647   3.691  13.148 -1.6964  1.6456  0.4686
  404TMC3    H2 6092   0.365   3.381  13.202  0.5741 -1.8688  0.4131
  404TMC3    C7 6093   0.436   3.568  13.031 -0.2998 -0.3302 -0.3436
  404TMC3    C8 6094   0.523   3.288  13.411  0.1409  0.1044 -0.5446
  404TMC3    O1 6095   0.513   3.630  12.955  0.5378  0.1933 -0.7436
  404TMC3    O2 6096   0.543   3.208  13.320 -0.3120  0.6647  0.4758
  405MPD2     C 6097   1.582   4.054  14.833  0.0705  0.4430 -0.3663
  405MPD2    C1 6098   1.546   4.004  14.711 -0.0031  0.0938  0.3223
  405MPD2    C2 6099   1.412   4.014  14.677 -0.1593 -0.2086 -0.6493
  405MPD2    C3 6100   1.319   4.064  14.769  0.5391 -0.7748 -0.4157
  405MPD2    C4 6101   1.357   4.117  14.891 -0.4422 -0.0052 -0.2946
  405MPD2    C5 6102   1.492   4.113  14.916  0.1559 -0.2823 -0.6891
  405MPD2     H 6103   1.373   3.978  14.582  1.3493 -0.0735 -1.3251
  405MPD2    H1 6104   1.287   4.157  14.964  1.1177  2.6086 -0.1960
  405MPD2    H2 6105   1.688   4.055  14.857 -0.5476  1.8034  2.3552
  405MPD2    H3 6106   1.530   4.144  15.012 -1.7757 -0.1185  0.0224
  405MPD2     N 6107   1.185   4.063  14.726  0.6092 -0.1413  0.0074
  405MPD2    H5 6108   1.180   4.035  14.629  0.0133 -0.7054  0.2014
  405MPD2    N1 6109   1.637   3.922  14.634 -0.1684 -0.4830 -0.1124
  405MPD2    H7 6110   1.725   3.901  14.681 -1.0112  0.2450  1.8098
  406TMC3    C1 6111   0.770   4.190  14.650  0.7081 -1.3068 -0.2741
  406TMC3    C2 6112   0.777   4.101  14.548 -0.3623  0.0859 -0.1883
  406TMC3    C3 6113   0.867   3.997  14.546 -0.2419  0.0569  0.0948
  406TMC3    C4 6114   0.867   4.179  14.741  0.3574 -0.2565  0.5451
  406TMC3    C5 6115   0.957   4.076  14.740  0.1942 -0.0641  0.5993
  406TMC3    C6 6116   0.957   3.978  14.649  0.6944 -0.5195 -0.5296
  406TMC3     C 6117   0.731   4.329  14.629  0.1519  0.9678  0.0836
  406TMC3     O 6118   0.765   4.389  14.525 -0.3321 -0.2349 -0.1358
  406TMC3     H 6119   0.712   4.112  14.462  1.9679 -0.6547 -2.0771
  406TMC3    H1 6120   0.867   4.248  14.824 -2.3659 -0.8378  1.0378
  406TMC3    H2 6121   1.036   3.905  14.636  0.8500 -0.4072 -0.2191
  406TMC3    C7 6122   1.079   4.095  14.808  0.2931  0.3857  0.3642
  406TMC3    C8 6123   0.895   3.935  14.410 -0.3070  0.1214  0.3180
  406TMC3    O1 6124   1.067   4.129  14.924  0.0711 -0.7314 -0.3510
  406TMC3    O2 6125   0.831   3.979  14.315  0.2108 -0.0292 -0.1322
  407MPD2     C 6126   3.391   1.415   9.665  0.6967 -0.0484  0.0899
  407MPD2    C1 6127   3.425   1.401   9.801 -0.1045 -0.2488 -0.7352
  407MPD2    C2 6128   3.424   1.508   9.885 -0.0783 -0.9341  0.5722
  407MPD2    C3 6129   3.388   1.636   9.835  0.6347  0.4397 -0.3320
  407MPD2    C4 6130   3.351   1.655   9.700  0.0834  0.3528 -0.0950
  407MPD2    C5 6131   3.364   1.542   9.619  0.1264 -0.4247 -0.0634
  407MPD2     H 6132   3.449   1.485   9.988 -0.6564 -2.2500  0.4187
  407MPD2    H1 6133   3.327   1.754   9.661  1.1911  1.3747  1.8128
  407MPD2    H2 6134   3.383   1.329   9.600  2.4756  0.0597 -0.2709
  407MPD2    H3 6135   3.341   1.547   9.514  0.0736  0.2451 -0.0205
  407MPD2     N 6136   3.396   1.746   9.923  0.5858  0.0964  0.0194
  407MPD2    H5 6137   3.394   1.839   9.883 -0.7568  0.1177  0.1442
  407MPD2    N1 6138   3.461   1.280   9.863 -0.5355 -0.3107 -0.4688
  407MPD2    H7 6139   3.492   1.285   9.960 -1.1111  1.2289 -0.3614
  408TMC3    C1 6140   3.499   1.051   9.870  0.4515  0.3203  0.0562
  408TMC3    C2 6141   3.631   1.066   9.883 -1.4506  0.4463 -0.0000
  408TMC3    C3 6142   3.696   0.960   9.939 -0.9632 -0.0796  0.1986
  408TMC3    C4 6143   3.426   0.940   9.874  0.3276 -0.1800 -0.7812
  408TMC3    C5 6144   3.499   0.826   9.921 -0.0956  0.0233 -0.0522
  408TMC3    C6 6145   3.632   0.835   9.949 -0.5384  0.2802 -0.3511
  408TMC3     C 6146   3.427   1.159   9.809 -0.0938  0.2552  0.0812
  408TMC3     O 6147   3.356   1.125   9.714  0.7388  0.3458 -0.6111
  408TMC3     H 6148   3.687   1.157   9.863  0.2125 -0.8576 -1.1878
  408TMC3    H1 6149   3.319   0.956   9.875  0.9191  3.5586  1.4189
  408TMC3    H2 6150   3.682   0.751   9.995 -1.5053  1.3039  2.5270
  408TMC3    C7 6151   3.437   0.694   9.931  0.8027  0.0777 -0.2080
  408TMC3    C8 6152   3.818   0.968  10.016 -0.1917 -0.0961  0.5279
  408TMC3    O1 6153   3.501   0.598   9.965  0.6552  0.3025 -0.2823
  408TMC3    O2 6154   3.825   0.891  10.113  0.2530  0.4358  0.7359
  409MPD2     C 6155   3.385   1.657  16.537 -0.6668  0.8499 -0.2936
  409MPD2    C1 6156   3.457   1.663  16.655 -0.3267 -0.0527  0.4511
  409MPD2    C2 6157   3.552   1.764  16.675 -0.5104 -0.7369  0.9965
  409MPD2    C3 6158   3.556   1.870  16.583 -0.0132 -0.1424 -0.7138
  409MPD2    C4 6159   3.498   1.859  16.460 -0.5741  0.0953  0.2643
  409MPD2    C5 6160   3.410   1.757  16.444 -0.0011  0.0785  0.2232
  409MPD2     H 6161   3.615   1.751  16.762  1.3679 -1.5786 -0.4929
  409MPD2    H1 6162   3.510   1.939  16.388  1.5970 -0.0645  0.4531
  409MPD2    H2 6163   3.309   1.583  16.520  0.1161  0.1045 -0.5563
  409MPD2    H3 6164   3.350   1.748  16.354  2.3932  2.6533 -1.6341
  409MPD2     N 6165   3.651   1.977  16.595  0.1768 -0.1396 -0.3642
  409MPD2    H5 6166   3.659   2.040  16.515 -1.2553  0.1189 -0.3032
  409MPD2    N1 6167   3.445   1.559  16.744 -0.0621 -0.2839  0.4046
  409MPD2    H7 6168   3.521   1.540  16.810  0.6241  1.3037  0.0584
  410TMC3    C1 6169   3.814   2.109  16.707  0.7010  0.2025  0.1766
  410TMC3    C2 6170   3.933   2.114  16.771 -0.0709 -0.5933 -1.0090
  410TMC3    C3 6171   4.011   2.226  16.753  0.3084 -0.7084  0.2801
  410TMC3    C4 6172   3.769   2.217  16.630  0.5660 -0.7256  0.4841
  410TMC3    C5 6173   3.850   2.328  16.618 -0.3934  0.1380  0.2974
  410TMC3    C6 6174   3.978   2.329  16.675 -0.2127  0.6319  0.6679
  410TMC3     C 6175   3.735   1.988  16.704 -0.6142 -0.3142 -0.1027
  410TMC3     O 6176   3.759   1.906  16.791  0.5409 -0.7007 -0.0258
  410TMC3     H 6177   3.945   2.040  16.850 -0.5440  0.5021  0.0960
  410TMC3    H1 6178   3.680   2.218  16.569 -0.4880 -1.2235  2.0197
  410TMC3    H2 6179   4.037   2.421  16.674  1.8352 -0.6924  0.5049
  410TMC3    C7 6180   3.829   2.394  16.496  0.5017  0.5325 -0.0291
  410TMC3    C8 6181   4.145   2.221  16.807  0.0540  0.1236 -0.4712
  410TMC3    O1 6182   3.788   2.326  16.402 -0.6993  0.4997  0.6236
  410TMC3    O2 6183   4.209   2.323  16.810 -0.2252  0.4166 -0.4468
  411MPD2     C 6184   3.998   3.205  14.277  0.2689 -0.5833 -0.1787
  411MPD2    C1 6185   3.891   3.152  14.343  0.1301  0.5767  0.1004
  411MPD2    C2 6186   3.872   3.021  14.331 -0.4264 -0.1311  0.6298
  411MPD2    C3 6187   3.961   2.933  14.270  0.1654 -0.0099  0.0563
  411MPD2    C4 6188   4.068   2.984  14.199 -1.0736 -0.3098 -0.3620
  411MPD2    C5 6189   4.073   3.123  14.194  0.2603  0.0394 -0.2555
  411MPD2     H 6190   3.795   2.977  14.394 -1.4105 -1.2289 -1.3286
  411MPD2    H1 6191   4.128   2.916  14.140  0.1967  0.2508  0.2874
  411MPD2    H2 6192   4.022   3.311  14.284  0.6235 -0.9573  4.7264
  411MPD2    H3 6193   4.157   3.170  14.145  0.0410  1.1663  0.4377
  411MPD2     N 6194   3.946   2.790  14.271 -0.4199  0.2551 -0.3145
  411MPD2    H5 6195   4.006   2.749  14.200 -1.7880  2.8937 -3.0137
  411MPD2    N1 6196   3.797   3.230  14.415 -0.1994  0.1281  0.3369
  411MPD2    H7 6197   3.820   3.325  14.442 -0.5394  0.2336  0.2638
  412TMC3    C1 6198   3.836   2.580  14.301 -0.2123 -0.2918 -0.3660
  412TMC3    C2 6199   3.706   2.535  14.324  0.1942 -0.6339 -0.6853
  412TMC3    C3 6200   3.669   2.423  14.251  0.6834 -0.1162  0.3097
  412TMC3    C4 6201   3.922   2.533  14.204 -0.7557  0.6012 -0.3533
  412TMC3    C5 6202   3.885   2.421  14.143 -0.5559  0.0500 -0.6935
  412TMC3    C6 6203   3.757   2.367  14.155 -0.0235 -0.2527  0.5233
  412TMC3     C 6204   3.856   2.716  14.346  0.0761  0.5279 -0.1697
  412TMC3     O 6205   3.798   2.747  14.452  0.5880  0.1449  0.2328
  412TMC3     H 6206   3.633   2.586  14.386 -0.1288  0.8608 -2.2846
  412TMC3    H1 6207   4.023   2.573  14.199 -0.2450 -0.8997 -2.1344
  412TMC3    H2 6208   3.726   2.286  14.091  1.2087  1.0135 -1.6802
  412TMC3    C7 6209   3.962   2.385  14.026  0.1462  0.2061 -0.8179
  412TMC3    C8 6210   3.531   2.405  14.222 -0.4810 -0.1791 -0.4651
  412TMC3    O1 6211   4.008   2.469  13.950  0.5645 -0.1825 -0.0576
  412TMC3    O2 6212   3.450   2.382  14.308  0.7439  0.0366  0.0779
  413MPD2     C 6213   0.872   1.066  15.143  0.8239  0.4936  0.4467
  413MPD2    C1 6214   0.768   0.976  15.162  0.0808  0.1823  0.4966
  413MPD2    C2 6215   0.788   0.839  15.178  0.1660  0.4372  0.1950
  413MPD2    C3 6216   0.912   0.792  15.144  0.0115 -0.1155  0.0694
  413MPD2    C4 6217   1.019   0.882  15.124 -0.6862 -0.9108  0.1925
  413MPD2    C5 6218   0.994   1.016  15.121 -0.1429  0.0188 -0.5884
  413MPD2     H 6219   0.707   0.774  15.209 -0.3344  0.4024 -1.1529
  413MPD2    H1 6220   1.119   0.841  15.113 -0.3571 -0.4981  1.6638
  413MPD2    H2 6221   0.854   1.171  15.125  0.0360 -0.3356 -3.4825
  413MPD2    H3 6222   1.074   1.083  15.090  1.2870 -0.3829  2.1982
  413MPD2     N 6223   0.926   0.649  15.151  0.4964 -0.1285 -0.0076
  413MPD2    H5 6224   0.841   0.594  15.156  0.7145 -0.4466  0.1695
  413MPD2    N1 6225   0.638   1.033  15.168 -0.1683 -0.3475  0.2374
  413MPD2    H7 6226   0.634   1.134  15.164  0.9126 -0.3797 -1.5413
  414TMC3    C1 6227   1.030   0.444  15.173  0.8939 -0.7709 -0.2967
  414TMC3    C2 6228   1.104   0.380  15.268 -0.3180 -0.1666 -0.6754
  414TMC3    C3 6229   1.096   0.241  15.256 -0.8049  0.2795  0.0587
  414TMC3    C4 6230   0.944   0.389  15.085  0.0309 -0.7794 -0.3471
  414TMC3    C5 6231   0.939   0.255  15.071 -0.5080 -0.0894 -0.1760
  414TMC3    C6 6232   1.013   0.179  15.161 -0.9039 -0.5185 -0.0861
  414TMC3     C 6233   1.042   0.590  15.174 -0.5537 -0.2546  0.4130
  414TMC3     O 6234   1.152   0.630  15.211  0.3429  0.0085  0.7599
  414TMC3     H 6235   1.167   0.431  15.340  0.1616 -0.1655 -1.0956
  414TMC3    H1 6236   0.901   0.454  15.009  2.1429  1.4737  0.3668
  414TMC3    H2 6237   0.995   0.073  15.176  1.1575 -1.1682 -2.2660
  414TMC3    C7 6238   0.837   0.196  14.985  0.6276  0.2146 -0.4306
  414TMC3    C8 6239   1.159   0.157  15.357 -0.9026 -0.6860  0.5807
  414TMC3    O1 6240   0.741   0.273  14.967 -0.3132  0.1759 -0.6895
  414TMC3    O2 6241   1.097   0.053  15.383 -0.1919  0.1112  0.0779
  415TMC3    C1 6242   0.597   3.050  10.329 -0.0321  0.1454  0.0469
  415TMC3    C2 6243   0.558   3.102  10.208  0.4560 -0.0750  0.4282
  415TMC3    C3 6244   0.513   3.013  10.115 -0.8538  0.2408  0.5444
  415TMC3    C4 6245   0.588   2.913  10.348 -0.3614 -0.0001  0.3830
  415TMC3    C5 6246   0.550   2.831  10.252 -0.1594  0.0481 -0.0362
  415TMC3    C6 6247   0.511   2.878  10.129  0.6949  0.0083 -0.7419
  415TMC3     C 6248   0.619   3.128  10.443 -0.3917 -0.1272 -0.0485
  415TMC3     O 6249   0.621   3.062  10.545 -0.8460  0.1565  0.1507
  415TMC3     H 6250   0.540   3.205  10.183 -1.0082 -0.9743 -2.2548
  415TMC3    H1 6251   0.644   2.875  10.432 -0.1843 -0.0116  0.2599
  415TMC3    H2 6252   0.488   2.808  10.050 -1.4828  0.1472 -0.2327
  415TMC3    C7 6253   0.545   2.690  10.276  0.0975  0.3886 -0.2348
  415TMC3    C8 6254   0.522   3.068   9.979 -0.0387 -0.2708 -0.3793
  415TMC3    O1 6255   0.559   2.620  10.179  0.1415  0.1272 -0.2028
  415TMC3    O2 6256   0.426   3.069   9.904 -0.3549  0.6741  0.5590
  416MPD2     C 6257   2.952   2.716  11.427 -0.9692 -0.3137  0.0898
  416MPD2    C1 6258   2.829   2.706  11.358  0.3900 -0.0616  0.5207
  416MPD2    C2 6259   2.837   2.708  11.220 -0.5140  0.1894  0.9866
  416MPD2    C3 6260   2.954   2.733  11.150  0.2349  0.6717 -0.6423
  416MPD2    C4 6261   3.068   2.769  11.224 -0.4831  0.0146  0.1272
  416MPD2    C5 6262   3.070   2.739  11.359  0.0725 -0.1743 -0.4831
  416MPD2     H 6263   2.744   2.694  11.167 -0.7043  2.3907  0.7481
  416MPD2    H1 6264   3.162   2.787  11.172  0.6382 -0.2635  2.0441
  416MPD2    H2 6265   2.958   2.707  11.535  0.2789 -1.3356 -0.0812
  416MPD2    H3 6266   3.160   2.746  11.419  0.3415  1.6088 -1.0703
  416MPD2     N 6267   2.968   2.737  11.009 -0.3315 -0.4481  0.2433
  416MPD2    H5 6268   3.055   2.779  10.977 -0.1316 -1.7811 -0.9598
  416MPD2    N1 6269   2.707   2.691  11.431 -1.1306  0.2148 -0.5383
  416MPD2    H7 6270   2.707   2.706  11.531 -1.5615 -3.2381  0.0068
  417TMC3    C1 6271   2.476   2.678  11.469 -0.1417 -0.2414  0.0531
  417TMC3    C2 6272   2.484   2.620  11.594 -0.4199  0.1222  0.1822
  417TMC3    C3 6273   2.379   2.645  11.675 -0.0098 -0.3767  0.5624
  417TMC3    C4 6274   2.364   2.752  11.437 -0.0824  0.2342 -0.1955
  417TMC3    C5 6275   2.260   2.771  11.522 -0.1882 -0.1119 -0.4807
  417TMC3    C6 6276   2.272   2.731  11.649  0.2627  0.0822 -0.4715
  417TMC3     C 6277   2.585   2.674  11.372  0.1418  0.6906 -0.1009
  417TMC3     O 6278   2.559   2.676  11.254 -0.3323 -0.1301 -0.1621
  417TMC3     H 6279   2.575   2.575  11.631  0.9333  2.8486  0.1852
  417TMC3    H1 6280   2.359   2.793  11.337  2.8314  4.0373  1.1839
  417TMC3    H2 6281   2.202   2.744  11.732  0.6409 -1.3588  0.0769
  417TMC3    C7 6282   2.140   2.844  11.472 -0.2461  0.0992 -0.2234
  417TMC3    C8 6283   2.404   2.611  11.812  0.4892 -0.3788  0.0673
  417TMC3    O1 6284   2.131   2.858  11.352 -0.0375  0.2099  0.1588
  417TMC3    O2 6285   2.367   2.682  11.903  0.0571 -0.2278 -0.1190
  418TMC3    C1 6286   1.848   4.476   0.840 -0.1888 -0.5401  0.5701
  418TMC3    C2 6287   1.715   4.476   0.821  0.2756 -0.7812  0.5671
  418TMC3    C3 6288   1.638   4.364   0.855 -0.8469 -0.1170  0.3565
  418TMC3    C4 6289   1.907   4.370   0.896  0.3588 -0.6086 -0.2001
  418TMC3    C5 6290   1.833   4.259   0.927  0.4308  0.0849  0.3108
  418TMC3    C6 6291   1.697   4.252   0.909  0.4646 -0.4942  0.4971
  418TMC3     C 6292   1.922   4.551   0.733 -0.8459  0.1698 -0.6287
  418TMC3     O 6293   1.868   4.651   0.693 -0.1510 -0.3017 -0.5904
  418TMC3     H 6294   1.659   4.559   0.779 -1.7716 -2.9097 -0.9464
  418TMC3    H1 6295   2.014   4.377   0.917 -0.1033  2.0406  1.1975
  418TMC3    H2 6296   1.641   4.160   0.922  0.0846 -0.0636  1.8695
  418TMC3    C7 6297   1.898   4.138   0.974 -0.2492  0.7062  0.1559
  418TMC3    C8 6298   1.503   4.358   0.812 -0.1334 -0.4260  0.2836
  418TMC3    O1 6299   1.827   4.041   0.986 -0.0075  0.3817 -0.0174
  418TMC3    O2 6300   1.442   4.462   0.803  0.3679  0.3345  0.2177
  419MPD2     C 6301   0.377   3.263  12.857  0.1351  0.3011  0.3854
  419MPD2    C1 6302   0.250   3.230  12.803 -1.1572 -0.2396 -0.4115
  419MPD2    C2 6303   0.169   3.143  12.875 -0.1699 -0.0936 -0.3788
  419MPD2    C3 6304   0.206   3.097  13.000 -0.0568  0.5209  0.2408
  419MPD2    C4 6305   0.333   3.125  13.049  0.2301 -0.4894 -0.1190
  419MPD2    C5 6306   0.405   3.214  12.981  0.1615 -0.2873 -0.4401
  419MPD2     H 6307   0.071   3.124  12.831 -0.1607 -1.3481  0.1300
  419MPD2    H1 6308   0.378   3.094  13.143 -0.8831 -1.4564  0.0981
  419MPD2    H2 6309   0.462   3.311  12.809  0.4429  1.3641  1.9949
  419MPD2    H3 6310   0.501   3.230  13.030 -0.3632  0.1781  0.4344
  419MPD2     N 6311   0.106   3.015  13.068 -0.3550 -0.1102 -0.2404
  419MPD2    H5 6312   0.030   2.987  13.007 -0.4265  2.6006 -1.4106
  419MPD2    N1 6313   0.209   3.255  12.674 -0.2667  0.2224 -0.0510
  419MPD2    H7 6314   0.113   3.227  12.655  0.0953 -1.2660  0.3421
  420TMC3    C1 6315   0.008   2.873  13.213  0.0337 -0.2948 -0.2389
  420TMC3    C2 6316   4.634   2.916  13.140 -0.3468  0.2286 -0.2813
  420TMC3    C3 6317   4.558   2.818  13.087  0.1383  0.3661 -0.2179
  420TMC3    C4 6318   0.047   2.738  13.221  0.4089  0.1917  0.6859
  420TMC3    C5 6319   4.696   2.646  13.163  0.8005 -0.4166  0.1499
  420TMC3    C6 6320   4.581   2.683  13.091 -0.3964  0.6566 -0.1312
  420TMC3     C 6321   0.115   2.967  13.196  0.5649  0.3841 -0.4173
  420TMC3     O 6322   0.201   2.976  13.281  0.0258 -0.2946 -0.2379
  420TMC3     H 6323   4.599   3.017  13.154  0.2593  0.2900  0.8029
  420TMC3    H1 6324   0.146   2.715  13.258  0.4728 -0.0038  0.3886
  420TMC3    H2 6325   4.525   2.613  13.030  0.0811  0.6497 -0.5597
  420TMC3    C7 6326   0.002   2.507  13.158  0.4691 -0.0833  0.2829
  420TMC3    C8 6327   4.429   2.866  13.046 -0.1979 -0.0886  0.6444
  420TMC3    O1 6328   0.051   2.464  13.261  0.6987 -0.5802  0.2212
  420TMC3    O2 6329   4.423   2.990  13.036 -0.3536  0.3588  0.1019
  421TMC3    C1 6330   1.268   3.955  13.810 -0.6397  0.9919 -0.0272
  421TMC3    C2 6331   1.253   4.008  13.936  0.4455  0.3844  0.0378
  421TMC3    C3 6332   1.353   3.982  14.024 -0.4477  0.7577  0.1517
  421TMC3    C4 6333   1.363   3.869  13.769  0.1787 -0.1868 -0.4383
  421TMC3    C5 6334   1.450   3.833  13.874  0.6539  0.3956  0.1139
  421TMC3    C6 6335   1.456   3.901  13.992 -0.0678 -0.8972  0.4171
  421TMC3     C 6336   1.185   4.016  13.706 -0.5935  0.5473 -0.5369
  421TMC3     O 6337   1.167   4.132  13.723 -0.0276  0.2449 -0.1004
  421TMC3     H 6338   1.177   4.082  13.958  0.2100 -0.5887  2.4676
  421TMC3    H1 6339   1.379   3.846  13.664 -0.4962 -2.6188  0.0059
  421TMC3    H2 6340   1.525   3.883  14.075 -0.1929 -0.0479  0.7073
  421TMC3    C7 6341   1.556   3.741  13.854  0.3006 -0.6581 -0.0638
  421TMC3    C8 6342   1.364   4.048  14.149  0.1876  0.0181 -0.7713
  421TMC3    O1 6343   1.643   3.754  13.936 -0.5783 -0.3362  0.5283
  421TMC3    O2 6344   1.472   4.098  14.170  0.3244 -0.2926 -0.3202
  422TMC3    C1 6345   3.347   1.157  12.492  0.5432 -0.2850  0.5287
  422TMC3    C2 6346   3.338   1.201  12.621 -0.5630  0.0449  0.4699
  422TMC3    C3 6347   3.262   1.135  12.716 -0.5437  1.0424 -0.3120
  422TMC3    C4 6348   3.273   1.049  12.451  0.2012  0.4801 -0.7399
  422TMC3    C5 6349   3.203   0.979  12.547  0.0247 -0.0563 -0.4486
  422TMC3    C6 6350   3.187   1.025  12.675  0.2728  0.2095 -0.1977
  422TMC3     C 6351   3.464   1.203  12.416  0.3019  1.1886 -0.0811
  422TMC3     O 6352   3.538   1.288  12.459 -0.4923 -0.1532  0.6338
  422TMC3     H 6353   3.405   1.283  12.645  0.6231 -0.5735 -0.7248
  422TMC3    H1 6354   3.266   1.012  12.350 -1.8451 -0.5418 -0.2194
  422TMC3    H2 6355   3.161   0.962  12.760  1.3634  0.6665  0.4814
  422TMC3    C7 6356   3.143   0.845  12.513  0.1674 -0.0847  0.0772
  422TMC3    C8 6357   3.264   1.179  12.860  0.2972 -0.7992  0.4246
  422TMC3    O1 6358   3.193   0.793  12.416  0.2498  0.5488 -0.0242
  422TMC3    O2 6359   3.357   1.253  12.891 -0.4865  0.6491 -0.1977
  423MPD2     C 6360   0.747   1.623  17.677  0.3819 -0.8102 -0.1165
  423MPD2    C1 6361   0.629   1.559  17.687 -0.8647 -0.1022  0.4740
  423MPD2    C2 6362   0.602   1.454  17.603  0.3154 -0.4861  0.0781
  423MPD2    C3 6363   0.683   1.407  17.509 -0.2620  0.1078  0.0901
  423MPD2    C4 6364   0.799   1.481  17.489 -0.8457 -0.0197  0.4657
  423MPD2    C5 6365   0.837   1.578  17.585 -0.0448  0.2813 -0.5088
  423MPD2     H 6366   0.501   1.417  17.618 -0.0732 -0.1507 -1.7658
  423MPD2    H1 6367   0.875   1.448  17.419 -0.9344 -1.4297  1.0346
  423MPD2    H2 6368   0.773   1.708   0.001  0.9810 -0.9126 -0.2267
  423MPD2    H3 6369   0.938   1.616  17.577  0.3760 -0.9768 -1.3813
  423MPD2     N 6370   0.652   1.290  17.436  0.6382 -0.2938 -0.2129
  423MPD2    H5 6371   0.719   1.253  17.369  1.6544  0.6263  0.2904
  423MPD2    N1 6372   0.538   1.600   0.048 -0.3409  0.8750  0.1580
  423MPD2    H7 6373   0.461   1.536   0.062 -0.9500  2.3075  3.2651
  424TMC3    C1 6374   0.431   1.685   0.234 -0.3950  0.4485 -0.7396
  424TMC3    C2 6375   0.439   1.720   0.365  0.2724 -0.4131  0.4692
  424TMC3    C3 6376   0.332   1.713   0.445  0.4003 -0.5285 -0.0428
  424TMC3    C4 6377   0.317   1.631   0.179 -0.3135  0.0660 -0.1904
  424TMC3    C5 6378   0.211   1.631   0.263  0.1520  1.2834 -0.2751
  424TMC3    C6 6379   0.216   1.663   0.390  0.1799 -0.3265 -0.0536
  424TMC3     C 6380   0.554   1.683   0.152  0.3577 -0.0357 -0.3703
  424TMC3     O 6381   0.647   1.757   0.185 -0.1499  0.0360  0.1516
  424TMC3     H 6382   0.535   1.745   0.409 -0.5098  1.2571  1.1956
  424TMC3    H1 6383   0.302   1.603   0.075 -1.1443 -0.2220  0.0145
  424TMC3    H2 6384   0.133   1.641   0.456  0.8104  1.7856  1.4357
  424TMC3    C7 6385   0.090   1.573   0.212 -0.1056 -0.2192  0.4591
  424TMC3    C8 6386   0.338   1.716   0.586  0.9507 -0.4953  0.4247
  424TMC3    O1 6387   0.113   1.506   0.115 -0.0886  0.2580  0.0550
  424TMC3    O2 6388   0.255   1.665   0.652  0.5190  0.0612  0.0920
  425MPD2     C 6389   4.236   0.717  17.149  0.7425  0.2492  0.5199
  425MPD2    C1 6390   4.253   0.660  17.274  0.3461  0.3773  0.0217
  425MPD2    C2 6391   4.160   0.699  17.374 -0.7012  0.3219 -0.3668
  425MPD2    C3 6392   4.062   0.790  17.344 -0.5583  0.1335  0.3322
  425MPD2    C4 6393   4.047   0.843  17.220  0.6174 -0.3339  0.2842
  425MPD2    C5 6394   4.142   0.811  17.126 -0.2494 -0.0798  0.7840
  425MPD2     H 6395   4.166   0.660  17.475  0.2063 -1.0343 -0.9485
  425MPD2    H1 6396   3.960   0.904  17.197  1.6254  0.5264 -1.2562
  425MPD2    H2 6397   4.298   0.691  17.064 -4.5984  0.8398 -3.5527
  425MPD2    H3 6398   4.120   0.860  17.032  2.0822 -1.8603 -0.6997
  425MPD2     N 6399   3.949   0.807  17.434  0.0400 -0.2716 -1.1536
  425MPD2    H5 6400   3.945   0.740  17.510 -0.9191 -0.4801 -1.3923
  425MPD2    N1 6401   4.340   0.548  17.290  0.7411  0.5372  0.3795
  425MPD2    H7 6402   4.386   0.519  17.204 -0.8044  2.4232 -1.0863
  426TMC3    C1 6403   4.356   0.323  17.368 -0.2617 -0.6295  0.1301
  426TMC3    C2 6404   4.338   0.286  17.244  0.3137  0.0293 -0.1717
  426TMC3    C3 6405   4.359   0.152  17.220 -0.1172 -0.3995  1.2467
  426TMC3    C4 6406   4.384   0.246  17.481 -0.0900  0.5174 -0.4065
  426TMC3    C5 6407   4.416   0.120  17.446 -0.5586  0.3863 -0.5509
  426TMC3    C6 6408   4.410   0.073  17.320 -0.0972  0.5263 -0.1454
  426TMC3     C 6409   4.345   0.468  17.399  0.2508  0.3706 -0.1695
  426TMC3     O 6410   4.325   0.493  17.520 -0.7757 -0.6247 -0.6062
  426TMC3     H 6411   4.315   0.357  17.166  1.6859 -1.5011 -1.9666
  426TMC3    H1 6412   4.396   0.290  17.580 -0.7064  1.8081 -0.9083
  426TMC3    H2 6413   4.430   4.702  17.309  1.9395  1.0075 -1.0908
  426TMC3    C7 6414   4.421   0.018  17.559  1.1052  0.5431  0.1336
  426TMC3    C8 6415   4.298   0.089  17.104  0.2479 -0.7016 -0.1534
  426TMC3    O1 6416   4.482   4.652  17.541  0.6820  0.0697 -0.3236
  426TMC3    O2 6417   4.323   4.705  17.079 -0.3324 -0.3013 -0.0503
  427MPD2     C 6418   2.934   2.433  14.958  0.2199  0.3608  0.5956
  427MPD2    C1 6419   2.885   2.532  15.049 -0.1809 -0.1824  0.5701
  427MPD2    C2 6420   2.749   2.535  15.076 -0.3769 -0.4127  0.1531
  427MPD2    C3 6421   2.656   2.453  15.005 -0.6239 -0.3691 -0.9843
  427MPD2    C4 6422   2.704   2.356  14.924 -0.0398 -0.2481 -0.5664
  427MPD2    C5 6423   2.835   2.348  14.904 -0.0379 -0.1674 -0.1057
  427MPD2     H 6424   2.730   2.616  15.146  0.5973 -0.7550  0.8195
  427MPD2    H1 6425   2.647   2.283  14.868 -0.3252 -0.7172  0.3448
  427MPD2    H2 6426   3.038   2.424  14.930  0.7627  1.0562  2.4188
  427MPD2    H3 6427   2.865   2.261  14.847 -1.4353  0.7100 -2.2000
  427MPD2     N 6428   2.517   2.447  15.019  0.4663 -0.4444 -0.3080
  427MPD2    H5 6429   2.456   2.392  14.959  0.0710 -2.4158  1.9196
  427MPD2    N1 6430   2.973   2.632  15.114 -0.2115 -0.1857  0.3627
  427MPD2    H7 6431   2.922   2.698  15.172 -1.7801 -1.7723  0.7548
  428TMC3    C1 6432   3.169   2.701  15.224  0.4308  1.0124  0.3717
  428TMC3    C2 6433   3.109   2.694  15.350  0.1469 -0.0717  0.1917
  428TMC3    C3 6434   3.188   2.693  15.463 -0.0220 -0.0895  0.2930
  428TMC3    C4 6435   3.303   2.705  15.216  0.3604  0.5382  0.7665
  428TMC3    C5 6436   3.378   2.707  15.333  0.5514  0.3152 -0.0260
  428TMC3    C6 6437   3.325   2.710  15.457 -0.3368  0.3294 -0.4316
  428TMC3     C 6438   3.110   2.629  15.114 -0.3284  0.5080  0.0023
  428TMC3     O 6439   3.181   2.576  15.029  0.4685 -0.2707  0.5976
  428TMC3     H 6440   3.001   2.681  15.355  0.0087  1.8566  2.3829
  428TMC3    H1 6441   3.348   2.698  15.118  0.4565 -1.7740  0.9754
  428TMC3    H2 6442   3.390   2.704  15.544  1.0272  0.8422 -1.4272
  428TMC3    C7 6443   3.520   2.704  15.321  0.3145  0.3481  0.6087
  428TMC3    C8 6444   3.151   2.600  15.562 -0.2152 -0.0505 -0.4569
  428TMC3    O1 6445   3.582   2.684  15.426  0.0599  0.2895 -0.8258
  428TMC3    O2 6446   3.057   2.528  15.531 -0.0707  0.4750  0.6315
  429MPD2     C 6447   3.760   2.447  17.717  0.3031 -0.3807 -0.0823
  429MPD2    C1 6448   3.836   2.368  17.635  0.0478  0.4784 -0.6917
  429MPD2    C2 6449   3.917   2.435  17.540  0.3358 -0.2103  0.0748
  429MPD2    C3 6450   3.917   2.575  17.536 -0.3721 -0.2199 -0.5033
  429MPD2    C4 6451   3.835   2.640  17.624 -0.3512 -0.7807 -0.0640
  429MPD2    C5 6452   3.749   2.580  17.706  0.1148 -0.1206  0.3327
  429MPD2     H 6453   3.974   2.375  17.471 -1.4439 -2.2629  0.3948
  429MPD2    H1 6454   3.840   2.748  17.636  1.3850 -0.9386  0.5976
  429MPD2    H2 6455   3.693   2.397   0.047 -0.6339  0.5419 -0.3251
  429MPD2    H3 6456   3.684   2.642   0.028  1.0480  0.9847  0.2245
  429MPD2     N 6457   4.006   2.649  17.454  0.8067  0.2292  0.1284
  429MPD2    H5 6458   4.053   2.583  17.393  1.8725 -0.0455  1.2319
  429MPD2    N1 6459   3.841   2.221  17.644  0.5486 -0.1560  0.5921
  429MPD2    H7 6460   3.906   2.164  17.590  1.3745  2.1959 -0.9266
  430TMC3    C1 6461   4.111   2.832  17.332 -0.1296 -0.2191 -0.1593
  430TMC3    C2 6462   4.145   2.962  17.325 -0.2566 -0.5494  0.3897
  430TMC3    C3 6463   4.253   2.986  17.244  0.3784  0.5094  0.2816
  430TMC3    C4 6464   4.151   2.736  17.249  0.2610  0.5789 -0.4173
  430TMC3    C5 6465   4.260   2.760  17.168  0.6090 -0.2162  0.7998
  430TMC3    C6 6466   4.314   2.888  17.176 -0.6563  0.4866 -0.2578
  430TMC3     C 6467   4.020   2.789  17.441  0.0873 -0.0493 -0.4029
  430TMC3     O 6468   3.970   2.884  17.507 -0.3022 -0.2126  0.1927
  430TMC3     H 6469   4.101   3.035  17.391  0.5187 -0.2022  0.5280
  430TMC3    H1 6470   4.095   2.644  17.236 -1.7770  1.9794 -1.5366
  430TMC3    H2 6471   4.405   2.909  17.119  0.9861 -2.2837  1.3659
  430TMC3    C7 6472   4.255   2.700  17.034 -0.1349  0.4760 -0.1088
  430TMC3    C8 6473   4.229   3.090  17.145  0.2894  0.1572  0.5132
  430TMC3    O1 6474   4.229   2.583  17.029 -0.4074  0.7811 -0.2332
  430TMC3    O2 6475   4.253   3.057  17.031  0.5160  0.3560  0.4640
  431MPD2     C 6476   4.317   2.949  12.611 -0.4731 -0.1167 -0.2176
  431MPD2    C1 6477   4.326   3.079  12.575  0.3715 -0.5611 -0.4578
  431MPD2    C2 6478   4.440   3.116  12.493  0.4534 -0.4024 -0.7700
  431MPD2    C3 6479   4.533   3.019  12.460 -0.3557  0.3413 -0.6234
  431MPD2    C4 6480   4.520   2.891  12.506  0.2290  0.1064 -0.6874
  431MPD2    C5 6481   4.413   2.864  12.581  0.0574  0.8029 -0.1393
  431MPD2     H 6482   4.462   3.219  12.468  0.3916 -0.0876  0.4631
  431MPD2    H1 6483   4.595   2.816  12.484 -1.0136 -1.9178  2.0634
  431MPD2    H2 6484   4.230   2.916  12.667 -1.2711  0.1417 -1.3015
  431MPD2    H3 6485   4.405   2.765  12.625  1.9836  1.7307  2.3269
  431MPD2     N 6486   4.647   3.051  12.383  0.1156 -0.2399 -0.5664
  431MPD2    H5 6487   4.728   2.989  12.380 -1.9795 -3.1125  2.7798
  431MPD2    N1 6488   4.245   3.176  12.627  1.3461  0.3097  0.3250
  431MPD2    H7 6489   4.210   3.163  12.721  3.5433 -0.5299  1.0258
  432TMC3    C1 6490   0.061   3.210  12.306  0.7996  0.1466  0.2204
  432TMC3    C2 6491   0.093   3.301  12.212  0.0833  0.4069 -0.2558
  432TMC3    C3 6492   0.206   3.378  12.233  0.2681 -0.5545 -0.1743
  432TMC3    C4 6493   0.118   3.202  12.432 -1.3796  0.2432 -0.0902
  432TMC3    C5 6494   0.228   3.290  12.441  0.5151 -0.0240 -0.0925
  432TMC3    C6 6495   0.283   3.358  12.342 -0.4505  0.5158 -0.2146
  432TMC3     C 6496   4.661   3.166  12.305 -0.4002  0.4021 -0.8687
  432TMC3     O 6497   4.582   3.253  12.281  0.1453 -0.1679 -0.3014
  432TMC3     H 6498   0.029   3.317  12.127 -0.0858  0.4912 -0.1126
  432TMC3    H1 6499   0.075   3.145  12.513 -0.3158 -1.2023 -0.5501
  432TMC3    H2 6500   0.370   3.422  12.353  0.5194 -0.5863 -1.5001
  432TMC3    C7 6501   0.287   3.305  12.574 -0.8729  0.0799  0.0638
  432TMC3    C8 6502   0.302   3.372  12.118  0.2562 -0.0678  0.1899
  432TMC3    O1 6503   0.391   3.370  12.582 -0.0009 -0.2920  0.3215
  432TMC3    O2 6504   0.290   3.457  12.027 -0.1725 -0.5861  0.4889
  433MPD2     C 6505   3.362   2.124  10.994  0.5484  0.2427 -0.0546
  433MPD2    C1 6506   3.341   2.009  11.067  0.2136  0.1945 -0.7761
  433MPD2    C2 6507   3.390   1.999  11.196  0.2586 -0.1296  0.1640
  433MPD2    C3 6508   3.459   2.108  11.246  0.0193  0.4574 -1.2507
  433MPD2    C4 6509   3.483   2.219  11.168 -0.8290 -0.0575  0.7294
  433MPD2    C5 6510   3.431   2.229  11.041 -0.7420  0.0884  0.5067
  433MPD2     H 6511   3.370   1.912  11.257  0.0831  1.4075  2.3427
  433MPD2    H1 6512   3.529   2.309  11.205  0.5311  0.2345 -1.6536
  433MPD2    H2 6513   3.322   2.136  10.894 -2.2738 -3.9137  0.5426
  433MPD2    H3 6514   3.436   2.320  10.983  0.2989 -0.4105 -0.1775
  433MPD2     N 6515   3.507   2.103  11.375 -0.6272  0.3840 -0.8008
  433MPD2    H5 6516   3.497   2.015  11.425 -0.0290 -1.0861 -3.2538
  433MPD2    N1 6517   3.266   1.908  11.000  0.3477 -0.8708 -0.1459
  433MPD2    H7 6518   3.251   1.913  10.900  2.5060  0.0700 -0.4236
  434TMC3    C1 6519   3.193   1.688  10.978 -0.9822 -0.3675 -0.1796
  434TMC3    C2 6520   3.238   1.562  11.004  0.1604 -0.1014 -1.3476
  434TMC3    C3 6521   3.260   1.472  10.907  0.3784 -0.9663  0.2258
  434TMC3    C4 6522   3.154   1.716  10.846 -0.2504  0.1868  0.1959
  434TMC3    C5 6523   3.167   1.615  10.753  0.4219 -0.0728 -0.9505
  434TMC3    C6 6524   3.226   1.499  10.775  0.1593  0.9434 -0.6241
  434TMC3     C 6525   3.226   1.797  11.066 -0.3380 -0.0285 -0.2123
  434TMC3     O 6526   3.235   1.771  11.186 -0.2978  0.6633 -0.3542
  434TMC3     H 6527   3.267   1.539  11.106  1.4823  0.6896 -1.5323
  434TMC3    H1 6528   3.111   1.810  10.814  0.0256 -0.0257 -0.7989
  434TMC3    H2 6529   3.233   1.425  10.696  3.5571 -0.1500  0.6797
  434TMC3    C7 6530   3.099   1.637  10.626 -0.4948  0.2642  0.6485
  434TMC3    C8 6531   3.365   1.376  10.935 -0.3556 -0.4769 -0.2010
  434TMC3    O1 6532   3.081   1.755  10.593  1.1841 -0.4174 -0.1774
  434TMC3    O2 6533   3.440   1.404  11.028  0.0319 -0.3562 -0.3487
  435MPD2     C 6534   1.153   1.359  15.313 -0.3430  0.3497 -0.1346
  435MPD2    C1 6535   1.130   1.380  15.450 -0.2815  0.1953 -0.0442
  435MPD2    C2 6536   1.196   1.299  15.540  0.8381 -0.5226 -0.3402
  435MPD2    C3 6537   1.266   1.186  15.507  0.0044  0.0025 -0.2638
  435MPD2    C4 6538   1.289   1.167  15.374 -1.2214 -1.1907  0.1711
  435MPD2    C5 6539   1.236   1.255  15.284 -0.8940  0.1885  0.3340
  435MPD2     H 6540   1.187   1.314  15.647 -0.0522  0.1397 -0.5000
  435MPD2    H1 6541   1.347   1.089  15.326  2.5632  0.4540  2.0558
  435MPD2    H2 6542   1.117   1.419  15.230 -1.5984  1.0117  0.8714
  435MPD2    H3 6543   1.245   1.236  15.178 -1.0268  2.4189 -0.0830
  435MPD2     N 6544   1.314   1.107  15.610 -0.4383  0.2684 -0.0382
  435MPD2    H5 6545   1.284   1.126  15.705  0.6829  3.8230 -0.4023
  435MPD2    N1 6546   1.044   1.478  15.507  0.0008  0.0145  0.2899
  435MPD2    H7 6547   1.057   1.492  15.607  0.6764 -0.9711  0.3362
  436TMC3    C1 6548   0.834   1.742  15.728  0.6204 -0.7070  1.1594
  436TMC3    C2 6549   0.902   1.651  15.658 -0.0133  0.5715  0.1392
  436TMC3    C3 6550   0.927   1.678  15.527  0.7215 -0.8247  0.1151
  436TMC3    C4 6551   0.796   1.858  15.675 -0.0107 -0.1302 -0.3646
  436TMC3    C5 6552   0.827   1.886  15.549  0.1759 -0.0217 -0.6079
  436TMC3    C6 6553   0.885   1.790  15.468  0.4662 -0.0185  0.3742
  436TMC3     C 6554   0.816   1.711  15.864 -0.3279 -0.3979 -0.4932
  436TMC3     O 6555   0.902   1.634  15.911  0.1944 -1.3213  0.2822
  436TMC3     H 6556   0.927   1.556  15.705  0.5036  0.0254 -1.2275
  436TMC3    H1 6557   0.733   1.928  15.728 -0.6580 -0.1019 -1.1756
  436TMC3    H2 6558   0.926   1.813  15.370  0.4842  0.0927  0.4080
  436TMC3    C7 6559   0.830   2.028  15.522  0.2105 -0.4886  0.3959
  436TMC3    C8 6560   0.976   1.574  15.436  0.1663  0.5892  0.1899
  436TMC3    O1 6561   0.752   2.097  15.592 -0.3340 -0.5070 -0.0049
  436TMC3    O2 6562   0.937   1.572  15.321  1.2742 -0.3178 -0.1797
  437TMC3    C1 6563   3.999   3.873  13.205 -0.2721  0.2114  0.4581
  437TMC3    C2 6564   3.910   3.947  13.278  0.4361  0.2192  0.9367
  437TMC3    C3 6565   3.882   4.074  13.232  0.0669 -0.4434  0.2149
  437TMC3    C4 6566   4.050   3.921  13.083  0.2435  0.1655  0.2298
  437TMC3    C5 6567   4.020   4.052  13.047  0.0366 -0.1530  0.5805
  437TMC3    C6 6568   3.942   4.128  13.125  0.0635  0.4669  0.3438
  437TMC3     C 6569   3.988   3.732  13.242 -0.1834  0.7054 -0.6755
  437TMC3     O 6570   3.903   3.699  13.321  0.2284 -0.1083 -0.0443
  437TMC3     H 6571   3.868   3.909  13.371  0.5623  1.1965  1.3883
  437TMC3    H1 6572   4.102   3.859  13.012 -1.5601 -0.8497 -0.2122
  437TMC3    H2 6573   3.922   4.229  13.089 -3.0348 -0.5508 -0.8473
  437TMC3    C7 6574   4.114   4.128  12.976  0.5135 -0.2070 -0.0513
  437TMC3    C8 6575   3.766   4.135  13.283  0.4153 -0.3692 -0.0765
  437TMC3    O1 6576   4.073   4.222  12.902 -0.0239 -0.0746  0.2633
  437TMC3    O2 6577   3.687   4.074  13.354 -0.0141 -0.2312  0.5067
  438MPD2     C 6578   1.835   4.298  17.007 -1.1468  0.2344 -0.1600
  438MPD2    C1 6579   1.928   4.227  17.073 -0.8802 -0.8198 -0.3838
  438MPD2    C2 6580   1.945   4.260  17.204 -0.7703  0.2425 -0.0345
  438MPD2    C3 6581   1.863   4.347  17.273 -0.0806  0.3619 -1.1773
  438MPD2    C4 6582   1.763   4.411  17.205  0.1333  0.0128 -0.0083
  438MPD2    C5 6583   1.757   4.385  17.070  0.3101  0.8716 -0.0613
  438MPD2     H 6584   2.026   4.207  17.253 -1.1917 -0.6868 -0.3329
  438MPD2    H1 6585   1.693   4.483  17.246 -1.4785 -0.9090 -1.1276
  438MPD2    H2 6586   1.821   4.279  16.902  1.6311 -0.1521 -0.4450
  438MPD2    H3 6587   1.679   4.444  17.022  0.6743 -0.1054 -1.8402
  438MPD2     N 6588   1.870   4.364  17.410 -0.0508  0.4847  0.3394
  438MPD2    H5 6589   1.793   4.412  17.456 -1.3724 -2.2054  0.9352
  438MPD2    N1 6590   2.023   4.136  17.016 -0.3193 -0.0303  0.2712
  438MPD2    H7 6591   2.100   4.109  17.076  1.0623  0.4665 -1.2438
  439TMC3    C1 6592   2.121   3.994  16.858  0.5923 -0.3747 -0.0904
  439TMC3    C2 6593   2.131   3.960  16.725  0.0522  0.2731 -0.5157
  439TMC3    C3 6594   2.181   3.834  16.697 -0.1789  0.4291 -0.1957
  439TMC3    C4 6595   2.172   3.917  16.958  0.3871 -0.4599  0.3895
  439TMC3    C5 6596   2.239   3.803  16.918  0.2612  0.6154  0.7648
  439TMC3    C6 6597   2.236   3.759  16.790 -0.2824 -0.2492 -0.3681
  439TMC3     C 6598   2.027   4.099  16.883 -0.0048 -0.4331  0.3577
  439TMC3     O 6599   1.956   4.134  16.786 -0.4273  0.0539  0.7420
  439TMC3     H 6600   2.099   4.023  16.643  0.2232 -0.6423 -1.2815
  439TMC3    H1 6601   2.167   3.941  17.064 -3.3282 -0.1053  0.1394
  439TMC3    H2 6602   2.270   3.659  16.766 -0.5543 -0.5485  0.4677
  439TMC3    C7 6603   2.357   3.766  16.996 -0.2844  0.8827 -0.8264
  439TMC3    C8 6604   2.237   3.816  16.561  0.0836 -0.5105 -0.1768
  439TMC3    O1 6605   2.360   3.767  17.115 -0.5363 -0.0293 -0.3001
  439TMC3    O2 6606   2.337   3.750  16.556 -0.1657 -0.1160  0.3661
  440MPD2     C 6607   0.683   4.544  15.179  1.0987  0.9507 -0.1797
  440MPD2    C1 6608   0.791   4.593  15.249  1.1311  0.1679 -0.5749
  440MPD2    C2 6609   0.902   4.513  15.256 -0.6366 -0.1132  0.2701
  440MPD2    C3 6610   0.899   4.388  15.192  0.2515 -0.4304 -0.0151
  440MPD2    C4 6611   0.788   4.336  15.134  0.2341  0.7909 -0.6530
  440MPD2    C5 6612   0.677   4.415  15.126 -0.1090 -0.3013  0.2883
  440MPD2     H 6613   1.000   4.551  15.282 -1.0946  1.3889 -0.1880
  440MPD2    H1 6614   0.785   4.233  15.098 -1.5094  0.7251 -0.3314
  440MPD2    H2 6615   0.593   4.604  15.170 -0.9517 -2.2559 -0.8120
  440MPD2    H3 6616   0.590   4.365  15.085 -0.1793  0.3875 -0.3804
  440MPD2     N 6617   1.020   4.320  15.165  0.2211  0.1562 -0.4453
  440MPD2    H5 6618   1.004   4.241  15.103  0.6101 -0.4219  0.1914
  440MPD2    N1 6619   0.790   4.716  15.316 -0.4378  0.3533 -0.4349
  440MPD2    H7 6620   0.873   0.014  15.365 -0.9106  1.4273 -0.3363
  441TMC3    C1 6621   1.234   4.247  15.213  0.7163  0.3379  0.1164
  441TMC3    C2 6622   1.363   4.295  15.197 -0.1011  0.2363 -0.2307
  441TMC3    C3 6623   1.457   4.268  15.289 -0.4823  0.0144  0.0341
  441TMC3    C4 6624   1.210   4.161  15.319  0.0481  0.2844 -0.4081
  441TMC3    C5 6625   1.314   4.120  15.399 -0.2041 -0.6236 -0.5293
  441TMC3    C6 6626   1.438   4.176  15.380 -0.7506  0.0447  0.2757
  441TMC3     C 6627   1.148   4.358  15.194  0.1642 -0.2603  0.1469
  441TMC3     O 6628   1.196   4.465  15.235  0.1090  0.5151  0.2365
  441TMC3     H 6629   1.376   4.350  15.104  0.6875  0.8600  0.2452
  441TMC3    H1 6630   1.108   4.131  15.343  0.0469 -0.6226 -1.5464
  441TMC3    H2 6631   1.511   4.169  15.461 -0.6271  0.2671  0.1806
  441TMC3    C7 6632   1.275   4.044  15.520 -0.0341 -0.0353  0.3894
  441TMC3    C8 6633   1.540   4.379  15.328 -0.1132  0.0082  0.1379
  441TMC3    O1 6634   1.161   4.065  15.555 -0.0369  0.1715  0.5534
  441TMC3    O2 6635   1.630   4.358  15.404 -0.2668  0.0181 -0.4860
  442MPD2     C 6636   3.848   0.328  16.359 -0.1455  0.4567  0.9688
  442MPD2    C1 6637   3.775   0.266  16.459  0.2097  0.0840  0.4402
  442MPD2    C2 6638   3.766   0.126  16.470  0.0422  0.3547  0.7967
  442MPD2    C3 6639   3.827   0.050  16.374  0.2064  0.0448 -0.4700
  442MPD2    C4 6640   3.908   0.106  16.282 -0.3736  0.4113 -0.1178
  442MPD2    C5 6641   3.917   0.244  16.274 -0.0652  0.2088 -0.9245
  442MPD2     H 6642   3.715   0.090  16.559 -0.5783  0.4084  0.4606
  442MPD2    H1 6643   3.964   0.050  16.207  1.3373  1.9332  0.0484
  442MPD2    H2 6644   3.850   0.435  16.344 -1.1375  0.1647 -1.1469
  442MPD2    H3 6645   3.975   0.279  16.190  2.6267 -1.9762  0.0020
  442MPD2     N 6646   3.816   4.642  16.374 -0.0326  0.1001 -0.0423
  442MPD2    H5 6647   3.841   4.600  16.285 -1.9565 -1.9053  0.3529
  442MPD2    N1 6648   3.683   0.339  16.537 -0.2235 -0.8958  0.0435
  442MPD2    H7 6649   3.614   0.286  16.590 -0.1824 -0.4748  0.5110
  443TMC3    C1 6650   3.586   0.524  16.643 -0.9313  0.6273 -0.1570
  443TMC3    C2 6651   3.515   0.639  16.605 -0.3163 -0.1640 -0.3480
  443TMC3    C3 6652   3.412   0.678  16.689 -0.0282  0.2603 -0.3226
  443TMC3    C4 6653   3.564   0.454  16.762 -0.0228 -0.5035  0.0826
  443TMC3    C5 6654   3.478   0.517  16.849  0.4012 -0.3454  0.4446
  443TMC3    C6 6655   3.400   0.623  16.817 -0.3177  0.7405  0.1434
  443TMC3     C 6656   3.676   0.476  16.541 -0.1492  0.4219 -0.2815
  443TMC3     O 6657   3.720   0.563  16.466 -0.7328 -0.0009 -0.3543
  443TMC3     H 6658   3.542   0.693  16.515 -2.4692  1.8740  0.2110
  443TMC3    H1 6659   3.625   0.370  16.793 -0.4837 -0.2914  1.5781
  443TMC3    H2 6660   3.335   0.670  16.890 -0.5178 -2.2654  1.8805
  443TMC3    C7 6661   3.467   0.470  16.986 -0.4072  0.3224  0.1666
  443TMC3    C8 6662   3.336   0.799  16.668 -0.4895 -0.7071  0.0907
  443TMC3    O1 6663   3.519   0.363  17.014  0.7914  0.3100 -0.1775
  443TMC3    O2 6664   3.325   0.867  16.769  0.1010 -0.6458  0.3027
  444MPD2     C 6665   3.686   4.529  17.028 -0.0864 -0.1477  0.3797
  444MPD2    C1 6666   3.717   4.425  17.114 -0.6915 -0.4560  0.7765
  444MPD2    C2 6667   3.772   4.310  17.056  0.8587  0.1023 -0.2430
  444MPD2    C3 6668   3.789   4.296  16.918 -0.8143  0.3624  0.2977
  444MPD2    C4 6669   3.746   4.399  16.837  0.2320 -0.2248 -0.1493
  444MPD2    C5 6670   3.689   4.510  16.895  0.5148  0.4875 -0.0561
  444MPD2     H 6671   3.801   4.231  17.125 -1.4245  1.5469  2.3489
  444MPD2    H1 6672   3.757   4.389  16.729  1.1221  3.4265 -0.3844
  444MPD2    H2 6673   3.657   4.627  17.062 -2.5533 -0.8488  0.3136
  444MPD2    H3 6674   3.649   4.593  16.838  0.8412  2.2028  2.2370
  444MPD2     N 6675   3.864   4.185  16.873  0.3458 -0.7407 -0.5703
  444MPD2    H5 6676   3.915   4.135  16.945 -0.1403 -0.2092  0.1510
  444MPD2    N1 6677   3.696   4.422  17.256  1.1573 -0.2316 -0.7497
  444MPD2    H7 6678   3.715   4.338  17.311  1.5626  0.1932 -0.2455
  445TMC3    C1 6679   3.981   4.043  16.743  0.1102 -0.1219 -0.4976
  445TMC3    C2 6680   3.951   3.947  16.651 -0.1365 -0.0058 -0.1565
  445TMC3    C3 6681   3.999   3.821  16.663  0.1848 -0.6861  1.4515
  445TMC3    C4 6682   4.081   4.022  16.839  0.2327 -0.1776  0.4056
  445TMC3    C5 6683   4.139   3.899  16.831  0.6810  0.3453 -0.7121
  445TMC3    C6 6684   4.100   3.794  16.748  0.6917  0.2722  0.7764
  445TMC3     C 6685   3.884   4.149  16.747 -0.2113 -0.4446 -0.0887
  445TMC3     O 6686   3.817   4.178  16.647 -0.1806  0.4251  0.4341
  445TMC3     H 6687   3.858   3.952  16.597  1.5235  0.5876 -2.9741
  445TMC3    H1 6688   4.110   4.095  16.914 -0.7003  0.6665 -0.0585
  445TMC3    H2 6689   4.119   3.691  16.774 -1.1220 -0.5091 -0.9436
  445TMC3    C7 6690   4.269   3.896  16.891  0.2851 -0.1288 -0.2786
  445TMC3    C8 6691   3.977   3.737  16.548  0.5148  0.4836 -0.4047
  445TMC3    O1 6692   4.315   4.002  16.940  0.6878  0.0249 -0.5554
  445TMC3    O2 6693   3.874   3.749  16.487  0.0222  0.3725 -0.2021
  446MPD2     C 6694   3.283   1.199  11.524  0.1315 -0.4934 -0.7839
  446MPD2    C1 6695   3.276   1.199  11.390  0.4203 -0.6349 -0.3835
  446MPD2    C2 6696   3.344   1.300  11.324  0.5558 -0.3384 -0.4142
  446MPD2    C3 6697   3.394   1.411  11.373  0.4050 -0.4604  0.5371
  446MPD2    C4 6698   3.389   1.418  11.509  0.2049  1.0706  0.3098
  446MPD2    C5 6699   3.341   1.310  11.580 -0.1974  0.3721  0.4386
  446MPD2     H 6700   3.354   1.295  11.216 -1.6569  0.1644 -0.6308
  446MPD2    H1 6701   3.436   1.497  11.566 -0.0904  1.0889  0.5252
  446MPD2    H2 6702   3.239   1.127  11.591  0.6610 -0.2849 -0.2068
  446MPD2    H3 6703   3.340   1.313  11.689 -1.2055 -0.3481  0.4562
  446MPD2     N 6704   3.459   1.502  11.285 -0.5117  0.1224  0.0744
  446MPD2    H5 6705   3.477   1.465  11.192 -1.5237  0.2169 -0.1522
  446MPD2    N1 6706   3.204   1.101  11.317 -0.2498 -0.1386 -0.2274
  446MPD2    H7 6707   3.183   1.121  11.220  0.2683 -1.4125 -0.5975
  447TMC3    C1 6708   3.616   1.668  11.243  0.6449 -0.2849  0.7516
  447TMC3    C2 6709   3.617   1.665  11.106 -0.4024  0.2591 -0.2498
  447TMC3    C3 6710   3.734   1.681  11.045 -0.3753  0.3724 -1.3935
  447TMC3    C4 6711   3.731   1.679  11.316  0.5438  0.2048 -0.3875
  447TMC3    C5 6712   3.849   1.688  11.245  0.2705 -0.8579  0.1795
  447TMC3    C6 6713   3.853   1.702  11.110 -0.3035  0.2918 -0.9691
  447TMC3     C 6714   3.501   1.627  11.323 -0.1189  0.1554  0.5701
  447TMC3     O 6715   3.487   1.682  11.433  0.4978  0.9053 -0.2348
  447TMC3     H 6716   3.526   1.632  11.058  0.1910 -0.2179 -1.0432
  447TMC3    H1 6717   3.725   1.665  11.423  1.1508 -1.1719 -0.5283
  447TMC3    H2 6718   3.945   1.709  11.054  0.6136 -0.4924  0.4364
  447TMC3    C7 6719   3.977   1.677  11.310 -0.1119  0.1382  0.4472
  447TMC3    C8 6720   3.722   1.727  10.907  0.6289  0.2111 -0.8880
  447TMC3    O1 6721   4.061   1.623  11.242 -0.0207  0.2839  0.0566
  447TMC3    O2 6722   3.607   1.740  10.862  0.0769  0.5731  0.1375
  448TMC3    C1 6723   2.676   0.903  17.161 -0.9405 -0.1576  0.2082
  448TMC3    C2 6724   2.577   0.810  17.162 -0.5433 -0.1129  0.7160
  448TMC3    C3 6725   2.581   0.711  17.265 -0.1142  0.6037 -0.1665
  448TMC3    C4 6726   2.774   0.904  17.258  0.3403  0.3867 -0.0610
  448TMC3    C5 6727   2.775   0.802  17.354  0.3825  0.3761  0.4587
  448TMC3    C6 6728   2.678   0.702  17.367 -0.1564  0.5752 -0.0074
  448TMC3     C 6729   2.708   0.979  17.041  0.4887 -0.5291 -0.0473
  448TMC3     O 6730   2.824   1.013  17.024 -0.3983 -0.1815  0.0108
  448TMC3     H 6731   2.505   0.798  17.081 -0.2366 -1.5518  0.6590
  448TMC3    H1 6732   2.856   0.975  17.252  0.3178  0.4523  0.3948
  448TMC3    H2 6733   2.689   0.617  17.433  0.4095  0.6409 -0.0197
  448TMC3    C7 6734   2.879   0.803  17.458  0.2841 -0.0891  0.1371
  448TMC3    C8 6735   2.520   0.586  17.228 -0.0327  0.2882  0.1308
  448TMC3    O1 6736   2.980   0.866  17.438  0.2080  0.9891  0.5137
  448TMC3    O2 6737   2.582   0.483  17.263  0.5656 -0.4174 -0.1666
  449MPD2     C 6738   3.232   3.742  13.809  0.0087  0.1263  0.6438
  449MPD2    C1 6739   3.114   3.817  13.798  0.8059  0.0754 -0.4888
  449MPD2    C2 6740   3.004   3.778  13.871 -0.1564  0.1599  0.0806
  449MPD2    C3 6741   3.010   3.674  13.955  0.3905  0.0960  0.0034
  449MPD2    C4 6742   3.124   3.590  13.955 -0.4050  0.1608 -0.2781
  449MPD2    C5 6743   3.233   3.633  13.883  0.3935  0.2192 -0.6732
  449MPD2     H 6744   2.915   3.840  13.872 -1.4014 -1.6383 -0.7401
  449MPD2    H1 6745   3.129   3.501  14.018  0.6033  0.3818 -0.0494
  449MPD2    H2 6746   3.324   3.769  13.758 -0.1551  1.5708  1.1070
  449MPD2    H3 6747   3.313   3.559  13.882  2.8427  2.8805 -1.3419
  449MPD2     N 6748   2.891   3.646  14.019  0.1879  0.6374  0.1279
  449MPD2    H5 6749   2.813   3.711  14.009 -0.9762 -0.2580  3.2384
  449MPD2    N1 6750   3.082   3.933  13.724 -0.1577  0.4738 -0.5709
  449MPD2    H7 6751   2.985   3.959  13.707  0.3260 -0.4677 -4.8995
  450TMC3    C1 6752   3.128   4.124  13.605 -0.4215 -1.0167 -0.2578
  450TMC3    C2 6753   3.193   4.236  13.652  0.2222  0.1941 -0.5762
  450TMC3    C3 6754   3.112   4.337  13.684 -0.6909  0.6320  0.6061
  450TMC3    C4 6755   2.997   4.129  13.578 -0.5853 -0.8623  0.4164
  450TMC3    C5 6756   2.914   4.226  13.617 -0.1247  0.4763  0.3839
  450TMC3    C6 6757   2.972   4.336  13.673 -0.1415 -0.4564 -0.6487
  450TMC3     C 6758   3.178   3.998  13.658 -0.4422 -0.4984 -0.4640
  450TMC3     O 6759   3.297   3.989  13.688 -0.2031 -0.4739  0.0902
  450TMC3     H 6760   3.295   4.225  13.688  0.3243  0.5701 -0.7442
  450TMC3    H1 6761   2.950   4.042  13.534 -0.7360 -1.1588  1.1596
  450TMC3    H2 6762   2.918   4.420  13.715  0.1012 -1.1618  1.0726
  450TMC3    C7 6763   2.814   4.166  13.704  0.6211  0.3215  0.0252
  450TMC3    C8 6764   3.164   4.472  13.668 -0.7963 -0.1900  0.1223
  450TMC3    O1 6765   2.814   4.046  13.712 -0.1800  0.0674  0.1976
  450TMC3    O2 6766   3.091   4.564  13.685 -0.1954 -0.3274 -0.2865
  451MPD2     C 6767   0.968   3.305   1.482  0.1744 -0.4555  0.6339
  451MPD2    C1 6768   0.848   3.243   1.492 -0.1313  0.4025  1.0810
  451MPD2    C2 6769   0.838   3.117   1.440  0.1298 -1.6744 -0.5421
  451MPD2    C3 6770   0.955   3.041   1.421  0.1187  0.2526  0.3617
  451MPD2    C4 6771   1.081   3.094   1.446 -0.1705 -0.3734  0.2685
  451MPD2    C5 6772   1.086   3.233   1.474 -1.0689 -1.1341 -0.5144
  451MPD2     H 6773   0.744   3.063   1.442 -0.1459 -1.0951  3.0816
  451MPD2    H1 6774   1.172   3.040   1.425 -1.2920 -2.6134  1.1545
  451MPD2    H2 6775   0.985   3.412   1.493 -0.7427 -0.4744  2.2500
  451MPD2    H3 6776   1.183   3.280   1.480 -2.0676  0.9750 -0.9129
  451MPD2     N 6777   0.935   2.914   1.366 -0.0940  0.3969  0.1145
  451MPD2    H5 6778   0.839   2.882   1.352 -0.6260  1.0111  2.3401
  451MPD2    N1 6779   0.730   3.319   1.513 -0.0828 -0.1350  0.1054
  451MPD2    H7 6780   0.731   3.419   1.497 -3.7531 -0.0103  0.7379
  452TMC3    C1 6781   0.978   2.704   1.289 -0.3233  0.2772 -0.2688
  452TMC3    C2 6782   0.854   2.666   1.347  0.2440  0.4048 -0.2101
  452TMC3    C3 6783   0.792   2.554   1.292  0.5231  0.6388  0.5259
  452TMC3    C4 6784   1.048   2.637   1.193  0.8104 -0.2900 -0.6893
  452TMC3    C5 6785   0.990   2.530   1.149  0.1781 -0.8453 -0.1409
  452TMC3    C6 6786   0.861   2.492   1.193 -0.3401  0.1503 -0.4386
  452TMC3     C 6787   1.035   2.821   1.339 -0.1053  0.6010  0.5967
  452TMC3     O 6788   1.156   2.822   1.335 -0.4761 -0.3283 -0.3049
  452TMC3     H 6789   0.812   2.721   1.431  2.5383  1.6009  0.1487
  452TMC3    H1 6790   1.143   2.672   1.155  1.3294 -1.3226 -0.3630
  452TMC3    H2 6791   0.803   2.427   1.128  1.1702 -0.4853 -1.1451
  452TMC3    C7 6792   1.022   2.485   1.015  0.0432  0.6294 -0.3505
  452TMC3    C8 6793   0.652   2.524   1.311 -0.0281 -0.5037 -0.1943
  452TMC3    O1 6794   1.101   2.557   0.953  0.1609 -0.3059  0.0398
  452TMC3    O2 6795   0.617   2.407   1.282  0.0027 -0.6235 -0.5029
  453TMC3    C1 6796   0.592   4.375  12.284 -0.2134 -0.0690  0.0756
  453TMC3    C2 6797   0.519   4.268  12.317  0.1567 -0.1016  0.5045
  453TMC3    C3 6798   0.425   4.238  12.221 -0.0701  0.1738  0.8919
  453TMC3    C4 6799   0.581   4.442  12.166 -0.4832  0.7799 -0.6977
  453TMC3    C5 6800   0.491   4.398  12.075 -0.1363 -0.1537  0.2996
  453TMC3    C6 6801   0.412   4.299  12.099 -0.1817 -0.4253 -0.1088
  453TMC3     C 6802   0.701   4.422  12.367  0.1548 -0.0165 -0.8299
  453TMC3     O 6803   0.798   4.468  12.313  0.2410 -0.1055  0.5607
  453TMC3     H 6804   0.533   4.212  12.410  0.1434  0.0200  0.5794
  453TMC3    H1 6805   0.646   4.526  12.145 -0.7805  0.8822 -1.2146
  453TMC3    H2 6806   0.352   4.246  12.026 -0.9604 -2.4036  1.9695
  453TMC3    C7 6807   0.502   4.446  11.936  0.3545 -0.3654  0.0978
  453TMC3    C8 6808   0.348   4.115  12.238  0.2461  0.4648 -0.2636
  453TMC3    O1 6809   0.604   4.494  11.897 -0.3854 -0.2908  0.0140
  453TMC3    O2 6810   0.247   4.101  12.173  0.0196 -0.5780  0.2494
  454MPD2     C 6811   4.667   4.385  15.935 -0.0765  0.3490 -0.0669
  454MPD2    C1 6812   4.530   4.372  15.902 -0.1056  0.3223 -0.3582
  454MPD2    C2 6813   4.434   4.414  15.988  0.8138 -0.3967  1.0884
  454MPD2    C3 6814   4.463   4.455  16.114  0.7354  0.1175  0.6375
  454MPD2    C4 6815   4.597   4.446  16.155  0.3992 -0.2762 -0.1908
  454MPD2    C5 6816   4.698   4.417  16.067  0.0262  0.2407  0.1519
  454MPD2     H 6817   4.330   4.403  15.959  0.6416  0.3798  1.4318
  454MPD2    H1 6818   4.630   4.473  16.255 -0.8051  0.1459  0.0907
  454MPD2    H2 6819   0.014   4.383  15.863  1.1522  0.8146  1.3189
  454MPD2    H3 6820   0.063   4.428  16.107 -0.2535 -0.5735  1.0873
  454MPD2     N 6821   4.363   4.468  16.215  0.7465 -0.4850  0.1448
  454MPD2    H5 6822   4.398   4.472  16.310  2.2567  0.5935 -0.4484
  454MPD2    N1 6823   4.477   4.309  15.786 -0.7616 -0.3930  0.5226
  454MPD2    H7 6824   4.376   4.316  15.776 -0.4974  0.4991 -1.4529
  455TMC3    C1 6825   4.148   4.457  16.314  0.6877 -0.2627 -0.0480
  455TMC3    C2 6826   4.202   4.534  16.420 -0.5304  0.6186  0.5012
  455TMC3    C3 6827   4.198   4.458  16.542 -0.3825 -0.0627 -0.3122
  455TMC3    C4 6828   4.088   4.336  16.326  0.9229  0.2719  0.0537
  455TMC3    C5 6829   4.112   4.265  16.441  0.3353  1.1435  0.0308
  455TMC3    C6 6830   4.169   4.323  16.554 -0.1994 -0.2481  0.0686
  455TMC3     C 6831   4.232   4.467  16.200  0.2605  0.1988  0.3892
  455TMC3     O 6832   4.171   4.474  16.097 -0.2910 -0.6811  0.3283
  455TMC3     H 6833   4.250   4.631  16.415 -0.4025  0.7001  3.3309
  455TMC3    H1 6834   4.057   4.285  16.236  2.3110  2.6466 -1.7734
  455TMC3    H2 6835   4.181   4.278  16.651  0.3421  2.0265  1.0607
  455TMC3    C7 6836   4.133   4.127  16.413 -0.0441 -0.3206 -0.5834
  455TMC3    C8 6837   4.185   4.536  16.664  0.0806  0.2771 -0.0377
  455TMC3    O1 6838   4.078   4.078  16.316 -0.7101 -0.0904  0.6305
  455TMC3    O2 6839   4.192   4.485  16.775 -0.0165  0.0462 -0.2090
  456MPD2     C 6840   2.388   4.136  16.640 -0.3504  0.0704  0.3930
  456MPD2    C1 6841   2.481   4.099  16.732 -0.0038 -0.3424  0.3768
  456MPD2    C2 6842   2.469   4.155  16.858 -0.2341 -0.3386 -0.5172
  456MPD2    C3 6843   2.367   4.244  16.894  0.2966  0.3368  0.5009
  456MPD2    C4 6844   2.274   4.275  16.797  0.8995 -0.2168 -0.5049
  456MPD2    C5 6845   2.280   4.218  16.672 -1.1370 -0.8117  0.1991
  456MPD2     H 6846   2.543   4.138  16.936 -1.0378  0.9859  0.5339
  456MPD2    H1 6847   2.187   4.333  16.824  1.2208  0.7301 -1.5158
  456MPD2    H2 6848   2.404   4.106  16.538  3.1964 -0.0600  0.9891
  456MPD2    H3 6849   2.197   4.236  16.605 -0.4145  1.0186 -0.1819
  456MPD2     N 6850   2.371   4.303  17.023  0.2944  0.4467 -0.9320
  456MPD2    H5 6851   2.452   4.271  17.074 -1.2632 -3.2741 -0.7254
  456MPD2    N1 6852   2.590   4.023  16.700 -0.4139 -0.3988 -0.4058
  456MPD2    H7 6853   2.578   3.984  16.607 -0.7557  1.8721 -1.3211
  457TMC3    C1 6854   2.328   4.460  17.195  0.8457 -0.5917  0.1232
  457TMC3    C2 6855   2.313   4.593  17.198 -0.5040 -0.0861 -0.5032
  457TMC3    C3 6856   2.385   4.671  17.284 -0.7239  0.2052 -0.2059
  457TMC3    C4 6857   2.418   4.397  17.271 -0.4825 -0.1866 -0.6589
  457TMC3    C5 6858   2.478   4.474  17.374  0.4503 -0.3675 -0.7900
  457TMC3    C6 6859   2.472   4.610  17.371 -0.3091 -0.0502 -0.6382
  457TMC3     C 6860   2.278   4.393  17.075 -0.3648 -0.0395  0.3446
  457TMC3     O 6861   2.174   4.429  17.024  0.0574 -0.0924  0.0475
  457TMC3     H 6862   2.239   4.633  17.129 -0.0219  0.8187 -0.4978
  457TMC3    H1 6863   2.423   4.289  17.285  1.1960 -0.3479 -2.5535
  457TMC3    H2 6864   2.523   4.671  17.444  0.5356 -0.4515 -0.8916
  457TMC3    C7 6865   2.518   4.404  17.494  0.0366  0.0475  0.3060
  457TMC3    C8 6866   2.388   0.078  17.260 -0.5780 -0.5275 -0.4034
  457TMC3    O1 6867   2.531   4.282  17.489 -0.3484  0.2806 -0.4469
  457TMC3    O2 6868   2.450   0.126  17.351 -0.3495 -0.1992  0.0436
  458MPD2     C 6869   4.603   4.122  12.807  0.1210 -0.8073 -0.5443
  458MPD2    C1 6870   4.592   4.047  12.927  0.6090  0.0270 -0.5088
  458MPD2    C2 6871   4.465   4.050  12.988  0.3973 -0.8587 -0.3929
  458MPD2    C3 6872   4.356   4.112  12.938  0.3546 -0.2938 -0.8204
  458MPD2    C4 6873   4.367   4.190  12.824 -0.7741  0.2270 -1.2283
  458MPD2    C5 6874   4.484   4.190  12.765 -0.5277  0.3252 -0.4358
  458MPD2     H 6875   4.451   3.999  13.083 -0.3150  0.8741  0.4317
  458MPD2    H1 6876   4.283   4.245  12.782 -1.4360 -0.1170 -0.3523
  458MPD2    H2 6877   4.696   4.156  12.764 -0.5771  1.1049 -0.5806
  458MPD2    H3 6878   4.496   4.258  12.681  1.9200  1.3301  0.7130
  458MPD2     N 6879   4.235   4.085  13.003  0.4221  0.4609  0.0120
  458MPD2    H5 6880   4.255   4.039  13.091 -0.9568 -2.1075 -1.0215
  458MPD2    N1 6881   4.704   3.980  12.978  0.4364 -0.0085  0.2187
  458MPD2    H7 6882   0.058   3.989  12.929  1.6478  2.5343  2.8306
  459TMC3    C1 6883   0.099   3.871  13.147 -0.5070 -0.4611  0.2112
  459TMC3    C2 6884   0.219   3.918  13.108  0.2737  0.5060 -0.0662
  459TMC3    C3 6885   0.333   3.892  13.176  0.4215 -0.0230  0.2247
  459TMC3    C4 6886   0.096   3.770  13.241 -0.2925 -0.2071 -0.2091
  459TMC3    C5 6887   0.216   3.747  13.314  0.0650 -0.0980 -0.9746
  459TMC3    C6 6888   0.332   3.809  13.285 -0.5863  0.3549  0.3913
  459TMC3     C 6889   4.701   3.905  13.096 -0.1042  0.2313 -1.2727
  459TMC3     O 6890   4.607   3.876  13.170 -0.9015  0.0116 -0.6160
  459TMC3     H 6891   0.214   4.009  13.049  1.7470  0.9211  0.4502
  459TMC3    H1 6892   0.004   3.721  13.269 -0.9523  0.8704 -0.5257
  459TMC3    H2 6893   0.424   3.786  13.338 -0.2068  1.6454  0.2875
  459TMC3    C7 6894   0.210   3.645  13.421 -0.0090  0.3467 -0.1379
  459TMC3    C8 6895   0.455   3.923  13.106  0.1338 -0.2632 -0.5350
  459TMC3    O1 6896   0.126   3.559  13.405  0.1887  0.1403  0.1100
  459TMC3    O2 6897   0.555   3.906  13.172  0.5317  0.5441  0.9646
  460MPD2     C 6898   3.977   1.896  10.715  0.7443 -0.2200  0.0848
  460MPD2    C1 6899   3.861   1.833  10.732  0.0632 -0.2552  0.2042
  460MPD2    C2 6900   3.769   1.822  10.629  0.3845 -0.4367 -0.2180
  460MPD2    C3 6901   3.775   1.914  10.525 -0.3924  0.4768 -0.0533
  460MPD2    C4 6902   3.889   1.992  10.511  0.2033 -0.0489  0.5619
  460MPD2    C5 6903   3.993   1.979  10.606 -0.5322 -0.7810 -0.2708
  460MPD2     H 6904   3.681   1.759  10.634 -1.2443  1.6961 -2.1510
  460MPD2    H1 6905   3.900   2.065  10.431  0.4309 -1.9710 -1.1758
  460MPD2    H2 6906   4.053   1.894  10.792  0.5297 -0.5342  0.2894
  460MPD2    H3 6907   4.077   2.046  10.590 -0.8478 -0.4074 -0.3704
  460MPD2     N 6908   3.667   1.925  10.438 -0.5637  0.0666  0.1131
  460MPD2    H5 6909   3.594   1.856  10.455 -0.6976 -0.2886 -1.9561
  460MPD2    N1 6910   3.838   1.776  10.857 -0.0748 -0.0712 -0.0050
  460MPD2    H7 6911   3.925   1.769  10.909 -0.5121  0.9099  0.8594
  461TMC3    C1 6912   3.541   2.004  10.249  0.1339 -0.1738 -0.1383
  461TMC3    C2 6913   3.497   1.880  10.221 -0.3238  0.1582  0.0626
  461TMC3    C3 6914   3.399   1.869  10.126  0.3076  0.7816  0.0709
  461TMC3    C4 6915   3.478   2.116  10.204  0.5436 -0.5042  0.7893
  461TMC3    C5 6916   3.380   2.103  10.117  0.1537 -0.7145 -0.2884
  461TMC3    C6 6917   3.348   1.979  10.064  0.4803 -0.2801 -0.1594
  461TMC3     C 6918   3.644   2.025  10.343  0.6571  0.4936 -0.0078
  461TMC3     O 6919   3.705   2.125  10.333  0.2596  0.2972 -0.3343
  461TMC3     H 6920   3.539   1.791  10.266 -0.7997 -0.7250 -1.2362
  461TMC3    H1 6921   3.517   2.211  10.238  1.9596 -0.5833 -0.5977
  461TMC3    H2 6922   3.265   1.959   9.996  1.0419  1.5125 -1.3571
  461TMC3    C7 6923   3.307   2.232  10.089  0.2062 -0.3610 -0.7588
  461TMC3    C8 6924   3.413   1.739  10.058 -0.7859 -0.1072  0.0410
  461TMC3    O1 6925   3.314   2.315  10.180  0.0757 -0.3985 -0.0839
  461TMC3    O2 6926   3.422   1.640  10.133 -0.1533  0.4850  0.0064
  462TMC3    C1 6927   4.392   2.319  17.515  0.0933 -0.1012  0.1918
  462TMC3    C2 6928   4.439   2.199  17.456 -0.9818  0.0551  0.4470
  462TMC3    C3 6929   4.428   2.084  17.521  0.7852 -0.1554  1.2294
  462TMC3    C4 6930   4.339   2.309  17.644 -0.5474 -0.1809 -0.0137
  462TMC3    C5 6931   4.325   2.193  17.703 -1.1576  0.2365  0.3038
  462TMC3    C6 6932   4.389   2.084  17.652  0.2853  0.3005 -0.2233
  462TMC3     C 6933   4.407   2.447  17.445  0.0519  0.4652  0.3569
  462TMC3     O 6934   4.471   2.437  17.343 -0.2488  0.3499  0.6573
  462TMC3     H 6935   4.468   2.201  17.351  0.9614  2.9826  1.0343
  462TMC3    H1 6936   4.285   2.398  17.677 -0.6620  0.3250 -1.5617
  462TMC3    H2 6937   4.369   1.986  17.695 -2.5301  1.2461  0.5881
  462TMC3    C7 6938   4.229   2.173   0.067 -0.7124  0.1832 -0.0087
  462TMC3    C8 6939   4.366   1.969  17.448  0.0012 -0.0654  0.0002
  462TMC3    O1 6940   4.207   2.055   0.096  0.5621 -0.0981  0.2050
  462TMC3    O2 6941   4.250   1.940  17.481 -0.0610 -0.5253  0.2162
  463MPD2     C 6942   3.536   1.903   1.405 -0.9647 -0.2117 -0.6116
  463MPD2    C1 6943   3.630   1.802   1.403  0.5861 -0.3200 -0.0559
  463MPD2    C2 6944   3.766   1.833   1.408  0.2569  0.5530  0.1123
  463MPD2    C3 6945   3.812   1.964   1.411 -1.1714  0.7236 -0.1658
  463MPD2    C4 6946   3.717   2.064   1.416 -0.1442  0.2010 -0.4005
  463MPD2    C5 6947   3.585   2.031   1.411 -0.2784 -0.5903  1.0792
  463MPD2     H 6948   3.837   1.751   1.410 -3.1071 -2.4416 -0.5848
  463MPD2    H1 6949   3.743   2.167   1.439  0.1979  0.0773 -0.2251
  463MPD2    H2 6950   3.431   1.885   1.420 -0.5507 -1.0298  1.3348
  463MPD2    H3 6951   3.509   2.109   1.418  0.8229  0.4726  1.2702
  463MPD2     N 6952   3.944   1.997   1.414 -0.2453 -0.4055 -0.6900
  463MPD2    H5 6953   3.949   2.097   1.430  1.3042 -0.3311 -1.5911
  463MPD2    N1 6954   3.594   1.671   1.379 -0.2416 -0.5934  0.5742
  463MPD2    H7 6955   3.673   1.610   1.357  0.2954 -0.3060  1.6927
  464TMC3    C1 6956   3.445   1.482   1.348 -0.1163  0.0552 -0.8869
  464TMC3    C2 6957   3.351   1.446   1.261  0.6071 -0.0624 -0.4368
  464TMC3    C3 6958   3.330   1.315   1.238  0.8118  0.1929  0.1873
  464TMC3    C4 6959   3.518   1.396   1.424 -0.2154  0.3262  0.4345
  464TMC3    C5 6960   3.493   1.262   1.404 -0.1562 -0.2042 -0.0458
  464TMC3    C6 6961   3.400   1.226   1.313  0.6673  0.2690  0.3380
  464TMC3     C 6962   3.466   1.623   1.382 -0.6458 -0.9065 -0.3879
  464TMC3     O 6963   3.359   1.684   1.373  0.7826 -0.4668 -0.0666
  464TMC3     H 6964   3.283   1.518   1.217  0.0993  0.0846  0.6148
  464TMC3    H1 6965   3.594   1.440   1.488 -0.6708 -1.3576  2.1295
  464TMC3    H2 6966   3.371   1.122   1.308  0.2472  0.4739 -1.3366
  464TMC3    C7 6967   3.560   1.171   1.497 -0.4317 -0.0284  0.2406
  464TMC3    C8 6968   3.240   1.280   1.131  0.3536 -0.2306  0.2187
  464TMC3    O1 6969   3.610   1.224   1.594  0.3018 -0.1569  0.3993
  464TMC3    O2 6970   3.191   1.371   1.071  0.0788  0.1327 -0.0832
  465MPD2     C 6971   1.811   3.863  17.070  0.7141 -0.1125  0.2075
  465MPD2    C1 6972   1.753   3.940  17.168  0.5849  0.4370  0.0921
  465MPD2    C2 6973   1.659   4.032  17.135 -1.0123 -0.1693  0.1572
  465MPD2    C3 6974   1.612   4.047  17.011 -0.9114  0.3099  0.9111
  465MPD2    C4 6975   1.673   3.977  16.910 -0.6433  1.3279  0.4444
  465MPD2    C5 6976   1.770   3.893  16.941 -0.0903 -0.0094  0.8459
  465MPD2     H 6977   1.606   4.089  17.211  0.6501  0.8994  0.5191
  465MPD2    H1 6978   1.651   3.984  16.804 -3.5144  0.8442  1.0153
  465MPD2    H2 6979   1.885   3.790  17.099  1.8267  0.9229 -0.0249
  465MPD2    H3 6980   1.820   3.847  16.857 -2.8293 -0.8230 -0.3393
  465MPD2     N 6981   1.514   4.143  16.987  0.7833 -0.1938  0.4084
  465MPD2    H5 6982   1.476   4.200  17.062 -0.0564  0.5704 -0.5974
  465MPD2    N1 6983   1.788   3.917  17.305  0.1059  0.2491 -0.5404
  465MPD2    H7 6984   1.757   3.984  17.375 -2.3702 -0.3507 -1.0636
  466TMC3    C1 6985   1.145   4.313  16.986  0.0786  0.8590  0.0419
  466TMC3    C2 6986   1.102   4.395  16.874 -0.4985  0.0032  0.8659
  466TMC3    C3 6987   1.194   4.400  16.773  0.0876 -0.3037  0.4373
  466TMC3    C4 6988   1.262   4.248  16.993 -0.1339  0.0294  0.4256
  466TMC3    C5 6989   1.348   4.252  16.885  0.5092 -0.3147 -0.4290
  466TMC3    C6 6990   1.314   4.327  16.783  0.0123 -0.2126 -0.3242
  466TMC3     C 6991   1.045   4.300  17.093  0.1325 -0.1692  0.9076
  466TMC3     O 6992   1.078   4.248  17.194  0.0311 -0.3030 -0.4375
  466TMC3     H 6993   1.013   4.457  16.874 -0.9797 -0.6906 -0.9282
  466TMC3    H1 6994   1.299   4.181  17.070 -1.1112 -1.7576 -0.6730
  466TMC3    H2 6995   1.383   4.326  16.700  0.8438  0.3295  0.3677
  466TMC3    C7 6996   1.461   4.166  16.868  0.8611 -0.4670 -0.4803
  466TMC3    C8 6997   1.177   4.492  16.661 -0.4331 -0.7461  0.0929
  466TMC3    O1 6998   1.507   4.156  16.756 -0.0941 -0.3716 -0.0482
  466TMC3    O2 6999   1.251   4.475  16.563  0.2409  0.0138 -0.2512
  467TMC3    C1 7000   2.284   2.804  13.767 -0.1591  0.0570 -0.4302
  467TMC3    C2 7001   2.397   2.824  13.689  0.8233 -0.6225 -0.6525
  467TMC3    C3 7002   2.383   2.902  13.579 -0.2443 -0.5718  0.7589
  467TMC3    C4 7003   2.162   2.864  13.737  0.2821  0.1946 -0.7224
  467TMC3    C5 7004   2.149   2.941  13.622 -0.7967 -0.6673  0.2953
  467TMC3    C6 7005   2.257   2.945  13.537 -0.3475  0.2262  0.0268
  467TMC3     C 7006   2.324   2.798  13.906  0.3719 -0.7581 -0.3421
  467TMC3     O 7007   2.330   2.898  13.973 -0.4609 -0.7962 -0.0065
  467TMC3     H 7008   2.490   2.802  13.741  0.2636 -1.2143  0.1209
  467TMC3    H1 7009   2.087   2.861  13.815  1.2244 -0.1595  0.1661
  467TMC3    H2 7010   2.252   3.001  13.445  1.5353  0.9399  0.3563
  467TMC3    C7 7011   2.015   2.952  13.556 -0.0521 -0.1938  0.4285
  467TMC3    C8 7012   2.492   3.000  13.569  0.2321  0.0600 -0.1441
  467TMC3    O1 7013   2.022   2.936  13.434  0.1723 -0.3214 -0.1953
  467TMC3    O2 7014   2.463   3.115  13.536 -0.5269  0.2785  0.7256
  468MPD2     C 7015   0.755   1.627  11.190  0.8945  0.3382  0.2555
  468MPD2    C1 7016   0.888   1.601  11.198 -0.2623  0.6441  0.2382
  468MPD2    C2 7017   0.931   1.483  11.252 -0.0064  0.3522  0.7633
  468MPD2    C3 7018   0.833   1.390  11.307 -0.1828 -0.7778  0.0902
  468MPD2    C4 7019   0.700   1.428  11.316 -0.2221 -0.1396  0.6713
  468MPD2    C5 7020   0.665   1.543  11.250 -0.4913  0.3514 -0.0276
  468MPD2     H 7021   1.034   1.449  11.246  0.1145  0.5893  1.4136
  468MPD2    H1 7022   0.624   1.360  11.351 -2.0537  2.7496  2.3260
  468MPD2    H2 7023   0.716   1.720  11.148 -0.0016  1.0291  2.5799
  468MPD2    H3 7024   0.560   1.568  11.243 -0.8751 -0.6698  2.1669
  468MPD2     N 7025   0.872   1.264  11.372 -0.5751 -0.2229 -0.0215
  468MPD2    H5 7026   0.794   1.205  11.399 -1.0159 -0.2199 -1.2954
  468MPD2    N1 7027   0.986   1.680  11.133  0.4699 -0.4969 -0.2992
  468MPD2    H7 7028   1.080   1.645  11.146  1.5842  2.0844 -1.5412
  469TMC3    C1 7029   1.096   1.874  11.043 -0.6685  0.5626 -0.7107
  469TMC3    C2 7030   1.197   1.787  11.060  0.2440  0.2312 -0.5755
  469TMC3    C3 7031   1.297   1.815  11.147 -0.0909 -0.2443  0.1558
  469TMC3    C4 7032   1.098   1.996  11.094 -0.3093  0.4609 -0.9323
  469TMC3    C5 7033   1.200   2.022  11.191  1.3091  0.0278 -0.1496
  469TMC3    C6 7034   1.291   1.927  11.225 -0.1989 -0.2170  0.5592
  469TMC3     C 7035   0.969   1.808  11.084 -0.1594 -0.2834 -0.6093
  469TMC3     O 7036   0.866   1.873  11.071 -0.2871 -0.3326  0.2476
  469TMC3     H 7037   1.201   1.697  11.001 -0.1405 -0.3849  0.3304
  469TMC3    H1 7038   1.014   2.065  11.090  0.3813  1.3446 -0.1806
  469TMC3    H2 7039   1.356   1.937  11.311 -0.7382 -0.4813  1.0043
  469TMC3    C7 7040   1.210   2.158  11.251  0.1830 -0.0109  0.2414
  469TMC3    C8 7041   1.345   1.692  11.210  0.4992  0.6112 -1.1645
  469TMC3    O1 7042   1.113   2.224  11.241 -0.4623  0.5313  0.4092
  469TMC3    O2 7043   1.264   1.603  11.213 -0.4399  0.0340  0.6396
  470TMC3    C1 7044   3.288   2.407   0.872 -0.0582 -0.2503  0.2164
  470TMC3    C2 7045   3.404   2.453   0.926  0.1989  0.1016  0.1779
  470TMC3    C3 7046   3.392   2.540   1.041  0.4650  0.3544 -0.2098
  470TMC3    C4 7047   3.164   2.447   0.923  0.3078 -0.4814 -0.7912
  470TMC3    C5 7048   3.156   2.520   1.038 -0.7143  0.5516 -0.2885
  470TMC3    C6 7049   3.266   2.577   1.094  0.5267  0.2379 -0.5875
  470TMC3     C 7050   3.285   2.334   0.748  0.1211 -0.1462  0.2732
  470TMC3     O 7051   3.184   2.266   0.720 -0.1088 -0.0687 -0.5247
  470TMC3     H 7052   3.493   2.402   0.890  2.8807  3.4589  2.0818
  470TMC3    H1 7053   3.075   2.399   0.883 -0.1528 -0.0116 -0.3233
  470TMC3    H2 7054   3.273   2.637   1.185  0.0548  0.3458 -0.6249
  470TMC3    C7 7055   3.020   2.539   1.092  0.0228  0.7955  0.4712
  470TMC3    C8 7056   3.500   2.616   1.084 -0.1025 -0.2288 -0.3018
  470TMC3    O1 7057   2.930   2.464   1.049 -0.3300 -0.4492  0.3155
  470TMC3    O2 7058   3.486   2.674   1.192 -0.2280 -0.1195  0.5223
  471MPD2     C 7059   3.956   3.489  16.985 -0.0946  0.5612 -0.1391
  471MPD2    C1 7060   3.996   3.380  16.914 -0.7963 -0.0442  0.0543
  471MPD2    C2 7061   4.067   3.290  16.980  0.1744  0.1444  0.0521
  471MPD2    C3 7062   4.092   3.299  17.117 -0.0021 -0.1359  0.1722
  471MPD2    C4 7063   4.048   3.410  17.184  0.8226 -0.2003 -0.4462
  471MPD2    C5 7064   3.998   3.515  17.116 -0.1426  0.1991  0.5911
  471MPD2     H 7065   4.096   3.200  16.927  1.2982  1.0469 -0.8653
  471MPD2    H1 7066   4.082   3.428  17.285 -1.4629  1.1006  0.0944
  471MPD2    H2 7067   3.897   3.563  16.933  1.7885  1.8942 -0.3957
  471MPD2    H3 7068   3.955   3.600  17.169  2.2277  1.4827  0.4766
  471MPD2     N 7069   4.165   3.204  17.193  0.1700 -0.1001 -0.1711
  471MPD2    H5 7070   4.174   3.221  17.293 -2.0033  0.0919  0.0060
  471MPD2    N1 7071   3.960   3.347  16.780 -0.6183  0.1001 -0.1320
  471MPD2    H7 7072   3.998   3.259  16.745  1.0630  1.6888 -2.2864
  472TMC3    C1 7073   3.847   3.361  16.564  0.3512  0.4742  0.2450
  472TMC3    C2 7074   3.736   3.412  16.498 -0.3557  0.9528  0.0937
  472TMC3    C3 7075   3.697   3.347  16.385 -0.0119  0.3368 -0.1387
  472TMC3    C4 7076   3.929   3.263  16.519 -0.3148 -0.2379 -0.6329
  472TMC3    C5 7077   3.882   3.197  16.406 -0.0400 -0.0037 -0.3456
  472TMC3    C6 7078   3.770   3.235  16.341  0.4046  0.3377  0.1435
  472TMC3     C 7079   3.873   3.417  16.698  0.4340 -0.1300  0.2006
  472TMC3     O 7080   3.800   3.511  16.725  0.2028  0.3439 -0.0571
  472TMC3     H 7081   3.667   3.487  16.536 -0.1386  1.1995  0.0018
  472TMC3    H1 7082   4.024   3.230  16.559 -0.3789  1.8380  1.1799
  472TMC3    H2 7083   3.725   3.170  16.266  0.2072  1.4719 -0.7275
  472TMC3    C7 7084   3.899   3.058  16.424 -0.1644 -0.3127  0.4714
  472TMC3    C8 7085   3.549   3.334  16.358  0.3841 -0.8866 -0.1439
  472TMC3    O1 7086   3.932   3.021  16.537 -0.9099  0.1087 -0.4287
  472TMC3    O2 7087   3.513   3.350  16.245  0.3144  0.4641 -0.4126
  473MPD2     C 7088   3.499   0.207  13.934 -0.0031  0.1285 -0.3385
  473MPD2    C1 7089   3.446   0.330  13.916  0.2490  0.2813 -0.1400
  473MPD2    C2 7090   3.518   0.449  13.946 -0.4486  0.0436  0.2555
  473MPD2    C3 7091   3.648   0.436  13.989 -0.2593 -0.0687 -0.2377
  473MPD2    C4 7092   3.696   0.311  14.000  0.0228  0.3086 -0.4335
  473MPD2    C5 7093   3.628   0.197  13.977  0.7626  0.4392  0.0914
  473MPD2     H 7094   3.461   0.541  13.942 -0.5302 -0.0140  0.0781
  473MPD2    H1 7095   3.791   0.303  14.052  1.2750 -0.9335 -2.9344
  473MPD2    H2 7096   3.442   0.120  13.906  0.9602 -0.1201 -1.5076
  473MPD2    H3 7097   3.674   0.101  13.997  1.2436  0.3206 -1.6270
  473MPD2     N 7098   3.729   0.538  14.037  0.0924  0.0419 -0.5561
  473MPD2    H5 7099   3.819   0.509  14.074  0.3005 -0.3852 -1.3901
  473MPD2    N1 7100   3.319   0.344  13.844  0.2100  0.1285 -0.1835
  473MPD2    H7 7101   3.292   0.438  13.818  1.2880  0.1585 -1.1839
  474TMC3    C1 7102   3.774   0.764  14.112 -0.5921 -0.4635 -0.2584
  474TMC3    C2 7103   3.734   0.897  14.096  0.0950 -0.4278  0.0221
  474TMC3    C3 7104   3.780   0.982  14.188  0.1567 -0.1230 -0.0256
  474TMC3    C4 7105   3.854   0.721  14.220  0.0666 -0.2642  0.0283
  474TMC3    C5 7106   3.911   0.821  14.298  0.2611  0.7131  0.0092
  474TMC3    C6 7107   3.883   0.956  14.273 -0.1800 -0.1947 -0.2677
  474TMC3     C 7108   3.686   0.666  14.045  0.6474 -0.7645 -0.2425
  474TMC3     O 7109   3.574   0.710  14.018 -0.4050 -0.2780 -0.0671
  474TMC3     H 7110   3.661   0.911  14.018 -0.3920  1.5417  0.8326
  474TMC3    H1 7111   3.870   0.616  14.238  1.0871 -0.2839 -0.9580
  474TMC3    H2 7112   3.920   1.037  14.336 -2.5491  1.3915 -0.9194
  474TMC3    C7 7113   4.020   0.775  14.382  0.7717 -0.3846 -0.3687
  474TMC3    C8 7114   3.726   1.116  14.169  0.8937  1.2712 -0.2204
  474TMC3    O1 7115   4.025   0.658  14.390 -0.0277 -0.1895 -0.0262
  474TMC3    O2 7116   3.631   1.126  14.091  0.0489  0.4351 -0.0155
  475MPD2     C 7117   1.660   3.768  10.683  0.3567  0.2430  0.0149
  475MPD2    C1 7118   1.739   3.864  10.743  0.4339 -0.0022 -0.3214
  475MPD2    C2 7119   1.687   3.929  10.855 -0.1762 -0.6822 -0.0326
  475MPD2    C3 7120   1.558   3.899  10.908 -0.1469 -0.1956  0.2058
  475MPD2    C4 7121   1.476   3.801  10.849 -0.1380 -0.1538 -0.6214
  475MPD2    C5 7122   1.534   3.743  10.734 -0.5473  0.1374  0.7376
  475MPD2     H 7123   1.744   4.000  10.914 -0.3039 -0.1815 -0.5147
  475MPD2    H1 7124   1.376   3.785  10.886 -0.2057  0.5729 -0.5021
  475MPD2    H2 7125   1.678   3.736  10.581 -0.4637 -0.5569  0.1223
  475MPD2    H3 7126   1.488   3.661  10.679  2.5978 -0.7092 -0.6089
  475MPD2     N 7127   1.508   3.981  11.011  0.3343 -0.4549 -0.1276
  475MPD2    H5 7128   1.562   4.065  11.026 -1.9147  1.0448 -0.5427
  475MPD2    N1 7129   1.867   3.889  10.691 -0.1279  0.0368 -0.3959
  475MPD2    H7 7130   1.906   3.812  10.638 -1.8991 -0.3371 -1.1434
  476TMC3    C1 7131   1.894   4.121  10.742  0.8171 -1.3337  0.3107
  476TMC3    C2 7132   1.831   4.174  10.634 -0.2550 -0.9355  0.2033
  476TMC3    C3 7133   1.769   4.296  10.651 -0.1467  0.1030 -0.3650
  476TMC3    C4 7134   1.908   4.189  10.861  0.2609  0.2137  0.3219
  476TMC3    C5 7135   1.851   4.314  10.873 -0.0079  0.1331 -0.0059
  476TMC3    C6 7136   1.774   4.372  10.772 -0.3202 -0.4460  0.9741
  476TMC3     C 7137   1.956   3.989  10.730  0.1369 -1.2573 -0.0778
  476TMC3     O 7138   2.071   4.004  10.697  0.5452 -0.5292 -0.2084
  476TMC3     H 7139   1.845   4.125  10.539 -2.3343  1.3737 -1.2941
  476TMC3    H1 7140   1.956   4.150  10.950  0.0477  2.5831  1.4986
  476TMC3    H2 7141   1.729   4.470  10.781 -0.7894 -0.5119 -0.6143
  476TMC3    C7 7142   1.810   4.336  11.012 -0.2315  0.6088  0.0591
  476TMC3    C8 7143   1.709   4.365  10.533 -0.0013  0.9971 -0.1761
  476TMC3    O1 7144   1.741   4.246  11.059 -0.0350  0.2126 -0.3847
  476TMC3    O2 7145   1.678   4.486  10.541 -0.0704 -0.0557  0.0070
  477MPD2     C 7146   4.214   0.987  11.833 -0.4738 -0.2159 -0.4432
  477MPD2    C1 7147   4.120   0.902  11.784 -0.3346  0.2555 -0.0422
  477MPD2    C2 7148   4.103   0.772  11.838  0.3244 -0.3357 -0.4589
  477MPD2    C3 7149   4.181   0.727  11.941 -0.1740 -0.5199  0.1898
  477MPD2    C4 7150   4.278   0.814  11.988  0.1352  1.0519  0.5999
  477MPD2    C5 7151   4.293   0.941  11.931 -0.5702  0.2458  0.0672
  477MPD2     H 7152   4.029   0.710  11.791 -0.2700 -1.3477  1.8292
  477MPD2    H1 7153   4.343   0.788  12.071  1.0581  0.3917 -0.3189
  477MPD2    H2 7154   4.227   1.090  11.801  0.3899 -0.8247 -2.0296
  477MPD2    H3 7155   4.373   0.999  11.975 -2.9541  0.8922  3.5138
  477MPD2     N 7156   4.144   0.606  12.004  0.5357  0.6974  0.7496
  477MPD2    H5 7157   4.087   0.540  11.953 -2.7206  2.7769  1.6755
  477MPD2    N1 7158   4.031   0.950  11.684 -0.7332 -0.5328  0.3468
  477MPD2    H7 7159   4.026   1.051  11.672  2.2292 -0.5387 -0.9368
  478TMC3    C1 7160   3.843   0.944  11.550  1.1058  0.1254  0.1301
  478TMC3    C2 7161   3.798   1.055  11.616  0.5266 -0.4618 -0.5268
  478TMC3    C3 7162   3.674   1.100  11.587  0.1890 -0.0609  0.3662
  478TMC3    C4 7163   3.758   0.876  11.468 -0.7200 -0.5674 -0.0763
  478TMC3    C5 7164   3.639   0.933  11.438  0.3575  0.1093 -0.1929
  478TMC3    C6 7165   3.598   1.049  11.491  0.2527  0.4946  0.0377
  478TMC3     C 7166   3.955   0.881  11.598  0.9201 -0.2555  0.4023
  478TMC3     O 7167   3.967   0.763  11.577  0.7129 -0.5839  0.1975
  478TMC3     H 7168   3.836   1.101  11.707 -1.5053 -2.1142  1.1762
  478TMC3    H1 7169   3.799   0.794  11.409  1.0997 -0.5306  1.1305
  478TMC3    H2 7170   3.495   1.081  11.478 -0.7585 -3.5311 -1.6138
  478TMC3    C7 7171   3.581   0.888  11.311  0.4809  0.5411  0.1927
  478TMC3    C8 7172   3.603   1.166  11.695  0.1708  0.4086 -0.4873
  478TMC3    O1 7173   3.588   0.771  11.288  0.0511 -0.5274 -0.3705
  478TMC3    O2 7174   3.496   1.116  11.728  0.0628  0.6147 -0.3398
  479MPD2     C 7175   3.714   2.725  15.018  0.1925 -0.6624 -0.8992
  479MPD2    C1 7176   3.695   2.729  15.156  0.5534  0.2524 -0.1661
  479MPD2    C2 7177   3.801   2.751  15.239 -0.3551 -0.0467  0.7150
  479MPD2    C3 7178   3.918   2.806  15.194 -0.1998  0.3532  0.1613
  479MPD2    C4 7179   3.936   2.812  15.057  0.0978  0.0968  0.4144
  479MPD2    C5 7180   3.833   2.775  14.969  0.2004 -0.5446  0.0417
  479MPD2     H 7181   3.790   2.733  15.346  0.3118 -0.4863  0.7089
  479MPD2    H1 7182   4.030   2.843  15.014 -0.5568  1.4327 -0.0555
  479MPD2    H2 7183   3.633   2.697  14.952 -0.5950  2.3436 -1.2112
  479MPD2    H3 7184   3.856   2.782  14.864 -1.9784  2.0441 -0.2692
  479MPD2     N 7185   4.025   2.855  15.276 -0.2112  0.2076  0.1508
  479MPD2    H5 7186   4.114   2.867  15.229 -0.2687  1.3199  0.3255
  479MPD2    N1 7187   3.563   2.708  15.199  0.9693 -0.1572 -0.4094
  479MPD2    H7 7188   3.489   2.694  15.131  0.7366  2.5557 -0.7301
  480TMC3    C1 7189   3.766   2.901  15.681 -0.9000 -0.4709 -0.7800
  480TMC3    C2 7190   3.681   2.990  15.627 -0.2794 -0.3529 -1.1250
  480TMC3    C3 7191   3.693   3.034  15.500 -0.0359  0.7551 -0.0470
  480TMC3    C4 7192   3.876   2.869  15.611  0.0605  0.1056 -0.7035
  480TMC3    C5 7193   3.896   2.909  15.485 -0.5873  1.1127  0.1309
  480TMC3    C6 7194   3.809   2.996  15.429  0.4892  0.1426 -0.6574
  480TMC3     C 7195   3.741   2.831  15.806  0.4099 -2.1173 -0.0364
  480TMC3     O 7196   3.802   2.730  15.824 -0.5615 -0.6607 -0.1902
  480TMC3     H 7197   3.595   3.018  15.687 -0.4866 -4.0470  0.3063
  480TMC3    H1 7198   3.942   2.798  15.660  0.1855  0.3692 -0.4958
  480TMC3    H2 7199   3.817   3.011  15.322  1.8717  0.0767 -0.5583
  480TMC3    C7 7200   4.017   2.872  15.416 -0.4333 -0.4013 -0.6335
  480TMC3    C8 7201   3.568   3.033  15.428  0.0871 -0.6748  0.0889
  480TMC3    O1 7202   4.109   2.873  15.497 -0.6371 -0.2047  0.1730
  480TMC3    O2 7203   3.470   3.021  15.495  0.4340 -0.1503 -0.2025
  481MPD2     C 7204   0.432   2.248  13.665 -0.0326  0.5080 -0.4021
  481MPD2    C1 7205   0.421   2.107  13.681 -0.0606 -0.2807 -0.7147
  481MPD2    C2 7206   0.437   2.062  13.816  0.5450  0.0578 -0.1319
  481MPD2    C3 7207   0.457   2.152  13.921  0.4489  0.3579 -0.1395
  481MPD2    C4 7208   0.483   2.284  13.900  0.4699 -0.3544  0.5452
  481MPD2    C5 7209   0.472   2.327  13.772  0.1106  0.3908 -0.6977
  481MPD2     H 7210   0.417   1.960  13.846  2.8162 -0.5046 -0.5065
  481MPD2    H1 7211   0.489   2.355  13.982 -2.0978  0.9324 -0.3919
  481MPD2    H2 7212   0.403   2.300  13.574  0.4212  1.3045 -0.0957
  481MPD2    H3 7213   0.489   2.433  13.755  0.7539  0.6053  1.2865
  481MPD2     N 7214   0.460   2.105  14.059  1.2577 -0.0958 -0.2796
  481MPD2    H5 7215   0.492   2.172  14.128  0.6635 -0.0842 -0.0207
  481MPD2    N1 7216   0.355   2.029  13.586  0.1135 -0.2011  0.0937
  481MPD2    H7 7217   0.301   2.080  13.516  0.9722  2.5061  1.4287
  482TMC3    C1 7218   0.226   1.836  13.515 -0.3382  0.6384 -0.1110
  482TMC3    C2 7219   0.137   1.750  13.571  0.2417  0.3703 -0.5910
  482TMC3    C3 7220   0.045   1.697  13.487 -0.6016  0.0379  0.0901
  482TMC3    C4 7221   0.215   1.884  13.388 -0.5646 -0.4240 -0.3154
  482TMC3    C5 7222   0.122   1.825  13.313 -0.1211 -0.0234 -0.0327
  482TMC3    C6 7223   0.033   1.730  13.357 -0.3155  0.0360 -0.1955
  482TMC3     C 7224   0.335   1.889  13.599 -0.0291  0.2971 -0.0284
  482TMC3     O 7225   0.370   1.813  13.690  0.8690 -0.3020  0.3060
  482TMC3     H 7226   0.147   1.712  13.672 -1.8600  3.4192  0.7568
  482TMC3    H1 7227   0.291   1.943  13.338 -0.4391 -0.3998 -0.0938
  482TMC3    H2 7228   4.693   1.696  13.286  0.8336 -2.9617  0.0564
  482TMC3    C7 7229   0.103   1.869  13.183  0.2133 -0.3557 -0.1088
  482TMC3    C8 7230   4.690   1.596  13.537 -0.2991 -0.6248  0.5100
  482TMC3    O1 7231   0.069   1.786  13.097  0.3079  0.1330 -0.0527
  482TMC3    O2 7232   4.665   1.506  13.460 -0.5640  0.2060  0.3623
  483TMC3    C1 7233   2.693   1.229   0.936 -0.3754  0.4736 -0.1597
  483TMC3    C2 7234   2.751   1.318   0.855 -0.3321 -0.3764  0.3815
  483TMC3    C3 7235   2.823   1.419   0.912  0.1129  0.2025 -0.1059
  483TMC3    C4 7236   2.703   1.233   1.074 -0.2745  0.0224 -0.3261
  483TMC3    C5 7237   2.795   1.319   1.122 -0.6663  0.6410 -0.1759
  483TMC3    C6 7238   2.852   1.419   1.051 -0.7207 -0.7312  0.7310
  483TMC3     C 7239   2.663   1.104   0.876 -0.2778 -0.7060 -0.5357
  483TMC3     O 7240   2.605   1.099   0.768  0.5892 -0.3742  0.4252
  483TMC3     H 7241   2.759   1.304   0.747 -1.8420 -1.3344  0.3988
  483TMC3    H1 7242   2.645   1.173   1.143 -2.7759 -0.2767 -2.6893
  483TMC3    H2 7243   2.932   1.481   1.089  0.1940 -1.4160 -0.0815
  483TMC3    C7 7244   2.873   1.243   1.221 -0.4890  0.1557  0.9460
  483TMC3    C8 7245   2.919   1.479   0.834  0.4510  1.2166  0.1526
  483TMC3    O1 7246   2.854   1.120   1.230 -0.1091  0.2968  0.2349
  483TMC3    O2 7247   2.970   1.415   0.748 -0.3099 -0.2604 -0.7019
  484MPD2     C 7248   0.533   4.043  12.771  0.4087  0.0976 -0.1578
  484MPD2    C1 7249   0.554   4.019  12.903 -0.2054 -0.5063  0.0485
  484MPD2    C2 7250   0.689   4.017  12.943 -0.4097  0.3486  0.5355
  484MPD2    C3 7251   0.789   4.037  12.855  0.4964 -0.1927  0.1331
  484MPD2    C4 7252   0.762   4.077  12.721  0.5777  0.8576 -0.6157
  484MPD2    C5 7253   0.630   4.075  12.680 -0.9633 -0.1140  1.1291
  484MPD2     H 7254   0.716   3.992  13.045 -1.9659  0.2131  0.9053
  484MPD2    H1 7255   0.838   4.096  12.646  0.2280 -0.6964 -1.3607
  484MPD2    H2 7256   0.443   4.012  12.718 -0.2181  0.5492  0.6469
  484MPD2    H3 7257   0.608   4.100  12.577 -1.7199 -4.0483  0.3056
  484MPD2     N 7258   0.924   4.055  12.886 -0.0576 -0.3865  0.0714
  484MPD2    H5 7259   0.975   4.100  12.811 -0.8085 -0.1175 -0.2838
  484MPD2    N1 7260   0.445   3.979  12.980 -0.8153  0.0052  0.1892
  484MPD2    H7 7261   0.352   3.979  12.942 -1.4616  0.5385  1.7729
  485TMC3    C1 7262   1.125   4.028  13.001  0.0388 -1.2014 -0.9259
  485TMC3    C2 7263   1.221   3.930  13.021  0.6709  0.6374  0.0019
  485TMC3    C3 7264   1.355   3.968  13.013  0.0075  0.0015 -0.4396
  485TMC3    C4 7265   1.158   4.161  12.978  0.2913  0.3202  0.1535
  485TMC3    C5 7266   1.291   4.196  12.983  0.2110 -0.4756  0.5127
  485TMC3    C6 7267   1.390   4.100  13.019  0.1623  0.8994 -0.0603
  485TMC3     C 7268   0.990   3.982  12.974  0.0660 -0.0010 -0.5165
  485TMC3     O 7269   0.956   3.880  13.029  0.1074  0.2366 -0.1338
  485TMC3     H 7270   1.191   3.826  13.012  0.1936  0.9005 -1.4277
  485TMC3    H1 7271   1.083   4.237  12.962  0.7505  0.4910 -1.2015
  485TMC3    H2 7272   1.493   4.133  13.028  0.1246  0.4643  1.9077
  485TMC3    C7 7273   1.318   4.265  12.854 -0.3073 -0.0236  0.1479
  485TMC3    C8 7274   1.448   3.890  12.934  0.0514  0.2170  0.1813
  485TMC3    O1 7275   1.236   4.339  12.808  0.1040  0.4734 -0.7706
  485TMC3    O2 7276   1.535   3.952  12.874 -0.3402 -0.1904  0.1805
  486MPD2     C 7277   3.011   2.646  12.795  0.5435  0.4448 -0.1517
  486MPD2    C1 7278   2.937   2.613  12.683  0.1185  0.1459  0.1511
  486MPD2    C2 7279   2.841   2.700  12.625 -0.3749  0.6708  0.4160
  486MPD2    C3 7280   2.809   2.817  12.690  0.2546 -0.3008 -0.6696
  486MPD2    C4 7281   2.864   2.841  12.807  0.0331 -0.8911  0.0643
  486MPD2    C5 7282   2.962   2.762  12.862  0.1348 -0.4505  0.0134
  486MPD2     H 7283   2.794   2.688  12.528 -1.0278 -0.0424  0.8221
  486MPD2    H1 7284   2.851   2.936  12.858 -0.5664  0.6190 -2.9200
  486MPD2    H2 7285   3.093   2.584  12.829 -0.9354 -1.7080 -0.5121
  486MPD2    H3 7286   3.010   2.789  12.955  1.7017 -0.3462 -0.8335
  486MPD2     N 7287   2.709   2.898  12.630  0.2265  0.1135  0.6277
  486MPD2    H5 7288   2.672   2.868  12.541  1.5482  0.4173 -0.0196
  486MPD2    N1 7289   2.984   2.489  12.624  0.6520  0.6773 -0.4261
  486MPD2    H7 7290   3.036   2.422  12.680  0.9602  1.7733  0.6126
  487TMC3    C1 7291   2.983   2.298  12.501 -0.5658 -0.9425 -0.0833
  487TMC3    C2 7292   2.875   2.219  12.513 -1.1232 -0.5047  0.5440
  487TMC3    C3 7293   2.892   2.106  12.584 -0.1545 -0.7115  0.8834
  487TMC3    C4 7294   3.095   2.272  12.568 -0.2264  0.6204 -0.0351
  487TMC3    C5 7295   3.112   2.147  12.628 -0.1348  0.3805 -0.0210
  487TMC3    C6 7296   3.017   2.060  12.621 -0.3237 -0.4882 -0.8299
  487TMC3     C 7297   2.937   2.437  12.505 -0.4550 -0.0196  0.1049
  487TMC3     O 7298   2.845   2.482  12.438 -0.2971 -0.3551  0.1823
  487TMC3     H 7299   2.786   2.244  12.456 -1.5503  1.4307  2.0785
  487TMC3    H1 7300   3.179   2.341  12.569  1.0778 -0.9623 -0.9848
  487TMC3    H2 7301   3.026   1.971  12.683 -1.1442  0.8897  1.2701
  487TMC3    C7 7302   3.195   2.143  12.749 -0.2556  0.0305  0.0566
  487TMC3    C8 7303   2.781   2.056  12.665  0.2563 -0.0688 -0.4806
  487TMC3    O1 7304   3.224   2.257  12.790  0.5450  0.3731 -0.0645
  487TMC3    O2 7305   2.820   1.975  12.749  0.1365 -0.3370  0.2935
  488MPD2     C 7306   3.304   4.367  16.722  0.3095  0.4111 -0.5200
  488MPD2    C1 7307   3.322   4.503  16.740  0.8405  0.0236 -0.1679
  488MPD2    C2 7308   3.316   4.549  16.868  0.1151 -0.3061 -0.7086
  488MPD2    C3 7309   3.286   4.466  16.975  0.6126 -0.3120  0.6586
  488MPD2    C4 7310   3.267   4.330  16.959  0.3732  0.1624  0.4373
  488MPD2    C5 7311   3.276   4.287  16.832  0.1740 -0.0225 -0.0829
  488MPD2     H 7312   3.327   4.656  16.878 -1.6866 -0.0773 -1.0591
  488MPD2    H1 7313   3.255   4.262  17.043  0.5456 -2.3382 -1.5628
  488MPD2    H2 7314   3.310   4.319  16.625 -0.8145 -1.5980  0.3938
  488MPD2    H3 7315   3.264   4.181  16.814 -2.5618 -0.0595  2.0420
  488MPD2     N 7316   3.291   4.518  17.112  0.1030  0.2470 -0.2031
  488MPD2    H5 7317   3.301   4.619  17.111  1.1651  0.1410 -0.1265
  488MPD2    N1 7318   3.353   4.599  16.639  0.1576 -0.5155 -0.2008
  488MPD2    H7 7319   3.381   4.694  16.661  0.3136 -0.7193  0.4829
  489TMC3    C1 7320   3.270   4.556  17.348  0.0289  0.0520 -0.9243
  489TMC3    C2 7321   3.358   4.665  17.335 -0.0259 -0.7064  0.0847
  489TMC3    C3 7322   3.339   0.030  17.429  0.6427 -0.1464  0.1596
  489TMC3    C4 7323   3.186   4.544  17.455 -0.4625  0.8166  0.3048
  489TMC3    C5 7324   3.162   4.650  17.536  0.0725  0.2767  0.3660
  489TMC3    C6 7325   3.236   0.025  17.522  0.2283  0.1001  0.3678
  489TMC3     C 7326   3.262   4.462  17.233 -0.4638  0.4816 -0.2942
  489TMC3     O 7327   3.199   4.359  17.253  0.3253  0.2061  0.0134
  489TMC3     H 7328   3.428   4.679  17.253  0.3351 -0.4969  0.4278
  489TMC3    H1 7329   3.115   4.463  17.442  0.3960  0.0602  0.3292
  489TMC3    H2 7330   3.228   0.102  17.597 -0.1743 -0.5188  0.9596
  489TMC3    C7 7331   3.114   4.628  17.666  0.6016 -0.1881  0.2023
  489TMC3    C8 7332   3.385   0.162  17.386  0.3133 -0.0060 -0.2209
  489TMC3    O1 7333   3.070   4.723  17.728 -0.0363  0.2573  0.2201
  489TMC3    O2 7334   3.488   0.161  17.322 -0.1964  0.2873 -0.0052
  490MPD2     C 7335   4.014   4.326  17.417  0.7369  0.2091 -0.0465
  490MPD2    C1 7336   4.016   4.264  17.542 -0.3053  0.2887 -0.7108
  490MPD2    C2 7337   4.113   4.286  17.629  0.0105  0.0312 -0.1957
  490MPD2    C3 7338   4.223   4.362  17.588  0.1273  0.2622 -1.0758
  490MPD2    C4 7339   4.227   4.421  17.466  0.0020 -0.3916  0.0175
  490MPD2    C5 7340   4.118   4.410  17.385  0.0187  0.3586 -0.7003
  490MPD2     H 7341   4.119   4.240  17.727  1.7310 -3.2388 -1.8232
  490MPD2    H1 7342   4.317   4.470  17.428  1.6162 -3.2146  0.2016
  490MPD2    H2 7343   3.939   4.318  17.339 -1.0698  0.1793  1.6927
  490MPD2    H3 7344   4.122   4.460  17.289 -0.2270  2.4702  0.4078
  490MPD2     N 7345   4.347   4.369  17.663  0.0547  0.0232  0.1237
  490MPD2    H5 7346   4.419   4.420  17.613 -0.9198  1.8381  0.5978
  490MPD2    N1 7347   3.919   4.167  17.578 -0.3349 -0.0073 -0.1030
  490MPD2    H7 7348   3.932   4.112  17.663  0.7924 -2.1173 -1.6517
  491TMC3    C1 7349   3.750   4.019  17.568 -0.2940 -0.3728 -0.2652
  491TMC3    C2 7350   3.815   3.942  17.658 -0.0276 -0.0798  0.0372
  491TMC3    C3 7351   3.744   3.852  17.725 -0.5312 -0.1472  0.6560
  491TMC3    C4 7352   3.624   3.988  17.527  0.3837 -0.7123 -0.2454
  491TMC3    C5 7353   3.558   3.888  17.591 -0.3773  0.2685 -0.4322
  491TMC3    C6 7354   3.622   3.814  17.691 -0.5198  0.2886  0.1454
  491TMC3     C 7355   3.811   4.128  17.500  0.5989  0.8741  0.1810
  491TMC3     O 7356   3.766   4.178  17.399 -0.2090 -0.2214  0.6987
  491TMC3     H 7357   3.919   3.948  17.687  0.1261 -1.1532 -0.2650
  491TMC3    H1 7358   3.576   4.033  17.441  1.1932  0.0962 -0.2738
  491TMC3    H2 7359   3.582   3.717  17.718 -1.8820  0.9899  0.6492
  491TMC3    C7 7360   3.452   3.825  17.516 -0.3922  0.1175  0.6692
  491TMC3    C8 7361   3.815   3.753   0.063 -0.2295  0.7155  0.3377
  491TMC3    O1 7362   3.467   3.703  17.497  0.0922  0.0412  0.1710
  491TMC3    O2 7363   3.754   3.700   0.157 -0.0480 -0.1204  0.5106
  492MPD2     C 7364   3.592   4.449  12.129  0.9235  0.1020  0.2103
  492MPD2    C1 7365   3.559   4.362  12.024  0.8274  0.2629  0.3656
  492MPD2    C2 7366   3.507   4.238  12.057  0.1550 -0.3585 -0.2034
  492MPD2    C3 7367   3.492   4.199  12.191 -0.3557 -0.9619 -0.2102
  492MPD2    C4 7368   3.524   4.289  12.298  0.4142  0.4238  0.3314
  492MPD2    C5 7369   3.570   4.415  12.257 -0.4537  0.1739 -0.0232
  492MPD2     H 7370   3.479   4.176  11.973  0.0689 -2.5655  1.4580
  492MPD2    H1 7371   3.520   4.264  12.403  0.2290  0.0243  0.2305
  492MPD2    H2 7372   3.647   4.538  12.103  1.4846 -1.1236 -2.7544
  492MPD2    H3 7373   3.616   4.477  12.333  1.2385 -1.0473 -0.0641
  492MPD2     N 7374   3.443   4.068  12.228 -0.5971  0.1419 -0.3015
  492MPD2    H5 7375   3.434   4.054  12.328 -0.2596  1.9735 -0.0146
  492MPD2    N1 7376   3.574   4.403  11.890  0.0445 -0.1873 -0.3948
  492MPD2    H7 7377   3.614   4.495  11.874  1.6505 -1.3670 -3.1564
  493TMC3    C1 7378   3.567   4.420  11.656  0.5323 -0.0257  0.5488
  493TMC3    C2 7379   3.608   4.545  11.671 -0.2797  0.0910  0.2345
  493TMC3    C3 7380   3.588   4.630  11.565 -0.0181  0.3555  0.2677
  493TMC3    C4 7381   3.509   4.377  11.538  0.3105 -0.8751 -0.5442
  493TMC3    C5 7382   3.483   4.462  11.439  0.2940 -0.2824  0.6158
  493TMC3    C6 7383   3.531   4.592  11.445  0.5703 -0.3276 -0.2110
  493TMC3     C 7384   3.554   4.334  11.774 -0.5057 -1.0108 -0.1319
  493TMC3     O 7385   3.519   4.217  11.761  0.3681  0.8417 -0.5264
  493TMC3     H 7386   3.658   4.580  11.761  0.3991 -2.5673  0.8870
  493TMC3    H1 7387   3.472   4.275  11.532  0.3756 -0.9824  0.8387
  493TMC3    H2 7388   3.499   4.661  11.367  1.4524 -0.5312 -0.7576
  493TMC3    C7 7389   3.417   4.410  11.329  1.0293 -0.1340  0.3876
  493TMC3    C8 7390   3.604   0.040  11.593 -0.6081 -0.2278  0.2955
  493TMC3    O1 7391   3.462   4.440  11.218  0.4149 -0.3977  0.2293
  493TMC3    O2 7392   3.581   0.076  11.709 -0.2309 -0.0274  0.3920
  494TMC3    C1 7393   3.954   1.056   0.097 -0.3710  0.4078 -0.0039
  494TMC3    C2 7394   4.019   1.022   0.212 -0.3802 -1.0485 -0.0471
  494TMC3    C3 7395   4.155   1.011   0.207 -0.1777  0.1763 -0.0243
  494TMC3    C4 7396   4.017   1.075  17.719  1.1925  0.2028 -0.1329
  494TMC3    C5 7397   4.159   1.062  17.716  0.0480 -0.5655  0.1747
  494TMC3    C6 7398   4.232   1.021   0.090 -0.4728 -0.1276  0.3786
  494TMC3     C 7399   3.813   1.012   0.088 -0.2612 -0.2454 -0.9915
  494TMC3     O 7400   3.737   1.068   0.005 -0.2020  0.2687  0.4674
  494TMC3     H 7401   3.971   1.011   0.308 -0.6405 -0.7705 -0.1455
  494TMC3    H1 7402   3.950   1.089  17.635 -0.9860  1.0044  1.7456
  494TMC3    H2 7403   4.337   0.997   0.089 -0.4180  0.1699 -1.3478
  494TMC3    C7 7404   4.230   1.041  17.594 -0.2381 -0.3469 -1.2381
  494TMC3    C8 7405   4.219   0.961   0.329 -0.1266  0.1408  0.4129
  494TMC3    O1 7406   4.340   0.980  17.606 -0.6914 -0.0062 -0.3812
  494TMC3    O2 7407   4.143   0.949   0.424 -0.0126  0.5510  0.3228
  495TMC3    C1 7408   3.596   3.295  14.495 -0.2397  0.5613 -0.2697
  495TMC3    C2 7409   3.466   3.285  14.450  0.2864  0.8238  0.4789
  495TMC3    C3 7410   3.367   3.289  14.533 -0.2141  0.7978 -0.1924
  495TMC3    C4 7411   3.628   3.320  14.628  0.7388 -0.7360 -0.2312
  495TMC3    C5 7412   3.514   3.344  14.709  0.2399 -0.0822 -0.6935
  495TMC3    C6 7413   3.386   3.338  14.657 -0.4204 -0.6824  0.0676
  495TMC3     C 7414   3.674   3.182  14.446  0.7209 -0.2492 -0.3834
  495TMC3     O 7415   3.610   3.094  14.385  0.0959  0.3139  0.1600
  495TMC3     H 7416   3.446   3.267  14.345  1.4582  1.0869  0.2054
  495TMC3    H1 7417   3.724   3.292  14.669 -0.5200 -1.5276  2.1793
  495TMC3    H2 7418   3.300   3.359  14.721 -1.4105  1.0722 -1.8314
  495TMC3    C7 7419   3.525   3.292  14.848 -0.1243 -0.1150 -0.0332
  495TMC3    C8 7420   3.287   3.168  14.528  0.1655  0.5538 -0.2396
  495TMC3    O1 7421   3.629   3.294  14.907 -0.8102  0.2331  0.0742
  495TMC3    O2 7422   3.195   3.162  14.607  0.4666  0.0421  1.2685
  496MPD2     C 7423   0.969   2.920  15.007  0.3991 -0.7331  0.3220
  496MPD2    C1 7424   1.012   2.895  15.138  0.4023  0.2564 -0.9875
  496MPD2    C2 7425   0.932   2.877  15.249 -0.9255 -0.6101 -0.0548
  496MPD2    C3 7426   0.795   2.896  15.227  0.0994  0.5142 -0.1222
  496MPD2    C4 7427   0.747   2.917  15.095 -0.1013 -0.3544 -0.0138
  496MPD2    C5 7428   0.831   2.927  14.983 -0.1398 -0.0519  0.7980
  496MPD2     H 7429   0.971   2.868  15.350  1.7772  2.6700 -0.7993
  496MPD2    H1 7430   0.642   2.932  15.069 -0.0640  0.0936  0.0825
  496MPD2    H2 7431   1.040   2.927  14.925 -0.7303  0.8317 -0.5250
  496MPD2    H3 7432   0.800   2.958  14.884  0.1372  0.9282  1.0223
  496MPD2     N 7433   0.698   2.876  15.330  0.0597  0.1877  0.7016
  496MPD2    H5 7434   0.600   2.875  15.302  0.2092 -0.1550  0.1894
  496MPD2    N1 7435   1.149   2.864  15.147  0.7041 -0.3291  0.9006
  496MPD2    H7 7436   1.184   2.857  15.052 -0.3891  1.0027  0.3934
  497TMC3    C1 7437   0.609   2.780  15.517  0.0813  0.0920 -0.0060
  497TMC3    C2 7438   0.554   2.684  15.442  0.0713 -0.3818 -0.3555
  497TMC3    C3 7439   0.485   2.585  15.502 -0.5893  0.3453 -0.0078
  497TMC3    C4 7440   0.608   2.787  15.650 -0.5979  0.1506 -0.0451
  497TMC3    C5 7441   0.537   2.696  15.710 -0.8114  0.5885 -0.1260
  497TMC3    C6 7442   0.471   2.599  15.641  0.3365  0.4607  0.4016
  497TMC3     C 7443   0.731   2.845  15.464 -0.1133 -0.3744  0.5455
  497TMC3     O 7444   0.831   2.858  15.533 -0.4796  0.4671  0.1045
  497TMC3     H 7445   0.604   2.665  15.348  2.2053  0.0427  0.6811
  497TMC3    H1 7446   0.653   2.874  15.698 -0.5647 -1.4657  2.8813
  497TMC3    H2 7447   0.400   2.533  15.690  1.6679 -2.1248 -1.1535
  497TMC3    C7 7448   0.493   2.719  15.844  0.0413  0.6282 -0.0027
  497TMC3    C8 7449   0.513   2.440  15.469  1.3529  0.0332  0.1062
  497TMC3    O1 7450   0.377   2.701  15.869  0.2557  0.2155  0.4675
  497TMC3    O2 7451   0.528   2.361  15.560  0.3388  0.1256 -0.3708
  498MPD2     C 7452   0.840   3.290   9.634  0.6694 -0.8211 -0.1932
  498MPD2    C1 7453   0.907   3.265   9.758  0.0559  0.3250 -0.1492
  498MPD2    C2 7454   0.845   3.221   9.870  0.4669  0.1355 -0.2714
  498MPD2    C3 7455   0.709   3.189   9.866  0.3298 -0.5114 -0.3655
  498MPD2    C4 7456   0.641   3.228   9.759  0.3364 -0.0213 -0.1107
  498MPD2    C5 7457   0.705   3.274   9.646  0.9781  1.1206  0.1239
  498MPD2     H 7458   0.906   3.192   9.955  0.2490 -0.4036 -0.2977
  498MPD2    H1 7459   0.538   3.199   9.749  0.2113  0.1704  0.6352
  498MPD2    H2 7460   0.886   3.328   9.544 -0.7083  2.0232  0.2941
  498MPD2    H3 7461   0.642   3.290   9.560 -0.9904  0.6376  1.4689
  498MPD2     N 7462   0.649   3.121   9.972  0.3197  0.0094  0.0227
  498MPD2    H5 7463   0.707   3.105  10.053 -0.9054 -3.9060  0.1444
  498MPD2    N1 7464   1.045   3.291   9.774 -0.1847  0.1810 -0.1309
  498MPD2    H7 7465   1.090   3.285   9.864 -3.4129  0.6828  1.4951
  499TMC3    C1 7466   1.273   3.321   9.707  0.7122  1.1681 -0.0854
  499TMC3    C2 7467   1.368   3.241   9.645 -0.2581 -0.5288  0.4401
  499TMC3    C3 7468   1.502   3.260   9.685  0.0572  0.0481 -0.1957
  499TMC3    C4 7469   1.297   3.408   9.804 -0.1359 -0.3006  0.0371
  499TMC3    C5 7470   1.432   3.427   9.838 -0.2413 -0.3205  0.2038
  499TMC3    C6 7471   1.532   3.358   9.774  0.3603  0.1547  0.5556
  499TMC3     C 7472   1.137   3.292   9.665 -0.6048  0.0425  0.2764
  499TMC3     O 7473   1.122   3.255   9.548 -0.7849  0.3978 -0.4542
  499TMC3     H 7474   1.345   3.174   9.563  2.3868 -0.4670 -0.3659
  499TMC3    H1 7475   1.219   3.480   9.824  0.2464  0.2234 -0.3341
  499TMC3    H2 7476   1.637   3.384   9.781  0.7384 -0.8418 -1.5415
  499TMC3    C7 7477   1.458   3.533   9.928 -0.0667 -0.3824  0.1539
  499TMC3    C8 7478   1.603   3.167   9.639 -0.1625  0.2958 -0.0496
  499TMC3    O1 7479   1.365   3.610   9.955  0.6000 -0.0176 -0.8478
  499TMC3    O2 7480   1.586   3.114   9.531  0.8188 -0.0581 -0.1932
  500MPD2     C 7481   2.210   0.803  10.136 -0.2991 -0.5169  0.2473
  500MPD2    C1 7482   2.233   0.759  10.263 -0.4689  0.0357  1.1528
  500MPD2    C2 7483   2.131   0.693  10.331 -0.0386  0.2808  0.2662
  500MPD2    C3 7484   2.011   0.671  10.271  0.2752 -0.4642  0.5173
  500MPD2    C4 7485   1.989   0.719  10.139  0.9141 -0.3798  0.4921
  500MPD2    C5 7486   2.091   0.776  10.070 -0.7766 -0.2588 -0.1012
  500MPD2     H 7487   2.148   0.663  10.434 -0.4768 -0.1678  0.2069
  500MPD2    H1 7488   1.899   0.697  10.082 -0.7736  2.7947  1.9723
  500MPD2    H2 7489   2.292   0.850  10.083 -2.4917  2.4268 -0.4807
  500MPD2    H3 7490   2.072   0.817   9.971  0.7572  0.2196 -0.2102
  500MPD2     N 7491   1.893   0.615  10.332 -0.6104 -0.2953 -0.0142
  500MPD2    H5 7492   1.815   0.605  10.268  0.0328  0.0585 -0.8646
  500MPD2    N1 7493   2.362   0.755  10.320 -0.3372  0.4411 -0.0073
  500MPD2    H7 7494   2.369   0.727  10.417 -0.4973 -0.8520 -0.3711
  501TMC3    C1 7495   2.587   0.830  10.368 -0.5786 -0.3005  0.5131
  501TMC3    C2 7496   2.657   0.953  10.345 -0.0999 -0.3817 -0.8556
  501TMC3    C3 7497   2.784   0.962  10.400  0.0612  0.2524  0.2229
  501TMC3    C4 7498   2.631   0.727  10.443  0.1036  0.2210 -0.0460
  501TMC3    C5 7499   2.755   0.742  10.499  0.5703 -0.4960  0.5719
  501TMC3    C6 7500   2.828   0.857  10.480 -0.0097  0.6910 -0.2591
  501TMC3     C 7501   2.480   0.814  10.271  0.3431 -0.1010 -0.8314
  501TMC3     O 7502   2.490   0.888  10.174 -0.5389 -0.2965  0.6794
  501TMC3     H 7503   2.616   1.031  10.282 -0.8661 -2.9896 -3.5729
  501TMC3    H1 7504   2.569   0.639  10.460  0.5545  0.5456  3.1970
  501TMC3    H2 7505   2.922   0.873  10.532  0.0848  1.1048 -0.5548
  501TMC3    C7 7506   2.793   0.652  10.606  0.4668 -0.5980 -0.0379
  501TMC3    C8 7507   2.861   1.083  10.390  0.3838 -0.0790 -0.0364
  501TMC3    O1 7508   2.904   0.672  10.656  0.0638  0.2064  0.1534
  501TMC3    O2 7509   2.968   1.078  10.458  0.3822  0.3772 -0.1542
  502TMC3    C1 7510   2.893   3.777  15.069 -0.0389 -0.8596 -0.1549
  502TMC3    C2 7511   2.844   3.900  15.044 -0.6022  0.4989 -0.6963
  502TMC3    C3 7512   2.707   3.906  15.021 -0.8574 -0.0564 -0.3284
  502TMC3    C4 7513   2.807   3.674  15.100 -0.4434 -0.2446  0.1365
  502TMC3    C5 7514   2.670   3.688  15.084 -0.3784 -0.5661  0.0557
  502TMC3    C6 7515   2.620   3.802  15.041  0.1243 -0.1675  0.6158
  502TMC3     C 7516   3.019   3.784  15.146  0.2020 -0.3100 -0.3554
  502TMC3     O 7517   3.101   3.865  15.102 -0.1092  0.4211 -0.2125
  502TMC3     H 7518   2.912   3.984  15.047 -0.0485  0.0538 -0.6501
  502TMC3    H1 7519   2.854   3.578  15.121  1.6991  0.1793 -2.8365
  502TMC3    H2 7520   2.515   3.810  15.015  0.0530 -1.4193  0.5151
  502TMC3    C7 7521   2.589   3.572  15.115 -0.0281  0.6594 -0.3059
  502TMC3    C8 7522   2.655   4.043  15.011 -0.0937  0.0461  0.6339
  502TMC3    O1 7523   2.649   3.463  15.104  0.3054 -0.2575 -0.1945
  502TMC3    O2 7524   2.729   4.128  14.970  0.2496 -0.0058  0.4270
  503MPD2     C 7525   0.244   4.244  17.045  0.0419  0.2593  0.8878
  503MPD2    C1 7526   0.265   4.347  17.130 -0.6095  0.3532 -0.0388
  503MPD2    C2 7527   0.320   4.331  17.256 -0.1181 -0.2897 -0.3285
  503MPD2    C3 7528   0.367   4.208  17.299  1.0000  0.0613 -0.1474
  503MPD2    C4 7529   0.347   4.109  17.205 -0.1250  0.1159  0.1531
  503MPD2    C5 7530   0.292   4.122  17.082  0.2381 -0.4707  0.9412
  503MPD2     H 7531   0.311   4.416  17.323 -3.3781 -0.7748 -0.1569
  503MPD2    H1 7532   0.391   4.011  17.223 -1.6265 -0.3748  1.1739
  503MPD2    H2 7533   0.183   4.251  16.955 -1.3215 -1.5538  1.6536
  503MPD2    H3 7534   0.275   4.032  17.025  0.3996  1.1734 -1.6821
  503MPD2     N 7535   0.421   4.184  17.428 -0.1586 -0.0458 -0.0577
  503MPD2    H5 7536   0.439   4.264  17.487 -0.2076  0.7173 -1.0694
  503MPD2    N1 7537   0.217   4.477  17.096  0.3196  0.4639 -0.2870
  503MPD2    H7 7538   0.228   4.544  17.171 -2.7529  1.1418 -0.4322
  504TMC3    C1 7539   0.559   4.070  17.588 -0.6294  0.0215  0.0828
  504TMC3    C2 7540   0.543   3.963  17.667  0.6669 -0.0759  0.2321
  504TMC3    C3 7541   0.635   3.941   0.028  0.2950  0.1348 -0.0594
  504TMC3    C4 7542   0.665   4.155  17.599 -0.3182  0.1860 -0.3913
  504TMC3    C5 7543   0.767   4.122  17.691  0.6793  0.6025  0.4620
  504TMC3    C6 7544   0.750   4.018   0.043  0.9780  0.4250 -0.2484
  504TMC3     C 7545   0.477   4.065  17.467  0.2133 -0.3989 -0.1941
  504TMC3     O 7546   0.462   3.952  17.422  0.2367 -0.0675  0.3171
  504TMC3     H 7547   0.461   3.894  17.651  0.7137  0.2549 -1.4557
  504TMC3    H1 7548   0.683   4.237  17.530  2.3921  1.6031  1.9933
  504TMC3    H2 7549   0.825   3.977   0.110  0.6983 -0.5200 -0.5213
  504TMC3    C7 7550   0.897   4.123  17.623 -1.3195  0.0464 -0.8184
  504TMC3    C8 7551   0.642   3.809   0.082 -0.3468  0.1490 -0.6732
  504TMC3    O1 7552   0.888   4.106  17.500  0.3308 -0.2356 -0.1258
  504TMC3    O2 7553   0.615   3.714   0.013  0.0866 -0.3075 -0.3858
  505MPD2     C 7554   0.316   2.800  11.488  0.8412 -0.1288 -0.3532
  505MPD2    C1 7555   0.377   2.772  11.371 -0.2455  0.2197  0.1477
  505MPD2    C2 7556   0.439   2.878  11.310  0.2926 -0.8124 -0.1370
  505MPD2    C3 7557   0.439   3.004  11.365 -1.4171 -0.0697  0.0696
  505MPD2    C4 7558   0.367   3.036  11.479  0.4937  0.0973  1.0535
  505MPD2    C5 7559   0.301   2.932  11.542 -0.4370 -0.1943  0.9339
  505MPD2     H 7560   0.496   2.864  11.219 -0.2595 -1.9993 -0.3060
  505MPD2    H1 7561   0.358   3.135  11.523 -0.0047  0.8774 -0.7942
  505MPD2    H2 7562   0.275   2.714  11.538  0.7363  0.4741  0.5947
  505MPD2    H3 7563   0.242   2.941  11.632  0.0389 -0.4868  1.2720
  505MPD2     N 7564   0.518   3.097  11.294  0.2596 -0.1681  0.0393
  505MPD2    H5 7565   0.570   3.063  11.214  1.5098  0.5304  0.5634
  505MPD2    N1 7566   0.383   2.635  11.322 -0.0652 -0.6455 -0.8152
  505MPD2    H7 7567   0.379   2.562  11.393  1.3917  1.8220  1.8255
  506TMC3    C1 7568   0.473   2.471  11.178 -0.5508 -0.6697  1.1393
  506TMC3    C2 7569   0.506   2.434  11.048  0.7748  0.3315 -0.5953
  506TMC3    C3 7570   0.609   2.346  11.030 -0.2290  0.0491 -0.8066
  506TMC3    C4 7571   0.558   2.428  11.278  0.3476 -0.4800  0.1443
  506TMC3    C5 7572   0.663   2.343  11.255 -0.1350  0.5176 -0.2494
  506TMC3    C6 7573   0.697   2.309  11.128  0.0812 -0.2183 -0.3926
  506TMC3     C 7574   0.409   2.600  11.194  0.2917  0.0315  0.3252
  506TMC3     O 7575   0.389   2.661  11.090 -0.6484  0.0641 -0.6147
  506TMC3     H 7576   0.435   2.466  10.973 -0.6713 -0.7649  0.3025
  506TMC3    H1 7577   0.544   2.454  11.382  0.9501 -1.1422  0.3906
  506TMC3    H2 7578   0.792   2.263  11.106  0.2386 -0.1567  0.1466
  506TMC3    C7 7579   0.768   2.386  11.344 -0.2741  1.0965  0.1696
  506TMC3    C8 7580   0.640   2.324  10.888 -0.2600  0.0961 -0.2605
  506TMC3    O1 7581   0.772   2.335  11.453 -0.0551  0.0725  0.2127
  506TMC3    O2 7582   0.738   2.255  10.865 -0.3311  0.0844 -0.2000
  507TMC3    C1 7583   1.631   3.593  14.660  0.1065  0.1597 -0.1243
  507TMC3    C2 7584   1.533   3.527  14.594 -0.3795  0.0631  0.2443
  507TMC3    C3 7585   1.512   3.563  14.462 -0.1507  0.0830 -0.1876
  507TMC3    C4 7586   1.708   3.684  14.602 -0.3546  0.5151  0.8637
  507TMC3    C5 7587   1.663   3.744  14.484  0.0192 -0.5186  0.0272
  507TMC3    C6 7588   1.575   3.671  14.406 -0.4947  0.1585 -0.8377
  507TMC3     C 7589   1.587   3.634  14.800 -0.3840  0.6827 -0.8770
  507TMC3     O 7590   1.678   3.683  14.864  0.1847 -0.6671  0.5080
  507TMC3     H 7591   1.486   3.440  14.639  1.6856 -1.2624 -0.1500
  507TMC3    H1 7592   1.788   3.725  14.661  0.5971  0.6570 -0.5327
  507TMC3    H2 7593   1.543   3.713  14.312 -1.3480  1.2389 -0.0615
  507TMC3    C7 7594   1.607   3.878  14.511  0.0031  0.0735  0.2976
  507TMC3    C8 7595   1.379   3.524  14.417 -0.1676  0.1533 -1.0239
  507TMC3    O1 7596   1.523   3.919  14.434  0.0752 -0.1059 -0.8306
  507TMC3    O2 7597   1.291   3.492  14.499 -0.0505 -0.1434 -0.5444
  508MPD2     C 7598   1.974   1.690  16.411  0.1030  0.1202  0.8784
  508MPD2    C1 7599   2.097   1.744  16.375 -0.5041 -0.0835 -0.0504
  508MPD2    C2 7600   2.141   1.723  16.248  0.7966  0.1900  0.1171
  508MPD2    C3 7601   2.056   1.663  16.154 -0.0082  0.2706 -0.2093
  508MPD2    C4 7602   1.928   1.624  16.189  0.5113  0.1996  0.4443
  508MPD2    C5 7603   1.889   1.633  16.320 -0.5042 -0.4675 -0.5877
  508MPD2     H 7604   2.237   1.752  16.207  0.8786 -0.7810 -0.3758
  508MPD2    H1 7605   1.857   1.582  16.119  0.2914  3.3008 -1.1908
  508MPD2    H2 7606   1.941   1.701  16.514 -0.2083  0.4430  0.7467
  508MPD2    H3 7607   1.797   1.589  16.356  0.1902 -2.1437 -0.8672
  508MPD2     N 7608   2.098   1.653  16.020 -0.3712  0.0300 -0.7972
  508MPD2    H5 7609   2.177   1.711  15.994 -0.2012 -0.2010 -0.8017
  508MPD2    N1 7610   2.173   1.816  16.470  0.0532  0.2725  0.3955
  508MPD2    H7 7611   2.128   1.835  16.559 -0.5549  1.8949 -0.2495
  509TMC3    C1 7612   2.054   1.622  15.568 -0.0167 -0.2459  0.7673
  509TMC3    C2 7613   2.188   1.633  15.535  0.2448  0.7366 -0.4007
  509TMC3    C3 7614   2.274   1.639  15.642 -0.0309  0.4943  1.1057
  509TMC3    C4 7615   2.009   1.611  15.695 -0.4506  0.0071 -0.1643
  509TMC3    C5 7616   2.099   1.621  15.797  0.2873 -0.0746 -1.0100
  509TMC3    C6 7617   2.232   1.637  15.776  1.0273 -0.0070  0.4090
  509TMC3     C 7618   1.959   1.676  15.480  0.6655 -0.3026 -0.0364
  509TMC3     O 7619   1.847   1.635  15.504  0.1678  0.2473 -0.3250
  509TMC3     H 7620   2.221   1.650  15.433 -1.2321 -1.1361 -1.1960
  509TMC3    H1 7621   1.905   1.585  15.711  0.3105 -2.5589  0.7364
  509TMC3    H2 7622   2.309   1.649  15.851  0.4933 -0.6021  1.0458
  509TMC3    C7 7623   2.038   1.593  15.918 -0.3022 -0.3915 -0.0504
  509TMC3    C8 7624   2.408   1.693  15.607 -0.1077 -0.3053  0.2291
  509TMC3    O1 7625   1.938   1.521  15.920 -0.5657  0.0591 -0.0334
  509TMC3    O2 7626   2.453   1.656  15.498  0.7998 -0.7839  0.1218
  510MPD2     C 7627   0.263   3.394  14.679 -0.4828 -0.4997  0.8651
  510MPD2    C1 7628   0.295   3.265  14.721 -0.1866  0.5393  0.1291
  510MPD2    C2 7629   0.401   3.204  14.660 -0.3879  0.2384 -0.1149
  510MPD2    C3 7630   0.465   3.259  14.547 -0.2247 -0.6004  0.0675
  510MPD2    C4 7631   0.429   3.385  14.513  0.1326 -0.3168  0.3761
  510MPD2    C5 7632   0.335   3.455  14.585  0.4865  0.6353  0.0362
  510MPD2     H 7633   0.434   3.105  14.688  0.2175  0.6649  0.6837
  510MPD2    H1 7634   0.474   3.444  14.434  1.0220 -0.2287  0.9483
  510MPD2    H2 7635   0.191   3.451  14.736  0.4971  0.6522  0.9583
  510MPD2    H3 7636   0.305   3.555  14.553  1.3911  0.2757 -1.9374
  510MPD2     N 7637   0.564   3.187  14.477 -0.5821 -0.2192 -0.0356
  510MPD2    H5 7638   0.603   3.108  14.528  0.4359  0.6374  0.4964
  510MPD2    N1 7639   0.213   3.205  14.820 -0.3232 -0.2450  0.2360
  510MPD2    H7 7640   0.130   3.255  14.848 -0.7364 -1.3514  0.9770
  511TMC3    C1 7641   0.128   3.020  14.942 -0.7400  0.0736  0.1153
  511TMC3    C2 7642   0.060   3.090  15.036  0.2442 -0.6914 -0.4980
  511TMC3    C3 7643   4.706   3.021  15.118 -0.1395 -0.2251  0.0023
  511TMC3    C4 7644   0.105   2.886  14.923  0.6657 -0.0851 -0.3753
  511TMC3    C5 7645   0.009   2.823  14.998 -1.0682  0.3905 -0.1006
  511TMC3    C6 7646   4.679   2.889  15.104  0.2517  0.1355  0.3985
  511TMC3     C 7647   0.237   3.075  14.866  0.3866 -0.3677  0.3619
  511TMC3     O 7648   0.325   2.995  14.846  0.7002 -0.0661  0.5682
  511TMC3     H 7649   0.085   3.194  15.053 -0.9212 -0.8053  1.8785
  511TMC3    H1 7650   0.170   2.826  14.860  1.3105  0.7063 -0.4569
  511TMC3    H2 7651   4.581   2.849  15.127 -1.0021  1.4375 -2.6493
  511TMC3    C7 7652   4.694   2.702  14.943 -0.0715 -0.5846  0.1149
  511TMC3    C8 7653   4.663   3.074  15.241  0.6661  0.6650  0.2542
  511TMC3    O1 7654   0.005   2.685  14.836  0.0136  0.1057  0.1960
  511TMC3    O2 7655   4.700   3.186  15.270  0.5156  0.0925 -0.8145
  512TMC3    C1 7656   3.595   2.569  13.022  0.0859  0.4505 -0.3951
  512TMC3    C2 7657   3.699   2.579  13.111  0.0912 -0.1515  0.0098
  512TMC3    C3 7658   3.789   2.478  13.131 -0.3074 -0.0043 -0.2912
  512TMC3    C4 7659   3.575   2.443  12.972  0.1528  0.0394 -0.2106
  512TMC3    C5 7660   3.655   2.340  13.002 -0.2741  0.1063 -0.1678
  512TMC3    C6 7661   3.769   2.355  13.077  0.1093  0.0902  0.0492
  512TMC3     C 7662   3.485   2.660  13.042 -0.2533  0.7247 -0.2168
  512TMC3     O 7663   3.520   2.778  13.044  0.2091 -0.3026 -0.1330
  512TMC3     H 7664   3.710   2.676  13.159 -2.0634  0.2941 -0.3930
  512TMC3    H1 7665   3.489   2.428  12.907 -1.2416  1.0872  1.3677
  512TMC3    H2 7666   3.835   2.272  13.098  1.3709  1.4252  1.3481
  512TMC3    C7 7667   3.631   2.206  12.942  0.1093  0.1951 -0.5748
  512TMC3    C8 7668   3.888   2.490  13.244 -0.2895 -0.6261  0.6988
  512TMC3    O1 7669   3.596   2.198  12.826  0.0419 -0.3014 -0.0471
  512TMC3    O2 7670   3.932   2.386  13.296  0.1077  0.4593 -0.4900
  513MPD2     C 7671   0.412   2.434  13.129  0.8143 -0.4358 -0.1803
  513MPD2    C1 7672   0.416   2.306  13.087  0.2886 -0.2340  0.2296
  513MPD2    C2 7673   0.491   2.211  13.159  0.0435  0.6841 -0.0975
  513MPD2    C3 7674   0.549   2.255  13.276 -0.3172 -0.2230  0.2739
  513MPD2    C4 7675   0.541   2.387  13.317  0.5455  0.6495 -0.2357
  513MPD2    C5 7676   0.469   2.474  13.243 -0.7421  0.3856 -0.5779
  513MPD2     H 7677   0.493   2.106  13.130  1.2554  0.7138 -0.1169
  513MPD2    H1 7678   0.592   2.425  13.405 -0.1590  0.7463  0.1311
  513MPD2    H2 7679   0.372   2.513  13.066 -0.3214 -1.2237 -0.4395
  513MPD2    H3 7680   0.465   2.580  13.261  1.4717  0.5072 -0.7914
  513MPD2     N 7681   0.612   2.156  13.357  0.4863 -0.1419 -0.2290
  513MPD2    H5 7682   0.622   2.066  13.313  0.1954  0.1093 -0.8085
  513MPD2    N1 7683   0.355   2.264  12.963 -0.5180  0.1100 -0.1509
  513MPD2    H7 7684   0.373   2.169  12.932 -3.0329  0.5445 -2.9088
  514TMC3    C1 7685   0.305   2.260  12.737  0.7552 -0.2401 -0.0208
  514TMC3    C2 7686   0.378   2.331  12.647  0.1597  0.3185 -0.3352
  514TMC3    C3 7687   0.476   2.267  12.585  0.0515 -0.8857  0.1064
  514TMC3    C4 7688   0.328   2.127  12.763  0.5893  0.8018  0.2187
  514TMC3    C5 7689   0.439   2.069  12.698 -0.1006  0.2871 -0.2452
  514TMC3    C6 7690   0.520   2.140  12.611  0.1740  0.5273 -0.3095
  514TMC3     C 7691   0.290   2.339  12.863  0.5176 -0.2892 -0.4482
  514TMC3     O 7692   0.256   2.457  12.862  0.0362  0.0616  0.3841
  514TMC3     H 7693   0.344   2.433  12.632  0.4048  0.2647 -1.2474
  514TMC3    H1 7694   0.274   2.065  12.833  1.0313  2.5591  2.1079
  514TMC3    H2 7695   0.618   2.105  12.580 -0.7521 -2.2841 -0.0886
  514TMC3    C7 7696   0.506   1.981  12.794 -0.0433 -0.0036 -0.1773
  514TMC3    C8 7697   0.544   2.364  12.500 -0.5063 -0.2429  0.1396
  514TMC3    O1 7698   0.472   2.000  12.909 -0.0090  0.0565  0.0635
  514TMC3    O2 7699   0.519   2.485  12.510 -0.0499  0.6345  0.0914
  515MPD2     C 7700   3.861   3.998  14.386 -0.5334  1.1071  0.5393
  515MPD2    C1 7701   3.779   4.033  14.490 -0.2629  0.3418  0.9440
  515MPD2    C2 7702   3.835   4.102  14.597 -0.3241  0.1068  0.8538
  515MPD2    C3 7703   3.968   4.136  14.596  0.5031  0.2847  0.4427
  515MPD2    C4 7704   4.041   4.113  14.481  1.0290  0.5718 -0.5898
  515MPD2    C5 7705   3.991   4.041  14.381  0.5659  0.4074  0.0962
  515MPD2     H 7706   3.770   4.138  14.676 -1.3206  0.1564  0.0086
  515MPD2    H1 7707   4.136   4.158  14.458 -0.5530  3.2441 -1.8955
  515MPD2    H2 7708   3.825   3.940  14.302 -0.7018 -1.6561  2.5114
  515MPD2    H3 7709   4.034   4.039  14.282 -2.1959  0.4204 -1.1014
  515MPD2     N 7710   4.037   4.186  14.711  0.4914  0.1054  0.4251
  515MPD2    H5 7711   4.138   4.199  14.702  0.5249 -0.8604 -0.6226
  515MPD2    N1 7712   3.645   3.990  14.486  0.1149 -0.3170  0.6123
  515MPD2    H7 7713   3.613   3.971  14.581 -0.3536  0.0805  0.5319
  516TMC3    C1 7714   3.436   3.920  14.416  0.0269 -0.3091 -0.3351
  516TMC3    C2 7715   3.341   3.950  14.328  0.0589  0.3762  0.7975
  516TMC3    C3 7716   3.213   3.897  14.350  0.0397 -0.0230  0.5022
  516TMC3    C4 7717   3.413   3.838  14.529  0.5459  0.5206 -0.6163
  516TMC3    C5 7718   3.287   3.788  14.551  0.6117 -0.2351 -0.6498
  516TMC3    C6 7719   3.187   3.817  14.460 -1.2315 -0.3222  0.1369
  516TMC3     C 7720   3.571   3.959  14.379  0.5833  0.1978  0.4010
  516TMC3     O 7721   3.580   4.002  14.267 -0.1219  0.2898 -0.1824
  516TMC3     H 7722   3.362   4.016  14.245  1.5556  0.4135  1.2127
  516TMC3    H1 7723   3.493   3.809  14.596  1.3181  0.7022 -1.4690
  516TMC3    H2 7724   3.085   3.788  14.480 -1.3869  0.0864 -0.0509
  516TMC3    C7 7725   3.260   3.734  14.690  0.0217 -0.1460 -0.0680
  516TMC3    C8 7726   3.104   3.977  14.296  0.2407 -0.0502  0.3500
  516TMC3    O1 7727   3.334   3.762  14.785 -0.2250 -0.4720 -0.1540
  516TMC3    O2 7728   3.004   3.986  14.365  0.0263 -0.2379  0.6919
  517MPD2     C 7729   3.261   1.286  17.648  0.1178  0.3593  0.4799
  517MPD2    C1 7730   3.398   1.267  17.674 -0.7561 -0.2994 -0.5512
  517MPD2    C2 7731   3.463   1.364   0.007 -0.2659 -0.3558 -0.5920
  517MPD2    C3 7732   3.388   1.465   0.076  0.0224  0.6351  0.2711
  517MPD2    C4 7733   3.251   1.471   0.056  0.4489  0.7332  0.0730
  517MPD2    C5 7734   3.190   1.377  17.722 -0.6947  0.4186  0.3656
  517MPD2     H 7735   3.569   1.355   0.029 -0.7854 -1.3429  1.4589
  517MPD2    H1 7736   3.191   1.542   0.112 -1.3988 -1.3865  0.7617
  517MPD2    H2 7737   3.207   1.219  17.582 -0.7831  0.2546  1.3250
  517MPD2    H3 7738   3.084   1.386  17.705 -0.7696  0.2858  0.7690
  517MPD2     N 7739   3.440   1.564   0.166  0.3059 -0.9487  0.3636
  517MPD2    H5 7740   3.375   1.638   0.190  0.8068 -0.9603  1.7879
  517MPD2    N1 7741   3.465   1.159  17.617 -0.2006 -0.2647  0.1586
  517MPD2    H7 7742   3.561   1.151  17.647 -0.8887 -0.0975  2.4408
  518TMC3    C1 7743   3.515   0.945  17.550 -0.1111 -0.0901 -0.0039
  518TMC3    C2 7744   3.484   0.816  17.584  0.2876 -0.1797  0.0960
  518TMC3    C3 7745   3.584   0.721  17.566  0.6322 -0.4897 -0.5704
  518TMC3    C4 7746   3.637   0.986  17.496  0.7184  0.3241  0.0922
  518TMC3    C5 7747   3.734   0.884  17.499 -0.3130 -0.2762  0.3397
  518TMC3    C6 7748   3.709   0.751  17.529  1.1952 -0.2136  0.7767
  518TMC3     C 7749   3.412   1.043  17.571  0.4938  0.2199  0.0787
  518TMC3     O 7750   3.306   0.990  17.575 -0.0174 -0.4885  0.4427
  518TMC3     H 7751   3.386   0.795  17.625  0.2250  1.0215  0.5791
  518TMC3    H1 7752   3.661   1.086  17.462 -0.6152  0.8945  0.8294
  518TMC3    H2 7753   3.769   0.664  17.504 -0.0784 -0.8762  0.0433
  518TMC3    C7 7754   3.854   0.914  17.428 -0.2537 -0.4075  0.3350
  518TMC3    C8 7755   3.555   0.585  17.584  0.1054  0.3525 -0.2407
  518TMC3    O1 7756   3.856   1.023  17.371 -0.1974 -0.1277 -0.3581
  518TMC3    O2 7757   3.628   0.505  17.528  0.6050 -0.1991  0.3653
  519MPD2     C 7758   0.427   3.958  14.765 -0.3378 -0.4679  0.3708
  519MPD2    C1 7759   0.414   4.030  14.648 -0.5669 -0.3877  0.5108
  519MPD2    C2 7760   0.457   3.977  14.527 -0.3748  0.0320 -0.2377
  519MPD2    C3 7761   0.533   3.859  14.526  0.1239 -0.0372 -0.0791
  519MPD2    C4 7762   0.556   3.798  14.654 -0.7119 -0.1479  0.1277
  519MPD2    C5 7763   0.495   3.847  14.770 -0.7580  1.6093  0.4474
  519MPD2     H 7764   0.422   4.020  14.434  0.2419  0.2174 -0.3787
  519MPD2    H1 7765   0.622   3.713  14.664  0.8160  0.9518 -0.5210
  519MPD2    H2 7766   0.381   3.996  14.856  0.1124  1.9790 -0.4390
  519MPD2    H3 7767   0.510   3.794  14.863  0.4638  0.6277 -0.3126
  519MPD2     N 7768   0.575   3.793  14.406  0.4157  0.2908 -0.4478
  519MPD2    H5 7769   0.646   3.722  14.414  2.1301  1.9108 -1.1648
  519MPD2    N1 7770   0.325   4.147  14.644 -0.1915 -0.3239  0.4689
  519MPD2    H7 7771   0.271   4.160  14.728 -2.3703 -3.1794 -0.4697
  520TMC3    C1 7772   0.629   3.786  14.174 -0.1194 -0.4296  0.1622
  520TMC3    C2 7773   0.662   3.864  14.066  0.4585 -0.4191  0.4597
  520TMC3    C3 7774   0.730   3.798  13.961  0.7704 -1.4775 -0.0610
  520TMC3    C4 7775   0.662   3.656  14.180  0.2366  0.0283  0.8767
  520TMC3    C5 7776   0.732   3.597  14.074 -0.1410  0.1941  0.3746
  520TMC3    C6 7777   0.760   3.666  13.960 -0.0417 -0.4773 -0.6710
  520TMC3     C 7778   0.541   3.838  14.276 -0.2812  0.3561  0.4922
  520TMC3     O 7779   0.461   3.920  14.232 -0.8605  0.0595 -0.0100
  520TMC3     H 7780   0.645   3.971  14.069  0.9539 -0.3305  0.0624
  520TMC3    H1 7781   0.619   3.594  14.258 -0.4578  0.0655  0.5213
  520TMC3    H2 7782   0.784   3.629  13.861  0.1637  2.7291 -1.8307
  520TMC3    C7 7783   0.819   3.482  14.114  0.8326  1.0965  0.5242
  520TMC3    C8 7784   0.740   3.869  13.836 -0.2224  0.5613 -0.0334
  520TMC3    O1 7785   0.868   3.489  14.225  0.2141  0.0193  0.3343
  520TMC3    O2 7786   0.818   3.824  13.754 -0.0758  0.4271  0.6846
  521MPD2     C 7787   0.941   2.217  17.672 -0.3510  0.0918  1.4218
  521MPD2    C1 7788   0.948   2.137  17.561  0.1470 -0.7404 -0.2618
  521MPD2    C2 7789   1.063   2.139  17.480 -0.1909  0.1450 -0.2109
  521MPD2    C3 7790   1.155   2.236  17.502  0.5068 -0.2587 -1.1263
  521MPD2    C4 7791   1.136   2.330  17.603 -0.1155 -0.1200 -0.4929
  521MPD2    C5 7792   1.027   2.323  17.683 -0.7314  0.0885 -0.2240
  521MPD2     H 7793   1.074   2.074  17.394  1.0944  1.1553 -0.8308
  521MPD2    H1 7794   1.207   2.412  17.610 -0.2676 -0.0743  0.5450
  521MPD2    H2 7795   0.859   2.215   0.004 -2.5135 -1.4386 -1.1288
  521MPD2    H3 7796   1.017   2.398   0.022 -3.9115 -0.6776  0.1222
  521MPD2     N 7797   1.279   2.235  17.424  0.4098 -0.2637 -0.4513
  521MPD2    H5 7798   1.289   2.174  17.344  0.2383 -1.1359  0.1990
  521MPD2    N1 7799   0.844   2.040  17.539  0.1908 -0.0757  0.0113
  521MPD2    H7 7800   0.778   2.020  17.613 -0.6327  1.7753 -0.2241
  522TMC3    C1 7801   1.495   2.271  17.369  0.1584  0.1572 -0.1241
  522TMC3    C2 7802   1.626   2.264  17.394 -0.8744  0.0363 -0.0910
  522TMC3    C3 7803   1.710   2.228  17.294 -0.3688 -0.1281 -0.5786
  522TMC3    C4 7804   1.452   2.284  17.237  0.4549  0.1448  0.3424
  522TMC3    C5 7805   1.540   2.261  17.134  0.4429 -0.7363  0.3002
  522TMC3    C6 7806   1.672   2.227  17.157  0.3631  0.2248 -0.1531
  522TMC3     C 7807   1.397   2.290  17.470  0.2596  0.3899  0.1698
  522TMC3     O 7808   1.430   2.313  17.585  0.2905  0.7607 -0.4628
  522TMC3     H 7809   1.660   2.253  17.496  2.1770 -0.8730 -1.2001
  522TMC3    H1 7810   1.349   2.304  17.210  0.2765 -0.9599  0.2398
  522TMC3    H2 7811   1.746   2.198  17.083 -0.9244  1.0757 -1.7778
  522TMC3    C7 7812   1.499   2.296  17.000  0.6474 -0.0004  0.2527
  522TMC3    C8 7813   1.815   2.147  17.332  0.4313  1.3907  0.0739
  522TMC3    O1 7814   1.380   2.284  16.983  0.0154  0.3987 -0.0004
  522TMC3    O2 7815   1.823   2.127  17.454  0.1278 -0.9122 -0.1423
  523MPD2     C 7816   3.173   2.331   9.763 -0.6845 -0.1851 -0.0377
  523MPD2    C1 7817   3.214   2.356   9.888 -0.6917 -0.1388  0.6783
  523MPD2    C2 7818   3.209   2.480   9.940 -0.5536  0.3765  0.5655
  523MPD2    C3 7819   3.173   2.594   9.861  0.5448  0.0932  0.0201
  523MPD2    C4 7820   3.116   2.559   9.736  0.3959  0.2589 -0.1345
  523MPD2    C5 7821   3.107   2.427   9.695  0.6179 -0.3744 -1.0199
  523MPD2     H 7822   3.245   2.489  10.042  0.1202  1.6254  0.2293
  523MPD2    H1 7823   3.077   2.631   9.665 -2.6884 -2.4346 -1.1971
  523MPD2    H2 7824   3.166   2.230   9.724 -0.2319 -0.9104  1.7233
  523MPD2    H3 7825   3.056   2.404   9.602 -0.2420  0.5801 -0.7824
  523MPD2     N 7826   3.185   2.730   9.898 -0.4463  0.4166 -0.4079
  523MPD2    H5 7827   3.137   2.802   9.845  0.1133  0.2432 -1.1531
  523MPD2    N1 7828   3.265   2.241   9.960 -0.4873  0.1850  0.2158
  523MPD2    H7 7829   3.289   2.166   9.896  1.5836  0.1998  0.9743
  524TMC3    C1 7830   3.225   2.920  10.040 -0.2123 -0.5487  0.0703
  524TMC3    C2 7831   3.284   2.968  10.152 -0.1050  0.0955 -0.1222
  524TMC3    C3 7832   3.234   3.082  10.214  0.5720 -0.0585 -0.7732
  524TMC3    C4 7833   3.125   2.993   9.982 -0.0350 -0.5951 -0.0708
  524TMC3    C5 7834   3.084   3.114  10.036  0.0364  0.3840  0.8731
  524TMC3    C6 7835   3.143   3.162  10.153  0.0493  0.2466  0.6848
  524TMC3     C 7836   3.247   2.774  10.017 -1.0305  0.5334  0.4126
  524TMC3     O 7837   3.326   2.707  10.084  0.2402 -0.5323  0.3218
  524TMC3     H 7838   3.342   2.897  10.210 -1.7819  0.3907  1.9012
  524TMC3    H1 7839   3.079   2.951   9.893 -0.7492  0.2742 -0.1189
  524TMC3    H2 7840   3.107   3.258  10.188 -1.9055  0.1172 -0.9414
  524TMC3    C7 7841   2.986   3.192   9.958  0.1580  0.3919  0.4487
  524TMC3    C8 7842   3.324   3.125  10.319  0.1471  0.2948 -0.5308
  524TMC3    O1 7843   2.971   3.144   9.845  0.1625 -0.1855  0.3645
  524TMC3    O2 7844   3.440   3.086  10.308  0.0256 -0.0579 -0.3833
  525MPD2     C 7845   1.845   3.376  14.543  0.7455  0.1266 -0.3351
  525MPD2    C1 7846   1.930   3.418  14.646  0.6014  0.2124 -0.3861
  525MPD2    C2 7847   2.038   3.505  14.620 -0.7317 -0.0853  0.4990
  525MPD2    C3 7848   2.053   3.554  14.494 -0.0706 -0.9328  0.0338
  525MPD2    C4 7849   1.973   3.515  14.391  0.9817  0.1506  0.4950
  525MPD2    C5 7850   1.872   3.426  14.417  0.3475 -0.0454  0.4431
  525MPD2     H 7851   2.086   3.535  14.713  1.2668 -1.7558  0.0042
  525MPD2    H1 7852   1.980   3.555  14.291  0.3092  0.9200  0.7481
  525MPD2    H2 7853   1.766   3.302  14.555 -0.7408  2.2185  2.5218
  525MPD2    H3 7854   1.807   3.398  14.334  0.5794 -1.6834  0.8144
  525MPD2     N 7855   2.129   3.669  14.456 -0.2812  0.1232  0.0418
  525MPD2    H5 7856   2.102   3.716  14.370 -1.3711 -0.4504  0.0752
  525MPD2    N1 7857   1.916   3.359  14.774 -0.0514 -0.9300 -0.2416
  525MPD2    H7 7858   1.987   3.387  14.841 -0.5806 -0.0482 -0.0446
  526TMC3    C1 7859   1.859   3.220  14.943 -0.3503 -0.5824  0.1436
  526TMC3    C2 7860   1.768   3.162  15.017 -0.5436 -0.4778 -0.5394
  526TMC3    C3 7861   1.805   3.079  15.117 -0.6237  0.8137  0.2142
  526TMC3    C4 7862   1.996   3.209  14.962 -0.4895 -0.0804 -0.2025
  526TMC3    C5 7863   2.036   3.118  15.059  0.1785 -0.5782  0.2088
  526TMC3    C6 7864   1.939   3.059  15.135 -0.6674  0.0100 -0.0880
  526TMC3     C 7865   1.815   3.285  14.819 -0.8269 -0.3130 -0.6932
  526TMC3     O 7866   1.699   3.267  14.780  0.0984 -0.4041 -0.5447
  526TMC3     H 7867   1.665   3.162  14.985 -0.4748 -0.8109 -0.7662
  526TMC3    H1 7868   2.064   3.225  14.879  0.1729  2.3850  0.8132
  526TMC3    H2 7869   1.975   3.005  15.222 -2.6644 -1.4828 -0.1915
  526TMC3    C7 7870   2.172   3.074  15.071 -0.6989 -0.3169 -0.0730
  526TMC3    C8 7871   1.725   3.051  15.236  0.2826 -0.3492 -0.2726
  526TMC3    O1 7872   2.203   2.962  15.109 -0.0348  0.0721 -0.2964
  526TMC3    O2 7873   1.755   2.978  15.328  0.3303 -0.2745 -0.2434
  527MPD2     C 7874   4.335   1.461   0.171 -0.1965  0.4240 -0.7599
  527MPD2    C1 7875   4.349   1.551   0.271 -0.2767  0.0264 -0.6038
  527MPD2    C2 7876   4.473   1.592   0.318  0.0271 -0.1241 -0.6245
  527MPD2    C3 7877   4.583   1.538   0.248 -0.2200  0.2644 -0.5376
  527MPD2    C4 7878   4.574   1.438   0.146 -0.3235  0.3156  0.2988
  527MPD2    C5 7879   4.442   1.399   0.112  0.1218  0.0937 -0.1896
  527MPD2     H 7880   4.479   1.671   0.392 -4.0821 -0.2843 -0.0893
  527MPD2    H1 7881   4.662   1.397   0.097 -0.0191 -0.2928  1.3497
  527MPD2    H2 7882   4.238   1.430   0.134  0.6842 -1.5449 -1.4464
  527MPD2    H3 7883   4.421   1.327   0.034  4.3417  1.4082 -2.5673
  527MPD2     N 7884   4.704   1.587   0.288 -0.2451 -0.1963 -0.6298
  527MPD2    H5 7885   4.708   1.654   0.365 -0.0924  0.1659 -0.9501
  527MPD2    N1 7886   4.250   1.624   0.329 -0.4714  0.4338 -0.0940
  527MPD2    H7 7887   4.270   1.709   0.381  0.1748  0.7377 -0.8368
  528TMC3    C1 7888   4.038   1.690   0.388  0.4502 -0.3417 -0.1636
  528TMC3    C2 7889   4.087   1.816   0.408  0.3737  0.4960 -0.6831
  528TMC3    C3 7890   4.022   1.898   0.494  0.6620 -0.4271 -0.3132
  528TMC3    C4 7891   3.927   1.649   0.461 -0.2810 -0.0472 -0.4914
  528TMC3    C5 7892   3.866   1.738   0.547  0.0179 -0.3590 -0.4422
  528TMC3    C6 7893   3.930   1.856   0.582 -0.4929 -0.3447  0.5933
  528TMC3     C 7894   4.119   1.586   0.329  0.1183 -0.0049 -0.0597
  528TMC3     O 7895   4.057   1.496   0.276 -0.7791  0.1036  0.1731
  528TMC3     H 7896   4.179   1.845   0.359 -0.5485  1.1524 -2.0603
  528TMC3    H1 7897   3.895   1.547   0.443 -0.9670 -0.1924  1.5115
  528TMC3    H2 7898   3.908   1.916   0.670 -1.3324  1.2207 -0.6941
  528TMC3    C7 7899   3.772   1.698   0.654  0.6527 -0.2639 -0.3044
  528TMC3    C8 7900   4.106   1.990   0.550 -0.2338  0.0007  0.9804
  528TMC3    O1 7901   3.765   1.761   0.764  0.4706  0.2794  0.0721
  528TMC3    O2 7902   4.218   1.952   0.560  0.3061  0.1248 -0.4775
  529MPD2     C 7903   3.004   4.594   0.955 -0.1173  0.1987  0.2268
  529MPD2    C1 7904   2.877   4.643   0.981 -0.3228  0.3028  0.4263
  529MPD2    C2 7905   2.836   0.016   0.913  0.2486 -0.3017 -0.1467
  529MPD2    C3 7906   2.912   0.080   0.813  0.4522 -0.6076 -0.7549
  529MPD2    C4 7907   3.032   0.018   0.774 -0.0622  0.8342 -0.2625
  529MPD2    C5 7908   3.075   4.646   0.845 -0.5390  0.0533 -0.5947
  529MPD2     H 7909   2.739   0.055   0.944  1.7112  0.9612  2.7987
  529MPD2    H1 7910   3.093   0.060   0.695 -1.2032  3.0017 -0.0016
  529MPD2    H2 7911   3.054   4.509   0.999  0.4839 -0.7461 -2.3056
  529MPD2    H3 7912   3.167   4.597   0.815 -1.3749 -1.2009 -1.1260
  529MPD2     N 7913   2.873   0.187   0.737 -0.3632  0.6563 -0.7974
  529MPD2    H5 7914   2.926   0.211   0.654  2.4692 -0.2149  0.7684
  529MPD2    N1 7915   2.795   4.586   1.076 -0.5453 -0.1913  0.2131
  529MPD2    H7 7916   2.714   4.643   1.098  0.0375  0.5581  0.3656
  530TMC3    C1 7917   2.698   4.453   1.233  0.5203  0.6921  0.7130
  530TMC3    C2 7918   2.732   4.387   1.344 -0.6591 -0.7038 -0.6819
  530TMC3    C3 7919   2.624   4.346   1.419 -0.5347  0.3041 -0.3781
  530TMC3    C4 7920   2.574   4.482   1.185  0.2496  0.3871  0.8130
  530TMC3    C5 7921   2.477   4.449   1.273  0.6250  0.5233  0.5168
  530TMC3    C6 7922   2.496   4.382   1.394 -0.6414 -0.3225 -0.7494
  530TMC3     C 7923   2.813   4.472   1.150  0.4120 -0.4519 -0.1891
  530TMC3     O 7924   2.921   4.412   1.175 -0.0454 -0.5532 -0.8642
  530TMC3     H 7925   2.835   4.369   1.374  0.0006  0.9111 -2.0204
  530TMC3    H1 7926   2.550   4.519   1.085 -0.9773 -1.9727  0.2311
  530TMC3    H2 7927   2.416   4.352   1.460 -1.2165  0.4656 -1.0837
  530TMC3    C7 7928   2.342   4.493   1.234  0.0795  0.7927 -1.4209
  530TMC3    C8 7929   2.652   4.276   1.546  0.4229  0.0790  0.1450
  530TMC3    O1 7930   2.318   4.556   1.132 -0.3626  0.3163 -0.5464
  530TMC3    O2 7931   2.547   4.235   1.599 -0.4397  0.8007  0.4682
  531MPD2     C 7932   0.852   1.645  12.956 -0.6313  0.7681  0.5427
  531MPD2    C1 7933   0.780   1.743  13.022  0.5689 -0.5952  0.0854
  531MPD2    C2 7934   0.696   1.826  12.950 -0.5788  0.6053 -0.6418
  531MPD2    C3 7935   0.672   1.800  12.815  0.2003 -0.6034 -0.0908
  531MPD2    C4 7936   0.730   1.691  12.760  0.2496  0.4413  0.0277
  531MPD2    C5 7937   0.809   1.613  12.832  0.0223  0.0922  0.7663
  531MPD2     H 7938   0.670   1.920  12.996  0.2041  0.5469 -0.0741
  531MPD2    H1 7939   0.696   1.650  12.665  1.3138 -0.7123  0.1362
  531MPD2    H2 7940   0.909   1.568  13.006  0.2840 -0.1164 -1.8827
  531MPD2    H3 7941   0.849   1.521  12.790  0.6038  0.3095  0.8438
  531MPD2     N 7942   0.588   1.884  12.738  0.1694 -0.1842 -0.7095
  531MPD2    H5 7943   0.582   1.878  12.637  0.5133 -1.8980 -0.6262
  531MPD2    N1 7944   0.798   1.755  13.160  0.3474 -0.3199  0.1887
  531MPD2    H7 7945   0.881   1.709  13.197  0.5712 -0.0481  0.0245
  532TMC3    C1 7946   0.782   1.852  13.377  0.3141  0.5663  0.3076
  532TMC3    C2 7947   0.704   1.945  13.447  0.3181 -0.8895 -0.6361
  532TMC3    C3 7948   0.759   2.055  13.499 -0.0367  0.1410 -0.0171
  532TMC3    C4 7949   0.919   1.862  13.382  1.1789 -0.6010  0.2388
  532TMC3    C5 7950   0.970   1.974  13.438 -0.2011  0.0135 -0.6338
  532TMC3    C6 7951   0.894   2.065  13.499 -0.4327 -0.2249  1.3322
  532TMC3     C 7952   0.721   1.830  13.245  0.0641 -0.5443  0.6989
  532TMC3     O 7953   0.613   1.888  13.231 -0.1308  0.4281 -0.1010
  532TMC3     H 7954   0.597   1.933  13.455  0.3536 -0.6312  0.2770
  532TMC3    H1 7955   0.978   1.795  13.321  1.9298  0.6562 -0.4031
  532TMC3    H2 7956   0.938   2.158  13.534 -2.0915  0.7058  0.9318
  532TMC3    C7 7957   1.112   2.001  13.440  0.2160  0.3791  0.4167
  532TMC3    C8 7958   0.694   2.179  13.466  0.7224 -0.3046  0.2134
  532TMC3    O1 7959   1.149   2.116  13.457 -0.0643  0.8820 -0.1586
  532TMC3    O2 7960   0.729   2.288  13.517  0.0152 -0.1160  0.1691
  533TMC3    C1 7961   2.209   3.868  14.550 -0.5595  0.3014 -0.4861
  533TMC3    C2 7962   2.324   3.929  14.591 -0.0034 -0.0952 -0.3237
  533TMC3    C3 7963   2.314   4.036  14.680 -0.3475  0.0838 -0.7282
  533TMC3    C4 7964   2.098   3.883  14.620  0.1789  0.1140  0.0818
  533TMC3    C5 7965   2.092   3.981  14.714 -0.3684 -0.8784  0.2626
  533TMC3    C6 7966   2.198   4.068  14.741 -0.7106  0.3501  0.0254
  533TMC3     C 7967   2.229   3.723  14.532  0.6341  0.2939 -0.0207
  533TMC3     O 7968   2.304   3.657  14.602 -0.3197 -0.1106  0.8214
  533TMC3     H 7969   2.424   3.909  14.554 -0.0908 -1.0716 -0.0328
  533TMC3    H1 7970   2.012   3.822  14.593  0.5286  0.3594 -1.5702
  533TMC3    H2 7971   2.204   4.139  14.823  0.9998  1.1536 -0.7988
  533TMC3    C7 7972   1.992   3.961  14.811 -0.1121 -0.0901  0.1182
  533TMC3    C8 7973   2.415   4.145  14.678 -0.6084 -0.0820  0.1177
  533TMC3    O1 7974   1.933   3.851  14.816  0.2348 -0.5217  0.0679
  533TMC3    O2 7975   2.363   4.251  14.715  0.5566 -0.1360 -0.4317
  534MPD2     C 7976   3.653   0.963   1.677 -0.4532  0.2775 -0.4516
  534MPD2    C1 7977   3.633   0.947   1.541  0.0494 -0.6329  0.0440
  534MPD2    C2 7978   3.668   0.829   1.477  0.0740 -0.1166  0.5013
  534MPD2    C3 7979   3.747   0.739   1.541  0.1922 -0.0676 -0.3076
  534MPD2    C4 7980   3.790   0.770   1.661  0.1683  0.1473 -0.2335
  534MPD2    C5 7981   3.743   0.874   1.730  0.2713  0.0368  0.0919
  534MPD2     H 7982   3.646   0.825   1.371 -1.5796 -1.0366  0.8958
  534MPD2    H1 7983   3.851   0.699   1.717  0.1951  0.9264  0.7379
  534MPD2    H2 7984   3.612   1.045   1.736 -1.3357 -0.8182  0.4436
  534MPD2    H3 7985   3.771   0.875   1.834 -1.1542  0.8090  0.4642
  534MPD2     N 7986   3.793   0.619   1.475 -0.9459  0.6539 -0.3492
  534MPD2    H5 7987   3.837   0.550   1.536 -1.6764 -2.2352 -3.1160
  534MPD2    N1 7988   3.573   1.044   1.456  0.1150 -0.1666  0.1622
  534MPD2    H7 7989   3.551   1.021   1.359 -1.1564  3.2974 -0.3672
  535TMC3    C1 7990   3.868   0.486   1.304  0.2886  0.7892  0.3269
  535TMC3    C2 7991   3.834   0.371   1.375  0.3625  0.2282  0.3328
  535TMC3    C3 7992   3.878   0.250   1.324  0.0491  0.1080 -0.2171
  535TMC3    C4 7993   3.930   0.483   1.185  0.4129 -0.0367 -0.7380
  535TMC3    C5 7994   3.955   0.361   1.134  0.5890  0.0062  0.6605
  535TMC3    C6 7995   3.936   0.244   1.198 -0.3125  0.3074 -0.0948
  535TMC3     C 7996   3.808   0.608   1.342  0.2829  0.2510 -0.0957
  535TMC3     O 7997   3.785   0.692   1.252  0.0937  0.3083 -0.3626
  535TMC3     H 7998   3.764   0.377   1.459 -0.2372 -0.6279 -0.1089
  535TMC3    H1 7999   3.960   0.572   1.131  1.0362 -0.5525 -1.2464
  535TMC3    H2 8000   3.977   0.155   1.151 -1.9961 -0.9127  0.7264
  535TMC3    C7 8001   4.020   0.356   1.007  0.3261 -0.6320  0.1832
  535TMC3    C8 8002   3.851   0.123   1.401  0.5769  0.0223 -0.1787
  535TMC3    O1 8003   4.095   0.265   0.989  0.1536 -0.6097 -0.3209
  535TMC3    O2 8004   3.843   0.015   1.337  0.2881 -0.8917 -0.2205
  536MPD2     C 8005   3.425   3.673  16.486 -0.0464  1.3693  0.1236
  536MPD2    C1 8006   3.328   3.579  16.505 -0.1813  0.3465  0.1448
  536MPD2    C2 8007   3.237   3.565  16.400  0.3007  0.1985 -1.0166
  536MPD2    C3 8008   3.244   3.647  16.284  0.7770 -0.0524 -0.1035
  536MPD2    C4 8009   3.357   3.713  16.261  0.6838  0.1871 -0.1890
  536MPD2    C5 8010   3.445   3.730  16.364 -0.5595  0.5208  0.0810
  536MPD2     H 8011   3.152   3.503  16.423 -0.9298  1.3903 -2.3706
  536MPD2    H1 8012   3.378   3.765  16.168 -1.4217  0.5068 -0.4793
  536MPD2    H2 8013   3.490   3.689  16.571  1.6663  0.4215 -1.0099
  536MPD2    H3 8014   3.537   3.785  16.349 -0.4272  1.0297  2.7085
  536MPD2     N 8015   3.144   3.653  16.181  0.3246 -0.1183  0.3596
  536MPD2    H5 8016   3.150   3.712  16.099 -0.7365  2.4123  2.1049
  536MPD2    N1 8017   3.314   3.510  16.632 -0.5012 -0.1562  0.2998
  536MPD2    H7 8018   3.399   3.509  16.688  0.1035 -1.7291 -0.6170
  537TMC3    C1 8019   3.230   3.371  16.802  0.8838  0.1051 -0.1054
  537TMC3    C2 8020   3.266   3.454  16.905 -0.3447  0.2079  0.1420
  537TMC3    C3 8021   3.275   3.411  17.034 -0.4118  0.0212  0.0196
  537TMC3    C4 8022   3.190   3.247  16.835  0.0932  0.0680  0.1766
  537TMC3    C5 8023   3.207   3.198  16.959 -0.4531 -0.0069  0.2073
  537TMC3    C6 8024   3.246   3.281  17.063  0.4547  0.3850 -0.2830
  537TMC3     C 8025   3.212   3.422  16.670 -0.0833 -0.0121  0.0061
  537TMC3     O 8026   3.105   3.386  16.619  0.4737  0.7498 -0.2435
  537TMC3     H 8027   3.295   3.555  16.875 -1.5063  0.6093  0.3667
  537TMC3    H1 8028   3.156   3.175  16.761 -0.9852 -0.2049  0.9313
  537TMC3    H2 8029   3.252   3.245  17.165 -1.9311 -1.5140 -0.8145
  537TMC3    C7 8030   3.151   3.069  16.985 -0.3351  0.4896 -0.4290
  537TMC3    C8 8031   3.273   3.505  17.143 -0.1219  0.4993  0.0476
  537TMC3    O1 8032   3.062   3.029  16.906 -0.7821  0.5562  0.7811
  537TMC3    O2 8033   3.303   3.474  17.262 -1.0823 -0.2035  0.1726
  538TMC3    C1 8034   4.115   1.987  11.313  0.5971 -0.6212  0.5892
  538TMC3    C2 8035   4.241   1.938  11.282 -0.0170 -0.2017  0.3526
  538TMC3    C3 8036   4.292   1.957  11.155 -0.1644 -0.8705 -0.2595
  538TMC3    C4 8037   4.041   2.038  11.212 -0.7076 -0.2732 -1.0249
  538TMC3    C5 8038   4.093   2.040  11.088  0.0827  0.2971  0.0913
  538TMC3    C6 8039   4.217   2.006  11.053  0.0854  0.0969 -0.1172
  538TMC3     C 8040   4.062   1.997  11.446  0.1204  0.4591  0.0492
  538TMC3     O 8041   3.953   2.045  11.463  0.0472 -0.2741  0.1388
  538TMC3     H 8042   4.299   1.884  11.357  0.0739  0.5166  0.7974
  538TMC3    H1 8043   3.945   2.083  11.235 -0.9233 -2.0684  1.5361
  538TMC3    H2 8044   4.261   2.013  10.954 -0.8982 -1.1617 -0.6418
  538TMC3    C7 8045   4.009   2.101  10.989 -0.1416 -0.4707  0.1436
  538TMC3    C8 8046   4.436   1.940  11.138 -0.5353  0.1392 -0.0821
  538TMC3    O1 8047   3.889   2.082  11.009  0.2166  0.4528  0.2236
  538TMC3    O2 8048   4.497   1.880  11.228 -0.0994  0.2945  0.1725
  539MPD2     C 8049   3.537   1.352  11.902 -0.1021  0.1972  0.2950
  539MPD2    C1 8050   3.609   1.395  11.791  0.0239  0.1127  0.5558
  539MPD2    C2 8051   3.634   1.522  11.770 -0.4835  0.1924 -0.2410
  539MPD2    C3 8052   3.582   1.619  11.853  0.1969 -0.0093 -0.5081
  539MPD2    C4 8053   3.505   1.575  11.960 -0.1783  0.2489 -0.2383
  539MPD2    C5 8054   3.492   1.444  11.988 -0.1266 -0.7470  0.5686
  539MPD2     H 8055   3.685   1.550  11.679  2.6285 -1.4584  0.9715
  539MPD2    H1 8056   3.456   1.641  12.030  0.8551  0.4514  0.2971
  539MPD2    H2 8057   3.511   1.247  11.916 -1.3662  0.8209  2.6220
  539MPD2    H3 8058   3.421   1.426  12.068 -0.6557  1.1560  0.5383
  539MPD2     N 8059   3.583   1.748  11.826  0.0258  0.0589  0.3320
  539MPD2    H5 8060   3.538   1.805  11.897 -0.6765  0.3696 -0.3710
  539MPD2    N1 8061   3.655   1.295  11.704  0.1799 -0.0035  0.6008
  539MPD2    H7 8062   3.722   1.319  11.631  1.0902  1.5593  1.9320
  540TMC3    C1 8063   3.646   1.950  11.710 -0.0218  0.1071  0.0965
  540TMC3    C2 8064   3.629   1.999  11.583 -0.1113  0.3302  0.2282
  540TMC3    C3 8065   3.627   2.135  11.567 -0.2117  0.3103  0.0092
  540TMC3    C4 8066   3.657   2.036  11.818 -0.4451 -0.0585  0.2651
  540TMC3    C5 8067   3.665   2.168  11.799 -0.0036 -0.1235 -0.5487
  540TMC3    C6 8068   3.646   2.225  11.673 -0.4041 -1.2042 -0.3719
  540TMC3     C 8069   3.656   1.810  11.724 -0.0281  0.4882 -0.3830
  540TMC3     O 8070   3.695   1.757  11.623 -0.2227 -0.1772  0.4315
  540TMC3     H 8071   3.631   1.935  11.496 -0.3579  0.8216 -0.1378
  540TMC3    H1 8072   3.656   2.001  11.920  0.6398 -1.8457 -0.3299
  540TMC3    H2 8073   3.659   2.329  11.647  1.6443 -0.8101  2.2407
  540TMC3    C7 8074   3.647   2.251  11.916  0.0896 -0.1014 -0.1067
  540TMC3    C8 8075   3.575   2.197  11.445 -0.5544  0.5435 -0.6200
  540TMC3    O1 8076   3.619   2.206  12.025  0.1863 -0.3435 -0.2537
  540TMC3    O2 8077   3.610   2.312  11.422  0.2198 -0.1580  0.0873
  541MPD2     C 8078   2.918   2.235  13.167  1.0264  0.3073 -0.1589
  541MPD2    C1 8079   2.785   2.249  13.176 -0.2895  0.4715 -0.0928
  541MPD2    C2 8080   2.717   2.324  13.078  0.0940  0.3975 -0.2052
  541MPD2    C3 8081   2.784   2.384  12.973  0.0787 -0.1691  0.1861
  541MPD2    C4 8082   2.924   2.368  12.971  0.0133  0.4764 -0.4588
  541MPD2    C5 8083   2.989   2.296  13.070  0.4774 -0.6485  0.5638
  541MPD2     H 8084   2.613   2.354  13.091 -0.6885 -1.1490 -3.0001
  541MPD2    H1 8085   2.981   2.430  12.902  0.1820 -0.7371 -1.3950
  541MPD2    H2 8086   2.983   2.175  13.231  0.2351 -0.3760  0.0084
  541MPD2    H3 8087   3.095   2.277  13.056  0.7696 -0.0527  1.9331
  541MPD2     N 8088   2.726   2.474  12.877  0.3170  0.2960  0.5489
  541MPD2    H5 8089   2.793   2.508  12.809  2.2621 -0.9928  1.8078
  541MPD2    N1 8090   2.701   2.196  13.278  0.1872  0.1388 -0.2680
  541MPD2    H7 8091   2.600   2.201  13.266  0.0170 -1.2586  0.5079
  542TMC3    C1 8092   2.551   2.555  12.745  0.3596  0.0105  0.3888
  542TMC3    C2 8093   2.593   2.486  12.635 -0.3849  0.4194 -0.8117
  542TMC3    C3 8094   2.532   2.517  12.518  0.2213 -0.5486  0.3137
  542TMC3    C4 8095   2.453   2.657  12.737 -0.0587 -0.2969  0.3131
  542TMC3    C5 8096   2.399   2.690  12.618 -0.1937 -0.1634  0.3254
  542TMC3    C6 8097   2.447   2.624  12.502  0.5779  0.1123  0.6854
  542TMC3     C 8098   2.593   2.517  12.880 -0.1976  0.2682  0.0735
  542TMC3     O 8099   2.502   2.507  12.962  0.5983 -0.1775  0.7124
  542TMC3     H 8100   2.667   2.407  12.641 -0.4740  0.4927  1.1556
  542TMC3    H1 8101   2.437   2.720  12.823  0.5843  0.2207  0.0444
  542TMC3    H2 8102   2.426   2.668  12.405  2.0862  0.6953  0.6225
  542TMC3    C7 8103   2.300   2.804  12.611 -0.2169 -0.0067 -0.4394
  542TMC3    C8 8104   2.537   2.415  12.418  0.2945 -0.0553 -0.8170
  542TMC3    O1 8105   2.252   2.828  12.719  0.6765 -0.1500 -0.0937
  542TMC3    O2 8106   2.557   2.296  12.442 -0.1703 -0.1815  0.1754
  543TMC3    C1 8107   1.951   4.321  17.624 -0.7029  0.0207  0.3602
  543TMC3    C2 8108   2.009   4.226  17.700 -0.6185  0.0273 -0.5488
  543TMC3    C3 8109   1.985   4.230   0.097  0.7959  1.0115 -0.2567
  543TMC3    C4 8110   1.871   4.419  17.668 -0.8337 -0.2336  0.9611
  543TMC3    C5 8111   1.846   4.425   0.065  0.5703 -0.1238  0.0547
  543TMC3    C6 8112   1.904   4.330   0.146 -0.1652  0.1432 -0.1047
  543TMC3     C 8113   1.971   4.304  17.486 -0.5011 -0.4161 -0.0441
  543TMC3     O 8114   2.077   4.253  17.458 -0.1602 -0.1011  0.6788
  543TMC3     H 8115   2.066   4.145  17.656 -0.2559 -0.1746  0.2791
  543TMC3    H1 8116   1.817   4.486  17.602  1.1823  0.6328  0.1789
  543TMC3    H2 8117   1.872   4.340   0.249  0.0414  0.0547 -0.0311
  543TMC3    C7 8118   1.825   4.558   0.114 -0.4331 -0.0521  0.0492
  543TMC3    C8 8119   2.043   4.128   0.182  0.9228  0.4211  0.2378
  543TMC3    O1 8120   1.766   4.565   0.222  0.3750  0.2469 -0.1662
  543TMC3    O2 8121   2.118   4.054   0.121 -0.3830  0.1281  0.6570
  544MPD2     C 8122   2.082   3.852   0.608 -0.6424  0.0685  0.1838
  544MPD2    C1 8123   2.109   3.824   0.475 -0.3395  0.0662 -0.7977
  544MPD2    C2 8124   2.088   3.919   0.381  0.0858  0.7201  0.1652
  544MPD2    C3 8125   2.039   4.040   0.417  0.1807  0.2818 -0.6762
  544MPD2    C4 8126   2.019   4.070   0.552 -0.7097 -0.5224  0.0279
  544MPD2    C5 8127   2.037   3.973   0.648 -0.7083 -0.4997  0.0104
  544MPD2     H 8128   2.105   3.894   0.277  0.9346 -0.1205  0.5000
  544MPD2    H1 8129   1.973   4.163   0.582 -0.0114  0.9212 -3.3442
  544MPD2    H2 8130   2.092   3.782   0.690 -1.1111 -0.9947 -0.6613
  544MPD2    H3 8131   2.009   4.001   0.749 -4.4200 -0.5808 -1.0040
  544MPD2     N 8132   1.997   4.133   0.320  0.6567  0.0704 -0.0679
  544MPD2    H5 8133   1.949   4.219   0.343  0.2342 -0.3514  0.6116
  544MPD2    N1 8134   2.143   3.700   0.420 -0.2045 -0.2548 -0.4311
  544MPD2    H7 8135   2.138   3.691   0.319 -2.0002  0.2287 -0.3927
  545TMC3    C1 8136   2.156   3.463   0.412 -0.0127  0.1109  0.1781
  545TMC3    C2 8137   2.059   3.458   0.314  0.0685 -0.0361  0.0656
  545TMC3    C3 8138   2.041   3.348   0.238  0.5600 -0.1575  0.4439
  545TMC3    C4 8139   2.231   3.356   0.455 -0.3936  0.1365 -0.8318
  545TMC3    C5 8140   2.212   3.244   0.380  0.2771  0.0202 -0.2853
  545TMC3    C6 8141   2.128   3.242   0.272  0.4199  0.1155 -0.4224
  545TMC3     C 8142   2.158   3.582   0.488  1.0731 -0.7204 -0.2336
  545TMC3     O 8143   2.156   3.577   0.611  0.1174 -0.6968 -0.0912
  545TMC3     H 8144   2.023   3.553   0.275  1.0999 -0.3515 -1.6720
  545TMC3    H1 8145   2.296   3.368   0.542 -0.1284  3.0765 -1.4229
  545TMC3    H2 8146   2.112   3.151   0.215 -1.7120 -1.0564  2.0583
  545TMC3    C7 8147   2.317   3.146   0.379 -0.2819  0.2766  0.6571
  545TMC3    C8 8148   1.937   3.332   0.140  0.0123  0.4776  0.3568
  545TMC3    O1 8149   2.310   3.058   0.295 -0.1226  0.2463 -0.3535
  545TMC3    O2 8150   1.942   3.226   0.080 -0.0700 -0.1210  0.0568
  546MPD2     C 8151   3.321   3.845   0.219 -0.2977 -0.3661  0.6898
  546MPD2    C1 8152   3.262   3.877   0.097 -0.1428  0.4341 -0.4684
  546MPD2    C2 8153   3.304   3.999   0.044 -1.0023 -0.6187 -1.0113
  546MPD2    C3 8154   3.403   4.081   0.103 -0.8654 -0.5656 -0.1935
  546MPD2    C4 8155   3.461   4.047   0.221 -0.3812 -0.0169  0.0986
  546MPD2    C5 8156   3.420   3.924   0.274  0.0509 -0.4877  0.1096
  546MPD2     H 8157   3.259   4.034  17.691 -1.4046 -0.3311 -0.7064
  546MPD2    H1 8158   3.543   4.106   0.261 -0.9648  2.0743 -1.7567
  546MPD2    H2 8159   3.305   3.746   0.259 -0.4557  0.2156  2.0373
  546MPD2    H3 8160   3.465   3.883   0.364  0.6481  0.2192  0.1338
  546MPD2     N 8161   3.446   4.202   0.039  0.3994 -0.4443 -0.8937
  546MPD2    H5 8162   3.519   4.258   0.081 -1.6117  0.0892  1.8680
  546MPD2    N1 8163   3.186   3.787   0.020  0.4715  0.2145 -0.1612
  546MPD2    H7 8164   3.190   3.687   0.039  1.3237  0.8656  3.1669
  547TMC3    C1 8165   3.053   3.718  17.587  0.0009  0.2077 -0.5629
  547TMC3    C2 8166   2.948   3.738  17.501 -0.6558 -0.8339 -0.6989
  547TMC3    C3 8167   2.910   3.635  17.423  0.7421 -0.9417  0.7194
  547TMC3    C4 8168   3.139   3.612  17.576  0.7868 -0.3866  0.4393
  547TMC3    C5 8169   3.111   3.515  17.487  0.1316  0.3877 -0.0346
  547TMC3    C6 8170   2.989   3.517  17.422 -0.8576 -0.5298 -0.7729
  547TMC3     C 8171   3.099   3.835  17.663 -0.1340  0.6553 -0.2351
  547TMC3     O 8172   3.042   3.942  17.649 -0.6004 -0.5843 -0.2594
  547TMC3     H 8173   2.897   3.834  17.500  1.6055  0.3925  2.3240
  547TMC3    H1 8174   3.236   3.598  17.623  0.5145 -0.5246  0.9503
  547TMC3    H2 8175   2.952   3.431  17.367 -2.8167  0.0758 -0.3972
  547TMC3    C7 8176   3.170   3.384  17.522  0.5148  0.3986 -0.6740
  547TMC3    C8 8177   2.823   3.665  17.313 -0.0001  0.1124  0.1789
  547TMC3    O1 8178   3.252   3.383  17.612  0.3656  0.7743  0.4429
  547TMC3    O2 8179   2.766   3.770  17.319 -0.0796 -0.2493  0.3065
  548MPD2     C 8180   2.490   4.419  13.032 -0.2744 -0.3020 -0.1082
  548MPD2    C1 8181   2.457   4.298  12.970 -0.0698  0.0493  0.0683
  548MPD2    C2 8182   2.547   4.245  12.874  0.6862  0.3885 -1.0314
  548MPD2    C3 8183   2.674   4.313  12.858  0.3038 -0.1354  0.5530
  548MPD2    C4 8184   2.695   4.422  12.930  0.1477  0.0895 -0.2837
  548MPD2    C5 8185   2.608   4.474  13.022  0.4156 -0.3276 -0.4867
  548MPD2     H 8186   2.520   4.153  12.822  2.7518 -0.0374 -1.3472
  548MPD2    H1 8187   2.787   4.480  12.929  0.1963  0.0117 -0.3732
  548MPD2    H2 8188   2.422   4.463  13.104 -1.7087 -1.0539 -0.9891
  548MPD2    H3 8189   2.640   4.565  13.072  4.6082 -1.4872 -1.0918
  548MPD2     N 8190   2.772   4.252  12.783 -0.8066 -0.2549 -0.2824
  548MPD2    H5 8191   2.745   4.157  12.759 -0.3643 -0.6822  0.9313
  548MPD2    N1 8192   2.331   4.237  12.995  0.5945  0.0607 -0.0893
  548MPD2    H7 8193   2.262   4.290  13.046  0.2276 -1.2542  0.7786
  549TMC3    C1 8194   2.158   4.069  12.974 -0.2677 -0.2340  0.4211
  549TMC3    C2 8195   2.067   4.171  12.940 -0.1968 -0.0029 -0.5085
  549TMC3    C3 8196   1.936   4.124  12.928  0.2592  0.1511  0.5341
  549TMC3    C4 8197   2.119   3.938  12.978  0.4824 -0.0354  0.1439
  549TMC3    C5 8198   1.987   3.904  12.983  0.1726 -0.0257 -0.6569
  549TMC3    C6 8199   1.894   3.998  12.958 -0.1156  0.2297 -0.2263
  549TMC3     C 8200   2.294   4.109  12.946  0.3357  0.1939  1.0682
  549TMC3     O 8201   2.368   4.019  12.912  0.2281 -0.7439 -0.5907
  549TMC3     H 8202   2.092   4.271  12.908 -1.6042  0.9062  1.2519
  549TMC3    H1 8203   2.197   3.865  12.996 -1.6423 -2.0574  1.1215
  549TMC3    H2 8204   1.791   3.964  12.960 -1.0000  3.0110  1.1292
  549TMC3    C7 8205   1.944   3.774  12.971 -0.5784  0.0070 -0.4089
  549TMC3    C8 8206   1.854   4.215  12.850  0.9821 -0.5605 -0.1870
  549TMC3    O1 8207   1.849   3.734  13.038  0.3070 -0.3029  0.3678
  549TMC3    O2 8208   1.747   4.246  12.910  0.1537  0.0637  0.3466
  550TMC3    C1 8209   2.066   2.499  12.250  0.1517 -0.4225 -0.0260
  550TMC3    C2 8210   2.148   2.454  12.347  0.6327 -0.6483  0.5027
  550TMC3    C3 8211   2.135   2.503  12.472 -0.3064  0.4287 -0.0839
  550TMC3    C4 8212   1.960   2.587  12.282 -0.5453 -0.6552 -0.1341
  550TMC3    C5 8213   1.954   2.628  12.407  0.1967  0.6066  0.0446
  550TMC3    C6 8214   2.041   2.596  12.510 -0.5660 -0.8849  1.0049
  550TMC3     C 8215   2.091   2.458  12.112  0.4210  0.1768 -0.1384
  550TMC3     O 8216   2.147   2.349  12.096 -0.0906 -0.6823 -0.6268
  550TMC3     H 8217   2.229   2.383  12.331  1.0024 -0.2404  0.5673
  550TMC3    H1 8218   1.895   2.624  12.203 -0.2251  0.7231  0.2480
  550TMC3    H2 8219   2.025   2.633  12.611 -0.9797 -1.5033  1.1645
  550TMC3    C7 8220   1.834   2.709  12.434 -0.5789 -0.0905 -0.0885
  550TMC3    C8 8221   2.159   2.393  12.567 -0.8297  0.6161 -0.1271
  550TMC3    O1 8222   1.742   2.701  12.354  0.2869 -0.7128  0.2966
  550TMC3    O2 8223   2.171   2.436  12.683 -0.5693  0.1917 -0.1022
  551TMC3    C1 8224   3.745   0.381  13.453 -0.1895  0.4556 -1.0392
  551TMC3    C2 8225   3.826   0.287  13.394 -0.4903  0.1950  0.4753
  551TMC3    C3 8226   3.956   0.277  13.432 -0.2432 -0.4726  0.3823
  551TMC3    C4 8227   3.795   0.457  13.562  0.5698 -0.0323 -0.9224
  551TMC3    C5 8228   3.924   0.440  13.592  0.6708 -0.0448 -0.1535
  551TMC3    C6 8229   4.007   0.351  13.532 -0.0101  0.1833 -0.1725
  551TMC3     C 8230   3.623   0.423  13.380  0.2007 -0.0764 -0.5298
  551TMC3     O 8231   3.586   0.332  13.304  0.2717  0.3644  0.4202
  551TMC3     H 8232   3.799   0.224  13.309 -0.8855  1.2478 -0.1834
  551TMC3    H1 8233   3.737   0.525  13.624  2.8733  0.4051  0.7259
  551TMC3    H2 8234   4.100   0.322  13.581  1.1327  0.8364 -1.9404
  551TMC3    C7 8235   3.979   0.520  13.696  0.0814  0.7434  0.2913
  551TMC3    C8 8236   4.048   0.186  13.356 -0.2402 -0.4165  0.8691
  551TMC3    O1 8237   4.076   0.469  13.755 -0.6220 -0.1216  0.4407
  551TMC3    O2 8238   4.010   0.071  13.339  0.0536 -0.4162 -0.5460
  552MPD2     C 8239   1.377   2.050  13.866 -0.2608  0.4552 -0.5451
  552MPD2    C1 8240   1.338   1.966  13.967 -0.9272  0.7649  0.4438
  552MPD2    C2 8241   1.420   1.945  14.071 -0.0946  0.8402  0.2818
  552MPD2    C3 8242   1.540   2.009  14.087 -0.3248  0.0726  0.5889
  552MPD2    C4 8243   1.581   2.097  13.992  0.6995 -0.5518 -0.7230
  552MPD2    C5 8244   1.499   2.114  13.881 -0.0814  0.0082 -0.2226
  552MPD2     H 8245   1.392   1.872  14.147 -0.2624  1.6846  1.0351
  552MPD2    H1 8246   1.682   2.134  13.981 -0.1270  2.6621  2.3051
  552MPD2    H2 8247   1.316   2.077  13.781 -0.7543 -0.2296 -0.4008
  552MPD2    H3 8248   1.533   2.188  13.809 -1.4827 -0.9756 -1.9244
  552MPD2     N 8249   1.632   2.002  14.199 -0.6971  0.5887  0.0918
  552MPD2    H5 8250   1.720   2.053  14.200 -1.1581  1.3864  0.7255
  552MPD2    N1 8251   1.223   1.886  13.953 -0.7471 -0.2911 -0.0605
  552MPD2    H7 8252   1.211   1.820  14.029 -1.2980 -1.1160 -0.8557
  553TMC3    C1 8253   1.030   1.791  13.844 -0.2591 -0.0586 -0.6229
  553TMC3    C2 8254   1.001   1.734  13.718  0.0651 -0.3601  1.0635
  553TMC3    C3 8255   0.928   1.618  13.722 -0.5974 -0.2217  0.1054
  553TMC3    C4 8256   0.996   1.738  13.962  0.4807 -0.4252  0.1398
  553TMC3    C5 8257   0.921   1.623  13.959  0.4428 -0.2173  0.2335
  553TMC3    C6 8258   0.887   1.561  13.843 -0.0452 -0.1927 -0.3320
  553TMC3     C 8259   1.134   1.894  13.841 -0.3189 -0.2961 -0.2009
  553TMC3     O 8260   1.134   1.971  13.749  0.0306  0.2970  0.6454
  553TMC3     H 8261   1.029   1.786  13.627  1.2675  1.7100  2.6114
  553TMC3    H1 8262   1.023   1.787  14.055  0.3501  0.1265 -0.1143
  553TMC3    H2 8263   0.849   1.460  13.839  1.1398 -0.6235 -0.5557
  553TMC3    C7 8264   0.949   1.535  14.071  0.3882  0.3549 -0.4128
  553TMC3    C8 8265   0.940   1.539  13.604  0.3513 -0.1503 -0.5222
  553TMC3    O1 8266   0.846   1.499  14.129 -0.5740  0.3021 -0.1953
  553TMC3    O2 8267   1.008   1.588  13.514 -0.6350 -0.4189 -0.0046
  554TMC3    C1 8268   2.972   2.016  11.433 -0.3107 -0.1550 -0.2070
  554TMC3    C2 8269   2.909   1.906  11.379  0.0029 -0.4752  0.4623
  554TMC3    C3 8270   2.900   1.905  11.245 -0.1299  0.1830 -0.1068
  554TMC3    C4 8271   3.035   2.116  11.373  1.1346 -0.4255 -0.3661
  554TMC3    C5 8272   3.020   2.109  11.235  0.2028  0.0289  0.1978
  554TMC3    C6 8273   2.948   2.005  11.173 -0.6486  0.1075 -0.2592
  554TMC3     C 8274   2.997   2.004  11.577  0.0553  0.6699 -0.3273
  554TMC3     O 8275   2.995   2.098  11.655 -0.3312  0.4611  0.5049
  554TMC3     H 8276   2.850   1.834  11.435 -0.6421  0.2467  0.7276
  554TMC3    H1 8277   3.088   2.190  11.432  0.4604 -0.5074  0.3373
  554TMC3    H2 8278   2.926   2.006  11.067 -1.7578 -2.1141 -0.0367
  554TMC3    C7 8279   3.048   2.220  11.147  0.1412  0.6537 -0.4460
  554TMC3    C8 8280   2.845   1.793  11.170  0.6582  0.5049 -0.2102
  554TMC3    O1 8281   3.011   2.204  11.033 -0.1992 -0.8966 -0.0860
  554TMC3    O2 8282   2.895   1.766  11.066  0.6024  0.3941 -0.3382
  555TMC3    C1 8283   2.196   0.581  15.055 -0.5336  0.6560 -0.1849
  555TMC3    C2 8284   2.307   0.648  15.107 -0.2419 -0.1766  0.3615
  555TMC3    C3 8285   2.376   0.588  15.202  0.6350  0.4669 -0.6199
  555TMC3    C4 8286   2.174   0.454  15.092 -0.0376 -0.4734 -0.4139
  555TMC3    C5 8287   2.248   0.396  15.193  0.1193  0.0378  0.3605
  555TMC3    C6 8288   2.351   0.462  15.255  0.5307 -0.1184  0.4944
  555TMC3     C 8289   2.188   0.605  14.906 -0.9691  0.1670  0.4977
  555TMC3     O 8290   2.291   0.657  14.860 -0.1082  0.8510 -0.0320
  555TMC3     H 8291   2.337   0.744  15.067  1.5136 -0.8241  0.1138
  555TMC3    H1 8292   2.105   0.386  15.045  0.4550 -0.7660 -0.7174
  555TMC3    H2 8293   2.408   0.406  15.328  1.8315  0.5983  0.0263
  555TMC3    C7 8294   2.232   0.251  15.232 -0.4327  0.1819 -0.1522
  555TMC3    C8 8295   2.502   0.649  15.247  0.2896 -0.2453  0.1837
  555TMC3    O1 8296   2.123   0.204  15.196 -0.0649 -0.7522 -0.4048
  555TMC3    O2 8297   2.546   0.745  15.183 -1.0175  0.0908 -0.4292
  556MPD2     C 8298   0.339   3.141  10.963  0.4665  0.4155 -0.1325
  556MPD2    C1 8299   0.220   3.085  10.980 -0.2683 -0.3761 -0.4095
  556MPD2    C2 8300   0.182   2.982  10.892  0.0113  0.1896 -0.2598
  556MPD2    C3 8301   0.267   2.941  10.788  0.3157 -0.4835 -0.5814
  556MPD2    C4 8302   0.387   3.007  10.777 -0.2021  0.2572 -0.3132
  556MPD2    C5 8303   0.419   3.111  10.862  0.6363 -0.2672  0.2040
  556MPD2     H 8304   0.085   2.937  10.904  0.0545  0.0108 -0.5742
  556MPD2    H1 8305   0.457   2.981  10.698 -0.3237 -1.1946  0.0748
  556MPD2    H2 8306   0.381   3.205  11.040  1.2106  0.7560 -0.8229
  556MPD2    H3 8307   0.518   3.155  10.850 -0.7251  2.6707 -0.1243
  556MPD2     N 8308   0.223   2.829  10.719 -0.1174  0.8672 -0.1379
  556MPD2    H5 8309   0.137   2.785  10.751 -0.6509  1.4948 -0.7050
  556MPD2    N1 8310   0.153   3.110  11.104  0.7659  0.0525 -0.5800
  556MPD2    H7 8311   0.080   3.045  11.132 -0.9274  2.3018  0.2203
  557TMC3    C1 8312   0.224   2.652  10.573 -0.3922 -0.2283 -0.4795
  557TMC3    C2 8313   0.234   2.602  10.448 -0.0997 -0.3987 -0.3045
  557TMC3    C3 8314   0.201   2.466  10.435 -0.3086  0.2773  0.0072
  557TMC3    C4 8315   0.208   2.563  10.676 -0.3281 -0.2733  0.0863
  557TMC3    C5 8316   0.183   2.431  10.659 -0.0179  0.2955  0.2866
  557TMC3    C6 8317   0.173   2.380  10.536  0.4430 -0.3042  0.0883
  557TMC3     C 8318   0.264   2.785  10.595 -0.1959 -0.1707  0.0160
  557TMC3     O 8319   0.350   2.837  10.529 -0.3465  0.2940 -0.1851
  557TMC3     H 8320   0.255   2.662  10.360 -0.5722  1.8075  1.0810
  557TMC3    H1 8321   0.210   2.601  10.778 -2.6605 -0.1534  0.0844
  557TMC3    H2 8322   0.148   2.275  10.531  2.0064 -0.6260 -1.0030
  557TMC3    C7 8323   0.164   2.361  10.779 -0.3990  0.7378  0.2238
  557TMC3    C8 8324   0.186   2.425  10.296 -0.3526 -0.4405 -0.1409
  557TMC3    O1 8325   0.218   2.398  10.883  0.4527 -0.3001  0.2782
  557TMC3    O2 8326   0.243   2.497  10.212 -0.6781  0.0429 -0.3986
  558TMC3    C1 8327   1.765   0.496  10.502  0.0387  0.4345 -0.6043
  558TMC3    C2 8328   1.735   0.486  10.634 -0.3170 -0.7108  0.4352
  558TMC3    C3 8329   1.637   0.398  10.670 -0.2802 -0.0761  0.4400
  558TMC3    C4 8330   1.696   0.427  10.410  0.3632  0.1367 -0.0966
  558TMC3    C5 8331   1.610   0.332  10.447 -0.3985  0.7786 -0.4734
  558TMC3    C6 8332   1.567   0.324  10.578  0.9134  0.5462  0.1124
  558TMC3     C 8333   1.886   0.567  10.460  0.9328 -0.4177 -0.0991
  558TMC3     O 8334   1.972   0.566  10.549  0.3881 -0.5196  0.8580
  558TMC3     H 8335   1.792   0.541  10.708  0.8614 -0.5594 -0.5807
  558TMC3    H1 8336   1.726   0.428  10.306 -0.4407 -1.7573 -0.3483
  558TMC3    H2 8337   1.494   0.258  10.622  1.7226 -0.9639 -0.8017
  558TMC3    C7 8338   1.525   0.268  10.348  0.1705  0.1402  0.5514
  558TMC3    C8 8339   1.596   0.409  10.802 -0.4170  0.5795 -0.2623
  558TMC3    O1 8340   1.526   0.314  10.235  0.5447  0.2618  0.6328
  558TMC3    O2 8341   1.480   0.379  10.817  0.1082 -0.0613 -0.5244
  559MPD2     C 8342   2.535   1.212  10.729  0.1890 -0.6876 -1.3649
  559MPD2    C1 8343   2.490   1.142  10.828  0.1645  0.9957  0.1221
  559MPD2    C2 8344   2.575   1.059  10.893  0.1225  0.3605 -0.6105
  559MPD2    C3 8345   2.706   1.063  10.867  0.1568 -0.2519  0.2458
  559MPD2    C4 8346   2.754   1.133  10.764  0.1216 -1.0113  0.1420
  559MPD2    C5 8347   2.668   1.204  10.688  0.5761 -0.0299 -0.4239
  559MPD2     H 8348   2.533   1.004  10.977 -2.7615  1.4130 -1.3722
  559MPD2    H1 8349   2.857   1.146  10.731  0.9123  0.3737  3.1695
  559MPD2    H2 8350   2.463   1.264  10.667  1.3402 -0.3916 -2.4572
  559MPD2    H3 8351   2.703   1.262  10.603 -0.5802  0.0466 -0.8527
  559MPD2     N 8352   2.783   0.989  10.953 -0.7271  0.0827 -0.0446
  559MPD2    H5 8353   2.735   0.940  11.027  0.0729 -0.0405  0.3908
  559MPD2    N1 8354   2.352   1.153  10.864  0.3487  0.3070 -0.2698
  559MPD2    H7 8355   2.299   1.227  10.819  1.5010 -0.5431 -3.0184
  560TMC3    C1 8356   2.951   0.913  11.081  0.0682 -0.3612  0.2546
  560TMC3    C2 8357   2.865   0.815  11.135 -0.7459 -0.4744 -0.2091
  560TMC3    C3 8358   2.899   0.771  11.260 -0.3785  0.0339  0.3243
  560TMC3    C4 8359   3.062   0.954  11.146  0.3152  0.0527  0.2944
  560TMC3    C5 8360   3.091   0.897  11.270  0.9109 -0.0291  0.0364
  560TMC3    C6 8361   3.005   0.814  11.332 -0.2561  0.5527  0.4132
  560TMC3     C 8362   2.916   0.980  10.965  0.2768 -0.3616 -0.0583
  560TMC3     O 8363   2.996   1.058  10.917  0.7004  0.3671  0.1714
  560TMC3     H 8364   2.796   0.762  11.070 -0.5459  0.6238 -1.3260
  560TMC3    H1 8365   3.141   1.014  11.104  2.2625 -2.6112  0.1328
  560TMC3    H2 8366   3.035   0.773  11.428  1.4312  1.4548  0.2624
  560TMC3    C7 8367   3.184   0.973  11.359 -0.5944  0.3368  0.2145
  560TMC3    C8 8368   2.807   0.671  11.314  0.0527  0.1153  0.3326
  560TMC3    O1 8369   3.234   0.924  11.463  0.4892 -0.0242  0.0994
  560TMC3    O2 8370   2.695   0.675  11.261  0.0640 -0.1506  0.7807
  561TMC3    C1 8371   0.184   0.300  11.283  0.3431 -0.1241 -0.8189
  561TMC3    C2 8372   0.075   0.216  11.311  0.4772  1.1192  0.4247
  561TMC3    C3 8373   0.062   0.175  11.442 -0.6518 -0.1299 -0.1989
  561TMC3    C4 8374   0.271   0.341  11.374  0.1175 -0.5731 -0.0601
  561TMC3    C5 8375   0.244   0.310  11.505 -0.0546  0.5170  0.0312
  561TMC3    C6 8376   0.144   0.217  11.537 -0.0014  0.1699 -0.2073
  561TMC3     C 8377   0.221   0.306  11.140  0.8681 -0.1114  0.1982
  561TMC3     O 8378   0.182   0.217  11.067  0.2825  0.5147 -0.4280
  561TMC3     H 8379   0.013   0.184  11.228  1.1615 -0.5852  0.5766
  561TMC3    H1 8380   0.362   0.380  11.331 -0.2287  2.2124  1.7470
  561TMC3    H2 8381   0.144   0.192  11.642 -0.2057  3.5060  0.5791
  561TMC3    C7 8382   0.360   0.323  11.594 -1.0569 -0.0408 -1.0883
  561TMC3    C8 8383   4.680   0.104  11.473  0.0278 -0.4339 -0.4835
  561TMC3    O1 8384   0.365   0.235  11.677  0.5535  0.1726  0.0102
  561TMC3    O2 8385   4.675   0.003  11.399  0.3897 -0.3364  0.2696
  562TMC3    C1 8386   2.013   1.057  16.207 -0.7144  0.9894 -0.3615
  562TMC3    C2 8387   1.926   1.162  16.194  0.8023 -0.1227 -0.8650
  562TMC3    C3 8388   1.823   1.175  16.277 -0.0796 -0.2790  0.2600
  562TMC3    C4 8389   1.990   0.960  16.305  0.1749 -0.1040 -0.6418
  562TMC3    C5 8390   1.878   0.973  16.375  0.1230  0.0461 -0.2858
  562TMC3    C6 8391   1.791   1.075  16.365  0.3538 -0.6677 -0.1955
  562TMC3     C 8392   2.141   1.045  16.137 -0.5410 -0.2403  0.1114
  562TMC3     O 8393   2.224   0.970  16.193 -0.2664 -0.2077  0.2423
  562TMC3     H 8394   1.954   1.236  16.120  1.1898  1.4605  0.8647
  562TMC3    H1 8395   2.063   0.880  16.315  0.6975  0.1051 -2.7702
  562TMC3    H2 8396   1.692   1.072  16.410  0.0501 -0.7212 -0.8679
  562TMC3    C7 8397   1.837   0.867  16.471 -0.8448  0.2253  0.5525
  562TMC3    C8 8398   1.721   1.282  16.267 -0.2164 -0.7417  0.3130
  562TMC3    O1 8399   1.722   0.873  16.515 -0.2296  0.3526  0.0169
  562TMC3    O2 8400   1.651   1.293  16.363 -0.4291 -0.8116 -0.1646
  563MPD2     C 8401   4.541   2.253  15.316  0.4225  0.3632  0.3415
  563MPD2    C1 8402   4.547   2.360  15.405 -0.0426 -0.1850 -0.6200
  563MPD2    C2 8403   4.664   2.366  15.478  0.5609  0.5912  0.3516
  563MPD2    C3 8404   0.030   2.272  15.476 -0.1579  0.5758 -0.2677
  563MPD2    C4 8405   0.022   2.168  15.384  0.2685 -0.1549  0.2791
  563MPD2    C5 8406   4.647   2.166  15.305  0.1804  0.1005 -0.0645
  563MPD2     H 8407   4.668   2.442  15.555  1.1379  1.4721 -0.5385
  563MPD2    H1 8408   0.098   2.091  15.379 -0.2886 -0.6419 -0.6782
  563MPD2    H2 8409   4.455   2.239  15.252 -1.2311  1.9278  2.2227
  563MPD2    H3 8410   4.635   2.087  15.232  2.2927 -0.8200  0.5839
  563MPD2     N 8411   0.123   2.286  15.575  0.1894 -0.0037 -0.2553
  563MPD2    H5 8412   0.109   2.359  15.644  0.6559  0.0631 -0.2317
  563MPD2    N1 8413   4.437   2.438  15.456  0.3212 -0.5998 -0.8163
  563MPD2    H7 8414   4.452   2.502  15.533 -1.3162 -0.8588 -0.2890
  564TMC3    C1 8415   4.209   2.447  15.516 -0.7232 -0.4050  0.5014
  564TMC3    C2 8416   4.090   2.382  15.484  0.2753  0.4433  0.1049
  564TMC3    C3 8417   4.021   2.337  15.592 -0.9356 -0.2483 -0.0964
  564TMC3    C4 8418   4.255   2.477  15.643  0.1389 -0.5848 -0.3930
  564TMC3    C5 8419   4.183   2.420  15.747  0.5539 -0.2638  1.0626
  564TMC3    C6 8420   4.064   2.363  15.718  0.2155  0.2757 -0.2713
  564TMC3     C 8421   4.311   2.426  15.408  0.2775  0.5837 -0.0552
  564TMC3     O 8422   4.274   2.385  15.300 -0.4862 -0.5183  0.6801
  564TMC3     H 8423   4.070   2.356  15.381  2.3610  1.0316 -0.4279
  564TMC3    H1 8424   4.347   2.531  15.664 -0.2901 -0.0679  0.1867
  564TMC3    H2 8425   4.007   2.315  15.797  1.2691 -0.4826  0.0310
  564TMC3    C7 8426   4.255   2.343  15.844 -0.1873  0.1661 -0.2659
  564TMC3    C8 8427   3.963   2.204  15.580 -0.1329 -0.4580 -0.2662
  564TMC3    O1 8428   4.356   2.396  15.888 -0.7912  0.1088 -0.0272
  564TMC3    O2 8429   3.986   2.131  15.672  0.0789 -0.5194  0.4496
  565TMC3    C1 8430   4.290   4.200  10.684  0.1310 -0.3292  0.5911
  565TMC3    C2 8431   4.410   4.138  10.688  0.6134 -0.9905  0.8703
  565TMC3    C3 8432   4.424   4.011  10.648 -0.1742 -0.2597  0.6436
  565TMC3    C4 8433   4.178   4.137  10.638  1.0449  0.8214 -0.1031
  565TMC3    C5 8434   4.191   4.003  10.611 -0.1336 -0.3542 -0.5356
  565TMC3    C6 8435   4.314   3.936  10.614 -0.1035  0.4851  0.4141
  565TMC3     C 8436   4.289   4.344  10.673 -0.2378  0.5218 -0.3837
  565TMC3     O 8437   4.209   4.388  10.583  0.1961 -0.0255  0.7842
  565TMC3     H 8438   4.495   4.195  10.723 -0.0857  0.3859  0.2997
  565TMC3    H1 8439   4.093   4.198  10.610 -1.4167 -2.3044  0.4933
  565TMC3    H2 8440   4.326   3.842  10.563  0.2017  1.0088 -0.4784
  565TMC3    C7 8441   4.089   3.936  10.527  0.3430  0.0356 -0.2415
  565TMC3    C8 8442   4.553   3.952  10.646  0.1556  0.4148  0.1708
  565TMC3    O1 8443   4.124   3.843  10.454 -0.4826  0.6745 -0.0055
  565TMC3    O2 8444   4.651   4.029  10.652  0.3982 -0.3168  0.7568
  566MPD2     C 8445   1.411   0.814  14.057  0.4898 -0.2254  0.1645
  566MPD2    C1 8446   1.467   0.693  14.084 -0.0542  0.0904  1.1669
  566MPD2    C2 8447   1.391   0.573  14.103 -0.5777 -0.7279  0.1024
  566MPD2    C3 8448   1.260   0.572  14.059 -0.0552  0.2339  0.3842
  566MPD2    C4 8449   1.205   0.694  14.031 -0.7297 -0.3998  0.2345
  566MPD2    C5 8450   1.271   0.816  14.025  0.7540 -0.2175 -0.9113
  566MPD2     H 8451   1.444   0.483  14.135 -1.5835 -1.1277  0.6309
  566MPD2    H1 8452   1.100   0.685  14.006 -0.5261 -0.9653 -0.3983
  566MPD2    H2 8453   1.470   0.900  14.024 -1.4685  1.3678  0.8382
  566MPD2    H3 8454   1.211   0.900  13.993  1.1256  0.3250 -0.1915
  566MPD2     N 8455   1.183   0.457  14.053 -0.4555 -0.5807  0.2565
  566MPD2    H5 8456   1.094   0.454  14.005 -0.5590 -2.0028  0.5382
  566MPD2    N1 8457   1.607   0.692  14.105  0.1036  0.0097  0.2122
  566MPD2    H7 8458   1.654   0.778  14.079  2.0980 -1.1594 -0.0286
  567TMC3    C1 8459   1.822   0.593  14.127  0.3394  0.3635 -0.3467
  567TMC3    C2 8460   1.864   0.615  13.997  0.1947  0.0893 -0.4993
  567TMC3    C3 8461   1.981   0.563  13.960 -0.0329  0.3299  0.0055
  567TMC3    C4 8462   1.895   0.524  14.215  0.0180 -0.0590  0.3090
  567TMC3    C5 8463   2.022   0.487  14.179  0.1801 -0.2202  0.7509
  567TMC3    C6 8464   2.067   0.505  14.050  0.0863  0.0185 -0.6358
  567TMC3     C 8465   1.677   0.581  14.143  0.3361  0.1316 -0.5668
  567TMC3     O 8466   1.645   0.485  14.211  0.2040  0.3704  0.4796
  567TMC3     H 8467   1.791   0.649  13.924 -0.0483  2.3376  0.7802
  567TMC3    H1 8468   1.852   0.509  14.313  0.4727 -2.2047  0.1670
  567TMC3    H2 8469   2.170   0.482  14.027  0.0761  1.9990 -2.6794
  567TMC3    C7 8470   2.111   0.417  14.273 -0.3098  0.3233  0.1252
  567TMC3    C8 8471   2.006   0.573  13.815 -0.3808  0.2862  0.4812
  567TMC3    O1 8472   2.231   0.414  14.244 -0.3121  0.5601 -0.5821
  567TMC3    O2 8473   1.929   0.644  13.748 -0.1929 -0.3429 -0.4578
  568MPD2     C 8474   3.873   0.704  15.857 -0.0262 -0.6963 -0.3528
  568MPD2    C1 8475   3.874   0.777  15.970  0.5269 -0.1635  0.3590
  568MPD2    C2 8476   3.828   0.905  15.967 -0.0047  0.2917  0.3129
  568MPD2    C3 8477   3.776   0.960  15.851  0.7194 -0.0206 -0.4161
  568MPD2    C4 8478   3.768   0.883  15.736  0.4756  0.1238 -0.3550
  568MPD2    C5 8479   3.822   0.752  15.741  0.3105  0.2766 -1.1389
  568MPD2     H 8480   3.817   0.963  16.058  0.2479 -0.0978  0.5922
  568MPD2    H1 8481   3.715   0.927  15.653 -1.4054  0.3815  0.9841
  568MPD2    H2 8482   3.914   0.603  15.860 -1.3468 -1.2539 -1.1590
  568MPD2    H3 8483   3.812   0.688  15.654 -1.8533 -1.1998  0.1684
  568MPD2     N 8484   3.745   1.099  15.844 -0.5003 -0.5498  0.2216
  568MPD2    H5 8485   3.753   1.143  15.935  1.2253  0.4469 -0.4066
  568MPD2    N1 8486   3.925   0.707  16.082 -0.2777  0.2612  0.2815
  568MPD2    H7 8487   3.937   0.607  16.071 -1.2446  0.3308 -1.4266
  569TMC3    C1 8488   3.649   1.306  15.780 -0.2782 -0.4274  0.1185
  569TMC3    C2 8489   3.654   1.346  15.910 -0.3791  0.1133  0.2837
  569TMC3    C3 8490   3.652   1.481  15.934  0.1002  0.1560 -0.3579
  569TMC3    C4 8491   3.634   1.393  15.678  0.2434  0.5559 -0.4628
  569TMC3    C5 8492   3.623   1.532  15.704  0.3826 -0.0422  0.1857
  569TMC3    C6 8493   3.638   1.573  15.832  0.6208 -0.4880  0.4515
  569TMC3     C 8494   3.690   1.166  15.741  0.0268 -0.0789  0.8894
  569TMC3     O 8495   3.653   1.126  15.631 -0.0539  0.6761  0.3297
  569TMC3     H 8496   3.663   1.274  15.990 -1.4458 -1.3531 -0.9137
  569TMC3    H1 8497   3.637   1.353  15.577  0.2753  1.5490 -0.8564
  569TMC3    H2 8498   3.629   1.678  15.855 -0.5751 -0.0315 -2.1358
  569TMC3    C7 8499   3.640   1.618  15.586  0.2523  0.4372  0.9312
  569TMC3    C8 8500   3.668   1.515  16.072  0.1141 -0.3806 -0.2123
  569TMC3    O1 8501   3.599   1.564  15.481  0.1190  0.3796 -0.0580
  569TMC3    O2 8502   3.658   1.420  16.148 -0.0100  0.1723 -0.1145
  570TMC3    C1 8503   3.402   4.685  16.421 -0.5896  0.5584  0.6607
  570TMC3    C2 8504   3.470   4.669  16.305 -0.0144 -0.4646  0.2692
  570TMC3    C3 8505   3.504   0.047  16.237 -0.5430 -0.6019 -0.8508
  570TMC3    C4 8506   3.366   0.071  16.474  0.3309  0.0511 -0.9487
  570TMC3    C5 8507   3.394   0.176  16.395 -0.1797 -0.6486 -0.7726
  570TMC3    C6 8508   3.470   0.172  16.283  0.0704  0.2449 -0.1979
  570TMC3     C 8509   3.359   4.572  16.504  0.0923 -0.0527 -0.2759
  570TMC3     O 8510   3.322   4.470  16.444 -0.2742 -0.0759 -0.4005
  570TMC3     H 8511   3.498   4.569  16.276 -0.1281  0.4239 -2.9478
  570TMC3    H1 8512   3.295   0.094  16.552  0.7510 -2.3279  0.1221
  570TMC3    H2 8513   3.491   0.261  16.224  0.1112 -0.2368 -0.9036
  570TMC3    C7 8514   3.312   0.297  16.419  0.1602 -0.2056  0.2985
  570TMC3    C8 8515   3.578   0.051  16.109 -0.2126  0.3209  0.1061
  570TMC3    O1 8516   3.286   0.317  16.536 -0.2702  0.2890 -0.3404
  570TMC3    O2 8517   3.623   0.160  16.069  0.4236  0.5504  0.5165
  571MPD2     C 8518   1.166   1.779   0.026  0.4278 -0.1962  0.4703
  571MPD2    C1 8519   1.118   1.761   0.150 -0.1916 -0.0450  1.0700
  571MPD2    C2 8520   1.141   1.854   0.246 -0.2004  0.3108 -0.0479
  571MPD2    C3 8521   1.214   1.966   0.215  0.6443 -0.2654 -0.2632
  571MPD2    C4 8522   1.262   1.984   0.090  0.1820 -0.4602  0.7751
  571MPD2    C5 8523   1.234   1.890  17.726  0.1480 -1.1190 -0.6118
  571MPD2     H 8524   1.098   1.837   0.344 -0.4753  1.5788  0.0475
  571MPD2    H1 8525   1.317   2.070   0.053 -0.0442 -0.0869  1.3007
  571MPD2    H2 8526   1.137   1.715  17.682 -1.8857  0.1006  1.0575
  571MPD2    H3 8527   1.265   1.913  17.625  1.5322 -1.5028 -0.2661
  571MPD2     N 8528   1.238   2.065   0.310 -0.1719 -0.6271 -0.5814
  571MPD2    H5 8529   1.295   2.143   0.279  1.9524 -0.7288  2.9786
  571MPD2    N1 8530   1.053   1.630   0.174  0.7098 -0.3062 -0.9375
  571MPD2    H7 8531   1.062   1.565   0.096 -1.5018  0.9250 -2.2361
  572TMC3    C1 8532   1.257   2.173   0.514  0.2391 -0.0722 -0.2184
  572TMC3    C2 8533   1.288   2.155   0.647 -0.1158 -0.0081 -0.3567
  572TMC3    C3 8534   1.341   2.267   0.709 -0.7404 -0.6698 -0.1152
  572TMC3    C4 8535   1.265   2.296   0.441  0.5845 -0.0841  0.9537
  572TMC3    C5 8536   1.300   2.402   0.524  0.1254 -1.1749  0.0600
  572TMC3    C6 8537   1.336   2.391   0.659  0.5404 -0.4762  0.1147
  572TMC3     C 8538   1.206   2.062   0.444  0.0458  0.3233  0.0684
  572TMC3     O 8539   1.153   1.972   0.512  0.0206 -0.1897 -0.5357
  572TMC3     H 8540   1.292   2.054   0.686  0.1789  1.0161  2.2674
  572TMC3    H1 8541   1.254   2.304   0.333  0.9316 -1.5919  0.8010
  572TMC3    H2 8542   1.355   2.475   0.724  2.7050 -2.1416  1.6220
  572TMC3    C7 8543   1.313   2.531   0.449 -0.7040  0.2092  0.1551
  572TMC3    C8 8544   1.384   2.270   0.843  0.5977  0.2456  0.0642
  572TMC3    O1 8545   1.329   2.526   0.330  0.5285 -0.0619 -0.4323
  572TMC3    O2 8546   1.486   2.336   0.859 -0.1396  0.2736  0.3166
  573MPD2     C 8547   2.163   3.142   1.373 -0.2865 -0.1426 -0.1320
  573MPD2    C1 8548   2.264   3.217   1.428  0.1615 -0.0175  0.1584
  573MPD2    C2 8549   2.395   3.179   1.403  0.5160 -0.3395  0.1056
  573MPD2    C3 8550   2.425   3.075   1.314 -0.0127 -0.4980  0.4813
  573MPD2    C4 8551   2.320   3.001   1.260  0.0787  1.1519  0.0759
  573MPD2    C5 8552   2.190   3.036   1.290  0.1203 -0.2541  0.3000
  573MPD2     H 8553   2.473   3.243   1.441 -1.3386  1.1286  1.4275
  573MPD2    H1 8554   2.342   2.924   1.187  0.0034  0.7454  0.4859
  573MPD2    H2 8555   2.061   3.157   1.404  0.9247  2.8155  2.3722
  573MPD2    H3 8556   2.105   2.980   1.253 -1.0839  0.8319  1.4248
  573MPD2     N 8557   2.554   3.045   1.273 -0.2042 -0.2984 -0.3993
  573MPD2    H5 8558   2.554   2.964   1.212  1.7434 -0.1252 -0.6338
  573MPD2    N1 8559   2.230   3.333   1.506 -0.0591  0.4506  0.2594
  573MPD2    H7 8560   2.133   3.356   1.525  0.0161  0.2683  0.8476
  574TMC3    C1 8561   2.778   3.080   1.224 -0.1523 -0.3640 -0.5319
  574TMC3    C2 8562   2.752   3.015   1.103 -0.8383 -0.0953 -0.5510
  574TMC3    C3 8563   2.845   3.024   1.010 -0.4452  0.5813 -0.3241
  574TMC3    C4 8564   2.892   3.142   1.250 -0.2310  0.3119  0.3251
  574TMC3    C5 8565   2.988   3.156   1.147 -0.1064  0.0437  0.2008
  574TMC3    C6 8566   2.960   3.098   1.025 -0.1721 -0.1206 -0.4983
  574TMC3     C 8567   2.667   3.102   1.313 -0.0254  0.2336  0.2731
  574TMC3     O 8568   2.692   3.185   1.400 -0.3818  0.6246 -0.2706
  574TMC3     H 8569   2.657   2.969   1.079 -0.8516  0.0941 -0.8524
  574TMC3    H1 8570   2.910   3.184   1.348 -2.0102 -2.7687  1.9940
  574TMC3    H2 8571   3.028   3.118   0.943  0.1249  0.0956 -0.1971
  574TMC3    C7 8572   3.050   3.286   1.144 -0.1791 -0.3788  1.0645
  574TMC3    C8 8573   2.814   2.987   0.874  0.4293 -0.2141  0.0583
  574TMC3    O1 8574   3.106   3.325   1.045  0.0298  0.4870 -0.2358
  574TMC3    O2 8575   2.899   2.929   0.806  0.2520  0.4653 -0.0991
  575TMC3    C1 8576   0.662   4.009  10.870 -0.0074 -0.4589 -0.3203
  575TMC3    C2 8577   0.665   3.986  11.006 -0.1828  0.3883  0.0377
  575TMC3    C3 8578   0.579   3.895  11.062  0.1483  0.9416  0.3051
  575TMC3    C4 8579   0.564   3.962  10.790 -0.4781 -0.7495  0.4329
  575TMC3    C5 8580   0.478   3.875  10.851  0.0784  0.2672  0.1222
  575TMC3    C6 8581   0.475   3.842  10.986  0.0299  0.3160  0.9698
  575TMC3     C 8582   0.742   4.125  10.822 -0.1407  0.1733  0.4331
  575TMC3     O 8583   0.806   4.183  10.908  0.2371 -0.0670  0.2644
  575TMC3     H 8584   0.743   4.034  11.064  0.2891 -0.6946  0.3004
  575TMC3    H1 8585   0.557   3.982  10.684  0.1875 -1.5730  0.2284
  575TMC3    H2 8586   0.389   3.796  11.032  0.3186 -0.7579  0.4391
  575TMC3    C7 8587   0.351   3.851  10.781 -0.5411  0.3686 -0.4865
  575TMC3    C8 8588   0.579   3.894  11.210  0.0137  0.0412  0.4594
  575TMC3    O1 8589   0.325   3.923  10.682  0.1292 -0.1858 -0.1761
  575TMC3    O2 8590   0.651   3.975  11.265 -0.1242 -0.3592 -0.2144
  576MPD2     C 8591   4.155   0.247  12.780 -0.2493  0.5440 -0.3177
  576MPD2    C1 8592   4.106   0.345  12.705  1.0904  0.1184 -0.0551
  576MPD2    C2 8593   4.049   0.456  12.775  0.1523  0.3518 -0.6962
  576MPD2    C3 8594   4.028   0.455  12.915 -0.5115  0.5748 -0.1994
  576MPD2    C4 8595   4.064   0.345  12.981 -0.0243 -0.4037  0.3777
  576MPD2    C5 8596   4.131   0.245  12.917 -0.6308 -0.0591 -0.2614
  576MPD2     H 8597   4.017   0.540  12.714 -0.8354 -0.1165 -0.8377
  576MPD2    H1 8598   4.054   0.332  13.088 -1.7377  1.5040  0.4448
  576MPD2    H2 8599   4.217   0.166  12.742  0.9311  1.9773 -1.4338
  576MPD2    H3 8600   4.172   0.161  12.972  0.6610  1.1482  0.6440
  576MPD2     N 8601   3.991   0.576  12.970 -0.0106  0.1793 -0.2511
  576MPD2    H5 8602   3.963   0.653  12.910  0.2799  1.0007  0.6611
  576MPD2    N1 8603   4.122   0.359  12.558  0.2602  0.4483 -0.0033
  576MPD2    H7 8604   4.069   0.438  12.525 -0.4851 -0.3778 -0.7942
  577TMC3    C1 8605   4.147   0.283  12.341 -0.0260 -0.1431  0.1283
  577TMC3    C2 8606   4.138   0.181  12.252  0.3713  0.0530  0.4325
  577TMC3    C3 8607   4.167   0.208  12.117 -0.0941 -0.4256 -0.6503
  577TMC3    C4 8608   4.178   0.405  12.300 -0.7353 -0.1784 -0.3961
  577TMC3    C5 8609   4.173   0.433  12.168 -0.2674 -0.9490  0.1560
  577TMC3    C6 8610   4.168   0.340  12.071  0.2129  0.8552 -0.8031
  577TMC3     C 8611   4.160   0.254  12.481  0.4510 -0.0739  0.6200
  577TMC3     O 8612   4.204   0.142  12.508 -0.3781 -0.2014  0.4640
  577TMC3     H 8613   4.132   0.079  12.286 -0.5454 -0.1798 -0.4408
  577TMC3    H1 8614   4.196   0.487  12.369  0.5536  0.3169 -1.3209
  577TMC3    H2 8615   4.196   0.369  11.970  1.0110  0.7508 -0.6088
  577TMC3    C7 8616   4.194   0.572  12.129  0.0609  0.0309 -0.2243
  577TMC3    C8 8617   4.195   0.101  12.021 -0.3894  1.4674  0.9130
  577TMC3    O1 8618   4.236   0.647  12.213 -0.4649 -0.2112  0.1296
  577TMC3    O2 8619   4.147   4.723  12.038 -0.3210 -0.1429  0.0166
  578MPD2     C 8620   2.818   4.670   1.619 -0.1172  0.6016 -0.5110
  578MPD2    C1 8621   2.902   4.664   1.512  0.8425 -0.1774 -0.6109
  578MPD2    C2 8622   2.995   4.563   1.512 -0.2879  0.5431  0.5669
  578MPD2    C3 8623   3.018   4.486   1.621 -0.2884  0.4044 -0.3460
  578MPD2    C4 8624   2.934   4.497   1.730  0.6724 -0.7134 -0.0548
  578MPD2    C5 8625   2.829   4.582   1.729  0.1978  0.5461 -0.3911
  578MPD2     H 8626   3.065   4.554   1.429  0.5176 -1.9102  1.5160
  578MPD2    H1 8627   2.953   4.432   1.815 -3.6956  1.3495  2.5174
  578MPD2    H2 8628   2.741   0.011   1.625  0.8725  1.5707 -0.2307
  578MPD2    H3 8629   2.762   4.580   1.813 -0.2708  0.3386 -0.7684
  578MPD2     N 8630   3.119   4.390   1.614 -0.3571 -0.2884 -0.0344
  578MPD2    H5 8631   3.166   4.379   1.525  1.3475  1.6429  0.6015
  578MPD2    N1 8632   2.883   0.015   1.400  0.4329  0.0738  0.2481
  578MPD2    H7 8633   2.816   0.090   1.416  1.2874  1.1684 -1.3296
  579TMC3    C1 8634   3.300   4.264   1.679 -0.0323  0.9012 -0.2048
  579TMC3    C2 8635   3.404   4.281   1.761 -0.3538  0.4729 -0.6169
  579TMC3    C3 8636   3.528   4.265   1.705 -0.1374 -0.1639  0.5006
  579TMC3    C4 8637   3.313   4.233   1.547 -0.2809 -0.4293  0.0191
  579TMC3    C5 8638   3.440   4.220   1.493 -0.1154 -0.1964  0.0528
  579TMC3    C6 8639   3.553   4.237   1.576 -0.1889  0.8654  0.2257
  579TMC3     C 8640   3.173   4.318   1.720 -0.0314 -0.0603  0.0717
  579TMC3     O 8641   3.161   4.331   1.844 -0.2599 -0.0888  0.1016
  579TMC3     H 8642   3.392   4.313   1.864  0.5930  0.0158 -0.3668
  579TMC3    H1 8643   3.225   4.206   1.489 -0.0698 -3.2063  0.9875
  579TMC3    H2 8644   3.655   4.239   1.539 -0.4355 -0.1127 -0.5305
  579TMC3    C7 8645   3.467   4.146   1.377  0.0711 -0.4264 -0.6612
  579TMC3    C8 8646   3.616   4.359   1.758  0.5047 -0.4327 -0.4266
  579TMC3    O1 8647   3.581   4.112   1.351  0.3148  0.4992  0.1157
  579TMC3    O2 8648   3.615   4.373   1.875 -0.2011  0.5597  0.1772
  580TMC3    C1 8649   2.012   3.837  11.766  0.3355 -0.5216 -0.6554
  580TMC3    C2 8650   2.037   3.836  11.636 -0.2186 -0.3611 -0.2054
  580TMC3    C3 8651   2.094   3.724  11.578 -0.1195 -0.0656  0.2881
  580TMC3    C4 8652   2.028   3.725  11.841  0.2459  0.5065 -0.6555
  580TMC3    C5 8653   2.082   3.614  11.781  0.3842  0.0110 -0.7401
  580TMC3    C6 8654   2.110   3.606  11.648  0.1689 -0.5868  0.6707
  580TMC3     C 8655   1.993   3.968  11.825  0.0937 -0.1282  0.4473
  580TMC3     O 8656   1.980   4.070  11.756 -0.1830 -0.2890 -0.2354
  580TMC3     H 8657   2.016   3.926  11.580  1.1240 -0.8745 -1.5376
  580TMC3    H1 8658   2.005   3.724  11.947  0.9264  2.5815 -0.4834
  580TMC3    H2 8659   2.172   3.528  11.607 -2.4480 -1.4478 -1.6435
  580TMC3    C7 8660   2.154   3.514  11.854  0.8261 -0.2529 -0.1313
  580TMC3    C8 8661   2.139   3.729  11.437 -0.8094  1.0808 -0.1952
  580TMC3    O1 8662   2.196   3.558  11.960 -0.1813 -0.7653 -0.1972
  580TMC3    O2 8663   2.133   3.629  11.372 -0.1201  0.3591  0.2693
  581MPD2     C 8664   0.716   3.553  15.250 -0.8392 -0.0698  0.4390
  581MPD2    C1 8665   0.667   3.645  15.339  0.4230 -0.0494  0.3034
  581MPD2    C2 8666   0.541   3.702  15.308 -0.4512 -0.3229  0.1154
  581MPD2    C3 8667   0.481   3.673  15.189  0.3525  0.4178  0.9055
  581MPD2    C4 8668   0.536   3.582  15.104  0.1677  0.3040 -0.2139
  581MPD2    C5 8669   0.653   3.517  15.134 -0.1914  0.2033  0.0638
  581MPD2     H 8670   0.488   3.764  15.380 -1.7398  0.3890 -1.4360
  581MPD2    H1 8671   0.500   3.561  15.004 -0.7730  1.6526 -0.1529
  581MPD2    H2 8672   0.809   3.504  15.272  0.4429  2.6230  1.0582
  581MPD2    H3 8673   0.693   3.441  15.068  0.6400  0.3161  0.4413
  581MPD2     N 8674   0.358   3.734  15.160 -0.0043 -0.1606  0.4646
  581MPD2    H5 8675   0.341   3.825  15.202  0.9419 -1.4072  3.5710
  581MPD2    N1 8676   0.740   3.658  15.461 -0.3401  0.0797  0.1693
  581MPD2    H7 8677   0.822   3.600  15.477 -0.0408 -0.2224 -2.3730
  582TMC3    C1 8678   0.764   3.693  15.685  0.4805 -0.0143 -0.1301
  582TMC3    C2 8679   0.718   3.752  15.797 -0.5093  0.1466 -0.4449
  582TMC3    C3 8680   0.751   3.679  15.912  0.0560 -0.1563 -0.0993
  582TMC3    C4 8681   0.836   3.573  15.691  0.5206 -0.3221 -0.3270
  582TMC3    C5 8682   0.844   3.501  15.806 -0.8644 -0.4841 -0.1674
  582TMC3    C6 8683   0.799   3.551  15.920  0.9431 -0.6830  0.4917
  582TMC3     C 8684   0.687   3.716  15.571  0.3087  0.5113 -0.3103
  582TMC3     O 8685   0.590   3.786  15.590  0.1550 -0.0831  0.3989
  582TMC3     H 8686   0.656   3.840  15.807  0.3622  0.6357  0.6258
  582TMC3    H1 8687   0.885   3.531  15.604  1.5944  1.1827 -0.4450
  582TMC3    H2 8688   0.795   3.497  16.014  0.5497 -0.1461  0.7890
  582TMC3    C7 8689   0.889   3.362  15.812  0.2024  0.4059  0.1484
  582TMC3    C8 8690   0.709   3.735  16.040  0.1687 -0.2006 -0.4266
  582TMC3    O1 8691   0.968   3.347  15.907  0.0631 -0.4026  0.1281
  582TMC3    O2 8692   0.600   3.788  16.044 -0.4384  0.5516  0.2529
  583MPD2     C 8693   0.367   0.228  16.679  0.0509  0.2876 -0.5935
  583MPD2    C1 8694   0.359   0.350  16.607  0.3552 -1.0241 -0.2240
  583MPD2    C2 8695   0.288   0.455  16.660 -0.3240 -0.1289 -0.2136
  583MPD2    C3 8696   0.232   0.453  16.781 -1.1933 -0.1629  0.2964
  583MPD2    C4 8697   0.251   0.335  16.852 -0.2695 -0.4992 -0.2876
  583MPD2    C5 8698   0.317   0.223  16.804  0.4859 -0.2581  0.2289
  583MPD2     H 8699   0.277   0.543  16.597  0.9008  1.8732  2.3509
  583MPD2    H1 8700   0.202   0.315  16.947 -0.7353  1.0591 -0.2136
  583MPD2    H2 8701   0.414   0.138  16.640  0.7400  0.8077 -0.9499
  583MPD2    H3 8702   0.338   0.136  16.867  0.0964 -1.1628 -0.9009
  583MPD2     N 8703   0.163   0.569  16.832  0.3946 -0.0859 -0.5141
  583MPD2    H5 8704   0.167   0.656  16.779  0.4244 -0.0794 -0.5011
  583MPD2    N1 8705   0.420   0.374  16.482 -0.4221 -0.2453 -1.2785
  583MPD2    H7 8706   0.412   0.468  16.445  1.9655  0.0463 -1.0508
  584TMC3    C1 8707   0.059   0.713  17.000 -0.8017  0.6346 -0.0970
  584TMC3    C2 8708   0.132   0.822  16.956  0.2443 -0.4256  0.2257
  584TMC3    C3 8709   0.138   0.932  17.037  0.8580 -0.1176  0.1019
  584TMC3    C4 8710   4.721   0.726  17.110  0.1343 -0.0027 -0.2478
  584TMC3    C5 8711   4.715   0.841  17.184  0.5269 -0.0146  0.4268
  584TMC3    C6 8712   0.059   0.947  17.150  0.1114  1.0425 -0.0405
  584TMC3     C 8713   0.092   0.578  16.951 -0.2083 -0.2523  0.1738
  584TMC3     O 8714   0.042   0.483  17.010 -0.0164 -0.1460 -0.3019
  584TMC3     H 8715   0.191   0.817  16.865 -0.9871  0.6289 -0.6345
  584TMC3    H1 8716   4.662   0.639  17.137 -0.0006 -0.1543 -1.0330
  584TMC3    H2 8717   0.022   1.045  17.179 -1.8266  0.2943  0.0726
  584TMC3    C7 8718   4.592   0.876  17.246 -0.3524  0.2964 -0.4599
  584TMC3    C8 8719   0.187   1.051  16.982  0.0295  0.3449  0.4011
  584TMC3    O1 8720   4.568   0.816  17.351 -0.3513 -0.0499  0.2228
  584TMC3    O2 8721   0.161   1.060  16.865 -0.0336 -0.7944 -0.1289
  585MPD2     C 8722   4.528   4.599   0.771  0.1649  0.0257  0.0744
  585MPD2    C1 8723   4.611   4.635   0.664 -0.2923  0.3630 -0.7312
  585MPD2    C2 8724   4.644   4.538   0.572 -0.9371  0.1633 -0.1313
  585MPD2    C3 8725   4.612   4.406   0.582 -0.0615 -1.0498 -0.6251
  585MPD2    C4 8726   4.535   4.374   0.694 -0.3201 -0.1538 -0.7927
  585MPD2    C5 8727   4.488   4.472   0.782  0.6951 -0.0083 -0.3596
  585MPD2     H 8728   4.702   4.573   0.488 -0.5549 -2.4071 -0.9535
  585MPD2    H1 8729   4.500   4.272   0.695 -2.5349  0.6271  0.5714
  585MPD2    H2 8730   4.485   4.661   0.849  0.2204  0.1325  0.0190
  585MPD2    H3 8731   4.408   4.437   0.847 -0.0983  0.2830 -1.1709
  585MPD2     N 8732   4.634   4.305   0.485  0.2290  0.6610 -0.3534
  585MPD2    H5 8733   4.574   4.224   0.488 -0.5801  1.2897  0.4173
  585MPD2    N1 8734   4.629   0.037   0.642  0.0694  0.2006  0.1391
  585MPD2    H7 8735   4.586   0.087   0.719 -0.8686  0.4193 -0.5336
  586TMC3    C1 8736   4.670   4.260   0.251 -0.0788 -0.3966 -0.5368
  586TMC3    C2 8737   0.025   4.285   0.151  0.1263 -0.4422  0.6807
  586TMC3    C3 8738   4.728   4.285   0.021  1.0340  0.7259  0.9707
  586TMC3    C4 8739   4.539   4.279   0.221 -0.2229 -0.5159 -0.3757
  586TMC3    C5 8740   4.506   4.294   0.086 -0.2758 -0.4743 -0.5388
  586TMC3    C6 8741   4.595   4.294  17.724  0.0939 -0.4386  0.0743
  586TMC3     C 8742   4.712   4.330   0.370  0.0015 -0.0963  0.1817
  586TMC3     O 8743   0.086   4.388   0.370 -0.0504  0.0869 -0.0327
  586TMC3     H 8744   0.130   4.278   0.177  0.2663  0.5334  0.3676
  586TMC3    H1 8745   4.461   4.275   0.297  1.3828 -0.5395  1.2766
  586TMC3    H2 8746   4.574   4.276  17.619 -1.9229  0.3206  0.3496
  586TMC3    C7 8747   4.368   4.306   0.046  0.2776 -0.1434 -0.7982
  586TMC3    C8 8748   0.072   4.192  17.677  0.0106 -0.0230  0.3807
  586TMC3    O1 8749   4.291   4.251   0.124  0.0419 -0.5856 -0.2996
  586TMC3    O2 8750   0.142   4.112  17.734  0.2293  0.2018 -0.2478
  587TMC3    C1 8751   1.990   3.560  16.288 -0.3706 -0.0215 -0.3623
  587TMC3    C2 8752   2.000   3.537  16.424  0.1354  0.5050  0.0093
  587TMC3    C3 8753   2.116   3.479  16.468  0.2732 -0.3583 -0.1651
  587TMC3    C4 8754   2.084   3.519  16.197 -0.3924 -0.2479 -0.2387
  587TMC3    C5 8755   2.189   3.458  16.251  0.1602  0.4734  0.0212
  587TMC3    C6 8756   2.212   3.432  16.380  0.2039  0.4841  0.0483
  587TMC3     C 8757   1.859   3.591  16.230  0.1160  0.6954 -1.2892
  587TMC3     O 8758   1.859   3.644  16.123 -0.2368 -0.2318 -1.1185
  587TMC3     H 8759   1.920   3.583  16.481 -0.1354  1.2743 -0.9946
  587TMC3    H1 8760   2.074   3.538  16.091  0.0342  1.9120  0.1116
  587TMC3    H2 8761   2.307   3.389  16.409  0.6124  0.3951 -1.4304
  587TMC3    C7 8762   2.277   3.407  16.151  0.5442 -0.3797  0.5414
  587TMC3    C8 8763   2.140   3.464  16.615  0.0811  0.4125  0.4442
  587TMC3    O1 8764   2.241   3.401  16.035  0.3949 -0.0023 -0.5539
  587TMC3    O2 8765   2.250   3.427  16.656  0.6950  0.1102  0.0574
  588TMC3    C1 8766   3.876   1.421  10.456  0.4447  0.5223 -0.1331
  588TMC3    C2 8767   3.880   1.283  10.478 -0.2079  0.5582  0.7037
  588TMC3    C3 8768   3.982   1.233  10.559  0.2377 -0.0809 -0.1278
  588TMC3    C4 8769   3.975   1.504  10.512 -0.2012 -0.4137  0.9207
  588TMC3    C5 8770   4.066   1.451  10.594 -0.3463 -0.7115 -0.8769
  588TMC3    C6 8771   4.070   1.315  10.627  0.8212 -0.0472 -0.3211
  588TMC3     C 8772   3.824   1.468  10.323  0.9619 -0.0697 -1.0187
  588TMC3     O 8773   3.769   1.382  10.252 -0.1896 -0.3015  0.4383
  588TMC3     H 8774   3.808   1.217  10.431 -0.0965  0.5642  0.5258
  588TMC3    H1 8775   3.975   1.613  10.511 -3.5120 -0.4453  0.1645
  588TMC3    H2 8776   4.156   1.289  10.688  0.7354  2.1251  0.7444
  588TMC3    C7 8777   4.173   1.540  10.638 -0.1613  0.0366  0.8194
  588TMC3    C8 8778   3.990   1.084  10.563 -0.2434 -0.2254 -0.2786
  588TMC3    O1 8779   4.208   1.532  10.754 -0.2719  0.0418  0.4098
  588TMC3    O2 8780   3.926   1.029  10.472 -0.1023  0.0263  0.2805
  589TMC3    C1 8781   3.857   3.251   1.505 -0.5021  0.0701  0.8539
  589TMC3    C2 8782   3.962   3.291   1.578 -0.2822  0.0067  0.0755
  589TMC3    C3 8783   4.086   3.236   1.549  0.3142  0.5038 -0.5205
  589TMC3    C4 8784   3.872   3.155   1.411 -0.0026 -0.5497  0.3547
  589TMC3    C5 8785   3.995   3.107   1.387  0.3469  0.2807 -0.2088
  589TMC3    C6 8786   4.104   3.152   1.445 -0.7879  0.0724  0.0278
  589TMC3     C 8787   3.734   3.316   1.507  0.2435 -0.6624 -0.2470
  589TMC3     O 8788   3.666   3.295   1.408 -0.2091 -0.7334  0.3827
  589TMC3     H 8789   3.955   3.378   1.642  0.3334 -0.6645  1.0653
  589TMC3    H1 8790   3.783   3.119   1.361 -0.7913  0.6348  0.8848
  589TMC3    H2 8791   4.196   3.095   1.436  0.0494  1.4209  0.1935
  589TMC3    C7 8792   4.013   3.026   1.270  0.0108  0.4937  0.5172
  589TMC3    C8 8793   4.190   3.255   1.657 -0.2382  0.0424 -0.0310
  589TMC3    O1 8794   4.112   3.043   1.207  0.3404  0.0186  0.1160
  589TMC3    O2 8795   4.146   3.294   1.766  0.5764  0.0466  0.1758
  590MPD2     C 8796   2.926   2.056  16.915 -0.3427 -0.9071 -0.1505
  590MPD2    C1 8797   2.870   2.081  16.793  0.1131 -0.2754 -0.7722
  590MPD2    C2 8798   2.953   2.108  16.687 -0.1441 -0.1004 -0.0213
  590MPD2    C3 8799   3.091   2.114  16.711 -0.0714  0.2324  0.0395
  590MPD2    C4 8800   3.142   2.092  16.836  0.1036 -0.6202 -0.2912
  590MPD2    C5 8801   3.059   2.059  16.938 -0.1612  0.6866  0.3343
  590MPD2     H 8802   2.926   2.142  16.588 -5.1051 -1.5239  0.8601
  590MPD2    H1 8803   3.247   2.089  16.864 -0.0967  1.1812  0.6584
  590MPD2    H2 8804   2.862   2.024  16.997 -2.4147 -0.7258 -1.6961
  590MPD2    H3 8805   3.097   2.053  17.039  0.3160 -0.2457  0.1042
  590MPD2     N 8806   3.181   2.161  16.611  0.1482  0.0973  0.4738
  590MPD2    H5 8807   3.147   2.177  16.517 -0.5368  1.0766  0.8796
  590MPD2    N1 8808   2.728   2.072  16.775  0.4336  0.0098  0.4029
  590MPD2    H7 8809   2.676   2.065  16.862 -1.6823 -0.4628 -0.9052
  591TMC3    C1 8810   3.375   2.221  16.498 -0.3297 -0.2223  0.2764
  591TMC3    C2 8811   3.328   2.147  16.390  0.0442  0.2798  0.0824
  591TMC3    C3 8812   3.353   2.194  16.265 -0.2167  0.1030  0.5163
  591TMC3    C4 8813   3.448   2.332  16.482 -0.4892  0.3357 -0.2345
  591TMC3    C5 8814   3.468   2.376  16.351  0.4550 -0.1811 -0.0241
  591TMC3    C6 8815   3.415   2.310  16.240 -0.5178 -0.1003  0.1731
  591TMC3     C 8816   3.312   2.200  16.626  0.0813 -0.6952 -0.0158
  591TMC3     O 8817   3.370   2.242  16.728 -0.1193 -0.4518 -0.0790
  591TMC3     H 8818   3.274   2.054  16.406 -1.1434  1.1108  0.9039
  591TMC3    H1 8819   3.484   2.386  16.569 -3.0860  1.1142  0.3665
  591TMC3    H2 8820   3.414   2.352  16.140  1.2038  0.5891  0.4403
  591TMC3    C7 8821   3.503   2.516  16.340 -0.0384 -0.5959 -0.0800
  591TMC3    C8 8822   3.360   2.083  16.171 -0.1080 -0.8107 -0.3848
  591TMC3    O1 8823   3.497   2.576  16.449  0.5984 -0.1028  0.1377
  591TMC3    O2 8824   3.289   1.991  16.197 -0.1071 -0.0805 -0.1330
  592MPD2     C 8825   3.101   3.809  11.573  0.3735  0.4134 -0.3523
  592MPD2    C1 8826   3.083   3.836  11.707  0.2146  0.8583 -0.4445
  592MPD2    C2 8827   3.015   3.740  11.775  0.3419  0.7176 -0.2241
  592MPD2    C3 8828   2.984   3.616  11.726 -0.4017  0.2885  0.7852
  592MPD2    C4 8829   3.019   3.586  11.599  0.4703 -0.0332 -0.0073
  592MPD2    C5 8830   3.064   3.689  11.518  0.6959  1.1200 -0.0508
  592MPD2     H 8831   3.006   3.743  11.883 -0.4736 -0.6961 -0.2579
  592MPD2    H1 8832   3.004   3.494  11.544  1.0715 -0.6151  0.7944
  592MPD2    H2 8833   3.144   3.887  11.510  2.2740 -2.0576 -2.0808
  592MPD2    H3 8834   3.081   3.682  11.412 -0.3513 -0.4743 -0.1072
  592MPD2     N 8835   2.936   3.517  11.811 -0.3440  0.2216  0.1194
  592MPD2    H5 8836   2.908   3.547  11.903  0.5938  0.0989  0.4401
  592MPD2    N1 8837   3.135   3.954  11.759 -0.7674  0.1684  0.7205
  592MPD2    H7 8838   3.197   4.005  11.697 -0.2335  1.1023  2.0253
  593TMC3    C1 8839   3.156   4.133  11.915  0.2277  0.0840  0.4754
  593TMC3    C2 8840   3.123   4.182  12.040  0.3007  0.0995 -0.2950
  593TMC3    C3 8841   3.130   4.316  12.060 -0.3266 -0.2497 -0.1228
  593TMC3    C4 8842   3.177   4.222  11.812 -0.5935 -0.4484 -0.0581
  593TMC3    C5 8843   3.172   4.356  11.832 -0.0518 -1.0681 -0.6278
  593TMC3    C6 8844   3.150   4.403  11.956 -0.4552 -0.3262  0.4246
  593TMC3     C 8845   3.116   3.999  11.888  0.1124 -0.2635 -0.2869
  593TMC3     O 8846   3.069   3.932  11.979  0.2909  0.2997 -0.5398
  593TMC3     H 8847   3.128   4.117  12.126  0.3523  2.6696  1.6451
  593TMC3    H1 8848   3.176   4.179  11.713  1.5069 -0.8949  0.1225
  593TMC3    H2 8849   3.129   4.507  11.981  0.5321  0.1519 -0.7258
  593TMC3    C7 8850   3.189   4.447  11.717  0.3197  0.3993 -0.6094
  593TMC3    C8 8851   3.111   4.365  12.197  0.0659  0.6484 -0.7145
  593TMC3    O1 8852   3.202   4.401  11.607 -0.0275  0.4921 -0.6410
  593TMC3    O2 8853   3.057   4.285  12.273  0.0621  0.0877  0.6291
  594MPD2     C 8854   2.138   2.315  14.232  0.1099  0.3809  0.7941
  594MPD2    C1 8855   2.121   2.273  14.362  0.1115  0.4932 -0.2257
  594MPD2    C2 8856   2.210   2.321  14.458 -0.0721  0.5288 -0.3778
  594MPD2    C3 8857   2.319   2.397  14.423 -0.4766 -0.1530 -0.6557
  594MPD2    C4 8858   2.342   2.425  14.293  0.0706  0.5544  0.3908
  594MPD2    C5 8859   2.248   2.392  14.198 -0.2362 -0.5161 -0.6925
  594MPD2     H 8860   2.201   2.294  14.563 -0.1706 -2.7885 -1.2534
  594MPD2    H1 8861   2.435   2.468  14.258 -0.0034 -0.4078 -0.9654
  594MPD2    H2 8862   2.078   2.266  14.156 -0.1747  0.4102  0.9999
  594MPD2    H3 8863   2.258   2.415  14.092  0.1241 -1.1345 -0.7915
  594MPD2     N 8864   2.423   2.433  14.521  0.3349 -0.2518  0.0230
  594MPD2    H5 8865   2.391   2.440  14.617  0.1747  0.3668 -0.0783
  594MPD2    N1 8866   2.020   2.180  14.383  0.4334 -0.1935  0.0584
  594MPD2    H7 8867   1.965   2.146  14.304  0.7216  0.7448 -0.5482
  595TMC3    C1 8868   2.843   2.641  14.637 -0.0535 -0.6383 -0.5155
  595TMC3    C2 8869   2.772   2.552  14.555  0.1645 -0.0319 -0.0013
  595TMC3    C3 8870   2.635   2.536  14.583 -0.3070 -0.3005  0.1225
  595TMC3    C4 8871   2.788   2.691  14.754 -1.2124 -0.0639 -0.7385
  595TMC3    C5 8872   2.655   2.669  14.766 -0.0161 -0.4392  0.5361
  595TMC3    C6 8873   2.573   2.597  14.685  0.0505 -0.7289  0.0859
  595TMC3     C 8874   2.934   2.739  14.583 -0.0963  0.5847  0.3254
  595TMC3     O 8875   2.926   2.850  14.633 -0.1294 -0.0188  0.6139
  595TMC3     H 8876   2.803   2.518  14.457 -1.2896 -0.8144 -0.2023
  595TMC3    H1 8877   2.842   2.739  14.835  0.1260 -3.3404  0.2920
  595TMC3    H2 8878   2.471   2.575  14.715  0.5532  1.6065  3.4722
  595TMC3    C7 8879   2.577   2.766  14.839  0.1658 -0.3443  0.0784
  595TMC3    C8 8880   2.554   2.453  14.485 -0.4590 -0.1380 -0.6238
  595TMC3    O1 8881   2.457   2.745  14.854  0.2759 -0.0432 -0.0422
  595TMC3    O2 8882   2.615   2.395  14.395  0.0409  0.5610  0.1704
  596MPD2     C 8883   1.379   0.298  16.636 -0.1253 -0.5486  0.0400
  596MPD2    C1 8884   1.356   0.393  16.537 -0.8269 -1.0065 -0.9553
  596MPD2    C2 8885   1.310   0.360  16.413  0.4193  0.5484  0.2656
  596MPD2    C3 8886   1.283   0.228  16.377  0.2725 -0.4532 -0.0057
  596MPD2    C4 8887   1.318   0.130  16.472 -0.1416 -0.5887 -0.2929
  596MPD2    C5 8888   1.352   0.169  16.593  0.5173 -0.1464  0.0714
  596MPD2     H 8889   1.289   0.447  16.352  1.8906 -0.0049 -1.0420
  596MPD2    H1 8890   1.315   0.021  16.470  0.8710 -0.5674 -3.9645
  596MPD2    H2 8891   1.407   0.312  16.740  2.4817 -0.3647 -0.6821
  596MPD2    H3 8892   1.364   0.084  16.658  0.7511  0.4138  0.7569
  596MPD2     N 8893   1.255   0.192  16.249 -0.0120  0.4406 -0.3446
  596MPD2    H5 8894   1.281   0.100  16.217  0.8240 -0.1942  2.1204
  596MPD2    N1 8895   1.363   0.539  16.557  0.0836 -0.0641 -0.5335
  596MPD2    H7 8896   1.348   0.599  16.477 -0.7092 -0.0800 -0.3989
  597TMC3    C1 8897   1.412   0.739  16.658  0.3220 -0.7127 -0.1816
  597TMC3    C2 8898   1.424   0.792  16.532  0.3539 -0.0577 -0.2777
  597TMC3    C3 8899   1.393   0.920  16.518  0.2188 -0.2416  0.2305
  597TMC3    C4 8900   1.352   0.809  16.758  0.1398 -0.6340 -0.0666
  597TMC3    C5 8901   1.289   0.924  16.724 -0.1194 -0.0977 -0.0924
  597TMC3    C6 8902   1.323   0.989  16.612 -0.0808 -0.2428  0.6894
  597TMC3     C 8903   1.411   0.596  16.670  0.3491  0.1510 -0.1124
  597TMC3     O 8904   1.411   0.547  16.784 -0.3723  0.3834 -0.2918
  597TMC3     H 8905   1.468   0.736  16.449  0.3598  0.1734 -0.4310
  597TMC3    H1 8906   1.336   0.759  16.853 -0.6933 -0.1672  0.0415
  597TMC3    H2 8907   1.288   1.088  16.585  0.8952  0.3164  1.4543
  597TMC3    C7 8908   1.167   0.954  16.789 -1.3863 -1.0654 -0.0899
  597TMC3    C8 8909   1.402   0.989  16.390  0.1755  0.2668 -0.6452
  597TMC3    O1 8910   1.137   0.879  16.879 -0.5262  0.2893  0.4021
  597TMC3    O2 8911   1.371   1.109  16.383 -0.5141  0.3103  0.1912
  598TMC3    C1 8912   4.136   1.972  15.298 -0.3362  0.7344  0.3068
  598TMC3    C2 8913   4.025   1.905  15.248  0.4268 -0.2885  0.7153
  598TMC3    C3 8914   3.965   1.936  15.129 -0.4153  1.0171 -0.2698
  598TMC3    C4 8915   4.195   2.061  15.211  0.8852  0.4522 -0.9317
  598TMC3    C5 8916   4.127   2.088  15.095  1.1287 -0.1889 -0.5278
  598TMC3    C6 8917   4.016   2.027  15.046 -0.5800  0.6252 -0.0677
  598TMC3     C 8918   4.202   1.945  15.422  0.1731 -0.3286  0.3979
  598TMC3     O 8919   4.271   2.036  15.469 -0.8801 -0.1197  0.2723
  598TMC3     H 8920   3.971   1.840  15.316 -0.1242 -0.2476  0.3251
  598TMC3    H1 8921   4.291   2.102  15.241  0.0130  2.7179 -1.2609
  598TMC3    H2 8922   3.973   2.047  14.948 -0.2387  1.1384 -0.1173
  598TMC3    C7 8923   4.202   2.166  14.998 -0.5196  0.6036  1.3400
  598TMC3    C8 8924   3.883   1.820  15.074 -0.1811 -0.2006 -0.4839
  598TMC3    O1 8925   4.160   2.160  14.883  0.1097  0.8075  0.9242
  598TMC3    O2 8926   3.883   1.718  15.143 -0.0187  0.5685 -0.7912
  599MPD2     C 8927   3.765   4.184  15.584 -0.5354 -0.0399  0.3491
  599MPD2    C1 8928   3.872   4.198  15.674  0.4619 -0.6421  0.4346
  599MPD2    C2 8929   3.844   4.216  15.810 -0.0376  0.6413 -0.6367
  599MPD2    C3 8930   3.714   4.214  15.857 -0.2019 -0.7068 -0.0982
  599MPD2    C4 8931   3.614   4.192  15.769 -0.5476  0.0326 -0.1653
  599MPD2    C5 8932   3.640   4.187  15.635 -0.8131 -0.1259  1.0261
  599MPD2     H 8933   3.923   4.242  15.879 -0.5465  0.4965 -0.0038
  599MPD2    H1 8934   3.513   4.195  15.811 -1.5821 -0.3146 -2.6322
  599MPD2    H2 8935   3.787   4.159  15.480 -3.6171 -2.5816  0.3243
  599MPD2    H3 8936   3.567   4.179  15.556 -0.5590  1.1196  0.6608
  599MPD2     N 8937   3.676   4.241  15.993 -0.1321  0.5378  0.0450
  599MPD2    H5 8938   3.576   4.248  16.013 -0.1934 -0.7466  0.1506
  599MPD2    N1 8939   4.004   4.173  15.627 -0.2052 -0.2681  0.1011
  599MPD2    H7 8940   4.013   4.120  15.541 -3.2049 -0.6429  0.0162
  600TMC3    C1 8941   3.702   4.313  16.220 -0.5578 -0.1353  0.1259
  600TMC3    C2 8942   3.600   4.232  16.275  0.4675  0.4774  0.5087
  600TMC3    C3 8943   3.579   4.250  16.405 -1.3248  0.2994  0.7265
  600TMC3    C4 8944   3.771   4.408  16.292  0.3272  0.0153 -0.5901
  600TMC3    C5 8945   3.733   4.430  16.416 -0.1074  0.3007  0.0535
  600TMC3    C6 8946   3.636   4.351  16.480  0.7545 -0.1032  0.2111
  600TMC3     C 8947   3.763   4.267  16.099 -0.4193 -0.1846  0.0706
  600TMC3     O 8948   3.883   4.283  16.095  0.1820  0.0079  0.0316
  600TMC3     H 8949   3.551   4.155  16.217  0.4263 -0.2245  1.4834
  600TMC3    H1 8950   3.845   4.464  16.237  0.9059  0.2149  0.3993
  600TMC3    H2 8951   3.593   4.376  16.576  0.8651 -2.4656  0.8711
  600TMC3    C7 8952   3.744   4.569  16.464  0.2356  0.5371 -0.3517
  600TMC3    C8 8953   3.492   4.154  16.459 -0.5876  0.1095 -0.0289
  600TMC3    O1 8954   3.729   4.589  16.584 -0.1386 -0.0694 -0.6093
  600TMC3    O2 8955   3.406   4.111  16.381  0.1502  0.5045 -0.3109
  601MPD2     C 8956   1.375   3.043   0.463  0.7997 -0.1459  0.0393
  601MPD2    C1 8957   1.369   2.964   0.351 -0.9929  0.2168 -0.0629
  601MPD2    C2 8958   1.344   2.824   0.370  0.3915 -0.1353  0.0569
  601MPD2    C3 8959   1.322   2.775   0.499  0.0680  0.3725  0.0929
  601MPD2    C4 8960   1.323   2.863   0.606 -0.5716 -0.1287  0.3600
  601MPD2    C5 8961   1.362   2.990   0.588 -0.4924 -0.2287  0.0024
  601MPD2     H 8962   1.344   2.756   0.286  0.2241 -0.3851  0.2607
  601MPD2    H1 8963   1.306   2.832   0.709 -1.6966 -0.3452  0.1048
  601MPD2    H2 8964   1.372   3.151   0.455  1.0530 -0.2886 -2.1376
  601MPD2    H3 8965   1.369   3.058   0.672 -1.8163  0.1816 -0.2243
  601MPD2     N 8966   1.303   2.640   0.533 -0.3668  1.1008 -0.2018
  601MPD2    H5 8967   1.262   2.619   0.623 -1.4673 -1.4292 -1.2923
  601MPD2    N1 8968   1.375   3.013   0.218  0.5963  0.1423  0.0526
  601MPD2    H7 8969   1.371   2.946   0.142  1.9436 -1.9742  1.8266
  602TMC3    C1 8970   1.367   3.169   0.053 -0.1354  0.4830  0.2898
  602TMC3    C2 8971   1.374   3.302   0.023 -0.4977  0.0019  0.2360
  602TMC3    C3 8972   1.314   3.349  17.645  0.0418 -0.3042 -0.5539
  602TMC3    C4 8973   1.299   3.080  17.709  0.3936  0.6177 -0.0138
  602TMC3    C5 8974   1.233   3.136  17.605  0.1803 -0.1139  0.3307
  602TMC3    C6 8975   1.233   3.270  17.569  0.5793 -0.2244 -0.8893
  602TMC3     C 8976   1.419   3.137   0.183  0.1075 -0.1085  0.3855
  602TMC3     O 8977   1.459   3.228   0.255  0.5895  0.0774  0.0869
  602TMC3     H 8978   1.416   3.375   0.092  0.9442  0.7242 -1.3994
  602TMC3    H1 8979   1.282   2.980   0.007 -0.7275  1.5333  1.9664
  602TMC3    H2 8980   1.204   3.304  17.470 -1.4222  2.0535  0.4777
  602TMC3    C7 8981   1.159   3.048  17.515  0.5798 -0.0631 -0.2304
  602TMC3    C8 8982   1.294   3.491  17.626  0.0513 -0.2081 -0.1543
  602TMC3    O1 8983   1.180   2.930  17.511 -0.3114  0.4090  0.2008
  602TMC3    O2 8984   1.306   3.561  17.726 -0.6404  0.4102  0.1217
  603TMC3    C1 8985   4.041   3.433  11.190 -0.2452  0.2540  0.1290
  603TMC3    C2 8986   4.058   3.426  11.326  0.2303 -0.1694  0.2004
  603TMC3    C3 8987   3.996   3.523  11.402 -0.4494  0.9508 -0.0364
  603TMC3    C4 8988   3.944   3.514  11.138  0.6424 -0.4301  0.4900
  603TMC3    C5 8989   3.895   3.620  11.217 -0.3762 -0.5632  0.0622
  603TMC3    C6 8990   3.919   3.622  11.347  0.0216 -0.4052  0.2409
  603TMC3     C 8991   4.091   3.317  11.117 -0.2358 -0.6495 -0.5196
  603TMC3     O 8992   4.038   3.295  11.007 -0.0493 -0.2043 -0.4470
  603TMC3     H 8993   4.088   3.337  11.380 -0.2421 -1.3255 -1.4273
  603TMC3    H1 8994   3.923   3.491  11.034  0.2968  3.2309 -0.2690
  603TMC3    H2 8995   3.858   3.690  11.406 -1.8621 -1.3547 -0.6204
  603TMC3    C7 8996   3.809   3.730  11.163  0.5502 -0.5062 -0.6587
  603TMC3    C8 8997   3.981   3.485  11.544  0.7534 -0.8550  0.5777
  603TMC3    O1 8998   3.771   3.815  11.242  0.1607  0.3218 -0.1273
  603TMC3    O2 8999   4.069   3.406  11.586  0.8127 -0.2589 -0.8831
  604MPD2     C 9000   0.593   1.769  16.329  0.3954 -0.3515 -0.2565
  604MPD2    C1 9001   0.494   1.801  16.234  0.7774  0.4895 -0.5830
  604MPD2    C2 9002   0.533   1.795  16.094  0.3793 -0.2135  0.4598
  604MPD2    C3 9003   0.661   1.746  16.060 -0.2553  0.4477  0.2598
  604MPD2    C4 9004   0.748   1.717  16.160 -0.0224  0.0462 -0.2876
  604MPD2    C5 9005   0.710   1.719  16.288  0.3048 -0.5046 -0.3969
  604MPD2     H 9006   0.469   1.839  16.017 -0.9501 -0.4429  1.4288
  604MPD2    H1 9007   0.850   1.691  16.136  0.6473  2.4390  0.0408
  604MPD2    H2 9008   0.574   1.772  16.435 -1.8282  0.3739 -0.6673
  604MPD2    H3 9009   0.782   1.683  16.360 -0.7856 -0.6333  0.6461
  604MPD2     N 9010   0.701   1.759  15.925  0.1172  0.2786  0.5463
  604MPD2    H5 9011   0.628   1.785  15.858  0.7301  1.4897  0.3513
  604MPD2    N1 9012   0.373   1.856  16.287  0.9311  0.7792 -0.1703
  604MPD2    H7 9013   0.358   1.854  16.388 -2.1398  0.2292 -0.6395
  605TMC3    C1 9014   0.181   1.985  16.298 -0.1826 -0.2250  0.4085
  605TMC3    C2 9015   0.220   2.047  16.419  0.4485  0.2988 -0.3103
  605TMC3    C3 9016   0.155   2.162  16.459 -0.0258  0.7854  0.2662
  605TMC3    C4 9017   0.080   2.038  16.219  0.8112  0.0248  0.8036
  605TMC3    C5 9018   0.015   2.148  16.275 -0.1645  0.1789  0.8415
  605TMC3    C6 9019   0.049   2.214  16.391 -0.4872  0.3568  0.1963
  605TMC3     C 9020   0.276   1.920  16.208 -0.6427  0.8878 -0.6436
  605TMC3     O 9021   0.255   1.931  16.085  0.4791 -0.2224 -0.2585
  605TMC3     H 9022   0.306   2.004  16.469 -0.1081  0.3774  0.7077
  605TMC3    H1 9023   0.051   1.991  16.127 -0.8032  0.1394  1.2538
  605TMC3    H2 9024   4.733   2.304  16.422 -3.9818 -1.3268 -0.5891
  605TMC3    C7 9025   4.616   2.167  16.228 -0.2784 -0.2842  0.5401
  605TMC3    C8 9026   0.247   2.256  16.524 -0.1891 -0.4864  0.0441
  605TMC3    O1 9027   4.578   2.283  16.231  0.1556  0.4021 -0.2592
  605TMC3    O2 9028   0.347   2.205  16.570 -0.0195 -0.4079 -0.6159
  606TMC3    C1 9029   1.562   0.684   0.431 -0.1491  0.2073 -0.7404
  606TMC3    C2 9030   1.689   0.731   0.468  0.4231 -0.0253 -0.4039
  606TMC3    C3 9031   1.766   0.642   0.542  0.1486  0.8283  0.1100
  606TMC3    C4 9032   1.522   0.560   0.471 -0.7188  0.4302  0.1840
  606TMC3    C5 9033   1.603   0.477   0.542  0.0552 -0.1546  0.1704
  606TMC3    C6 9034   1.724   0.519   0.576  0.6946 -0.3122 -0.2959
  606TMC3     C 9035   1.462   0.781   0.392 -0.0888  0.4880  0.0813
  606TMC3     O 9036   1.353   0.744   0.352 -0.0325  0.2644 -0.4428
  606TMC3     H 9037   1.744   0.811   0.421  0.6723 -1.6544 -2.9076
  606TMC3    H1 9038   1.420   0.532   0.447 -0.5924 -1.1815  1.5629
  606TMC3    H2 9039   1.784   0.452   0.637 -0.7791 -1.8671 -0.5542
  606TMC3    C7 9040   1.569   0.330   0.558 -0.2807  0.1530 -0.0225
  606TMC3    C8 9041   1.909   0.659   0.549  0.4597 -0.0869 -0.4905
  606TMC3    O1 9042   1.651   0.260   0.620 -0.2463 -0.6672 -0.0292
  606TMC3    O2 9043   1.969   0.558   0.589  0.1614 -0.0719  0.3780
  607MPD2     C 9044   3.173   3.215  12.065 -0.3130 -0.7661 -0.0236
  607MPD2    C1 9045   3.243   3.256  12.175  0.1066 -0.3122  1.1676
  607MPD2    C2 9046   3.261   3.170  12.275  0.4034  0.0450 -0.3137
  607MPD2    C3 9047   3.194   3.053  12.274  0.1512  0.0753  0.6430
  607MPD2    C4 9048   3.126   3.006  12.162  0.7216  0.2283  0.0969
  607MPD2    C5 9049   3.112   3.091  12.057  0.7032  0.0316 -0.5104
  607MPD2     H 9050   3.319   3.201  12.362 -1.2663  1.6634  0.2260
  607MPD2    H1 9051   3.082   2.906  12.160 -0.8976  0.9227  0.6946
  607MPD2    H2 9052   3.157   3.279  11.979  0.0953 -3.5745 -2.1938
  607MPD2    H3 9053   3.053   3.065  11.969  0.4175 -2.0289  0.2914
  607MPD2     N 9054   3.203   2.992  12.401  1.1011  0.2327 -0.0148
  607MPD2    H5 9055   3.248   3.046  12.474 -2.0958  0.8328  1.5242
  607MPD2    N1 9056   3.284   3.389  12.207  0.4092  0.0220 -0.9887
  607MPD2    H7 9057   3.336   3.401  12.293 -0.2061  0.7296 -0.7259
  608TMC3    C1 9058   3.310   3.622  12.208 -0.9703 -0.5841 -0.3739
  608TMC3    C2 9059   3.355   3.600  12.338 -0.2654 -0.0610  0.4661
  608TMC3    C3 9060   3.418   3.706  12.400  0.5272  0.1922 -0.4503
  608TMC3    C4 9061   3.322   3.741  12.140  0.0135 -0.2126 -0.4875
  608TMC3    C5 9062   3.379   3.846  12.215  0.3693 -0.0581  0.3847
  608TMC3    C6 9063   3.426   3.830  12.342 -0.0044  0.6504 -0.0121
  608TMC3     C 9064   3.268   3.504  12.129 -1.4252  0.2261 -0.0146
  608TMC3     O 9065   3.220   3.525  12.017  0.0178 -0.1386  0.4447
  608TMC3     H 9066   3.338   3.512  12.399 -1.3836  1.4810  2.3741
  608TMC3    H1 9067   3.277   3.766  12.045  0.9024  2.3293 -0.2429
  608TMC3    H2 9068   3.481   3.907  12.394  0.9326  1.0810 -1.6204
  608TMC3    C7 9069   3.413   3.963  12.142 -0.1845 -0.0220 -0.3267
  608TMC3    C8 9070   3.475   3.691  12.532  1.0926  0.3176  0.6594
  608TMC3    O1 9071   3.387   3.959  12.021 -0.0506 -0.3410 -0.1084
  608TMC3    O2 9072   3.477   3.792  12.605 -0.0297  0.6720  0.0237
  609TMC3    C1 9073   1.727   2.669   9.120  0.5790  0.1399 -0.4249
  609TMC3    C2 9074   1.699   2.690   8.985 -0.5710  0.2849 -0.2358
  609TMC3    C3 9075   1.760   2.600   8.898  0.2619 -0.0083  0.6176
  609TMC3    C4 9076   1.793   2.559   9.169 -0.9431 -0.5108 -0.4230
  609TMC3    C5 9077   1.849   2.468   9.089 -0.4764  0.1834 -0.5493
  609TMC3    C6 9078   1.826   2.487   8.951  0.2783 -0.3581 -0.6217
  609TMC3     C 9079   1.650   2.739   9.218 -0.1857  0.3256 -0.2859
  609TMC3     O 9080   1.685   2.721   9.337  0.2581 -0.0656  0.0703
  609TMC3     H 9081   1.680   2.789   8.945 -1.9629 -0.1966 -0.7624
  609TMC3    H1 9082   1.800   2.549   9.277 -1.4073  0.6921 -0.2809
  609TMC3    H2 9083   1.875   2.423   8.879  0.1770  0.2472 -1.2353
  609TMC3    C7 9084   1.930   2.365   9.154 -0.0073  0.1140  0.2998
  609TMC3    C8 9085   1.779   2.638   8.752 -0.5142  0.1247  0.2475
  609TMC3    O1 9086   1.958   2.388   9.273 -0.4836  0.1269  0.1524
  609TMC3    O2 9087   1.871   2.580   8.696  0.4158  0.4048  0.0405
  610TMC3    C1 9088   3.772   3.410  13.050  0.4011  0.1624 -0.2709
  610TMC3    C2 9089   3.793   3.513  12.967  0.0788 -0.0339 -0.0175
  610TMC3    C3 9090   3.881   3.494  12.859  0.0900 -0.3824  0.8573
  610TMC3    C4 9091   3.820   3.285  13.024 -0.2569 -0.7176 -0.5274
  610TMC3    C5 9092   3.904   3.266  12.919  0.0580  0.0983  0.0001
  610TMC3    C6 9093   3.934   3.371  12.836 -0.2248  0.4199  0.3643
  610TMC3     C 9094   3.680   3.436  13.164  0.7422  0.1780 -0.2910
  610TMC3     O 9095   3.627   3.337  13.204 -0.5771  0.1573 -0.4783
  610TMC3     H 9096   3.731   3.602  12.973 -1.1093 -0.9650  1.7414
  610TMC3    H1 9097   3.828   3.207  13.099 -2.2120  1.4742  1.9534
  610TMC3    H2 9098   3.996   3.345  12.752  1.5120  0.5030  1.6178
  610TMC3    C7 9099   3.996   3.154  12.910  0.4350 -0.6667  0.6369
  610TMC3    C8 9100   3.866   3.588  12.750  0.5109 -0.0543  0.2169
  610TMC3    O1 9101   4.103   3.172  12.857  0.0798  0.3911 -0.1442
  610TMC3    O2 9102   3.850   3.706  12.787  0.1390 -0.5016  0.1107
  611MPD2     C 9103   2.601   3.500  10.540  0.1171 -0.0325 -0.7228
  611MPD2    C1 9104   2.633   3.458  10.415  0.4682 -0.2264  0.6099
  611MPD2    C2 9105   2.767   3.466  10.379 -0.0805 -0.0329  0.1299
  611MPD2    C3 9106   2.860   3.514  10.473 -0.3897  0.1141  0.5595
  611MPD2    C4 9107   2.825   3.556  10.596  0.4795  0.3019 -0.3388
  611MPD2    C5 9108   2.694   3.548  10.627 -1.0028 -0.9571  0.2371
  611MPD2     H 9109   2.794   3.429  10.280  0.2276 -1.7519  0.8650
  611MPD2    H1 9110   2.903   3.592  10.662  3.2469 -0.9693 -2.9199
  611MPD2    H2 9111   2.504   3.531  10.579  0.0250 -0.1093 -0.8961
  611MPD2    H3 9112   2.668   3.597  10.720 -0.0663 -1.0574  0.5557
  611MPD2     N 9113   2.994   3.551  10.441  0.7647  0.4300 -0.1113
  611MPD2    H5 9114   3.046   3.589  10.519  0.9968  2.2827 -1.1689
  611MPD2    N1 9115   2.543   3.428  10.313  0.2661  0.2035  0.0975
  611MPD2    H7 9116   2.579   3.413  10.219 -1.3464 -0.7683 -0.3638
  612TMC3    C1 9117   3.196   3.573  10.335  0.4338 -0.1177 -0.2568
  612TMC3    C2 9118   3.228   3.668  10.426  0.2720  0.1636  0.0411
  612TMC3    C3 9119   3.359   3.684  10.461 -0.1994  0.1831  0.5759
  612TMC3    C4 9120   3.286   3.511  10.260  0.2925  0.5586 -0.8093
  612TMC3    C5 9121   3.419   3.539  10.290  0.3475 -0.2029 -0.9920
  612TMC3    C6 9122   3.461   3.621  10.392 -0.1990 -1.0964  1.0909
  612TMC3     C 9123   3.063   3.518  10.327 -0.2825 -0.3443 -0.2421
  612TMC3     O 9124   3.026   3.470  10.221 -0.2135 -0.2667 -0.1376
  612TMC3     H 9125   3.151   3.731  10.469 -0.0663 -1.1680  1.3624
  612TMC3    H1 9126   3.259   3.445  10.177  1.4737 -0.1472 -0.6309
  612TMC3    H2 9127   3.563   3.656  10.398 -0.9568  1.3742 -0.6348
  612TMC3    C7 9128   3.508   3.462  10.207 -0.0289  0.3641  0.7682
  612TMC3    C8 9129   3.382   3.755  10.589  0.6163  1.1868 -0.1188
  612TMC3    O1 9130   3.464   3.410  10.106  0.9187  0.0230  0.4152
  612TMC3    O2 9131   3.290   3.825  10.630  0.1426 -0.1107 -0.1014
  613MPD2     C 9132   2.914   0.760  16.530  0.6186  0.3969  0.8900
  613MPD2    C1 9133   2.888   0.634  16.474  0.0191 -0.7472  0.0834
  613MPD2    C2 9134   2.825   0.543  16.558  0.6163  0.3870  0.1424
  613MPD2    C3 9135   2.788   0.575  16.688  0.3106 -0.2149  0.0526
  613MPD2    C4 9136   2.800   0.706  16.732  0.2916  0.3374 -0.8716
  613MPD2    C5 9137   2.865   0.797  16.656 -0.7051 -0.4086  0.1080
  613MPD2     H 9138   2.801   0.442  16.528  3.8170 -0.4867  0.5403
  613MPD2    H1 9139   2.773   0.719  16.836  0.6310  1.1953 -0.8919
  613MPD2    H2 9140   2.970   0.835  16.477  1.3199 -0.2120  0.7692
  613MPD2    H3 9141   2.887   0.900  16.683  1.6847 -1.0930  0.7416
  613MPD2     N 9142   2.732   0.466  16.773 -0.1263 -0.5178 -0.8122
  613MPD2    H5 9143   2.739   0.370  16.741  1.4146 -0.8121  0.4061
  613MPD2    N1 9144   2.948   0.593  16.350  0.0873 -0.2433  0.0337
  613MPD2    H7 9145   2.997   0.660  16.292 -0.3255  1.2780  1.4416
  614TMC3    C1 9146   2.985   0.447  16.168 -0.2012  0.2053 -0.0831
  614TMC3    C2 9147   2.977   0.313  16.135 -1.2333 -0.7792  0.0212
  614TMC3    C3 9148   2.916   0.272  16.018 -0.2799 -0.4765 -0.0607
  614TMC3    C4 9149   2.954   0.542  16.077 -0.4061 -0.7604 -0.5177
  614TMC3    C5 9150   2.908   0.495  15.958  0.4382  1.3643  0.3379
  614TMC3    C6 9151   2.890   0.360  15.920 -0.7817 -0.1935 -0.0527
  614TMC3     C 9152   2.935   0.462  16.298 -0.6388 -0.4246 -0.6947
  614TMC3     O 9153   2.878   0.365  16.343 -0.0204  0.5060  0.7100
  614TMC3     H 9154   3.023   0.240  16.200 -2.4521  1.0824  2.9624
  614TMC3    H1 9155   2.952   0.648  16.100 -0.1622 -0.4214 -2.0709
  614TMC3    H2 9156   2.833   0.338  15.831  0.3700 -0.5302 -0.6963
  614TMC3    C7 9157   2.902   0.595  15.852 -0.0667  0.9092 -1.0077
  614TMC3    C8 9158   2.825   0.161  16.035  0.1766 -0.2823  0.0800
  614TMC3    O1 9159   2.972   0.696  15.865  0.0661 -0.0724  0.1109
  614TMC3    O2 9160   2.775   0.109  15.937  0.2248 -0.1978 -0.1107
  615MPD2     C 9161   1.747   2.043  16.599  0.1114  0.1574 -0.4311
  615MPD2    C1 9162   1.834   2.116  16.526  0.2786 -0.5490 -0.2770
  615MPD2    C2 9163   1.844   2.085  16.395  0.6384  0.0541 -0.1838
  615MPD2    C3 9164   1.775   1.979  16.335 -0.1944 -0.1318  0.0428
  615MPD2    C4 9165   1.685   1.908  16.410  0.1396  0.3308 -0.6387
  615MPD2    C5 9166   1.667   1.944  16.544  0.0872 -0.0006 -0.9463
  615MPD2     H 9167   1.904   2.151  16.334  1.2518 -1.0274 -0.7541
  615MPD2    H1 9168   1.609   1.848  16.360 -1.2881  1.8227 -0.2496
  615MPD2    H2 9169   1.726   2.065  16.703 -2.7318  0.3558 -1.0562
  615MPD2    H3 9170   1.598   1.881  16.600 -0.0098  1.0622  0.1223
  615MPD2     N 9171   1.790   1.943  16.198  0.2164  0.5244  0.6589
  615MPD2    H5 9172   1.719   1.886  16.153 -0.7678  2.3933 -0.1873
  615MPD2    N1 9173   1.926   2.215  16.575 -0.3079 -0.1162 -0.6556
  615MPD2    H7 9174   1.987   2.255  16.504  1.5706  1.1905  1.7108
  616TMC3    C1 9175   2.040   2.337  16.736 -0.1739  0.3414  0.0693
  616TMC3    C2 9176   2.125   2.316  16.842  0.0006 -0.4818  0.5831
  616TMC3    C3 9177   2.229   2.404  16.855 -0.1510  0.1549  0.7255
  616TMC3    C4 9178   2.038   2.448  16.654 -0.3305 -0.1348 -1.0890
  616TMC3    C5 9179   2.147   2.531  16.670 -0.5238  0.1359  0.3579
  616TMC3    C6 9180   2.240   2.509  16.771 -0.0378 -0.2227 -0.0886
  616TMC3     C 9181   1.940   2.237  16.713  0.0728  0.3787 -0.7526
  616TMC3     O 9182   1.898   2.172  16.806  0.6577  0.3139  0.7978
  616TMC3     H 9183   2.113   2.227  16.902  0.2204 -1.4007 -0.7172
  616TMC3    H1 9184   1.957   2.458  16.583 -0.1101  0.8180 -1.1962
  616TMC3    H2 9185   2.310   2.589  16.790 -1.2818  0.5377  1.2981
  616TMC3    C7 9186   2.151   2.650  16.602  0.6393  0.1020  0.8231
  616TMC3    C8 9187   2.341   2.365  16.948 -0.4783  0.6608 -0.1014
  616TMC3    O1 9188   2.045   2.702  16.568 -0.3344 -0.3281  0.4224
  616TMC3    O2 9189   2.304   2.304  17.048  0.3416  0.0428 -0.5724
  617MPD2     C 9190   0.133   0.214  14.107  0.8366  0.4935  0.2773
  617MPD2    C1 9191   0.130   0.123  14.211  0.5069  0.2614  0.2457
  617MPD2    C2 9192   0.021   0.098  14.284  0.2806  0.6382 -0.1416
  617MPD2    C3 9193   4.641   0.171  14.250 -0.2939  0.1258 -0.8621
  617MPD2    C4 9194   4.645   0.265  14.155 -0.6123 -0.8404  0.4816
  617MPD2    C5 9195   0.016   0.280  14.078 -0.1587  0.2540  0.4443
  617MPD2     H 9196   0.013   0.028  14.366  0.8643 -2.3454 -2.6114
  617MPD2    H1 9197   4.565   0.337  14.143  0.7801  0.8585  1.4785
  617MPD2    H2 9198   0.207   0.219  14.029  1.1154 -3.0583  0.3199
  617MPD2    H3 9199   0.014   0.349  13.994  3.6088  1.5080  1.4054
  617MPD2     N 9200   4.516   0.160  14.317 -0.2005 -0.2596 -0.6003
  617MPD2    H5 9201   4.432   0.205  14.281 -1.9444 -1.8118  1.5314
  617MPD2    N1 9202   0.259   0.066  14.238  0.6385 -0.4946 -0.1797
  617MPD2    H7 9203   0.327   0.096  14.170  1.5621  0.3690  1.1404
  618TMC3    C1 9204   0.435   4.698  14.356  0.1110  0.1011 -0.2291
  618TMC3    C2 9205   0.461   4.566  14.354 -0.3200  0.0721  0.1933
  618TMC3    C3 9206   0.591   4.530  14.355  0.4452  0.9709 -0.1387
  618TMC3    C4 9207   0.534   0.061  14.327  0.3987 -0.0678 -0.6708
  618TMC3    C5 9208   0.658   0.018  14.325  0.1919  0.4004 -0.4759
  618TMC3    C6 9209   0.693   4.619  14.339 -0.3189 -0.5290 -0.2214
  618TMC3     C 9210   0.296   4.733  14.354  0.9305 -0.1745  0.1340
  618TMC3     O 9211   0.222   4.700  14.447  0.1585 -0.3799  0.3432
  618TMC3     H 9212   0.383   4.492  14.366 -0.4622  0.0260 -1.0486
  618TMC3    H1 9213   0.508   0.165  14.317  0.3450  0.1069  1.1543
  618TMC3    H2 9214   0.795   4.594  14.367 -1.3341  0.4002  4.3330
  618TMC3    C7 9215   0.722   0.070  14.208 -1.4312 -0.6300  0.0918
  618TMC3    C8 9216   0.603   4.424  14.259  0.3514  0.5059 -0.5113
  618TMC3    O1 9217   0.654   0.157  14.154  0.0981 -0.4454  0.1245
  618TMC3    O2 9218   0.504   4.384  14.208 -0.6482 -0.0091 -0.8165
  619MPD2     C 9219   1.350   1.195  14.077 -0.2610 -0.1004  0.2761
  619MPD2    C1 9220   1.301   1.171  13.951  0.1584 -0.2293  0.1867
  619MPD2    C2 9221   1.164   1.149  13.935 -0.1167 -0.2544 -0.0510
  619MPD2    C3 9222   1.086   1.156  14.047 -0.0414  0.2844  0.4836
  619MPD2    C4 9223   1.133   1.201  14.170 -0.4099  0.0086 -0.9562
  619MPD2    C5 9224   1.267   1.206  14.188 -0.0373 -0.4416  0.4761
  619MPD2     H 9225   1.138   1.134  13.831 -1.0443 -3.0304  0.5765
  619MPD2    H1 9226   1.065   1.207  14.253 -1.4594  0.0802 -1.8206
  619MPD2    H2 9227   1.455   1.213  14.097 -0.3343 -2.0095  2.3752
  619MPD2    H3 9228   1.304   1.233  14.286  1.9952 -1.5532  0.0195
  619MPD2     N 9229   0.953   1.121  14.043  0.1094 -0.3617 -0.2256
  619MPD2    H5 9230   0.891   1.144  14.120  0.7922  0.8381 -0.0184
  619MPD2    N1 9231   1.384   1.166  13.839 -0.5692  0.1809 -0.0135
  619MPD2    H7 9232   1.331   1.153  13.753 -0.2425 -0.8084 -0.0645
  620TMC3    C1 9233   1.565   1.193  13.707 -0.7925  0.3318 -0.3692
  620TMC3    C2 9234   1.478   1.143  13.608 -0.4200 -0.3884  0.2533
  620TMC3    C3 9235   1.480   1.202  13.480  0.6522 -0.0556  0.1673
  620TMC3    C4 9236   1.646   1.300  13.685  0.6586  0.2344  0.1609
  620TMC3    C5 9237   1.642   1.360  13.560  0.3808  0.9418  0.2391
  620TMC3    C6 9238   1.571   1.298  13.459  0.3930 -0.3536 -0.4533
  620TMC3     C 9239   1.517   1.185  13.842  0.2834  0.6621  0.5650
  620TMC3     O 9240   1.598   1.210  13.930  0.4152 -0.1830  0.1132
  620TMC3     H 9241   1.421   1.051  13.620 -3.7904  1.7549  0.9169
  620TMC3    H1 9242   1.713   1.344  13.758  1.6678 -1.1950  0.0920
  620TMC3    H2 9243   1.573   1.345  13.361  0.2884  2.9775  1.1568
  620TMC3    C7 9244   1.645   1.503  13.569 -0.3296 -0.3114 -0.4250
  620TMC3    C8 9245   1.357   1.253  13.427 -0.2246 -0.0483  0.2285
  620TMC3    O1 9246   1.715   1.561  13.653  0.0837  0.5127  0.0790
  620TMC3    O2 9247   1.352   1.372  13.406 -0.4765 -0.1556 -0.0983
  621MPD2     C 9248   1.518   1.926  10.909  0.0835  0.1302 -0.0508
  621MPD2    C1 9249   1.490   1.882  10.782 -0.7948 -0.5117  0.6764
  621MPD2    C2 9250   1.467   1.974  10.689 -0.2185  0.2646  0.7101
  621MPD2    C3 9251   1.441   2.107  10.716 -0.5594 -0.3387  0.1525
  621MPD2    C4 9252   1.460   2.148  10.840  0.5523 -0.0697  0.3625
  621MPD2    C5 9253   1.497   2.060  10.934  0.0818 -0.6966  0.1341
  621MPD2     H 9254   1.465   1.940  10.586  0.6126  1.1137  0.4095
  621MPD2    H1 9255   1.444   2.251  10.870  1.1217  0.2781 -0.5242
  621MPD2    H2 9256   1.537   1.867  10.998  0.1447 -1.2019 -0.9461
  621MPD2    H3 9257   1.512   2.091  11.037 -2.5586  0.1206  0.2777
  621MPD2     N 9258   1.416   2.193  10.604 -0.1272  0.2462  0.4323
  621MPD2    H5 9259   1.420   2.153  10.511  0.2282  0.8096  0.2083
  621MPD2    N1 9260   1.496   1.744  10.745  0.1213 -0.1059 -0.2430
  621MPD2    H7 9261   1.480   1.714  10.649 -1.1143  0.5695 -0.2433
  622TMC3    C1 9262   1.445   1.519  10.788 -0.4431  0.2982  0.4190
  622TMC3    C2 9263   1.414   1.439  10.898 -0.7704 -0.4491  0.2817
  622TMC3    C3 9264   1.317   1.349  10.881  0.3287  0.1554 -0.0456
  622TMC3    C4 9265   1.370   1.500  10.666 -0.7569  0.4945  0.0813
  622TMC3    C5 9266   1.284   1.394  10.651  0.0669 -0.7313 -0.4014
  622TMC3    C6 9267   1.254   1.312  10.756  0.2485  0.0285 -0.0268
  622TMC3     C 9268   1.516   1.642  10.828 -0.0184 -0.2218 -0.1834
  622TMC3     O 9269   1.572   1.643  10.939  0.3703 -0.3496  0.1377
  622TMC3     H 9270   1.456   1.443  10.998  0.9035 -1.0467 -0.3961
  622TMC3    H1 9271   1.400   1.559  10.580  0.1311 -1.3328 -0.8640
  622TMC3    H2 9272   1.183   1.232  10.742  0.6003 -0.7784  2.7613
  622TMC3    C7 9273   1.181   1.403  10.551  0.2423  0.0538  0.5531
  622TMC3    C8 9274   1.277   1.267  10.998  0.7364  0.1610  0.0578
  622TMC3    O1 9275   1.102   1.311  10.534  0.0432  0.5344 -0.3686
  622TMC3    O2 9276   1.365   1.226  11.069 -0.1271 -0.4000  0.0140
  623MPD2     C 9277   0.776   2.487  15.749 -0.3065 -0.0818 -0.1723
  623MPD2    C1 9278   0.728   2.402  15.848  0.3333 -0.0948  0.5000
  623MPD2    C2 9279   0.759   2.432  15.981 -0.1364  0.0936 -0.0899
  623MPD2    C3 9280   0.840   2.537  16.017 -0.1308 -0.3781 -0.4885
  623MPD2    C4 9281   0.890   2.613  15.915 -0.0222 -0.0387 -0.1605
  623MPD2    C5 9282   0.859   2.592  15.784  0.4090  0.0497  0.3644
  623MPD2     H 9283   0.722   2.385  16.071  0.9964 -0.5872  0.0119
  623MPD2    H1 9284   0.965   2.691  15.927  0.3621 -0.3426 -0.6128
  623MPD2    H2 9285   0.764   2.456  15.645  0.2679 -1.3418  0.1429
  623MPD2    H3 9286   0.904   2.647  15.702 -1.5574 -1.1855 -1.5495
  623MPD2     N 9287   0.862   2.551  16.156  0.3016 -0.1362 -0.3982
  623MPD2    H5 9288   0.812   2.487  16.217  0.3795  1.0003  0.8505
  623MPD2    N1 9289   0.647   2.290  15.805 -0.0622 -0.5120 -0.2728
  623MPD2    H7 9290   0.603   2.301  15.714  0.4920 -1.4899 -0.6551
  624TMC3    C1 9291   1.069   2.481  16.521  0.1556 -0.1266  0.4721
  624TMC3    C2 9292   0.951   2.483  16.594 -0.2848  0.3895  0.6810
  624TMC3    C3 9293   0.845   2.552  16.546 -0.2577 -0.4332  0.5057
  624TMC3    C4 9294   1.081   2.538  16.398 -0.1719 -0.7145 -0.5691
  624TMC3    C5 9295   0.966   2.593  16.353  0.5517 -0.2890  0.1468
  624TMC3    C6 9296   0.854   2.614  16.428 -0.1956  0.6899  0.9906
  624TMC3     C 9297   1.180   2.417  16.589  0.1926 -0.3907 -0.2600
  624TMC3     O 9298   1.153   2.349  16.684  0.6263  0.1423 -0.2433
  624TMC3     H 9299   0.942   2.429  16.688  0.8626 -1.9851 -0.5857
  624TMC3    H1 9300   1.174   2.542  16.342 -0.8585 -0.7918 -1.7039
  624TMC3    H2 9301   0.760   2.652  16.389 -0.8089 -2.2609 -0.3637
  624TMC3    C7 9302   0.954   2.632  16.213 -0.0053 -1.2998 -0.3859
  624TMC3    C8 9303   0.715   2.503  16.575 -0.0756  0.7974 -0.2237
  624TMC3    O1 9304   1.057   2.677  16.156 -0.8918 -0.0983 -0.9556
  624TMC3    O2 9305   0.693   2.385  16.592 -0.2627  0.0593  0.1249
  625MPD2     C 9306   1.560   3.182   0.880 -0.0523 -0.4597  0.2208
  625MPD2    C1 9307   1.567   3.321   0.916  0.2039  0.0924  0.2174
  625MPD2    C2 9308   1.682   3.367   0.970  0.2114  0.0836 -0.2105
  625MPD2    C3 9309   1.790   3.281   0.994  0.4962  0.5812  0.2100
  625MPD2    C4 9310   1.772   3.150   0.979  0.0033  0.1294  0.4800
  625MPD2    C5 9311   1.660   3.098   0.920 -0.2614 -0.4255  0.0777
  625MPD2     H 9312   1.685   3.475   0.978  0.8059  0.0077  0.5761
  625MPD2    H1 9313   1.847   3.076   1.005  0.7299  0.5396 -0.4266
  625MPD2    H2 9314   1.471   3.144   0.832  0.7305  1.2271 -2.5161
  625MPD2    H3 9315   1.646   2.992   0.907  1.2635 -0.5930 -0.2170
  625MPD2     N 9316   1.913   3.338   1.030  0.4358  0.1402 -0.2272
  625MPD2    H5 9317   1.921   3.436   1.054  0.4470 -0.2052  1.2067
  625MPD2    N1 9318   1.476   3.424   0.895  0.0239 -0.2553 -0.7691
  625MPD2    H7 9319   1.494   3.515   0.936  0.7774 -1.1457  0.8813
  626TMC3    C1 9320   1.267   3.522   0.827 -0.0041  0.6603 -0.4666
  626TMC3    C2 9321   1.163   3.526   0.736  0.3492 -0.4643  0.0406
  626TMC3    C3 9322   1.079   3.634   0.743 -0.6552 -0.7077 -0.1970
  626TMC3    C4 9323   1.270   3.611   0.930  0.2322 -0.6399  0.0323
  626TMC3    C5 9324   1.184   3.718   0.929 -0.5931 -0.0725 -0.3892
  626TMC3    C6 9325   1.086   3.741   0.832 -0.4481  0.2641 -0.5056
  626TMC3     C 9326   1.362   3.411   0.819 -0.1975  0.0830  1.2633
  626TMC3     O 9327   1.332   3.319   0.751  0.0166 -0.4100  0.1223
  626TMC3     H 9328   1.162   3.463   0.648  3.8853 -0.6794  0.1328
  626TMC3    H1 9329   1.339   3.599   1.013  1.5490 -2.1250 -1.2521
  626TMC3    H2 9330   1.013   3.821   0.831 -0.0394  0.6626  0.7670
  626TMC3    C7 9331   1.181   3.782   1.056 -0.2573  0.3667 -0.3968
  626TMC3    C8 9332   1.003   3.673   0.631  0.0397 -0.4109  0.2331
  626TMC3    O1 9333   1.271   3.758   1.133 -0.1392 -0.2879  0.2378
  626TMC3    O2 9334   0.991   3.791   0.604 -0.5194 -0.2048 -0.4405
  627MPD2     C 9335   4.618   3.615  14.475  0.4810  0.1969  0.2549
  627MPD2    C1 9336   4.582   3.592  14.605 -0.0084  0.2216  0.3326
  627MPD2    C2 9337   4.492   3.493  14.631  0.3155  0.6608  0.3577
  627MPD2    C3 9338   4.442   3.417  14.524  0.3178  0.7143 -0.4364
  627MPD2    C4 9339   4.474   3.448  14.396 -0.3445 -0.9008  0.3467
  627MPD2    C5 9340   4.568   3.546  14.365  0.6732  0.1781  0.1306
  627MPD2     H 9341   4.461   3.480  14.734 -0.9439  1.4965  0.0838
  627MPD2    H1 9342   4.431   3.407  14.306 -1.5702  0.3474  0.3513
  627MPD2    H2 9343   4.698   3.686  14.459  1.0920 -0.2165  1.4123
  627MPD2    H3 9344   4.591   3.579  14.264  0.2523  0.6862  0.1978
  627MPD2     N 9345   4.353   3.314  14.555 -1.0345  0.1207  0.3582
  627MPD2    H5 9346   4.306   3.312  14.646 -3.2886 -0.3663 -0.8031
  627MPD2    N1 9347   4.636   3.656  14.715  0.1058 -0.2257  0.3666
  627MPD2    H7 9348   4.608   3.632  14.810 -1.0322 -3.0153 -0.7033
  628TMC3    C1 9349   0.003   3.808  14.856  0.0971 -0.0491  0.0790
  628TMC3    C2 9350   0.090   3.719  14.917  0.0221 -0.2416  0.5649
  628TMC3    C3 9351   0.169   3.769  15.014  0.0308 -0.9146  0.3876
  628TMC3    C4 9352   4.735   3.947  14.879  0.2287 -0.3485  0.4407
  628TMC3    C5 9353   0.094   3.989  14.967 -0.2523 -0.2443 -0.7174
  628TMC3    C6 9354   0.187   3.907  15.017  0.5503 -0.8156  0.4742
  628TMC3     C 9355   4.716   3.769  14.720 -0.2058 -0.2854 -0.6232
  628TMC3     O 9356   0.020   3.841  14.630 -0.4229  0.0518  0.1487
  628TMC3     H 9357   0.097   3.615  14.889  2.4705 -0.6612  2.8532
  628TMC3    H1 9358   4.677   4.002  14.806 -0.2987 -1.5571 -0.0674
  628TMC3    H2 9359   0.264   3.955  15.076 -1.2540  0.0621  2.1186
  628TMC3    C7 9360   0.119   4.132  14.947  0.6569  0.3067  0.1700
  628TMC3    C8 9361   0.275   3.683  15.063 -0.2877  0.0806  0.3563
  628TMC3    O1 9362   0.237   4.158  14.937 -0.2666  0.0503 -0.3655
  628TMC3    O2 9363   0.266   3.570  15.013 -0.1618  0.0056  0.0069
  629MPD2     C 9364   2.826   2.338  17.115 -0.5897  1.0542  0.0016
  629MPD2    C1 9365   2.835   2.410  16.996 -0.1860  0.0191  0.8622
  629MPD2    C2 9366   2.710   2.422  16.933  0.8507  0.5904 -0.8400
  629MPD2    C3 9367   2.586   2.365  16.974 -0.4660  0.1890  0.2853
  629MPD2    C4 9368   2.592   2.293  17.093  0.7701 -1.0713  0.1168
  629MPD2    C5 9369   2.708   2.282  17.165  1.1933  0.4543 -0.4017
  629MPD2     H 9370   2.715   2.476  16.839  0.9859  0.1980 -1.0620
  629MPD2    H1 9371   2.503   2.262  17.147 -0.0736 -0.4827 -0.9240
  629MPD2    H2 9372   2.912   2.332  17.181  0.8622 -0.8934 -2.0630
  629MPD2    H3 9373   2.704   2.222  17.255 -2.6297  1.1204 -0.1187
  629MPD2     N 9374   2.469   2.403  16.909 -0.1714  0.0426 -0.1057
  629MPD2    H5 9375   2.475   2.462  16.827 -1.2516  0.8361  0.3890
  629MPD2    N1 9376   2.967   2.452  16.948 -0.1850  0.6038  0.7689
  629MPD2    H7 9377   3.044   2.427  17.010 -0.2895  1.8792  1.4362
  630TMC3    C1 9378   3.127   2.532  16.802 -0.0733  0.2446  1.0154
  630TMC3    C2 9379   3.155   2.656  16.755  0.8955  0.3883  0.4479
  630TMC3    C3 9380   3.262   2.723  16.806  0.4430 -0.3885 -0.0160
  630TMC3    C4 9381   3.207   2.465  16.885  0.0535 -0.3819  0.0844
  630TMC3    C5 9382   3.332   2.527  16.900  0.3021  0.6328  0.3405
  630TMC3    C6 9383   3.352   2.661  16.879 -0.1889 -0.3407  0.1143
  630TMC3     C 9384   2.986   2.512  16.822 -0.0258  0.1293  0.7829
  630TMC3     O 9385   2.905   2.557  16.740 -0.0429  0.2172 -0.9528
  630TMC3     H 9386   3.080   2.719  16.709 -1.4092 -0.4503  3.0816
  630TMC3    H1 9387   3.212   2.358  16.899  0.5660 -0.6435 -2.1348
  630TMC3    H2 9388   3.446   2.712  16.897 -0.9084  1.3635 -1.0122
  630TMC3    C7 9389   3.443   2.458  16.964 -0.6443 -0.2579 -0.5378
  630TMC3    C8 9390   3.296   2.855  16.746 -0.1843  0.2829  0.4068
  630TMC3    O1 9391   3.415   2.369  17.040  0.1669  0.2839 -0.2852
  630TMC3    O2 9392   3.409   2.896  16.785 -0.1119  0.4038  0.6816
  631MPD2     C 9393   1.302   2.287  15.491  0.0202  0.0947 -0.4377
  631MPD2    C1 9394   1.425   2.303  15.434  0.0222  0.5150  0.5388
  631MPD2    C2 9395   1.533   2.229  15.482 -0.5718  1.0407  0.6569
  631MPD2    C3 9396   1.507   2.133  15.587  0.3593  0.4690 -0.0026
  631MPD2    C4 9397   1.379   2.122  15.636 -0.8891 -0.1343  0.1465
  631MPD2    C5 9398   1.277   2.195  15.583  0.0046  0.4049 -0.2649
  631MPD2     H 9399   1.630   2.249  15.440 -0.7535 -1.0797 -0.7881
  631MPD2    H1 9400   1.345   2.056  15.715 -2.4696  0.4651 -0.0330
  631MPD2    H2 9401   1.216   2.337  15.448  0.5864  1.2895 -0.1600
  631MPD2    H3 9402   1.174   2.171  15.606  0.1592 -0.0436 -0.0355
  631MPD2     N 9403   1.620   2.060  15.631 -0.5155 -0.6532 -0.6495
  631MPD2    H5 9404   1.710   2.097  15.602  0.2722 -2.3624 -0.4372
  631MPD2    N1 9405   1.432   2.405  15.337 -0.4653  0.0004 -0.3196
  631MPD2    H7 9406   1.343   2.452  15.325 -0.5017 -0.0984 -0.4338
  632TMC3    C1 9407   1.494   2.585  15.214 -0.0430  0.1757  0.6255
  632TMC3    C2 9408   1.380   2.644  15.268 -0.0900  0.3222  0.6926
  632TMC3    C3 9409   1.342   2.763  15.213 -0.3449 -0.6929  0.0580
  632TMC3    C4 9410   1.570   2.644  15.111  0.0554 -0.0716 -0.2270
  632TMC3    C5 9411   1.515   2.752  15.052  0.1971  0.5141 -0.6165
  632TMC3    C6 9412   1.404   2.817  15.098 -0.0160 -0.6255 -0.0424
  632TMC3     C 9413   1.539   2.460  15.260  0.1274 -0.4229 -1.1509
  632TMC3     O 9414   1.644   2.414  15.220 -0.3996 -0.1067  0.7670
  632TMC3     H 9415   1.321   2.606  15.351  0.3207  0.6115  1.1187
  632TMC3    H1 9416   1.652   2.584  15.073  0.8885  0.4525  0.7432
  632TMC3    H2 9417   1.365   2.905  15.048 -1.6875 -0.2877  1.8957
  632TMC3    C7 9418   1.545   2.796  14.919  0.3842 -0.3545  0.1137
  632TMC3    C8 9419   1.220   2.821  15.257 -0.5382 -0.0769  1.0785
  632TMC3    O1 9420   1.507   2.909  14.881 -0.9599 -0.7197  0.4204
  632TMC3    O2 9421   1.196   2.798  15.373  0.7587  0.0446 -0.0557
  633MPD2     C 9422   0.521   0.472  17.359  0.3607 -0.7716 -0.6012
  633MPD2    C1 9423   0.618   0.419  17.281  0.1077 -0.2164  0.2615
  633MPD2    C2 9424   0.717   0.345  17.344  0.1975  0.4121  0.2580
  633MPD2    C3 9425   0.714   0.320  17.481 -0.3791  0.2184 -0.1005
  633MPD2    C4 9426   0.613   0.375  17.558 -0.2080  0.3437  0.3114
  633MPD2    C5 9427   0.525   0.457  17.494 -0.6142  0.5831 -0.0192
  633MPD2     H 9428   0.801   0.301  17.291 -2.0363 -2.6724 -0.7087
  633MPD2    H1 9429   0.596   0.370  17.665 -0.6011 -2.1194  0.1171
  633MPD2    H2 9430   0.451   0.540  17.314 -1.1047 -0.8824  1.5101
  633MPD2    H3 9431   0.444   0.501  17.551 -0.9087  0.0883 -0.0541
  633MPD2     N 9432   0.811   0.238  17.543  0.0032 -0.5482 -0.1492
  633MPD2    H5 9433   0.863   0.173  17.485 -0.3068 -1.4581  0.5872
  633MPD2    N1 9434   0.630   0.450  17.142 -0.0145 -0.4156  0.6804
  633MPD2    H7 9435   0.716   0.412  17.103 -1.8610 -2.7925 -1.0449
  634TMC3    C1 9436   0.588   0.505  16.925 -0.1220 -0.1133 -0.1525
  634TMC3    C2 9437   0.654   0.393  16.891  0.2818 -0.2978  0.0705
  634TMC3    C3 9438   0.706   0.386  16.766 -0.1861  0.4207 -0.5157
  634TMC3    C4 9439   0.572   0.611  16.842  0.3420 -0.4544  0.3636
  634TMC3    C5 9440   0.628   0.606  16.714  0.4204 -0.1770  0.2043
  634TMC3    C6 9441   0.705   0.492  16.678 -0.2225 -0.8678 -0.0847
  634TMC3     C 9442   0.547   0.521  17.060  0.0060  0.1364 -0.8889
  634TMC3     O 9443   0.441   0.579  17.080 -0.0151  0.1054  0.5028
  634TMC3     H 9444   0.656   0.310  16.961 -0.5878  1.0771  1.7213
  634TMC3    H1 9445   0.516   0.699  16.872 -1.7038 -1.3580 -0.8006
  634TMC3    H2 9446   0.761   0.483  16.585 -0.1514  0.1160 -0.1367
  634TMC3    C7 9447   0.603   0.703  16.603 -0.6138  0.2922 -0.0484
  634TMC3    C8 9448   0.756   0.256  16.734  0.2690  0.5050  0.2831
  634TMC3    O1 9449   0.637   0.677  16.489  0.3885  0.1153 -0.4840
  634TMC3    O2 9450   0.743   0.175  16.824 -0.2455  0.4241  0.2595
  635TMC3    C1 9451   0.925   1.456   0.258  0.0075 -0.6275  0.6662
  635TMC3    C2 9452   0.944   1.399   0.133 -0.3973  0.3377 -0.3572
  635TMC3    C3 9453   0.852   1.310   0.088  0.2968  0.1157  0.0312
  635TMC3    C4 9454   0.811   1.425   0.339 -0.9739  0.1489 -0.0075
  635TMC3    C5 9455   0.719   1.351   0.277 -0.8482  0.3441  0.6441
  635TMC3    C6 9456   0.736   1.297   0.154  0.2293  0.3381  0.5838
  635TMC3     C 9457   0.983   1.591   0.286  0.0408  0.0792 -0.2397
  635TMC3     O 9458   0.956   1.657   0.382  0.5065 -0.2745  0.4120
  635TMC3     H 9459   1.044   1.409   0.091 -0.4529  4.7306  0.6305
  635TMC3    H1 9460   0.790   1.481   0.429  0.4160 -1.8411  1.5710
  635TMC3    H2 9461   0.652   1.240   0.116  0.6910  1.0864 -1.5278
  635TMC3    C7 9462   0.585   1.361   0.322 -0.4767 -0.0298 -0.2343
  635TMC3    C8 9463   0.898   1.213  17.731 -0.5136  0.3144  0.3632
  635TMC3    O1 9464   0.498   1.368   0.233 -0.0052  0.4560 -0.6643
  635TMC3    O2 9465   1.003   1.223  17.670 -0.1700  0.4980  0.5242
  636MPD2     C 9466   1.819   0.599  16.628  0.7882 -0.6226 -0.0134
  636MPD2    C1 9467   1.941   0.667  16.604 -0.7181  0.0503  0.7728
  636MPD2    C2 9468   2.056   0.611  16.645 -0.1010  0.3314 -0.3928
  636MPD2    C3 9469   2.065   0.485  16.704  0.1600 -0.1270 -0.6148
  636MPD2    C4 9470   1.945   0.420  16.731  0.1277 -0.5675  0.1210
  636MPD2    C5 9471   1.826   0.487  16.697  0.2575  0.3976  0.1922
  636MPD2     H 9472   2.144   0.670  16.621 -0.1498 -0.4417 -2.4506
  636MPD2    H1 9473   1.942   0.328  16.789 -1.4047  0.5722  1.8364
  636MPD2    H2 9474   1.719   0.639  16.615  1.2610  0.4946 -0.1453
  636MPD2    H3 9475   1.738   0.433  16.730  0.1302  1.8959  2.2865
  636MPD2     N 9476   2.187   0.432  16.730  0.0347  0.1983 -0.0649
  636MPD2    H5 9477   2.260   0.492  16.694 -0.7045 -0.2862 -2.4479
  636MPD2    N1 9478   1.947   0.793  16.521 -0.3822  0.3200  0.1717
  636MPD2    H7 9479   2.044   0.806  16.496 -0.9019  0.1791 -1.8547
  637TMC3    C1 9480   2.349   0.284  16.792 -0.1446 -0.0103 -0.3532
  637TMC3    C2 9481   2.421   0.387  16.850 -0.4194  0.2142 -0.2126
  637TMC3    C3 9482   2.553   0.364  16.881 -0.1853 -0.1676 -0.0851
  637TMC3    C4 9483   2.408   0.169  16.743  0.2414  0.0785 -0.4064
  637TMC3    C5 9484   2.542   0.154  16.766  0.1665 -0.2571 -0.3291
  637TMC3    C6 9485   2.608   0.243  16.841 -0.1833  0.2374 -0.1313
  637TMC3     C 9486   2.212   0.304  16.759 -0.1635  0.8342 -1.2197
  637TMC3     O 9487   2.137   0.205  16.751  0.1801 -0.0947  1.1263
  637TMC3     H 9488   2.375   0.482  16.874 -1.5739 -0.0132 -1.5830
  637TMC3    H1 9489   2.351   0.098  16.684  1.5932 -0.0401 -1.5761
  637TMC3    H2 9490   2.712   0.226  16.868 -1.0653 -3.5135  0.9382
  637TMC3    C7 9491   2.624   0.114  16.659  0.0473 -0.2980 -0.4138
  637TMC3    C8 9492   2.636   0.486  16.871 -0.2213 -0.1941  0.6951
  637TMC3    O1 9493   2.725   0.181  16.645  0.0527 -0.0273 -0.3906
  637TMC3    O2 9494   2.589   0.591  16.916  0.2214  0.4874  0.3377
  638MPD2     C 9495   1.894   4.181  15.074 -0.4236  0.2281  0.0769
  638MPD2    C1 9496   1.912   4.065  15.014  0.8372 -0.4085 -0.0568
  638MPD2    C2 9497   1.857   3.956  15.072 -0.3377 -0.2251  0.0666
  638MPD2    C3 9498   1.783   3.966  15.191  0.1052 -0.1232  0.1984
  638MPD2    C4 9499   1.766   4.092  15.243  0.4261 -0.0093  0.0216
  638MPD2    C5 9500   1.827   4.200  15.188  0.4136 -0.5715  0.2521
  638MPD2     H 9501   1.879   3.861  15.024 -1.5827  0.6476 -2.2415
  638MPD2    H1 9502   1.714   4.112  15.336 -1.5674 -3.2200 -0.4087
  638MPD2    H2 9503   1.939   4.268  15.027  0.9928 -0.5008  0.0604
  638MPD2    H3 9504   1.820   4.301  15.226  1.7006 -0.1170 -0.7135
  638MPD2     N 9505   1.720   3.848  15.248 -0.1672  0.4164  0.2278
  638MPD2    H5 9506   1.739   3.767  15.190 -0.4497 -0.2118  1.0106
  638MPD2    N1 9507   1.990   4.060  14.900 -0.0681 -0.0768 -0.0704
  638MPD2    H7 9508   2.034   4.148  14.873 -0.5399  0.3795  0.6379
  639TMC3    C1 9509   1.659   3.705  15.415 -0.1038  0.1223 -0.0187
  639TMC3    C2 9510   1.556   3.627  15.372  0.0865  0.3241  0.3941
  639TMC3    C3 9511   1.579   3.495  15.353  0.4162 -0.1520  0.0572
  639TMC3    C4 9512   1.782   3.665  15.432  0.4478  0.5415 -0.4903
  639TMC3    C5 9513   1.799   3.530  15.416 -0.0301  0.4048  0.1391
  639TMC3    C6 9514   1.697   3.439  15.384 -0.1272 -0.0877 -0.3534
  639TMC3     C 9515   1.654   3.841  15.366 -0.7179 -0.3918  0.5440
  639TMC3     O 9516   1.616   3.934  15.427  0.5789  0.7265  0.0380
  639TMC3     H 9517   1.463   3.674  15.342 -1.0441 -1.4518  1.1797
  639TMC3    H1 9518   1.863   3.729  15.465  1.0383  1.0121 -2.8379
  639TMC3    H2 9519   1.727   3.342  15.344  1.4872  1.0454 -1.9011
  639TMC3    C7 9520   1.929   3.462  15.420  0.0855  0.3613 -0.1223
  639TMC3    C8 9521   1.534   3.448  15.226 -1.0948 -0.1612  0.2911
  639TMC3    O1 9522   1.921   3.349  15.463  0.3236 -0.1193 -0.5452
  639TMC3    O2 9523   1.622   3.419  15.145  0.1671  0.4506  0.2005
  640MPD2     C 9524   2.131   3.501   9.812 -0.0534 -0.1881  0.7215
  640MPD2    C1 9525   2.029   3.452   9.730  0.7334 -0.5529  0.2456
  640MPD2    C2 9526   1.913   3.527   9.722 -0.2677 -0.5313  0.4499
  640MPD2    C3 9527   1.902   3.643   9.796  0.2205  0.8731  0.3948
  640MPD2    C4 9528   2.000   3.686   9.876 -0.1925  0.3474  1.0087
  640MPD2    C5 9529   2.118   3.612   9.892  0.3207  0.2744 -0.2527
  640MPD2     H 9530   1.834   3.496   9.655 -0.2669 -0.6020  0.4811
  640MPD2    H1 9531   1.992   3.782   9.925 -2.4031  0.1863  0.9654
  640MPD2    H2 9532   2.228   3.452   9.819 -0.4294 -1.1113 -0.5387
  640MPD2    H3 9533   2.192   3.647   9.963  0.1527  2.4345 -1.1534
  640MPD2     N 9534   1.782   3.729   9.796  0.2920 -0.3749  0.7473
  640MPD2    H5 9535   1.776   3.798   9.870  0.7327 -1.1517  1.5060
  640MPD2    N1 9536   2.060   3.341   9.650 -0.4895  0.0361  0.4382
  640MPD2    H7 9537   2.151   3.299   9.668  0.4645  0.9694 -2.1727
  641TMC3    C1 9538   2.045   3.166   9.487 -0.6409  0.1361  0.1693
  641TMC3    C2 9539   2.129   3.085   9.559 -0.2745 -0.0816 -0.0976
  641TMC3    C3 9540   2.192   2.987   9.487 -0.3108  0.1202  0.1982
  641TMC3    C4 9541   2.018   3.145   9.355 -0.1151  0.5927 -0.1057
  641TMC3    C5 9542   2.078   3.047   9.286  0.1954  0.6859  0.0369
  641TMC3    C6 9543   2.169   2.969   9.347 -0.1040 -0.2212 -0.0214
  641TMC3     C 9544   1.988   3.289   9.549 -0.1006  0.4250  0.5669
  641TMC3     O 9545   1.910   3.352   9.478  0.0034  0.1128 -0.2663
  641TMC3     H 9546   2.125   3.079   9.667  3.1947 -0.1118  0.0282
  641TMC3    H1 9547   1.949   3.213   9.306  0.5508  2.4398  1.5509
  641TMC3    H2 9548   2.226   2.895   9.292  0.4835  0.5454 -0.4474
  641TMC3    C7 9549   2.060   3.030   9.145  0.2349 -0.1523  0.2555
  641TMC3    C8 9550   2.253   2.873   9.560  0.5356 -0.2916 -0.1396
  641TMC3    O1 9551   2.148   2.970   9.082  0.6925  0.8250  0.6245
  641TMC3    O2 9552   2.294   2.784   9.487  0.6778  0.4230  0.4803
  642TMC3    C1 9553   2.990   4.203  12.677 -0.2363 -0.2350  0.5009
  642TMC3    C2 9554   3.122   4.239  12.664  0.7367  0.0380 -0.1701
  642TMC3    C3 9555   3.201   4.168  12.578  0.2218 -0.2551  0.9217
  642TMC3    C4 9556   2.937   4.108  12.601  0.3002 -0.1630  0.2519
  642TMC3    C5 9557   3.031   4.033  12.531  0.0766  0.4025 -0.3263
  642TMC3    C6 9558   3.161   4.061  12.514 -0.5021  0.2773 -0.6352
  642TMC3     C 9559   2.903   4.296  12.759  0.1727 -0.5130 -0.9021
  642TMC3     O 9560   2.953   4.399  12.802  0.1629  0.2788 -0.1066
  642TMC3     H 9561   3.154   4.321  12.727  0.4533  0.3336 -0.4170
  642TMC3    H1 9562   2.833   4.077  12.607 -0.1249  1.0560 -0.8092
  642TMC3    H2 9563   3.218   3.998  12.446 -0.1985  0.8201 -0.8763
  642TMC3    C7 9564   2.997   3.904  12.483  0.1218  0.5496  0.2302
  642TMC3    C8 9565   3.348   4.190  12.596  0.3404  0.6620 -0.8635
  642TMC3    O1 9566   2.886   3.885  12.438 -0.1480  0.1734  0.0519
  642TMC3    O2 9567   3.420   4.102  12.552  0.3138 -0.1056  0.5165
  643TMC3    C1 9568   3.159   3.044   0.519  0.1761 -0.8022 -0.9305
  643TMC3    C2 9569   3.026   3.004   0.519 -1.2807  0.2998 -0.2315
  643TMC3    C3 9570   2.980   2.918   0.423 -0.5094  0.4837 -0.8595
  643TMC3    C4 9571   3.239   3.030   0.407  0.4461 -0.1468 -0.1313
  643TMC3    C5 9572   3.190   2.952   0.310  0.1798  0.3732  0.4249
  643TMC3    C6 9573   3.073   2.880   0.328  0.1749  0.1773  0.3552
  643TMC3     C 9574   3.187   3.161   0.598 -0.1499  0.8279 -0.0762
  643TMC3     O 9575   3.098   3.241   0.603  0.3440  0.1201  0.0881
  643TMC3     H 9576   2.956   3.040   0.594 -0.1961 -0.7809  1.2867
  643TMC3    H1 9577   3.324   3.094   0.384  0.9192 -0.4373  0.8071
  643TMC3    H2 9578   3.033   2.811   0.253  0.1851 -0.5766  1.0381
  643TMC3    C7 9579   3.198   3.015   0.176  0.4685  0.6399  0.7889
  643TMC3    C8 9580   2.867   2.973   0.344 -0.2230 -0.4700 -0.4757
  643TMC3    O1 9581   3.253   3.123   0.169 -0.4309  0.4613  0.0613
  643TMC3    O2 9582   2.835   2.907   0.243  0.2747 -0.2181  0.1192
  644MPD2     C 9583   1.996   4.076   9.812 -0.1981 -0.3844  0.0977
  644MPD2    C1 9584   2.058   4.153   9.913  0.1351  0.2745  0.0752
  644MPD2    C2 9585   2.002   4.275   9.946  0.4421 -0.3282 -0.0950
  644MPD2    C3 9586   1.898   4.332   9.875  0.0879  0.5872 -0.6825
  644MPD2    C4 9587   1.841   4.252   9.771 -0.2460 -0.3161  0.1700
  644MPD2    C5 9588   1.888   4.126   9.750 -0.5455 -0.2808 -0.0833
  644MPD2     H 9589   2.039   4.336  10.027  0.8814 -0.3100 -0.3076
  644MPD2    H1 9590   1.752   4.278   9.714 -0.9225  0.5048  1.5666
  644MPD2    H2 9591   2.036   3.978   9.787  1.3114  0.3109 -0.2190
  644MPD2    H3 9592   1.828   4.077   9.674 -0.1325 -0.1370 -0.5008
  644MPD2     N 9593   1.854   4.458   9.919  0.1507 -0.0450  0.3564
  644MPD2    H5 9594   1.897   4.491  10.004 -0.1324  1.0024  0.0956
  644MPD2    N1 9595   2.180   4.105   9.958 -0.5270 -0.4117 -0.1649
  644MPD2    H7 9596   2.217   4.035   9.895  1.2700  0.2333  0.1728
  645TMC3    C1 9597   1.750   4.672   9.908  1.0034 -0.4733  1.0864
  645TMC3    C2 9598   1.851   4.730   9.987 -1.0645 -0.0284  0.4188
  645TMC3    C3 9599   1.821   0.115  10.038  0.3848 -0.4631 -0.0873
  645TMC3    C4 9600   1.620   4.722   9.891  0.2373 -0.3941  0.4992
  645TMC3    C5 9601   1.599   0.113   9.946 -0.3410  0.0512  0.7532
  645TMC3    C6 9602   1.696   0.175  10.023 -0.5577  0.2644  0.0140
  645TMC3     C 9603   1.758   4.537   9.859  0.0338 -0.2023  0.0507
  645TMC3     O 9604   1.679   4.503   9.772 -0.2174  0.3510  0.6749
  645TMC3     H 9605   1.950   4.686   9.996 -0.2487  1.5752 -0.7453
  645TMC3    H1 9606   1.552   4.678   9.819 -0.8842  2.1819 -0.0156
  645TMC3    H2 9607   1.686   0.271  10.071 -0.8015 -0.3772  1.2522
  645TMC3    C7 9608   1.488   0.196   9.887 -0.6379 -0.4932 -0.7102
  645TMC3    C8 9609   1.910   0.187  10.122  0.0302  0.2260  0.4789
  645TMC3    O1 9610   1.429   0.150   9.791  0.1155 -0.5478  0.0038
  645TMC3    O2 9611   1.898   0.305  10.114 -0.0242  0.0575 -0.0111
  646MPD2     C 9612   2.164   2.899  14.755 -0.1970  0.3386  0.0637
  646MPD2    C1 9613   2.062   2.838  14.818  0.2038  0.1997  0.8416
  646MPD2    C2 9614   1.932   2.883  14.779  0.5589 -0.2914 -0.6697
  646MPD2    C3 9615   1.905   2.957  14.665  0.5401 -0.0728  0.2478
  646MPD2    C4 9616   2.013   2.997  14.594 -0.7753  0.5340 -0.4344
  646MPD2    C5 9617   2.145   2.973  14.644 -0.4627  0.4231 -1.1120
  646MPD2     H 9618   1.851   2.849  14.843 -0.0799  0.0358 -1.3098
  646MPD2    H1 9619   2.013   3.042  14.496 -0.1961 -0.5947 -0.9461
  646MPD2    H2 9620   2.265   2.871  14.783 -0.7316 -3.4007 -1.7970
  646MPD2    H3 9621   2.227   3.009  14.583 -0.5600  2.1552 -0.2254
  646MPD2     N 9622   1.775   2.990  14.634  0.1351 -0.0703 -0.1949
  646MPD2    H5 9623   1.707   2.956  14.701 -0.7644  2.4166  0.1309
  646MPD2    N1 9624   2.098   2.769  14.930  0.4567  0.2882  0.7312
  646MPD2    H7 9625   2.198   2.765  14.946  0.6329  0.6546 -0.2334
  647TMC3    C1 9626   2.093   2.604  15.081 -1.0212  0.2673 -0.5697
  647TMC3    C2 9627   2.046   2.473  15.085  0.0795  0.2721  0.3376
  647TMC3    C3 9628   2.136   2.370  15.097 -0.5899 -0.3490  0.0519
  647TMC3    C4 9629   2.228   2.632  15.090 -0.2521  0.2193 -0.3996
  647TMC3    C5 9630   2.311   2.524  15.093  0.5396  0.0117  0.0654
  647TMC3    C6 9631   2.274   2.395  15.096 -0.2236 -0.3035 -0.1606
  647TMC3     C 9632   2.014   2.699  15.007 -0.0828  0.1604 -0.3559
  647TMC3     O 9633   1.894   2.688  14.997  0.6672  0.5694  0.1199
  647TMC3     H 9634   1.938   2.459  15.081  0.0666  0.4479  0.0475
  647TMC3    H1 9635   2.276   2.729  15.100  0.7648 -0.2388 -0.8456
  647TMC3    H2 9636   2.346   2.315  15.108  0.0703 -0.0050  0.0866
  647TMC3    C7 9637   2.452   2.544  15.092 -0.2202  0.3283  0.3022
  647TMC3    C8 9638   2.096   2.233  15.133 -0.5462  0.0106 -0.6176
  647TMC3    O1 9639   2.493   2.645  15.152  0.0805 -0.0315 -0.1906
  647TMC3    O2 9640   2.185   2.157  15.162 -0.2405 -0.4007 -0.6101
  648TMC3    C1 9641   1.153   0.233  16.032  0.0146 -0.9372 -0.3252
  648TMC3    C2 9642   1.201   0.112  15.989  0.3908  0.4937 -0.0017
  648TMC3    C3 9643   1.220   0.095  15.854 -0.9433 -0.3745 -0.0778
  648TMC3    C4 9644   1.126   0.330  15.942  0.0149 -0.7040  0.4977
  648TMC3    C5 9645   1.142   0.307  15.804 -0.1564  0.5139 -0.3548
  648TMC3    C6 9646   1.188   0.188  15.758  0.0229  0.0820 -0.9780
  648TMC3     C 9647   1.168   0.274  16.171  0.5590  0.0466  0.4787
  648TMC3     O 9648   1.102   0.371  16.206  0.3581 -0.3515  0.1054
  648TMC3     H 9649   1.223   0.036  16.063 -1.2682 -1.2048 -1.2614
  648TMC3    H1 9650   1.112   0.429  15.985  0.4159 -0.6536  0.5137
  648TMC3    H2 9651   1.214   0.178  15.653 -0.5912  1.5275 -1.2632
  648TMC3    C7 9652   1.118   0.416  15.708 -0.2762 -0.0315  0.0608
  648TMC3    C8 9653   1.282   4.707  15.802 -0.8825 -0.0651  0.3569
  648TMC3    O1 9654   1.171   0.411  15.597  0.5899 -0.6045  0.0860
  648TMC3    O2 9655   1.304   4.704  15.684 -0.2323  0.0849 -0.3408
  649TMC3    C1 9656   0.123   1.322  12.635  0.0423 -0.0961 -0.5222
  649TMC3    C2 9657   0.253   1.355  12.607 -0.3350  0.7501 -0.3180
  649TMC3    C3 9658   0.348   1.328  12.701 -0.2799 -0.5488 -0.8090
  649TMC3    C4 9659   0.088   1.259  12.746 -0.2911 -0.4072 -0.6449
  649TMC3    C5 9660   0.182   1.240  12.842  0.7935  0.5990  0.0022
  649TMC3    C6 9661   0.316   1.271  12.820  0.3229  0.3493  0.7003
  649TMC3     C 9662   0.017   1.358  12.544 -0.9568 -0.0261  0.4165
  649TMC3     O 9663   4.637   1.335  12.576 -0.8358 -0.4884  0.3788
  649TMC3     H 9664   0.279   1.386  12.506  1.1682 -1.9996 -0.7986
  649TMC3    H1 9665   4.726   1.211  12.750 -1.1346  1.2123 -2.0161
  649TMC3    H2 9666   0.398   1.247  12.887  1.5796  0.5399 -0.7754
  649TMC3    C7 9667   0.147   1.152  12.947  0.6663  0.0203  0.6196
  649TMC3    C8 9668   0.486   1.317  12.652 -0.0965  0.1609 -0.0531
  649TMC3    O1 9669   0.030   1.121  12.954  0.1536 -0.5116 -0.1810
  649TMC3    O2 9670   0.560   1.235  12.698  0.1548 -0.2927 -0.5088
  650TMC3    C1 9671   2.557   3.079  12.605  0.0776  0.8813  0.8183
  650TMC3    C2 9672   2.495   3.189  12.665 -0.4113 -1.1311  0.2252
  650TMC3    C3 9673   2.424   3.266  12.578  0.4822  0.0866 -0.4071
  650TMC3    C4 9674   2.550   3.048  12.471 -0.6344  0.1628  0.1554
  650TMC3    C5 9675   2.476   3.134  12.393  0.6363 -0.1135 -1.0142
  650TMC3    C6 9676   2.414   3.248  12.446  0.5089 -0.4759 -0.6272
  650TMC3     C 9677   2.655   3.009  12.687 -0.0885  0.6461  0.5116
  650TMC3     O 9678   2.670   3.054  12.798 -0.3696  0.0980 -0.2853
  650TMC3     H 9679   2.498   3.212  12.771  2.1085 -0.5848  0.0318
  650TMC3    H1 9680   2.613   2.974  12.425 -1.6368 -0.0110 -0.9425
  650TMC3    H2 9681   2.333   3.295  12.391 -2.4013 -2.3799  2.0339
  650TMC3    C7 9682   2.450   3.081  12.260  0.2932 -0.1751  0.3887
  650TMC3    C8 9683   2.334   3.364  12.632 -0.1737 -0.6320 -0.2347
  650TMC3    O1 9684   2.457   2.960  12.250 -0.0078 -0.3792 -0.1872
  650TMC3    O2 9685   2.315   3.472  12.572  0.1417  0.4643 -0.5117
  651MPD2     C 9686   1.560   0.796  11.529  0.1031  0.0957  0.5071
  651MPD2    C1 9687   1.507   0.902  11.462 -0.1640 -0.0144  0.2585
  651MPD2    C2 9688   1.586   0.977  11.372  0.3620 -0.1650 -0.4236
  651MPD2    C3 9689   1.717   0.932  11.353  0.4576  0.3143 -0.6415
  651MPD2    C4 9690   1.773   0.833  11.435  0.7830 -0.2261 -0.1554
  651MPD2    C5 9691   1.695   0.770  11.525 -0.0152 -0.0316 -0.5949
  651MPD2     H 9692   1.540   1.057  11.316 -1.9048 -1.8051 -0.9090
  651MPD2    H1 9693   1.878   0.804  11.434 -0.1685 -3.5986 -0.3710
  651MPD2    H2 9694   1.505   0.728  11.594  1.5958 -0.6173  1.0176
  651MPD2    H3 9695   1.741   0.689  11.581 -1.2716  0.5722  1.3006
  651MPD2     N 9696   1.798   1.005  11.258 -0.6101 -0.0047  0.3157
  651MPD2    H5 9697   1.752   1.083  11.213 -1.4607  0.1052  1.3754
  651MPD2    N1 9698   1.384   0.960  11.508 -0.2227  0.3213  0.1159
  651MPD2    H7 9699   1.340   1.036  11.457 -0.3418  0.5046  0.4921
  652TMC3    C1 9700   2.143   1.115  10.968  0.2704  0.4584 -0.0206
  652TMC3    C2 9701   2.061   1.026  11.034 -0.0265 -0.3726 -0.3465
  652TMC3    C3 9702   1.979   1.068  11.133 -0.1094 -0.1603 -0.2857
  652TMC3    C4 9703   2.132   1.243  10.997 -0.6168 -0.4597  0.1953
  652TMC3    C5 9704   2.037   1.290  11.085  0.3686 -1.1481 -0.1625
  652TMC3    C6 9705   1.963   1.201  11.163 -0.3335 -0.0497  0.2306
  652TMC3     C 9706   2.279   1.070  10.941  0.1559  0.2244  0.5975
  652TMC3     O 9707   2.306   0.952  10.961  0.5426  0.1813 -0.4270
  652TMC3     H 9708   2.089   0.922  11.044  2.8774  0.9068  5.1740
  652TMC3    H1 9709   2.206   1.311  10.956 -2.0605  0.6262 -0.6366
  652TMC3    H2 9710   1.901   1.242  11.242  2.2161  0.6869  1.8460
  652TMC3    C7 9711   2.081   1.416  11.148 -0.3292  0.1119 -0.0655
  652TMC3    C8 9712   1.919   0.969  11.216  0.0135  0.6599 -0.1347
  652TMC3    O1 9713   2.106   1.417  11.270  0.5119 -0.4320  0.1863
  652TMC3    O2 9714   1.986   0.876  11.264 -0.4288  0.2759 -0.1730
  653MPD2     C 9715   0.134   0.588  17.511  0.0989  0.3270 -0.0799
  653MPD2    C1 9716   0.176   0.600  17.382 -0.6640 -0.2727  0.0054
  653MPD2    C2 9717   0.152   0.497  17.293 -0.1111  0.1449  0.9670
  653MPD2    C3 9718   0.096   0.379  17.329 -0.5214  0.8445 -0.1038
  653MPD2    C4 9719   0.064   0.368  17.465 -0.2770  0.4048 -0.5223
  653MPD2    C5 9720   0.084   0.469  17.554 -0.0755  0.1560 -0.3421
  653MPD2     H 9721   0.195   0.505  17.194 -0.6727 -1.3283  0.6015
  653MPD2    H1 9722   0.015   0.280  17.505  1.1521  1.1136  2.7834
  653MPD2    H2 9723   0.151   0.663  17.588  0.4473 -1.1154  1.2518
  653MPD2    H3 9724   0.049   0.450  17.654  1.8413 -2.9170 -0.2531
  653MPD2     N 9725   0.067   0.275  17.230  0.2809  0.4350  0.6768
  653MPD2    H5 9726   0.081   0.304  17.133 -3.9076 -2.3708 -0.7651
  653MPD2    N1 9727   0.250   0.710  17.329  0.2181  0.0382  0.3050
  653MPD2    H7 9728   0.286   0.694  17.236  0.1172 -0.9635  0.4353
  654TMC3    C1 9729   4.729   0.076  17.133  0.3270  0.1857 -0.2752
  654TMC3    C2 9730   4.699   0.154  17.024 -0.0024  0.4475 -0.3127
  654TMC3    C3 9731   4.687   0.084  16.905 -0.0966 -0.5499  0.0703
  654TMC3    C4 9732   0.044   4.680  17.127  0.8607  0.2789 -0.7856
  654TMC3    C5 9733   0.071   4.638  16.999  0.1742 -0.2823 -0.3808
  654TMC3    C6 9734   0.018   4.698  16.889  0.4525  0.6919 -0.4875
  654TMC3     C 9735   0.021   0.151  17.257 -0.2257 -0.4943 -0.1500
  654TMC3     O 9736   0.014   0.086  17.361 -0.1161 -0.3283  0.1037
  654TMC3     H 9737   4.664   0.257  17.030 -0.1264  0.3690  0.3443
  654TMC3    H1 9738   0.068   4.618  17.212  0.3150 -0.0294 -0.8580
  654TMC3    H2 9739   0.027   4.641  16.797 -0.1900  0.4216 -0.3800
  654TMC3    C7 9740   0.148   4.511  16.979  0.1841  0.5296 -0.8083
  654TMC3    C8 9741   4.601   0.134  16.798  0.2905 -0.5996  0.3397
  654TMC3    O1 9742   0.124   4.451  16.872  0.4265  0.3229 -0.6513
  654TMC3    O2 9743   4.545   0.243  16.821 -0.0035  0.1957  0.0142
  655MPD2     C 9744   1.893   0.495  15.666 -0.5141  0.9834 -0.0797
  655MPD2    C1 9745   1.782   0.522  15.593  0.0636 -0.3308  0.7112
  655MPD2    C2 9746   1.766   0.474  15.468 -0.2216  0.4047  0.1223
  655MPD2    C3 9747   1.855   0.375  15.419  0.0224  0.4545  0.3781
  655MPD2    C4 9748   1.970   0.355  15.494 -0.3491 -0.0791 -0.2908
  655MPD2    C5 9749   1.992   0.423  15.608 -0.7310  0.1848  0.0610
  655MPD2     H 9750   1.668   0.485  15.424 -0.3307 -1.5262 -0.1289
  655MPD2    H1 9751   2.047   0.284  15.465 -0.1961  0.2730 -0.7483
  655MPD2    H2 9752   1.911   0.538  15.764 -1.9541  1.8416 -0.1859
  655MPD2    H3 9753   2.082   0.410  15.665 -1.3024 -0.5376  0.8017
  655MPD2     N 9754   1.832   0.295  15.299 -0.4356  0.7159 -0.5639
  655MPD2    H5 9755   1.898   0.219  15.285  0.6844  1.0186  2.8898
  655MPD2    N1 9756   1.676   0.600  15.646  0.1263 -0.4646 -0.4568
  655MPD2    H7 9757   1.597   0.615  15.585 -0.0989 -2.1537 -0.5765
  656TMC3    C1 9758   1.539   0.728  15.780  0.0267 -0.3052  0.2641
  656TMC3    C2 9759   1.453   0.720  15.886 -0.0479 -0.3567  0.2439
  656TMC3    C3 9760   1.347   0.800  15.895 -0.1931  0.9563  0.2929
  656TMC3    C4 9761   1.528   0.826  15.688  0.1434  0.0011 -0.0390
  656TMC3    C5 9762   1.419   0.911  15.700  0.5022  0.1985  0.2766
  656TMC3    C6 9763   1.326   0.903  15.807 -0.5831 -0.2767  0.7464
  656TMC3     C 9764   1.657   0.653  15.771 -0.0851 -0.2183  0.3559
  656TMC3     O 9765   1.724   0.634  15.875  0.1869  0.1679 -0.0537
  656TMC3     H 9766   1.461   0.647  15.965 -2.5349  0.0024  0.8353
  656TMC3    H1 9767   1.604   0.837  15.612 -0.2912 -2.2738 -0.7811
  656TMC3    H2 9768   1.236   0.964  15.802 -0.4000  0.0450  1.4399
  656TMC3    C7 9769   1.392   0.996  15.583  0.2932 -1.0023 -0.6256
  656TMC3    C8 9770   1.242   0.785  15.987 -0.2844  0.4323  0.1806
  656TMC3    O1 9771   1.447   0.957  15.482  0.3440 -0.0074  0.6332
  656TMC3    O2 9772   1.219   0.670  16.025  0.0448 -0.6086  0.0379
  657TMC3    C1 9773   0.735   0.183  15.400 -0.3331 -0.2170 -0.4367
  657TMC3    C2 9774   0.807   0.147  15.508  0.1268  0.9092 -0.4594
  657TMC3    C3 9775   0.840   0.246  15.599  0.0395  0.1887  0.5224
  657TMC3    C4 9776   0.710   0.310  15.365 -0.1429 -0.8058 -0.2588
  657TMC3    C5 9777   0.757   0.408  15.452 -0.8287 -0.1089  0.0432
  657TMC3    C6 9778   0.830   0.377  15.567  0.2677 -0.9442  0.5361
  657TMC3     C 9779   0.695   0.080  15.311  0.2030  0.0291 -0.5946
  657TMC3     O 9780   0.604   0.110  15.231 -0.6941 -0.4320  0.2712
  657TMC3     H 9781   0.810   0.042  15.537  3.3944  1.0658 -0.1670
  657TMC3    H1 9782   0.639   0.339  15.289  0.8542 -0.0833 -0.9275
  657TMC3    H2 9783   0.863   0.451  15.639 -1.5067 -0.1838  0.5752
  657TMC3    C7 9784   0.689   0.535  15.446 -0.1981  0.1804  0.4213
  657TMC3    C8 9785   0.824   0.221  15.738  0.8418 -0.1581  0.4030
  657TMC3    O1 9786   0.642   0.572  15.337 -0.6727  0.1194 -0.1511
  657TMC3    O2 9787   0.765   0.304  15.796  0.7591 -0.3700  0.1775
  658MPD2     C 9788   2.174   0.125  14.700  0.5001 -0.0331  0.4205
  658MPD2    C1 9789   2.041   0.175  14.699  0.2696 -0.2043  0.6998
  658MPD2    C2 9790   2.008   0.255  14.595 -0.1332  0.1277  0.7919
  658MPD2    C3 9791   2.101   0.290  14.494 -1.3057 -0.0651 -0.1468
  658MPD2    C4 9792   2.231   0.239  14.500  0.9590 -0.0396  0.6544
  658MPD2    C5 9793   2.270   0.160  14.606 -0.3492  0.7687  0.2394
  658MPD2     H 9794   1.905   0.288  14.592 -0.3273 -0.5414  0.0510
  658MPD2    H1 9795   2.310   0.269  14.432  0.0431 -0.2033 -0.4838
  658MPD2    H2 9796   2.205   0.069  14.787 -1.5183  0.1333  1.2568
  658MPD2    H3 9797   2.374   0.134  14.626 -0.5058  1.2710  1.7203
  658MPD2     N 9798   2.049   0.362  14.382 -0.3616  0.2585  0.1836
  658MPD2    H5 9799   1.948   0.368  14.384 -0.1158  3.2894  3.7379
  658MPD2    N1 9800   1.951   0.133  14.798 -1.0887  0.6986 -1.2267
  658MPD2    H7 9801   1.989   0.067  14.865 -3.2342  0.1866 -0.5494
  659TMC3    C1 9802   1.758   0.092  14.920  0.2556 -0.0888 -0.5948
  659TMC3    C2 9803   1.806   0.163  15.030  0.7585  0.1134  0.2448
  659TMC3    C3 9804   1.707   0.213  15.115 -0.6657 -0.5426 -0.3895
  659TMC3    C4 9805   1.625   0.068  14.905  0.5915 -0.0654 -0.3949
  659TMC3    C5 9806   1.529   0.116  14.996  0.7666  0.0387 -0.9087
  659TMC3    C6 9807   1.567   0.193  15.102  0.1152  0.4166  0.7394
  659TMC3     C 9808   1.816   0.150  14.800  0.0720  0.0751  0.1252
  659TMC3     O 9809   1.744   0.193  14.711  0.0188 -0.2490 -0.5938
  659TMC3     H 9810   1.907   0.200  15.046  0.1393  1.8495  0.1650
  659TMC3    H1 9811   1.596   0.021  14.811  0.5723  3.0535 -1.9503
  659TMC3    H2 9812   1.494   0.242  15.165 -2.6014 -1.7246 -0.7122
  659TMC3    C7 9813   1.386   0.110  14.969 -0.0316 -0.4691  0.5533
  659TMC3    C8 9814   1.723   0.311  15.221  0.0976  0.7632  0.6431
  659TMC3    O1 9815   1.321   0.211  14.998  0.1655  0.5005 -0.4258
  659TMC3    O2 9816   1.636   0.397  15.225 -0.0699 -0.3598 -0.9297
  660MPD2     C 9817   4.235   4.596  12.757 -0.9818 -0.4187  0.2678
  660MPD2    C1 9818   4.108   4.604  12.820  0.0073 -0.0255 -0.6637
  660MPD2    C2 9819   4.092   4.570  12.954  0.3139  0.4490  0.3381
  660MPD2    C3 9820   4.201   4.519  13.023 -0.2398 -0.2980  0.4644
  660MPD2    C4 9821   4.324   4.508  12.964 -0.8593  0.8417 -0.7132
  660MPD2    C5 9822   4.338   4.541  12.828  0.1818  0.8133  0.1042
  660MPD2     H 9823   3.993   4.590  12.994 -0.9402  3.0032 -3.9708
  660MPD2    H1 9824   4.407   4.476  13.026 -1.0439 -0.6946 -1.2859
  660MPD2    H2 9825   4.257   4.625  12.655  0.9796  0.1961  0.8843
  660MPD2    H3 9826   4.436   4.531  12.782 -1.0077 -1.6670 -1.8783
  660MPD2     N 9827   4.183   4.474  13.156 -1.1967 -0.0606  0.7792
  660MPD2    H5 9828   4.267   4.442  13.202  0.8155  2.8085 -0.8669
  660MPD2    N1 9829   4.012   4.666  12.732 -0.2031 -0.2359 -0.4901
  660MPD2    H7 9830   4.052   4.688  12.641  0.6696  0.0513 -0.0419
  661TMC3    C1 9831   3.817   0.042  12.677 -0.2173 -1.1311 -0.7938
  661TMC3    C2 9832   3.868   0.074  12.554  0.6807 -0.6502 -0.0548
  661TMC3    C3 9833   3.773   0.128  12.469 -0.4956 -0.6658 -0.0926
  661TMC3    C4 9834   3.682   0.068  12.708  0.1388  0.4476  0.7636
  661TMC3    C5 9835   3.601   0.148  12.625 -0.0062 -0.4197  0.0853
  661TMC3    C6 9836   3.648   0.174  12.502 -0.2871  0.1239  0.4031
  661TMC3     C 9837   3.894   4.721  12.780 -0.7236 -0.2341 -0.0139
  661TMC3     O 9838   3.842   4.711  12.892  0.2643 -0.1440 -0.5746
  661TMC3     H 9839   3.969   0.052  12.522  0.6480 -1.2978  0.2948
  661TMC3    H1 9840   3.647   0.041  12.807  0.1353 -1.1872  0.3125
  661TMC3    H2 9841   3.593   0.240  12.436 -0.2719  0.4691  0.7343
  661TMC3    C7 9842   3.468   0.094  12.636 -0.2159 -0.1575  0.1030
  661TMC3    C8 9843   3.807   0.132  12.332  0.2152 -0.3234 -0.7903
  661TMC3    O1 9844   3.411   0.100  12.742  0.1226 -1.1227 -0.3192
  661TMC3    O2 9845   3.845   0.033  12.273  0.1530  0.8780 -0.0753
  662MPD2     C 9846   0.081   3.927  17.242 -0.3005  0.6360 -0.9589
  662MPD2    C1 9847   0.139   3.896  17.364  0.8894  0.4009  0.0176
  662MPD2    C2 9848   0.120   3.987  17.461 -0.5583 -0.1828  0.5514
  662MPD2    C3 9849   0.058   4.112  17.444 -0.4029  0.3090  0.5220
  662MPD2    C4 9850   0.000   4.137  17.324  0.1521 -0.1924 -0.2735
  662MPD2    C5 9851   0.015   4.040  17.230  0.5339 -0.2122 -0.2025
  662MPD2     H 9852   0.163   3.961  17.557  0.3936 -1.5924 -0.2661
  662MPD2    H1 9853   4.673   4.224  17.303  1.2697  0.7082  0.1400
  662MPD2    H2 9854   0.077   3.845  17.171 -0.5800  0.4815 -0.7630
  662MPD2    H3 9855   4.700   4.044  17.134 -1.0216 -1.8525  0.5524
  662MPD2     N 9856   0.045   4.205  17.543  0.3633 -0.0464  0.3366
  662MPD2    H5 9857   4.730   4.288  17.515 -1.5744 -1.1318  0.6142
  662MPD2    N1 9858   0.204   3.776  17.399  0.9760  0.6380  0.8509
  662MPD2    H7 9859   0.197   3.746  17.496  2.2409 -1.6113  0.2616
  663TMC3    C1 9860   0.270   3.552  17.362  0.8342  0.5843 -0.0957
  663TMC3    C2 9861   0.204   3.499  17.468 -0.1464 -0.5258 -0.0389
  663TMC3    C3 9862   0.225   3.365  17.501  0.1833  0.2810 -0.0781
  663TMC3    C4 9863   0.347   3.479  17.281  0.8648  0.1420  0.1755
  663TMC3    C5 9864   0.356   3.348  17.305 -0.5762  0.1643  0.5332
  663TMC3    C6 9865   0.296   3.284  17.414  0.1355 -0.1440  0.0993
  663TMC3     C 9866   0.239   3.681  17.310 -0.4774 -0.0165  0.5607
  663TMC3     O 9867   0.229   3.687  17.189  0.0106  0.3416  0.2382
  663TMC3     H 9868   0.116   3.549  17.508  0.1362 -0.0289 -0.0353
  663TMC3    H1 9869   0.396   3.525  17.196 -1.1985 -0.0994 -1.1254
  663TMC3    H2 9870   0.319   3.182  17.443 -1.5661 -1.1170 -1.9697
  663TMC3    C7 9871   0.384   3.260  17.194 -0.5727 -0.0483 -0.1978
  663TMC3    C8 9872   0.111   3.284  17.550  0.5043  0.4961 -1.2881
  663TMC3    O1 9873   0.421   3.311  17.093 -0.0429  0.1981 -0.3801
  663TMC3    O2 9874   0.083   3.183  17.493  0.1324 -0.7707 -0.3319
  664MPD2     C 9875   3.094   2.118  17.706  0.2426 -0.2707  0.0939
  664MPD2    C1 9876   3.164   2.233   0.001 -0.1529  0.1789  0.1443
  664MPD2    C2 9877   3.127   2.306   0.113  0.4163  0.3627  0.5306
  664MPD2    C3 9878   3.013   2.278   0.185  0.1928  0.5343 -0.2812
  664MPD2    C4 9879   2.940   2.175   0.138  0.1853  0.0134 -0.4532
  664MPD2    C5 9880   2.981   2.083   0.040 -0.1787 -0.3899  0.3240
  664MPD2     H 9881   3.186   2.391   0.144  0.7327 -0.7919  3.1060
  664MPD2    H1 9882   2.845   2.158   0.189  0.1301  0.0564 -0.5412
  664MPD2    H2 9883   3.125   2.048  17.630 -1.3274  0.6602 -1.4236
  664MPD2    H3 9884   2.915   2.001   0.016 -0.8976  0.3609 -0.2516
  664MPD2     N 9885   2.972   2.358   0.299  0.0298  0.4133 -0.5400
  664MPD2    H5 9886   3.034   2.438   0.308 -0.1613  0.7833 -2.3898
  664MPD2    N1 9887   3.281   2.271  17.672  0.3778  0.2641  0.2691
  664MPD2    H7 9888   3.335   2.351  17.702  2.2551 -0.5937 -0.7978
  665TMC3    C1 9889   2.873   2.431   0.496 -0.1965 -0.1424 -0.3459
  665TMC3    C2 9890   2.761   2.441   0.571 -0.6384  0.3096  0.7508
  665TMC3    C3 9891   2.775   2.528   0.678  0.2992  0.5428 -0.1158
  665TMC3    C4 9892   2.990   2.502   0.513  0.1682 -0.5226 -0.5928
  665TMC3    C5 9893   2.992   2.589   0.618 -0.3764  0.0792  0.3938
  665TMC3    C6 9894   2.888   2.603   0.706  0.7671 -0.1265 -0.1910
  665TMC3     C 9895   2.857   2.348   0.376 -0.2674 -0.0229  0.8580
  665TMC3     O 9896   2.756   2.277   0.361 -0.6274 -0.0570  0.7238
  665TMC3     H 9897   2.667   2.389   0.555  0.3598 -1.4696  0.5971
  665TMC3    H1 9898   3.085   2.472   0.470 -0.2576 -0.2859 -1.7185
  665TMC3    H2 9899   2.884   2.685   0.777 -2.0927 -0.4147 -0.0078
  665TMC3    C7 9900   3.120   2.657   0.634  0.5021 -0.0556  0.2640
  665TMC3    C8 9901   2.650   2.572   0.739  0.0908  0.3128  0.4562
  665TMC3    O1 9902   3.202   2.639   0.548 -0.0521 -0.2962  0.1839
  665TMC3    O2 9903   2.657   2.594   0.859  0.0276 -0.4003  0.0857
  666TMC3    C1 9904   1.433   2.375  10.471  0.6342  0.4389 -1.2075
  666TMC3    C2 9905   1.542   2.313  10.421 -0.4623 -0.3714 -0.6356
  666TMC3    C3 9906   1.611   2.376  10.318  0.3270  0.6074 -1.1223
  666TMC3    C4 9907   1.406   2.502  10.445 -0.0779 -0.4530  0.1051
  666TMC3    C5 9908   1.483   2.563  10.349 -0.2965 -0.2935 -0.2488
  666TMC3    C6 9909   1.589   2.508  10.284  0.2621  0.3257 -0.8089
  666TMC3     C 9910   1.392   2.326  10.603  0.4788  0.7334 -0.4756
  666TMC3     O 9911   1.358   2.394  10.700  0.5791 -0.2796  0.1440
  666TMC3     H 9912   1.556   2.206  10.421  0.6816 -0.2232 -1.3390
  666TMC3    H1 9913   1.319   2.545  10.494 -0.6179 -1.2591 -0.1518
  666TMC3    H2 9914   1.653   2.570  10.224  2.0890 -1.0853 -0.3339
  666TMC3    C7 9915   1.421   2.683  10.292 -0.5178  0.1858  0.2968
  666TMC3    C8 9916   1.742   2.321  10.293 -0.0894  0.4504  0.8738
  666TMC3    O1 9917   1.308   2.699  10.332  0.1713  0.0075  0.2488
  666TMC3    O2 9918   1.782   2.227  10.358 -0.3688 -0.1094 -0.4051
  667MPD2     C 9919   3.785   2.182  14.515  0.5922 -0.9608  0.1528
  667MPD2    C1 9920   3.728   2.198  14.637 -0.0300 -0.1563 -0.4135
  667MPD2    C2 9921   3.604   2.149  14.670 -0.9432  0.9073 -0.1749
  667MPD2    C3 9922   3.546   2.050  14.587 -0.8812  0.1221 -0.2130
  667MPD2    C4 9923   3.608   2.025  14.470 -0.6593  0.0508  0.4067
  667MPD2    C5 9924   3.715   2.104  14.427 -0.3708  0.4759 -0.5186
  667MPD2     H 9925   3.556   2.183  14.761  0.0742  0.2977  0.5840
  667MPD2    H1 9926   3.576   1.961  14.389 -0.2915 -0.5289  0.7163
  667MPD2    H2 9927   3.876   2.233  14.484  0.6331 -1.3993 -0.4441
  667MPD2    H3 9928   3.764   2.086  14.332 -2.0193  1.3500 -1.5263
  667MPD2     N 9929   3.428   1.985  14.617  0.0298  0.0007  0.0718
  667MPD2    H5 9930   3.380   1.929  14.547 -0.2438 -0.6358  0.7674
  667MPD2    N1 9931   3.781   2.278  14.742  0.2104  0.2643 -0.2772
  667MPD2    H7 9932   3.722   2.304  14.820 -0.6067  0.2644 -0.8977
  668TMC3    C1 9933   3.936   2.396  14.872  0.3001 -0.1712 -0.4846
  668TMC3    C2 9934   4.048   2.469  14.883 -0.5004 -0.6084  0.0100
  668TMC3    C3 9935   4.082   2.508  15.012 -0.7311 -0.8149 -0.4887
  668TMC3    C4 9936   3.854   2.369  14.979 -0.3817  0.7281 -0.2585
  668TMC3    C5 9937   3.881   2.434  15.099  0.0937  0.5799  0.0017
  668TMC3    C6 9938   3.997   2.493  15.121  0.4005 -0.4224 -0.1470
  668TMC3     C 9939   3.909   2.337  14.742 -0.7608  0.1096  0.4877
  668TMC3     O 9940   3.986   2.336  14.648 -0.0434  0.4090 -0.0543
  668TMC3     H 9941   4.120   2.468  14.802  1.4741 -1.7554  1.7802
  668TMC3    H1 9942   3.775   2.295  14.981 -0.5259  0.7455 -4.3861
  668TMC3    H2 9943   4.012   2.547  15.214  1.9898  0.4228 -0.9033
  668TMC3    C7 9944   3.789   2.423  15.212 -0.0121 -0.0291 -0.2444
  668TMC3    C8 9945   4.180   2.618  15.021  0.5615  0.1489  0.1091
  668TMC3    O1 9946   3.834   2.398  15.325  0.2319  0.0013  0.1720
  668TMC3    O2 9947   4.189   2.671  15.131  0.2739  0.4022  0.1498
  669TMC3    C1 9948   1.792   1.836  14.599 -0.3338 -0.5831 -0.0396
  669TMC3    C2 9949   1.687   1.849  14.514 -0.5435  0.2969  0.1117
  669TMC3    C3 9950   1.700   1.926  14.406 -0.1225  0.4731  0.1137
  669TMC3    C4 9951   1.901   1.923  14.595 -0.5647 -0.9106 -1.0335
  669TMC3    C5 9952   1.915   2.001  14.483 -0.5618 -0.1530 -0.4912
  669TMC3    C6 9953   1.809   2.009  14.392  0.2305  0.1856  0.8000
  669TMC3     C 9954   1.775   1.760  14.725 -0.0977  0.7341 -0.9063
  669TMC3     O 9955   1.667   1.705  14.735 -0.1032  0.2766 -0.3224
  669TMC3     H 9956   1.600   1.784  14.521 -0.4215  0.1613  0.3539
  669TMC3    H1 9957   1.981   1.927  14.668 -3.6421  4.2979  2.0749
  669TMC3    H2 9958   1.817   2.078  14.309  0.9025  1.9603  2.3334
  669TMC3    C7 9959   2.001   2.117  14.500  0.3672 -0.0878  0.5766
  669TMC3    C8 9960   1.603   1.925  14.307 -0.6373  0.6001  0.9698
  669TMC3    O1 9961   2.061   2.138  14.605  0.1800 -0.0775 -0.4654
  669TMC3    O2 9962   1.511   1.850  14.319  0.2178 -0.3958 -0.5725
  670MPD2     C 9963   4.648   4.669  13.851 -1.0345 -0.2888 -0.9277
  670MPD2    C1 9964   0.044   4.633  13.884 -0.1643 -0.0359 -0.3552
  670MPD2    C2 9965   0.080   4.582  14.004  0.2298  0.6073 -0.2926
  670MPD2    C3 9966   4.714   4.562  14.095 -0.6763  0.1999 -0.4676
  670MPD2    C4 9967   4.582   4.601  14.066 -0.0915 -0.1142 -0.2541
  670MPD2    C5 9968   4.550   4.647  13.942 -0.2825 -0.4853 -0.2722
  670MPD2     H 9969   0.179   4.545  14.031  0.5298  1.9195  0.3973
  670MPD2    H1 9970   4.506   4.583  14.142  1.0649  0.5814  1.0790
  670MPD2    H2 9971   4.613   4.703  13.754 -1.8760  0.0867 -0.4880
  670MPD2    H3 9972   4.450   4.681  13.916  0.1212 -1.1887 -2.7140
  670MPD2     N 9973   0.012   4.492  14.215  0.0137  0.2793  0.4067
  670MPD2    H5 9974   0.097   4.437  14.213  0.0935  0.3924  0.8746
  670MPD2    N1 9975   0.148   4.644  13.788 -0.0266  0.4319 -0.2313
  670MPD2    H7 9976   0.243   4.625  13.817 -0.0776  0.0014 -0.3432
  671TMC3    C1 9977   4.712   4.356  14.402  0.1806 -0.2094 -0.2420
  671TMC3    C2 9978   0.114   4.345  14.433  0.1762 -0.4448 -0.3035
  671TMC3    C3 9979   0.152   4.247  14.526 -0.6382  0.2732 -0.1802
  671TMC3    C4 9980   4.625   4.258  14.423 -0.1665 -0.4193  0.2793
  671TMC3    C5 9981   4.678   4.141  14.473 -0.1092  0.8427  0.4421
  671TMC3    C6 9982   0.066   4.135  14.530 -0.2512 -0.7558 -0.4895
  671TMC3     C 9983   4.661   4.459  14.315  0.3169 -0.3033 -0.1924
  671TMC3     O 9984   4.545   4.485  14.338  0.5176  0.3791 -0.2922
  671TMC3     H 9985   0.172   4.436  14.430  1.8301 -1.4014  2.2750
  671TMC3    H1 9986   4.527   4.264  14.378 -0.6179  1.3793  1.5033
  671TMC3    H2 9987   0.109   4.049  14.581  1.6192 -1.2309 -2.8678
  671TMC3    C7 9988   4.623   4.027  14.408 -0.2230 -0.0439  0.9642
  671TMC3    C8 9989   0.297   4.226  14.541 -0.2425 -0.3423  0.5724
  671TMC3    O1 9990   4.506   4.023  14.374 -0.0826  0.1839 -0.6082
  671TMC3    O2 9991   0.363   4.259  14.445  0.0991  0.7237 -0.6664
  672MPD2     C 9992   4.384   1.057   1.338  0.0864 -0.1786 -0.2942
  672MPD2    C1 9993   4.463   1.008   1.236 -0.6707 -0.3099  0.1705
  672MPD2    C2 9994   4.583   1.074   1.207 -0.3979  0.8684  0.2794
  672MPD2    C3 9995   4.603   1.195   1.274 -0.3919  0.6543  0.5048
  672MPD2    C4 9996   4.506   1.255   1.355  0.7320  0.0804 -0.0575
  672MPD2    C5 9997   4.394   1.185   1.387 -0.4847 -0.3367 -0.3192
  672MPD2     H 9998   4.651   1.040   1.130 -0.2141  1.2711  0.2612
  672MPD2    H1 9999   4.529   1.351   1.400  0.7182 -0.8413  1.9089
  672MPD2    H210000   4.301   1.003   1.383  0.9659 -1.3864 -0.1213
  672MPD2    H310001   4.316   1.220   1.453  0.4607  1.9748 -0.4172
  672MPD2     N10002   4.717   1.263   1.244  0.0125  0.2227 -0.0069
  672MPD2    H510003   4.718   1.364   1.252 -0.2713  0.3365 -1.4660
  672MPD2    N110004   4.432   0.883   1.181 -0.1140  0.2549  0.1185
  672MPD2    H710005   4.481   0.853   1.097  1.0587  0.2138  0.8143
  673TMC3    C110006   4.324   0.680   1.138  0.2016 -0.0401  0.0851
  673TMC3    C210007   4.287   0.566   1.210  0.3955  0.6740  0.4250
  673TMC3    C310008   4.320   0.452   1.142 -0.2342 -0.1352  0.8892
  673TMC3    C410009   4.368   0.690   1.005 -0.8089  0.5077  0.5095
  673TMC3    C510010   4.369   0.567   0.943  0.3811 -0.1325 -0.5699
  673TMC3    C610011   4.362   0.449   1.012  0.6488  0.3197 -0.1110
  673TMC3     C10012   4.330   0.800   1.215  0.5977 -0.1670  0.4005
  673TMC3     O10013   4.258   0.787   1.316 -0.2079  0.9005  0.4382
  673TMC3     H10014   4.254   0.560   1.313 -2.7626  2.0396 -0.4969
  673TMC3    H110015   4.384   0.784   0.953 -1.4241  1.4644  2.0424
  673TMC3    H210016   4.373   0.355   0.960  1.1455 -0.4315  1.3425
  673TMC3    C710017   4.428   0.557   0.812 -0.5893  0.4948 -0.3234
  673TMC3    C810018   4.391   0.352   1.220 -0.4516 -0.4834 -0.2455
  673TMC3    O110019   4.487   0.457   0.778  0.3147 -0.0185  0.5576
  673TMC3    O210020   4.349   0.333   1.334 -0.0994 -0.4892 -0.2844
  674MPD2     C10021   0.170   4.544  17.628  0.1051 -0.1644 -0.3615
  674MPD2    C110022   0.225   4.558   0.018 -0.5066 -0.6152  0.0706
  674MPD2    C210023   0.165   4.649   0.104  0.4458  0.0160  0.8995
  674MPD2    C310024   0.075   0.005   0.058 -0.8703 -0.1426 -0.7063
  674MPD2    C410025   0.031   0.005  17.664 -1.1001  0.1550  0.5266
  674MPD2    C510026   0.080   4.637  17.583 -0.0158  0.1227  0.4246
  674MPD2     H10027   0.195   4.652   0.208 -1.5323 -0.1019  1.4742
  674MPD2    H110028   4.691   0.074  17.626  0.0866  1.1636  0.0254
  674MPD2    H210029   0.203   4.468  17.558  0.2808 -0.2156 -0.2235
  674MPD2    H310030   0.046   4.630  17.480 -0.4255  0.5905  0.5300
  674MPD2     N10031   0.029   0.096   0.156 -0.3745 -0.3532  0.5874
  674MPD2    H510032   0.055   0.087   0.254 -0.9048  1.2987  0.8743
  674MPD2    N110033   0.318   4.475   0.077  0.4142 -0.9781  0.1319
  674MPD2    H710034   0.340   4.494   0.174 -2.7288  0.1400  0.6345
  675TMC3    C110035   0.482   4.317   0.097 -0.4006 -0.1677  0.2521
  675TMC3    C210036   0.439   4.202   0.153 -0.7180 -0.5836 -0.2730
  675TMC3    C310037   0.485   4.168   0.271  0.1586 -0.1965  0.6471
  675TMC3    C410038   0.571   4.397   0.157  0.6247  0.7504 -0.4440
  675TMC3    C510039   0.622   4.349   0.272  0.2096 -0.3239 -0.0758
  675TMC3    C610040   0.584   4.240   0.336  0.0827  0.3866  0.4616
  675TMC3     C10041   0.383   4.378   0.011  0.5704 -0.3839 -0.0560
  675TMC3     O10042   0.394   4.365  17.632 -0.3805 -0.0813  0.1148
  675TMC3     H10043   0.364   4.139   0.106 -1.2278  0.6048 -1.0587
  675TMC3    H110044   0.594   4.492   0.109 -1.1114  1.9643  1.1232
  675TMC3    H210045   0.619   4.214   0.435  3.5786  1.2539 -0.5727
  675TMC3    C710046   0.732   4.428   0.340  0.0935 -0.0894 -0.3034
  675TMC3    C810047   0.410   4.065   0.338 -0.1881 -0.2713  0.2307
  675TMC3    O110048   0.801   4.367   0.421 -0.5869 -0.2635 -0.1143
  675TMC3    O210049   0.367   3.980   0.260 -0.5010  0.1621  0.0212
  676MPD2     C10050   2.892   3.609  11.169  0.3806 -0.4747 -0.4461
  676MPD2    C110051   2.752   3.592  11.178  0.2627  0.7451  0.5065
  676MPD2    C210052   2.692   3.504  11.091  0.1633 -0.7086 -0.2332
  676MPD2    C310053   2.764   3.444  10.989 -0.3049 -0.7053  0.4057
  676MPD2    C410054   2.894   3.470  10.977  0.6873 -0.3765  0.2517
  676MPD2    C510055   2.963   3.555  11.056 -0.4372  0.4462  0.7199
  676MPD2     H10056   2.587   3.481  11.104 -0.7894  2.5531 -2.0539
  676MPD2    H110057   2.957   3.427  10.901  0.9099 -0.3370  0.4153
  676MPD2    H210058   2.948   3.676  11.233 -0.1810 -1.8052  1.4596
  676MPD2    H310059   3.070   3.565  11.037 -0.4826  2.8693  1.7348
  676MPD2     N10060   2.713   3.341  10.906 -0.3837 -0.0419  0.1498
  676MPD2    H510061   2.777   3.272  10.869 -0.4118  1.3562 -2.4999
  676MPD2    N110062   2.672   3.643  11.285 -0.0332  0.4621  0.7782
  676MPD2    H710063   2.575   3.616  11.294  0.7030 -2.1373  1.0385
  677TMC3    C110064   2.635   3.766  11.485 -0.2520 -0.3459  0.2360
  677TMC3    C210065   2.575   3.654  11.536  0.3001  0.6284 -0.1048
  677TMC3    C310066   2.548   3.653  11.672 -0.5544 -0.2824  0.0900
  677TMC3    C410067   2.659   3.885  11.553 -0.4763  0.2415 -0.0156
  677TMC3    C510068   2.654   3.865  11.686 -0.5601 -0.4470  0.3834
  677TMC3    C610069   2.582   3.762  11.749 -0.6845 -0.4321  0.0299
  677TMC3     C10070   2.713   3.749  11.367  0.0809 -0.0207  0.5783
  677TMC3     O10071   2.813   3.820  11.356  0.3564 -0.2633 -0.6676
  677TMC3     H10072   2.568   3.562  11.480  1.1415  1.7887 -2.1028
  677TMC3    H110073   2.701   3.971  11.502  1.2530 -0.5961 -0.0272
  677TMC3    H210074   2.589   3.754  11.857  1.8991  0.2545 -0.0892
  677TMC3    C710075   2.686   3.977  11.779 -0.0186 -0.1277  0.0328
  677TMC3    C810076   2.524   3.523  11.737 -0.2586 -0.0807 -0.1187
  677TMC3    O110077   2.673   3.969  11.899  0.0478 -0.3546 -0.2126
  677TMC3    O210078   2.563   3.506  11.851 -0.0193 -0.3856 -0.7331
  678MPD2     C10079   4.653   3.278   1.852  1.2031 -0.0955 -0.1544
  678MPD2    C110080   4.662   3.294   1.716  0.5018  0.0408  0.4855
  678MPD2    C210081   4.550   3.274   1.646  0.4231 -0.2343 -0.3533
  678MPD2    C310082   4.431   3.245   1.702 -0.1845  0.5651  0.2185
  678MPD2    C410083   4.422   3.237   1.834  0.2684 -0.1789  0.6433
  678MPD2    C510084   4.534   3.252   1.910 -1.0667 -0.7012 -0.4629
  678MPD2     H10085   4.548   3.284   1.538  0.3478 -1.7323 -0.4932
  678MPD2    H110086   4.328   3.208   1.881  0.6884 -0.7857  1.1009
  678MPD2    H210087   0.005   3.301   1.913 -0.3940  2.4092  1.2058
  678MPD2    H310088   4.532   3.258   2.018 -0.9172 -0.3970 -0.4778
  678MPD2     N10089   4.318   3.224   1.615  0.3588  0.4225  0.8942
  678MPD2    H510090   4.332   3.200   1.518  0.5161  1.9238  0.5575
  678MPD2    N110091   0.047   3.327   1.654 -0.3770 -0.1248 -0.1726
  678MPD2    H710092   0.037   3.358   1.558  0.0539 -0.2773 -0.2652
  679TMC3    C110093   0.505   3.340   1.547 -0.1415 -0.7254 -0.3701
  679TMC3    C210094   0.411   3.321   1.645  0.0933 -0.1852  0.3817
  679TMC3    C310095   0.283   3.371   1.630 -0.1621 -1.3626  0.1520
  679TMC3    C410096   0.470   3.392   1.427  0.4339  0.5743  0.0943
  679TMC3    C510097   0.343   3.445   1.410 -0.4228  0.1383  0.1009
  679TMC3    C610098   0.249   3.438   1.512 -0.3479 -0.0516  0.1249
  679TMC3     C10099   0.618   3.256   1.560  0.4829 -0.2104 -0.0700
  679TMC3     O10100   0.603   3.144   1.603 -0.3821  0.4877  0.0147
  679TMC3     H10101   0.437   3.268   1.735  1.4932 -0.9310 -0.4628
  679TMC3    H110102   0.547   3.424   1.357  1.5390 -1.0250  0.5718
  679TMC3    H210103   0.151   3.484   1.506 -0.1362  0.3713 -0.0648
  679TMC3    C710104   0.303   3.466   1.278  0.4666  0.5638  0.7175
  679TMC3    C810105   0.174   3.318   1.707 -0.2125 -0.1876 -0.0916
  679TMC3    O110106   0.203   3.531   1.263 -0.2985 -0.0852 -0.3737
  679TMC3    O210107   0.206   3.245   1.800 -0.1052 -0.1311  0.3726
  680MPD2     C10108   4.486   1.320  13.920 -0.4090  0.0267 -0.0328
  680MPD2    C110109   4.525   1.290  13.792 -0.1313  0.9662 -0.0174
  680MPD2    C210110   4.568   1.389  13.704  0.7072  0.0372 -0.2376
  680MPD2    C310111   4.594   1.516  13.749  0.7822 -0.5323 -0.4479
  680MPD2    C410112   4.564   1.543  13.880 -0.7836  1.0087  0.7200
  680MPD2    C510113   4.502   1.451  13.964  0.2661  0.5354 -0.7251
  680MPD2     H10114   4.600   1.355  13.606 -1.8912  0.2508 -1.1630
  680MPD2    H110115   4.576   1.647  13.910  2.9151  1.5203 -2.4793
  680MPD2    H210116   4.438   1.248  13.985 -1.6047 -0.1723 -1.1279
  680MPD2    H310117   4.460   1.477  14.060 -0.5021 -1.5970 -0.4822
  680MPD2     N10118   4.647   1.614  13.665  0.0795 -0.2562 -0.2597
  680MPD2    H510119   4.668   1.700  13.713  1.1273 -0.5085 -0.2530
  680MPD2    N110120   4.504   1.165  13.732  0.6672 -0.0821  0.4897
  680MPD2    H710121   4.511   1.163  13.631 -0.7826  1.6367  0.3438
  681TMC3    C110122   4.490   0.930  13.720  0.1210 -0.5540  0.3059
  681TMC3    C210123   4.471   0.816  13.800 -0.0631  0.9317  0.0236
  681TMC3    C310124   4.548   0.703  13.774 -0.8249  0.2942 -0.1759
  681TMC3    C410125   4.570   0.930  13.610 -0.3891 -0.1764  0.0848
  681TMC3    C510126   4.629   0.809  13.581 -0.0705  0.5910 -0.0354
  681TMC3    C610127   4.633   0.703  13.666 -0.1374 -0.1796  0.2886
  681TMC3     C10128   4.496   1.046  13.804 -0.7383  0.5212  0.1744
  681TMC3     O10129   4.493   1.029  13.922  0.1854 -0.4997  0.0770
  681TMC3     H10130   4.397   0.821  13.880  2.3374  0.7705  2.2382
  681TMC3    H110131   4.578   1.012  13.540  0.7154  0.7278  1.2769
  681TMC3    H210132   4.704   0.622  13.657  0.7886  0.5330  1.2805
  681TMC3    C710133   0.006   0.807  13.493 -0.4640 -1.4168 -0.0436
  681TMC3    C810134   4.608   0.655  13.897 -0.2735  0.0478 -0.1567
  681TMC3    O110135   0.091   0.718  13.507 -0.2590 -0.1843 -0.0084
  681TMC3    O210136   4.666   0.548  13.891 -0.5281 -0.7086  0.7375
  682MPD2     C10137   0.970   3.803  10.620  0.3314 -0.4850  0.1269
  682MPD2    C110138   0.949   3.674  10.679  0.5556 -0.2477  0.1714
  682MPD2    C210139   0.947   3.664  10.813  0.2562  0.0178 -0.5429
  682MPD2    C310140   0.963   3.769  10.901 -0.0907 -0.4391  0.2506
  682MPD2    C410141   1.002   3.887  10.848  0.3684 -0.1779 -0.6848
  682MPD2    C510142   1.005   3.898  10.711  0.8134 -0.0468  0.0803
  682MPD2     H10143   0.935   3.564  10.854 -4.9447 -0.1369 -2.4855
  682MPD2    H110144   1.013   3.975  10.911 -1.4536  0.0052 -0.6109
  682MPD2    H210145   0.994   3.825  10.517  2.1896  2.9747  1.2906
  682MPD2    H310146   1.013   4.001  10.678 -0.5803  0.5339  1.5502
  682MPD2     N10147   0.947   3.766  11.046 -0.0013 -0.7570  0.1334
  682MPD2    H510148   1.003   3.836  11.093 -0.6424 -0.3592  0.3065
  682MPD2    N110149   0.923   3.555  10.600  1.1328 -0.3683 -0.3888
  682MPD2    H710150   0.922   3.470  10.655  0.1987 -0.9633 -1.3200
  683TMC3    C110151   1.143   3.644  11.385  0.2183  0.3753  0.5242
  683TMC3    C210152   1.070   3.574  11.481 -0.0449 -1.0997 -0.0519
  683TMC3    C310153   0.938   3.556  11.454  0.1139 -0.5613  0.2584
  683TMC3    C410154   1.089   3.677  11.262  0.2527  0.0588  0.3302
  683TMC3    C510155   0.957   3.656  11.246  0.9809 -0.5087 -0.3053
  683TMC3    C610156   0.878   3.591  11.339  0.1790  0.7124  0.3377
  683TMC3     C10157   1.285   3.641  11.408  0.4366  0.4842 -0.6062
  683TMC3     O10158   1.350   3.642  11.310  0.8967 -0.0403 -0.3095
  683TMC3     H10159   1.118   3.551  11.575  0.7785 -0.8511 -0.4096
  683TMC3    H110160   1.150   3.721  11.184 -1.5866 -0.8129 -1.6225
  683TMC3    H210161   0.770   3.593  11.331  0.2155 -1.2605 -0.5436
  683TMC3    C710162   0.898   3.656  11.112  0.0376 -0.7008  0.4923
  683TMC3    C810163   0.895   3.444  11.541 -0.1722 -0.5928 -0.4840
  683TMC3    O110164   0.796   3.592  11.090 -0.3678  0.1704 -0.3949
  683TMC3    O210165   0.784   3.442  11.594 -0.1703 -0.7435 -0.1605
  684MPD2     C10166   0.063   2.558  16.209 -0.7532 -0.2068 -0.2690
  684MPD2    C110167   0.127   2.596  16.094 -0.4658  0.1056  0.0525
  684MPD2    C210168   0.117   2.730  16.058  0.2893 -0.0014  0.0033
  684MPD2    C310169   0.083   2.828  16.145  0.1171 -0.4563  0.0920
  684MPD2    C410170   0.025   2.793  16.265  0.2128  0.4148  0.7199
  684MPD2    C510171   0.013   2.658  16.290 -0.2011 -0.0299 -0.2750
  684MPD2     H10172   0.161   2.761  15.964  0.8293  0.6047  0.4555
  684MPD2    H110173   4.725   2.866  16.337 -1.3928 -0.5352  0.8944
  684MPD2    H210174   0.039   2.454  16.228  1.1241 -0.3909  1.1105
  684MPD2    H310175   4.692   2.621  16.376 -0.3098  1.2954  0.2239
  684MPD2     N10176   0.114   2.965  16.126 -0.1958 -0.2114 -0.5541
  684MPD2    H510177   0.108   3.026  16.206  1.9277 -0.2157 -0.4013
  684MPD2    N110178   0.194   2.506  16.003  0.0033 -0.4978  0.2789
  684MPD2    H710179   0.240   2.540  15.919  0.5075 -1.4233  0.1790
  685TMC3    C110180   0.294   2.307  15.941 -0.5845  0.1784 -0.6206
  685TMC3    C210181   0.239   2.317  15.817  0.2613  0.4694 -0.4062
  685TMC3    C310182   0.299   2.244  15.721 -0.2642  0.5094 -0.0696
  685TMC3    C410183   0.400   2.234  15.976 -0.2435  0.2553  0.4068
  685TMC3    C510184   0.470   2.185  15.870  0.1469  0.2771 -0.2544
  685TMC3    C610185   0.421   2.189  15.742  0.2104 -0.3846  0.6222
  685TMC3     C10186   0.239   2.386  16.046  0.7024  0.0242 -0.2554
  685TMC3     O10187   0.254   2.351  16.161  0.0586  0.2566  0.3099
  685TMC3     H10188   0.143   2.366  15.804 -0.0851 -0.4001 -1.1284
  685TMC3    H110189   0.449   2.243  16.072 -0.0926  1.6353  0.1972
  685TMC3    H210190   0.476   2.148  15.659 -0.7643 -1.4775  0.5011
  685TMC3    C710191   0.612   2.189  15.889  0.1853 -0.3375  0.0813
  685TMC3    C810192   0.229   2.204  15.602 -0.0127 -0.5977  0.0364
  685TMC3    O110193   0.650   2.165  16.001 -0.4874  0.0433  0.1099
  685TMC3    O210194   0.279   2.114  15.538  0.1135 -0.0051 -0.2911
  686MPD2     C10195   1.798   2.451  15.568 -0.2113  0.4110  0.9946
  686MPD2    C110196   1.790   2.371  15.686 -0.6607 -0.8189  0.0115
  686MPD2    C210197   1.897   2.279  15.709  0.6786 -0.0523  0.0185
  686MPD2    C310198   1.996   2.255  15.613  0.3587  0.0159  0.4944
  686MPD2    C410199   1.999   2.336  15.506 -0.0087 -0.1085 -0.6380
  686MPD2    C510200   1.909   2.437  15.485  0.1317 -0.1394 -0.0434
  686MPD2     H10201   1.910   2.228  15.803  3.1260 -1.6234 -1.1571
  686MPD2    H110202   2.073   2.314  15.430 -1.2009 -0.4305 -1.6861
  686MPD2    H210203   1.719   2.522  15.545  2.1550  2.4100 -0.9435
  686MPD2    H310204   1.916   2.496  15.394  0.4571 -1.7497 -1.0637
  686MPD2     N10205   2.095   2.149  15.618  0.1476 -0.2423 -0.1685
  686MPD2    H510206   2.171   2.162  15.553  1.0410  1.7441  1.2605
  686MPD2    N110207   1.675   2.375  15.765 -0.0953  0.0989 -0.5355
  686MPD2    H710208   1.599   2.433  15.733  0.5713  1.7170  0.8066
  687TMC3    C110209   1.975   2.000  15.771 -0.1903  0.1750 -0.6633
  687TMC3    C210210   1.860   1.975  15.708 -0.3969  0.6671 -0.2244
  687TMC3    C310211   1.753   1.948  15.785 -0.1734  0.1156  0.1981
  687TMC3    C410212   1.995   1.983  15.906 -0.2542  0.1338 -0.4391
  687TMC3    C510213   1.889   1.952  15.981  0.1033 -0.4225 -0.0721
  687TMC3    C610214   1.764   1.939  15.922  0.1824 -0.9310  0.4779
  687TMC3     C10215   2.096   2.037  15.700  0.4925 -0.3962 -0.6807
  687TMC3     O10216   2.192   1.968  15.717  0.2790 -0.6923  0.2990
  687TMC3     H10217   1.861   1.984  15.600 -1.5279  1.3213 -0.1786
  687TMC3    H110218   2.094   2.004  15.946 -0.6836  1.2820  0.0195
  687TMC3    H210219   1.673   1.923  15.978 -0.2320  1.6887  0.5203
  687TMC3    C710220   1.897   1.991  16.120  0.0226 -0.3999 -1.0518
  687TMC3    C810221   1.617   1.968  15.731 -0.0118  0.2733  0.5676
  687TMC3    O110222   1.999   2.054  16.146 -0.2389 -0.4515  0.9199
  687TMC3    O210223   1.534   1.904  15.797  0.3581 -0.3664 -0.0657
  688MPD2     C10224   0.679   1.090  16.803  0.5143  0.1991 -0.1815
  688MPD2    C110225   0.759   1.039  16.902 -0.1508 -0.0087 -0.6215
  688MPD2    C210226   0.894   1.017  16.882  0.2537 -0.0759 -0.8785
  688MPD2    C310227   0.952   1.060  16.765  0.1983  0.5239 -0.0601
  688MPD2    C410228   0.879   1.124  16.673  0.5536 -0.0408 -0.0987
  688MPD2    C510229   0.743   1.135  16.690  0.5268  0.2106  0.2410
  688MPD2     H10230   0.955   0.970  16.958 -1.4300 -0.6981  0.0797
  688MPD2    H110231   0.924   1.166  16.584 -0.8774 -4.8068 -3.0242
  688MPD2    H210232   0.576   1.120  16.817  0.5441  0.1241  0.2052
  688MPD2    H310233   0.680   1.187  16.618 -0.5241 -0.8260  0.4091
  688MPD2     N10234   1.085   1.038  16.724 -0.8051  0.3522 -0.0081
  688MPD2    H510235   1.127   1.084  16.645 -0.6252 -0.8581 -0.6243
  688MPD2    N110236   0.701   1.005  17.030  0.3913  0.4662 -0.2889
  688MPD2    H710237   0.770   0.987  17.103 -1.0263  1.5525  1.3113
  689TMC3    C110238   0.526   0.984  17.176 -0.5998 -0.3304  0.5511
  689TMC3    C210239   0.580   1.083  17.254  0.9213  0.7582 -0.2539
  689TMC3    C310240   0.532   1.085  17.383 -0.6394 -0.9661  0.0288
  689TMC3    C410241   0.429   0.895  17.218 -0.5316  0.4425  0.2855
  689TMC3    C510242   0.380   0.905  17.342  0.7355  0.5058  0.2408
  689TMC3    C610243   0.428   1.005  17.420 -0.8344 -0.7153 -0.1960
  689TMC3     C10244   0.566   0.976  17.037  0.3137  0.4906  0.3382
  689TMC3     O10245   0.488   0.930  16.954 -0.6801  0.3808  0.3355
  689TMC3     H10246   0.640   1.167  17.221  1.4828  0.7621  0.7762
  689TMC3    H110247   0.402   0.816  17.149 -1.9941 -1.3943  2.9685
  689TMC3    H210248   0.387   1.020  17.519  0.1269 -0.3759  0.1491
  689TMC3    C710249   0.282   0.820  17.403  0.0703 -0.0975  0.4115
  689TMC3    C810250   0.534   1.214  17.457  0.0944 -0.3657  0.1770
  689TMC3    O110251   0.217   0.863  17.493 -0.1839 -0.1159 -0.3174
  689TMC3    O210252   0.437   1.239  17.525 -0.2002 -0.2590 -0.1019
  690MPD2     C10253   3.069   2.924  15.988 -0.2858 -0.2196 -0.2582
  690MPD2    C110254   3.009   2.921  15.864 -0.5746 -0.5743  0.6113
  690MPD2    C210255   3.056   3.004  15.767  0.9200  0.7881 -0.0868
  690MPD2    C310256   3.166   3.083  15.785  0.2941  0.3103 -0.4497
  690MPD2    C410257   3.232   3.082  15.907 -0.7444 -0.4161  0.0772
  690MPD2    C510258   3.181   3.004  16.010  0.0154  0.1553  0.1105
  690MPD2     H10259   3.018   3.007  15.665  3.2446 -0.6604 -0.9912
  690MPD2    H110260   3.322   3.139  15.929 -2.1482  1.8703 -0.0685
  690MPD2    H210261   3.048   2.848  16.063  1.5541 -0.4763 -0.0067
  690MPD2    H310262   3.237   3.004  16.103  0.2782 -0.6138 -0.0506
  690MPD2     N10263   3.218   3.159  15.679  0.3332  0.9626 -0.0612
  690MPD2    H510264   3.162   3.152  15.595  1.8068 -1.0742 -0.8829
  690MPD2    N110265   2.901   2.829  15.834 -0.8026  0.3904 -0.0973
  690MPD2    H710266   2.884   2.808  15.736  3.1402  1.8309 -1.1018
  691TMC3    C110267   2.718   2.687  15.873 -0.5546  0.2249 -0.3620
  691TMC3    C210268   2.605   2.691  15.949  0.4462  0.1181  0.8620
  691TMC3    C310269   2.526   2.580  15.954  0.8585 -0.2229  0.3753
  691TMC3    C410270   2.754   2.568  15.819  0.2769 -0.0915 -0.2905
  691TMC3    C510271   2.678   2.457  15.839  0.0610  0.2809  0.4205
  691TMC3    C610272   2.562   2.456  15.911 -0.0520 -0.3593 -0.8800
  691TMC3     C10273   2.830   2.761  15.926  0.3677  0.5822  0.2068
  691TMC3     O10274   2.837   2.753  16.045  0.6130 -0.6837  0.1424
  691TMC3     H10275   2.571   2.782  15.997 -1.1979 -0.4334  0.7556
  691TMC3    H110276   2.850   2.559  15.770  1.4818  0.7644  1.9492
  691TMC3    H210277   2.486   2.379  15.923 -2.2518  1.7894 -0.9037
  691TMC3    C710278   2.720   2.339  15.758 -0.5390  0.0272 -0.2734
  691TMC3    C810279   2.408   2.587  16.031 -0.4369 -0.1184 -0.5082
  691TMC3    O110280   2.758   2.370  15.645  0.2401 -0.3456  0.6418
  691TMC3    O210281   2.387   2.488  16.100 -0.1170 -0.0452 -0.2517
  692TMC3    C110282   4.238   4.165  15.601 -0.7476 -0.0556 -0.5543
  692TMC3    C210283   4.345   4.245  15.586 -1.1192 -0.7950  0.8102
  692TMC3    C310284   4.470   4.186  15.583 -0.5510  0.2354  0.1978
  692TMC3    C410285   4.245   4.029  15.586  0.9489  0.2271  0.1253
  692TMC3    C510286   4.366   3.974  15.581  0.6450  0.4987  0.0377
  692TMC3    C610287   4.477   4.048  15.589  0.0705 -0.1772 -0.6627
  692TMC3     C10288   4.125   4.208  15.685 -0.1572  0.6795  0.6119
  692TMC3     O10289   4.156   4.262  15.789 -0.5556 -0.0013  0.3223
  692TMC3     H10290   4.322   4.350  15.595  2.3461  0.2671 -2.6003
  692TMC3    H110291   4.152   3.975  15.601  0.8957  0.1026 -0.6680
  692TMC3    H210292   4.577   4.006  15.588 -0.1705 -0.7746 -0.1433
  692TMC3    C710293   4.389   3.848  15.529 -0.0885 -0.1928 -0.4294
  692TMC3    C810294   4.551   4.238  15.696  0.2995 -0.3708  0.4157
  692TMC3    O110295   4.307   3.799  15.457  0.4316 -0.1553 -0.3225
  692TMC3    O210296   4.656   4.181  15.716 -0.4946  0.8873  0.3895
  693MPD2     C10297   3.921   2.398  10.582 -0.1136  0.6461  0.6590
  693MPD2    C110298   3.830   2.324  10.652 -0.2925  0.5661  0.5186
  693MPD2    C210299   3.876   2.255  10.768 -0.6349  0.1336 -0.0769
  693MPD2    C310300   4.017   2.255  10.806  0.4051 -0.0810  0.3291
  693MPD2    C410301   4.101   2.324  10.729  0.6385 -0.2275  0.9590
  693MPD2    C510302   4.052   2.397  10.626  0.3288 -0.6857 -0.0927
  693MPD2     H10303   3.810   2.189  10.823  0.7142 -1.9231 -0.8840
  693MPD2    H110304   4.205   2.342  10.756  0.2697 -0.2459  2.4008
  693MPD2    H210305   3.902   2.437  10.482  0.0528 -2.2868 -0.5103
  693MPD2    H310306   4.121   2.463  10.574  0.6920  0.6828  2.1509
  693MPD2     N10307   4.076   2.192  10.914 -0.0524 -0.1592  0.1600
  693MPD2    H510308   4.173   2.215  10.933 -0.2867  1.3240 -0.5150
  693MPD2    N110309   3.699   2.318  10.601 -0.1071  0.1889  0.2000
  693MPD2    H710310   3.686   2.387  10.527 -0.8996 -1.9975 -1.6994
  694TMC3    C110311   3.466   2.307  10.596 -0.0511  0.0013  0.2655
  694TMC3    C210312   3.360   2.234  10.559 -1.0897  0.0595  0.3083
  694TMC3    C310313   3.248   2.309  10.532 -0.1517 -0.6070  0.9979
  694TMC3    C410314   3.459   2.448  10.606 -0.2823  0.0217 -0.0875
  694TMC3    C510315   3.343   2.515  10.580 -0.3565 -0.3149  0.0506
  694TMC3    C610316   3.238   2.443  10.537  1.4072  0.4599  0.0430
  694TMC3     C10317   3.587   2.247  10.658  0.8262  0.4836  0.0335
  694TMC3     O10318   3.573   2.137  10.707  0.2281  0.1253 -0.6731
  694TMC3     H10319   3.361   2.126  10.560 -2.0709  0.0668  2.1505
  694TMC3    H110320   3.547   2.499  10.644 -1.6363 -1.0302  4.5297
  694TMC3    H210321   3.138   2.482  10.526  1.0327 -0.2271  1.0845
  694TMC3    C710322   3.317   2.606  10.698  0.4129  0.0572 -0.8339
  694TMC3    C810323   3.137   2.229  10.496 -1.2370 -0.0783  0.3166
  694TMC3    O110324   3.396   2.701  10.714  0.0282  0.0325  0.4597
  694TMC3    O210325   3.116   2.130  10.565  0.4487  0.3367 -0.2052
  695MPD2     C10326   0.612   3.990  13.588  0.8672 -0.2805 -0.1573
  695MPD2    C110327   0.552   3.981  13.708  0.2523  0.1985  0.1039
  695MPD2    C210328   0.416   4.005  13.715  0.7340 -0.4537 -0.5504
  695MPD2    C310329   0.344   4.051  13.614 -0.4411 -0.8205 -0.2862
  695MPD2    C410330   0.411   4.077  13.493 -0.4671  0.4173  0.7420
  695MPD2    C510331   0.542   4.038  13.480  0.2291  0.0828 -0.0415
  695MPD2     H10332   0.362   3.982  13.806  2.5008  0.3296  0.6926
  695MPD2    H110333   0.361   4.121  13.407 -0.8079 -1.6209 -0.0895
  695MPD2    H210334   0.705   3.939  13.565 -0.2533 -1.3252 -2.3802
  695MPD2    H310335   0.582   4.034  13.379 -0.3811  0.1478 -0.2859
  695MPD2     N10336   0.203   4.071  13.637  0.6240  0.3440 -0.1380
  695MPD2    H510337   0.167   4.039  13.726 -0.2086  0.0873 -0.5690
  695MPD2    N110338   0.617   3.921  13.820  0.4347 -0.1171  0.1194
  695MPD2    H710339   0.561   3.927  13.904  2.8824 -3.1026  1.9667
  696TMC3    C110340   4.707   4.104  13.595 -0.1720  0.0410 -0.4849
  696TMC3    C210341   4.676   4.002  13.681 -0.3819 -0.9552 -0.0937
  696TMC3    C310342   4.550   4.004  13.745  0.1731  0.2088 -0.5114
  696TMC3    C410343   4.614   4.194  13.551 -0.2968 -0.0688  0.0120
  696TMC3    C510344   4.490   4.187  13.615  0.6287  0.1101  0.6116
  696TMC3    C610345   4.459   4.101  13.717 -0.1362  0.3103  0.2464
  696TMC3     C10346   0.114   4.122  13.545 -0.1976  0.5641 -0.1826
  696TMC3     O10347   0.138   4.182  13.440 -0.7356  0.5673  1.0914
  696TMC3     H10348   0.010   3.926  13.718  0.6391  0.4468  0.8728
  696TMC3    H110349   4.638   4.279  13.488  0.8805  0.6745  1.4859
  696TMC3    H210350   4.364   4.088  13.767  0.0783  0.0139  0.5807
  696TMC3    C710351   4.430   4.321  13.617  0.2962 -0.6537  0.5184
  696TMC3    C810352   4.540   3.951  13.882  0.4766 -0.7594 -0.3823
  696TMC3    O110353   4.426   4.386  13.513 -0.2826  0.5191  0.0810
  696TMC3    O210354   4.461   4.012  13.956  0.1100  0.3280  0.0522
  697MPD2     C10355   4.285   0.853  15.581 -0.3540 -0.1397  0.2247
  697MPD2    C110356   4.237   0.804  15.461  0.1024 -0.8579 -0.4253
  697MPD2    C210357   4.253   0.891  15.349  0.7410 -0.8955 -0.3244
  697MPD2    C310358   4.303   1.021  15.363 -0.4185 -0.2008  0.0409
  697MPD2    C410359   4.344   1.058  15.490 -0.2290  0.3570  0.5377
  697MPD2    C510360   4.329   0.978  15.600 -0.1568  0.3958 -0.2758
  697MPD2     H10361   4.209   0.853  15.257 -0.9312 -0.2074  0.1849
  697MPD2    H110362   4.378   1.159  15.508  0.6939  0.3142 -0.9762
  697MPD2    H210363   4.265   0.798  15.672  0.9549 -1.1154 -0.0691
  697MPD2    H310364   4.364   1.015  15.696  1.2806 -2.9980  0.5149
  697MPD2     N10365   4.319   1.099  15.245 -0.2542  0.4521  0.5051
  697MPD2    H510366   4.295   1.057  15.156 -1.0091 -0.8915  1.3430
  697MPD2    N110367   4.165   0.685  15.447 -0.1925  0.4576 -0.5325
  697MPD2    H710368   4.134   0.665  15.352  0.6039  1.6789 -1.0440
  698TMC3    C110369   4.402   1.278  15.112  0.9901 -0.3188  0.4409
  698TMC3    C210370   4.495   1.378  15.098 -0.6193 -0.1720  0.3163
  698TMC3    C310371   4.543   1.414  14.976  0.4393 -0.3722  0.0613
  698TMC3    C410372   4.359   1.212  14.999 -1.0565 -0.2134  0.3027
  698TMC3    C510373   4.396   1.263  14.881 -0.2652  0.1125  0.3345
  698TMC3    C610374   4.496   1.356  14.860 -0.4219  0.4050 -0.3840
  698TMC3     C10375   4.373   1.223  15.244  0.2028 -0.4330 -0.8081
  698TMC3     O10376   4.400   1.299  15.337 -0.6021 -0.5695  0.0761
  698TMC3     H10377   4.521   1.433  15.187 -0.3073 -1.2622  0.8957
  698TMC3    H110378   4.280   1.138  15.003 -0.1403 -1.0953  2.2130
  698TMC3    H210379   4.521   1.383  14.759 -2.0566 -0.5375 -1.0574
  698TMC3    C710380   4.358   1.186  14.766  0.4639  0.7267  0.3134
  698TMC3    C810381   4.678   1.472  14.988 -0.1122  0.4109 -0.5064
  698TMC3    O110382   4.317   1.247  14.664 -0.6100 -0.2288  0.7992
  698TMC3    O210383   4.719   1.455  15.099 -0.3278  0.1597  0.6439
  699TMC3    C110384   4.076   4.409  13.360 -0.0304  0.4815 -0.2244
  699TMC3    C210385   4.123   4.283  13.389  0.0839  0.0259  0.4153
  699TMC3    C310386   4.075   4.228  13.501 -0.0971 -0.5959 -0.0202
  699TMC3    C410387   3.983   4.475  13.436 -0.3468  0.7154  0.7331
  699TMC3    C510388   3.933   4.410  13.540  0.3041 -0.1633 -1.3728
  699TMC3    C610389   3.973   4.287  13.574  0.0123  0.1460 -0.3644
  699TMC3     C10390   4.060   4.454  13.219 -0.3665  0.1389 -0.1131
  699TMC3     O10391   3.945   4.477  13.188  0.3278  0.1874 -0.3565
  699TMC3     H10392   4.195   4.239  13.321  0.8945 -0.6793  1.7609
  699TMC3    H110393   3.957   4.576  13.405  0.7117  0.5520 -0.7062
  699TMC3    H210394   3.930   4.233  13.657 -0.0227  0.7532  0.0102
  699TMC3    C710395   3.803   4.450  13.602 -0.2167 -0.1842  0.8967
  699TMC3    C810396   4.079   4.084  13.509 -0.1543  0.0963  0.6937
  699TMC3    O110397   3.751   4.367  13.676 -0.4144  0.1412  0.3051
  699TMC3    O210398   3.980   4.023  13.553 -0.1064 -0.7490  0.3596
  700TMC3    C110399   3.372   1.378  16.858 -0.8634 -0.2031  0.4693
  700TMC3    C210400   3.495   1.324  16.838 -0.7613  0.2916  0.4692
  700TMC3    C310401   3.554   1.255  16.944 -0.8947 -0.3772 -1.2539
  700TMC3    C410402   3.316   1.392  16.981 -0.5754  0.0159  0.0787
  700TMC3    C510403   3.388   1.339  17.088  0.8407 -0.3661 -0.3222
  700TMC3    C610404   3.501   1.263  17.067 -0.4498  0.1981 -0.1853
  700TMC3     C10405   3.339   1.478  16.762  0.3300  0.4444  0.0713
  700TMC3     O10406   3.226   1.494  16.719  0.0380 -0.2244  1.0916
  700TMC3     H10407   3.533   1.312  16.738 -1.3153  0.4724  0.2364
  700TMC3    H110408   3.226   1.448  17.000  0.2375 -0.1158  4.1489
  700TMC3    H210409   3.562   1.237  17.152  1.4821 -0.1982 -1.6946
  700TMC3    C710410   3.382   1.391  17.220  0.2431  0.6025  0.0811
  700TMC3    C810411   3.665   1.159  16.909 -0.4736  0.1255 -0.4208
  700TMC3    O110412   3.452   1.344  17.304 -0.5501  0.2741  0.5303
  700TMC3    O210413   3.747   1.193  16.826 -0.0756 -0.3241  0.5470
  701TMC3    C110414   3.391   0.286  15.848 -0.0266 -0.0569 -0.4352
  701TMC3    C210415   3.389   0.264  15.711 -0.3123 -0.0788 -0.0555
  701TMC3    C310416   3.458   0.355  15.633 -0.2355  0.8090  1.0758
  701TMC3    C410417   3.468   0.397  15.901  0.0516  0.1891 -0.1828
  701TMC3    C510418   3.532   0.477  15.811  0.2864  0.0764  0.3309
  701TMC3    C610419   3.533   0.453  15.679  0.0843  0.1596 -0.3870
  701TMC3     C10420   3.306   0.202  15.938  0.5399  1.4853  0.1221
  701TMC3     O10421   3.304   0.223  16.057  0.0255  0.5134 -0.0472
  701TMC3     H10422   3.335   0.180  15.670 -1.4208  1.0216 -0.8485
  701TMC3    H110423   3.461   0.419  16.006 -0.2700  1.0691 -0.3941
  701TMC3    H210424   3.570   0.524  15.606 -0.3164  0.0810 -0.6663
  701TMC3    C710425   3.501   0.617  15.835  0.2607 -0.1832 -0.4378
  701TMC3    C810426   3.461   0.333  15.489 -0.9954 -0.0478  0.5859
  701TMC3    O110427   3.444   0.682  15.748  0.1804  0.4902 -0.3004
  701TMC3    O210428   3.558   0.366  15.427  0.6993 -0.0813 -0.1368
  702MPD2     C10429   2.731   2.979  10.230 -0.7330  0.1743  0.0443
  702MPD2    C110430   2.602   3.025  10.267  0.4403 -0.1167  0.8273
  702MPD2    C210431   2.522   3.062  10.161  0.2925 -0.0556 -0.3464
  702MPD2    C310432   2.567   3.053  10.029 -0.6185  0.0721  0.7120
  702MPD2    C410433   2.685   3.005   9.994  0.4789  0.2244  0.8948
  702MPD2    C510434   2.766   2.982  10.101 -0.4481 -0.8239  0.6077
  702MPD2     H10435   2.421   3.087  10.192  0.6697  0.4682  0.4698
  702MPD2    H110436   2.718   3.003   9.891 -3.9238  1.2744 -0.5450
  702MPD2    H210437   2.812   2.963  10.300 -0.7862 -0.9221 -0.1459
  702MPD2    H310438   2.864   2.948  10.070 -0.7939 -0.3344 -1.0431
  702MPD2     N10439   2.487   3.107   9.921 -0.6803 -0.2387  0.2282
  702MPD2    H510440   2.524   3.092   9.828  1.4055 -0.7381  1.1431
  702MPD2    N110441   2.548   3.027  10.399  0.4728  0.2950  0.2225
  702MPD2    H710442   2.450   3.052  10.406 -0.0772 -1.8446  0.4507
  703TMC3    C110443   2.314   3.242  10.032  0.2012 -0.1248  0.3032
  703TMC3    C210444   2.178   3.225  10.045 -0.0764  0.0850 -0.0881
  703TMC3    C310445   2.121   3.293  10.150 -0.3380 -0.2019 -0.3471
  703TMC3    C410446   2.390   3.335  10.105  0.4760  0.0993 -0.3458
  703TMC3    C510447   2.326   3.407  10.198  0.3829 -0.3637  0.4441
  703TMC3    C610448   2.191   3.383  10.218  0.4317  0.4576  0.2468
  703TMC3     C10449   2.364   3.170   9.920 -0.6536 -0.1041 -0.2366
  703TMC3     O10450   2.286   3.173   9.827 -0.5815  0.3924 -0.3625
  703TMC3     H10451   2.130   3.144   9.991  0.8581  1.2723 -2.7334
  703TMC3    H110452   2.493   3.358  10.078  1.2458 -1.2326  1.4495
  703TMC3    H210453   2.137   3.453  10.280  0.5902  0.0825  0.8086
  703TMC3    C710454   2.406   3.454  10.315 -0.2648  0.0709  0.0890
  703TMC3    C810455   1.986   3.262  10.196  0.7414  0.0086 -0.6452
  703TMC3    O110456   2.347   3.500  10.410 -0.1122  0.1345  0.3794
  703TMC3    O210457   1.929   3.189  10.113 -0.4524 -0.8698  0.1842
  704TMC3    C110458   0.492   0.729  11.993  0.5235  0.1375  0.3520
  704TMC3    C210459   0.425   0.666  11.897 -0.6011 -0.0625  0.5284
  704TMC3    C310460   0.417   0.531  11.904 -0.1363 -0.7069  0.4312
  704TMC3    C410461   0.557   0.663  12.094  0.4623  0.4009  0.0883
  704TMC3    C510462   0.572   0.528  12.080 -0.4182  0.0618  0.2904
  704TMC3    C610463   0.484   0.466  11.996  0.6607  0.1893  0.0917
  704TMC3     C10464   0.427   0.842  12.039 -0.4163  0.4684  0.4693
  704TMC3     O10465   0.390   0.842  12.154 -0.0804  0.1367 -0.1696
  704TMC3     H10466   0.351   0.716  11.835  1.7118  0.8160 -1.4951
  704TMC3    H110467   0.595   0.716  12.180  0.5362  1.3711 -0.5348
  704TMC3    H210468   0.467   0.359  11.997  2.1362 -0.0586 -1.0886
  704TMC3    C710469   0.651   0.447  12.169  0.1822  0.0772 -0.4423
  704TMC3    C810470   0.282   0.493  11.895  0.4006 -0.4902  0.6727
  704TMC3    O110471   0.603   0.333  12.190  0.2484  0.0141  0.0064
  704TMC3    O210472   0.228   0.527  11.790  0.1122 -0.1464  0.3374
  705MPD2     C10473   4.726   3.704  16.927  0.3410 -0.0886 -0.3960
  705MPD2    C110474   4.695   3.831  16.889  0.0033  0.0690  0.2071
  705MPD2    C210475   4.556   3.853  16.890  0.2506 -0.0420 -0.4504
  705MPD2    C310476   4.457   3.754  16.917 -0.4534 -0.0259  0.3642
  705MPD2    C410477   4.498   3.632  16.957 -0.6466  0.1319  0.6522
  705MPD2    C510478   4.631   3.616  16.969  0.4075  0.1947 -0.5659
  705MPD2     H10479   4.523   3.948  16.851 -0.7300 -0.7549 -1.3573
  705MPD2    H110480   4.428   3.551  16.975  0.7449 -1.4165 -0.9038
  705MPD2    H210481   0.096   3.675  16.925  0.0530 -1.2038  0.9214
  705MPD2    H310482   4.660   3.515  16.994  0.2135  0.4538  0.6965
  705MPD2     N10483   4.322   3.775  16.892 -0.4686  0.1832 -0.6795
  705MPD2    H510484   4.263   3.697  16.866  2.1360 -1.3537 -1.9770
  705MPD2    N110485   0.058   3.923  16.849 -0.0314  0.1756 -0.3861
  705MPD2    H710486   0.153   3.890  16.866 -0.6740  0.0628  3.0169
  706TMC3    C110487   0.367   4.028  16.615 -0.4797  0.3892 -0.4246
  706TMC3    C210488   0.347   4.133  16.524 -0.0559  0.5351 -0.3455
  706TMC3    C310489   0.243   4.216  16.540 -0.8224 -0.4335  0.1391
  706TMC3    C410490   0.283   4.020  16.727 -0.5240  0.9535 -0.1123
  706TMC3    C510491   0.167   4.104  16.728  0.6243 -0.5453 -0.3709
  706TMC3    C610492   0.145   4.201  16.637  0.3866  0.2260 -0.1512
  706TMC3     C10493   0.496   3.960  16.619  0.5537  0.2880  0.1748
  706TMC3     O10494   0.541   3.919  16.724  0.0993 -0.2831  0.0810
  706TMC3     H10495   0.417   4.162  16.447 -1.6235  1.4374 -1.4333
  706TMC3    H110496   0.310   3.959  16.813 -1.0035 -1.3023 -1.5670
  706TMC3    H210497   0.062   4.270  16.643  0.5241  0.2969  0.9069
  706TMC3    C710498   0.038   4.043  16.779  0.4030  0.7305  0.1775
  706TMC3    C810499   0.226   4.336  16.457  0.1271 -0.3363 -0.7563
  706TMC3    O110500   4.669   4.092  16.737  0.0085  0.0959 -0.1877
  706TMC3    O210501   0.230   4.318  16.339  0.7553 -0.8770 -0.2206
  707TMC3    C110502   1.345   3.442   1.256  0.3561  0.4302 -0.0831
  707TMC3    C210503   1.372   3.322   1.195 -0.1469 -0.5870 -0.0621
  707TMC3    C310504   1.269   3.263   1.132  0.9256 -0.1111  0.0842
  707TMC3    C410505   1.217   3.501   1.263 -0.1326 -0.1214  0.6515
  707TMC3    C510506   1.122   3.438   1.184  0.3107  0.2232 -0.1121
  707TMC3    C610507   1.141   3.317   1.123  0.3871  0.1985  0.6351
  707TMC3     C10508   1.449   3.499   1.328  0.1369 -0.0963  1.1258
  707TMC3     O10509   1.516   3.426   1.395  0.1659  0.5285 -0.1628
  707TMC3     H10510   1.474   3.286   1.191  0.5850  1.3442  1.8346
  707TMC3    H110511   1.201   3.599   1.305 -0.7848  1.1997 -2.7196
  707TMC3    H210512   1.056   3.261   1.086  0.4209 -0.2715  1.2787
  707TMC3    C710513   0.994   3.502   1.176  0.7165  0.0103  0.3411
  707TMC3    C810514   1.280   3.132   1.073 -0.2188  0.0030  0.0220
  707TMC3    O110515   0.964   3.578   1.270  0.0545  0.1726 -0.0542
  707TMC3    O210516   1.192   3.103   0.994 -0.1074  0.1723 -0.5259
  708MPD2     C10517   3.830   2.069  13.629  0.1899 -0.0140 -0.0930
  708MPD2    C110518   3.817   2.198  13.658 -0.2027  0.0243  0.3419
  708MPD2    C210519   3.865   2.265  13.766  0.4863 -0.7789  0.8772
  708MPD2    C310520   3.906   2.190  13.873  0.0622 -0.0193  0.3643
  708MPD2    C410521   3.914   2.055  13.858  0.8019  0.0008 -0.2408
  708MPD2    C510522   3.872   2.000  13.740  0.2651  0.0643 -0.4151
  708MPD2     H10523   3.852   2.371  13.782  0.4980 -0.7358  0.6005
  708MPD2    H110524   3.960   2.001  13.940 -3.7370 -0.3621  2.0391
  708MPD2    H210525   3.767   2.016  13.559 -0.1264 -2.5754  2.0934
  708MPD2    H310526   3.882   1.893  13.728 -2.1813  0.0464 -2.3762
  708MPD2     N10527   3.945   2.250  13.993  0.2783  0.9609 -0.0799
  708MPD2    H510528   3.953   2.185  14.071  0.2213 -0.8979 -1.6078
  708MPD2    N110529   3.748   2.278  13.566  0.0818 -0.7237 -0.2395
  708MPD2    H710530   3.710   2.229  13.486 -1.0029  0.8355 -0.6815
  709TMC3    C110531   3.604   2.435  13.478  0.5357 -0.4950 -0.8389
  709TMC3    C210532   3.548   2.322  13.419 -0.1054  0.1089  0.4786
  709TMC3    C310533   3.417   2.322  13.383  0.1528  0.0498 -0.2454
  709TMC3    C410534   3.523   2.536  13.511  0.0410 -0.6836  0.2185
  709TMC3    C510535   3.393   2.526  13.496  0.4928 -0.2641 -0.0514
  709TMC3    C610536   3.338   2.431  13.414  0.2780 -0.4738 -0.2520
  709TMC3     C10537   3.708   2.412  13.571  0.3255 -0.5937 -0.9337
  709TMC3     O10538   3.714   2.495  13.662  0.5680  0.2246  0.1627
  709TMC3     H10539   3.606   2.238  13.381  0.5980  0.4944  0.7122
  709TMC3    H110540   3.546   2.621  13.574 -2.9068  0.3592 -0.0832
  709TMC3    H210541   3.231   2.412  13.414  0.3228 -0.7191 -1.1907
  709TMC3    C710542   3.320   2.551  13.623 -0.2406 -0.5384 -0.2818
  709TMC3    C810543   3.382   2.263  13.257 -0.2800 -0.3195  0.5457
  709TMC3    O110544   3.358   2.643  13.691 -0.4082 -0.3084  0.1068
  709TMC3    O210545   3.351   2.346  13.170 -0.2345  0.0903  0.5175
  710TMC3    C110546   4.411   3.553   0.695 -0.2980 -0.4740 -0.3645
  710TMC3    C210547   4.423   3.545   0.560 -0.3476 -0.0818 -0.1600
  710TMC3    C310548   4.548   3.557   0.513  0.4661 -0.1151  0.6234
  710TMC3    C410549   4.511   3.579   0.785 -0.1910 -0.3294  0.4703
  710TMC3    C510550   4.636   3.579   0.733  0.3079  0.1269  0.3689
  710TMC3    C610551   4.655   3.578   0.602 -0.3325 -0.0237 -0.5081
  710TMC3     C10552   4.277   3.567   0.748 -0.1041  0.2339  0.4248
  710TMC3     O10553   4.181   3.530   0.676  0.3819  0.4618  0.0567
  710TMC3     H10554   4.333   3.521   0.504 -0.5609 -1.3584  0.7267
  710TMC3    H110555   4.482   3.568   0.889 -0.0001 -1.2220  0.4339
  710TMC3    H210556   0.019   3.584   0.558 -0.4062  2.6740 -0.3274
  710TMC3    C710557   0.014   3.576   0.822 -0.1987  0.2973 -0.1953
  710TMC3    C810558   4.579   3.531   0.377 -0.0364 -0.3299  0.1613
  710TMC3    O110559   0.001   3.620   0.936  0.0885 -0.4144  0.2284
  710TMC3    O210560   4.676   3.583   0.331  0.5389  0.3771  0.1682
  711TMC3    C110561   4.089   4.268  14.929  0.2904 -0.9011  0.0894
  711TMC3    C210562   4.044   4.341  15.031 -0.1461 -0.3359 -1.1042
  711TMC3    C310563   4.135   4.372  15.129 -0.7483 -0.1478  0.2603
  711TMC3    C410564   4.205   4.207  14.935 -1.0759  0.5053  0.3924
  711TMC3    C510565   4.295   4.236  15.036 -0.6206 -0.0626  0.2173
  711TMC3    C610566   4.261   4.321  15.132 -0.2138  0.9303  0.2470
  711TMC3     C10567   3.980   4.224  14.829 -0.2190  1.0114  0.7044
  711TMC3     O10568   3.863   4.245  14.854  0.5246 -0.4812 -0.1119
  711TMC3     H10569   3.945   4.385  15.039 -0.7337 -1.6391 -1.1941
  711TMC3    H110570   4.235   4.134  14.861 -1.7560  1.7709 -1.1479
  711TMC3    H210571   4.331   4.337  15.213 -2.1634  0.0251  2.1136
  711TMC3    C710572   4.402   4.135  15.063 -0.3888 -0.3912  0.0238
  711TMC3    C810573   4.095   4.430  15.257  0.6412  0.2364 -0.5851
  711TMC3    O110574   4.513   4.174  15.100 -0.4371 -0.0253 -0.3501
  711TMC3    O210575   3.977   4.424  15.291  0.6378 -0.2835 -0.4187
  712MPD2     C10576   0.692   0.308  13.619 -0.2624 -0.4140  0.4106
  712MPD2    C110577   0.635   0.401  13.533  0.0712 -0.4291 -0.1459
  712MPD2    C210578   0.609   0.529  13.581  0.1961  0.1463  0.2789
  712MPD2    C310579   0.644   0.564  13.709 -0.1776  0.1156 -0.0875
  712MPD2    C410580   0.695   0.468  13.800 -0.0352  0.5203 -0.4820
  712MPD2    C510581   0.723   0.345  13.746  0.5307  0.2041 -0.7242
  712MPD2     H10582   0.564   0.605  13.518 -1.7405 -0.5651  0.7750
  712MPD2    H110583   0.731   0.493  13.899 -1.2730  1.5722 -0.2927
  712MPD2    H210584   0.702   0.203  13.593  0.7310  0.3336 -2.2984
  712MPD2    H310585   0.777   0.272  13.805 -0.0914 -1.1437 -1.8065
  712MPD2     N10586   0.633   0.696  13.769  0.6132  0.5463 -0.3991
  712MPD2    H510587   0.675   0.714  13.860 -1.2006  1.9718  0.1357
  712MPD2    N110588   0.598   0.365  13.403 -0.7675 -0.0703  0.9436
  712MPD2    H710589   0.555   0.439  13.348 -1.1482 -1.8492 -1.1429
  713TMC3    C110590   0.630   0.935  13.759  0.3819 -0.1122 -0.1498
  713TMC3    C210591   0.722   0.939  13.862  0.2950  0.3146  0.4866
  713TMC3    C310592   0.756   1.058  13.926  0.1284  0.5386  0.8701
  713TMC3    C410593   0.554   1.048  13.734  0.4704 -0.0979  0.4076
  713TMC3    C510594   0.590   1.162  13.798  1.0128  0.7376  0.1493
  713TMC3    C610595   0.693   1.173  13.892 -0.3403 -0.2552  0.0991
  713TMC3     C10596   0.592   0.806  13.698 -0.5684  0.6473  0.1580
  713TMC3     O10597   0.516   0.809  13.603  0.1888  0.6796  0.2774
  713TMC3     H10598   0.784   0.853  13.885 -2.0572 -0.7849  2.8768
  713TMC3    H110599   0.487   1.050  13.649  0.2790  1.4559  0.5998
  713TMC3    H210600   0.705   1.269  13.939 -0.1390 -0.8660  1.2837
  713TMC3    C710601   0.564   1.287  13.730  0.3929  0.4119 -0.1539
  713TMC3    C810602   0.898   1.066  13.930  0.7558 -0.4272  0.6551
  713TMC3    O110603   0.649   1.371  13.749  0.2819 -0.4360 -0.5562
  713TMC3    O210604   0.946   1.005  13.836  0.3250 -0.4309  0.0199
  714MPD2     C10605   2.924   4.060   1.911 -0.3145 -0.3722 -0.3157
  714MPD2    C110606   2.991   4.035   1.793 -0.7102 -0.5025  0.0127
  714MPD2    C210607   2.936   4.092   1.676 -0.5124  0.6031 -0.2394
  714MPD2    C310608   2.825   4.168   1.678 -0.4336  0.5219 -0.5495
  714MPD2    C410609   2.752   4.185   1.799  0.2530  0.7431 -0.0651
  714MPD2    C510610   2.809   4.132   1.910  0.3403 -0.0431  0.0208
  714MPD2     H10611   2.988   4.079   1.582  0.8119  0.7364  0.4795
  714MPD2    H110612   2.659   4.241   1.805 -2.0085 -3.0456  0.3841
  714MPD2    H210613   2.960   4.026   2.008  0.7204  0.4029 -0.4362
  714MPD2    H310614   2.767   4.145   2.009 -0.8018  4.6020 -1.0595
  714MPD2     N10615   2.780   4.227   1.558  0.5746 -0.4505 -0.0026
  714MPD2    H510616   2.835   4.207   1.475  0.1271  1.9286 -0.8891
  714MPD2    N110617   3.111   3.959   1.799 -0.0806  0.1086  0.4836
  714MPD2    H710618   3.131   3.931   1.894 -1.8975 -0.0988  0.8079
  715TMC3    C110619   3.341   3.904   1.740 -0.0953  0.0136  0.1158
  715TMC3    C210620   3.425   3.854   1.643  0.3447  0.0731 -0.6053
  715TMC3    C310621   3.550   3.825   1.679  0.4382  0.3278  0.2388
  715TMC3    C410622   3.380   3.928   1.871  0.6921 -0.3936  0.4577
  715TMC3    C510623   3.505   3.895   1.901 -0.0381  0.1145  0.3091
  715TMC3    C610624   3.594   3.860   1.804  0.0739 -0.4006 -0.3260
  715TMC3     C10625   3.206   3.937   1.697 -0.4873  0.3682 -0.6575
  715TMC3     O10626   3.197   3.973   1.582  0.6245  0.1197 -0.2734
  715TMC3     H10627   3.387   3.842   1.543 -1.8108  0.9345  0.1221
  715TMC3    H110628   3.317   3.985   1.939  0.7968 -0.1163  0.3227
  715TMC3    H210629   3.687   3.820   1.843 -1.1716 -0.3017  2.7976
  715TMC3    C710630   3.566   3.926   2.036 -0.4668 -0.4712  0.3468
  715TMC3    C810631   3.638   3.774   1.579 -0.0097  0.0973  0.3708
  715TMC3    O110632   3.686   3.947   2.044  0.5079 -0.6664  0.3947
  715TMC3    O210633   3.598   3.764   1.462 -0.3037 -0.1921 -0.1457
  716MPD2     C10634   2.371   2.826   9.907  0.1074 -0.9075 -0.0873
  716MPD2    C110635   2.341   2.792   9.777 -0.3685 -0.1400 -0.3020
  716MPD2    C210636   2.369   2.665   9.736 -0.5243  0.4498  0.5506
  716MPD2    C310637   2.425   2.569   9.827  0.2393 -0.4410  0.0654
  716MPD2    C410638   2.449   2.616   9.952 -0.7410  0.6426  0.2000
  716MPD2    C510639   2.413   2.733   9.997 -0.2598  0.9112  0.2275
  716MPD2     H10640   2.353   2.633   9.634 -0.6509  2.7110 -0.1272
  716MPD2    H110641   2.486   2.542  10.023  0.2712  1.1439  0.1968
  716MPD2    H210642   2.340   2.919   9.955  1.2340 -1.4166  1.6126
  716MPD2    H310643   2.434   2.765  10.099  0.1951  0.5438  0.2485
  716MPD2     N10644   2.458   2.442   9.774 -0.7659  0.1144 -0.0680
  716MPD2    H510645   2.450   2.437   9.673  1.3151  0.5326 -0.2440
  716MPD2    N110646   2.283   2.896   9.692  0.0394 -0.7625  0.1587
  716MPD2    H710647   2.263   2.986   9.735 -1.2944 -0.4297 -1.1954
  717TMC3    C110648   2.469   2.210   9.756  0.5793  0.1508 -0.3143
  717TMC3    C210649   2.381   2.205   9.653 -0.3260  0.3128  0.1388
  717TMC3    C310650   2.388   2.109   9.561 -0.4096 -0.2823 -0.2724
  717TMC3    C410651   2.563   2.109   9.771 -0.6157 -0.0210  0.2411
  717TMC3    C510652   2.564   2.009   9.679 -0.5509 -0.0180  0.4075
  717TMC3    C610653   2.479   2.007   9.569  0.3621  0.4353 -0.2003
  717TMC3     C10654   2.475   2.327   9.845 -0.5740  0.6611 -0.4630
  717TMC3     O10655   2.525   2.322   9.956 -0.4401  0.0102  0.1300
  717TMC3     H10656   2.306   2.283   9.648 -0.1337  0.4465 -0.6161
  717TMC3    H110657   2.653   2.130   9.828  0.3281 -0.8869 -0.9099
  717TMC3    H210658   2.490   1.928   9.495  1.1976  1.7155 -1.4364
  717TMC3    C710659   2.614   1.880   9.730 -0.0632  0.1848 -0.2694
  717TMC3    C810660   2.292   2.134   9.453 -0.1655 -0.9263  1.0427
  717TMC3    O110661   2.690   1.892   9.824 -0.4479 -0.9000  0.5502
  717TMC3    O210662   2.273   2.259   9.434  0.0836  0.6575 -0.2250
  718MPD2     C10663   2.176   1.444  12.863 -0.2505  0.1092 -0.4487
  718MPD2    C110664   2.188   1.448  12.732  0.3158  0.1482  0.0467
  718MPD2    C210665   2.218   1.331  12.663  0.1104  0.3055 -0.0026
  718MPD2    C310666   2.230   1.203  12.723 -0.0379  0.2573 -0.5971
  718MPD2    C410667   2.228   1.205  12.856  0.0573  0.6436  0.3517
  718MPD2    C510668   2.195   1.321  12.925  0.0792 -0.4614  0.7105
  718MPD2     H10669   2.227   1.335  12.555  1.9689  0.0605  0.1317
  718MPD2    H110670   2.232   1.113  12.913 -1.2867 -0.2132 -0.9323
  718MPD2    H210671   2.155   1.523  12.934  3.0884 -1.2406  2.0201
  718MPD2    H310672   2.183   1.320  13.033 -0.6932  0.6138  0.6309
  718MPD2     N10673   2.267   1.095  12.638  0.0430  0.2283 -0.1258
  718MPD2    H510674   2.275   1.102  12.537 -0.3425  1.5501 -0.0607
  718MPD2    N110675   2.148   1.561  12.652 -0.3974  0.1480 -0.0581
  718MPD2    H710676   2.140   1.548  12.551 -0.9357  2.4425 -0.3128
  719TMC3    C110677   2.093   1.777  12.591  0.9258  0.3657  0.4274
  719TMC3    C210678   2.008   1.718  12.498  0.1864 -0.4573 -0.5846
  719TMC3    C310679   2.029   1.704  12.364 -0.2101 -0.0669 -0.6809
  719TMC3    C410680   2.211   1.820  12.538 -0.4772 -0.6464  0.3624
  719TMC3    C510681   2.234   1.820  12.405 -0.0483 -0.1349 -0.3348
  719TMC3    C610682   2.144   1.769  12.319  0.1289  0.0795 -0.1545
  719TMC3     C10683   2.114   1.684  12.701  0.0585 -0.1979 -0.2308
  719TMC3     O10684   2.116   1.717  12.816 -0.0954  0.3387  0.9157
  719TMC3     H10685   1.908   1.692  12.530  0.4495  1.9429  2.2388
  719TMC3    H110686   2.276   1.861  12.615 -1.4144  1.4728  0.0153
  719TMC3    H210687   2.181   1.763  12.217  0.8622 -1.7390  0.2334
  719TMC3    C710688   2.353   1.856  12.350 -0.1362  0.4734 -0.0718
  719TMC3    C810689   2.016   1.567  12.344 -0.1731  0.3864 -0.0785
  719TMC3    O110690   2.354   1.899  12.238 -0.0517  0.3574  0.4386
  719TMC3    O210691   2.117   1.510  12.305 -0.2708 -0.4825  0.7859
  720MPD2     C10692   0.717   2.627  13.549  0.5573  0.1369 -0.3746
  720MPD2    C110693   0.690   2.668  13.678  0.3715  0.1547 -0.3826
  720MPD2    C210694   0.791   2.666  13.772  0.0282  0.1012 -0.1133
  720MPD2    C310695   0.920   2.636  13.740 -0.6939  0.1663 -0.4520
  720MPD2    C410696   0.949   2.600  13.610 -0.5588 -0.2907  0.1618
  720MPD2    C510697   0.845   2.591  13.516  0.2104 -0.1830  0.2175
  720MPD2     H10698   0.765   2.706  13.869 -0.5710 -1.3502  0.3185
  720MPD2    H110699   1.050   2.581  13.576 -0.4548  2.0614 -0.8647
  720MPD2    H210700   0.648   2.625  13.465  0.7826  0.9969 -0.5843
  720MPD2    H310701   0.877   2.559  13.417 -0.2662 -1.2015  0.4016
  720MPD2     N10702   1.036   2.639  13.821  0.3666  0.1993  0.3084
  720MPD2    H510703   1.126   2.626  13.775 -0.5658 -0.5949 -1.2983
  720MPD2    N110704   0.564   2.715  13.718  0.3651 -0.1439  0.2505
  720MPD2    H710705   0.556   2.749  13.813  0.0782 -0.1104  0.2138
  721TMC3    C110706   1.166   2.705  14.008  0.7824  0.0152 -0.0193
  721TMC3    C210707   1.190   2.687  14.138  0.0369 -0.4167 -0.4917
  721TMC3    C310708   1.287   2.762  14.200 -0.1638 -0.1579 -0.0958
  721TMC3    C410709   1.253   2.780  13.934 -0.2999  0.0881  0.0782
  721TMC3    C510710   1.359   2.843  14.001 -0.0455 -0.2646  0.1195
  721TMC3    C610711   1.367   2.845  14.134 -0.1866  0.0771  0.1566
  721TMC3     C10712   1.038   2.665  13.955 -0.1073 -0.5811 -0.8778
  721TMC3     O10713   0.944   2.654  14.032  0.5210  0.3518 -0.3453
  721TMC3     H10714   1.121   2.628  14.197 -0.9051 -0.8748 -2.0703
  721TMC3    H110715   1.249   2.782  13.826 -0.3410  0.0959  0.0798
  721TMC3    H210716   1.455   2.886  14.183  0.2518  2.7106 -2.7906
  721TMC3    C710717   1.463   2.906  13.926  0.2546 -0.8387 -0.6278
  721TMC3    C810718   1.346   2.688  14.310 -0.3495 -0.4727  0.2889
  721TMC3    O110719   1.567   2.903  13.988 -0.3023 -0.1753 -0.0833
  721TMC3    O210720   1.352   2.569  14.292  0.1347 -0.5170  0.6448
  722MPD2     C10721   4.223   1.122  13.519 -0.8625 -0.4042  0.0563
  722MPD2    C110722   4.216   1.248  13.463  0.0535 -0.4150 -0.1889
  722MPD2    C210723   4.107   1.328  13.481 -0.4215  0.1110  0.0054
  722MPD2    C310724   3.990   1.279  13.532  0.0677  0.4074  0.0732
  722MPD2    C410725   3.991   1.144  13.582  0.2197 -0.6473  0.4770
  722MPD2    C510726   4.105   1.069  13.569  0.5107 -0.1608 -0.2370
  722MPD2     H10727   4.113   1.434  13.458 -2.8573  0.5345  1.3952
  722MPD2    H110728   3.905   1.092  13.623 -1.1085  0.9830 -0.2435
  722MPD2    H210729   4.310   1.060  13.503 -1.4170 -1.9874  3.1913
  722MPD2    H310730   4.102   0.966  13.604  1.1884 -0.1245 -0.0684
  722MPD2     N10731   3.875   1.356  13.530 -0.2814  0.6811  0.6848
  722MPD2    H510732   3.882   1.441  13.475  1.0005  1.6256  2.3204
  722MPD2    N110733   4.325   1.314  13.402 -0.4745 -0.4992  0.3182
  722MPD2    H710734   4.302   1.405  13.364 -0.4809 -0.4843  0.3585
  723TMC3    C110735   3.645   1.404  13.534 -0.4553  0.3566  0.9183
  723TMC3    C210736   3.525   1.367  13.593 -0.1523  0.7268  0.1821
  723TMC3    C310737   3.408   1.408  13.539 -0.6935  0.4749 -0.6093
  723TMC3    C410738   3.654   1.484  13.426  0.0036 -0.0371 -0.3804
  723TMC3    C510739   3.537   1.544  13.386  0.0663 -0.2730  0.4436
  723TMC3    C610740   3.419   1.505  13.437 -0.2331  0.2156 -0.4000
  723TMC3     C10741   3.753   1.319  13.578 -0.7987 -0.0717  0.5421
  723TMC3     O10742   3.736   1.231  13.665  0.1573 -0.2641  0.0121
  723TMC3     H10743   3.509   1.302  13.678  1.9260  0.2698  0.2227
  723TMC3    H110744   3.747   1.512  13.378  0.5785  0.0101  0.7499
  723TMC3    H210745   3.331   1.561  13.406  0.2217  1.0083 -0.2556
  723TMC3    C710746   3.534   1.579  13.249  0.0795  0.0827 -0.2633
  723TMC3    C810747   3.333   1.295  13.502 -0.6003  0.4543  0.3011
  723TMC3    O110748   3.445   1.531  13.178 -0.2697  0.4941 -0.7660
  723TMC3    O210749   3.294   1.215  13.586 -0.0039  0.2600 -0.2178
  724TMC3    C110750   4.152   4.684  10.933 -0.6828 -0.5713  0.2054
  724TMC3    C210751   4.096   4.713  10.808 -0.7340  0.9561 -0.0135
  724TMC3    C310752   4.097   0.106  10.751  0.1225 -0.1099  0.1417
  724TMC3    C410753   4.203   0.057  11.007  0.2531 -0.3078  0.0327
  724TMC3    C510754   4.194   0.183  10.950  1.0789  0.2577 -0.1708
  724TMC3    C610755   4.132   0.210  10.831 -0.6426 -0.3078 -0.4781
  724TMC3     C10756   4.148   4.551  10.988  0.8441  1.0032 -0.1211
  724TMC3     O10757   4.226   4.522  11.078 -0.5070  0.0267 -0.0192
  724TMC3     H10758   4.083   4.633  10.736  1.9101 -0.5832  1.1908
  724TMC3    H110759   4.251   0.036  11.102  2.0814  1.2017 -0.5720
  724TMC3    H210760   4.095   0.309  10.806  0.0994  0.6870  2.2926
  724TMC3    C710761   4.294   0.280  10.979 -0.7372  0.2730  0.4958
  724TMC3    C810762   4.081   0.129  10.608  0.6429  0.4968  0.0243
  724TMC3    O110763   4.323   0.346  10.880 -0.0575 -0.1111  0.0099
  724TMC3    O210764   4.015   0.053  10.544 -0.1938  0.2505 -0.5406
  725TMC3    C110765   1.654   2.786  13.032 -0.0569 -0.4857  0.4207
  725TMC3    C210766   1.540   2.819  12.967 -0.8273  0.7909  0.3120
  725TMC3    C310767   1.493   2.733  12.875 -0.3446  0.0356 -0.0377
  725TMC3    C410768   1.714   2.663  13.031 -0.5813  0.1653  0.1687
  725TMC3    C510769   1.663   2.577  12.936  0.5408  0.5462  0.0591
  725TMC3    C610770   1.558   2.615  12.852  0.0377  0.1471 -0.5865
  725TMC3     C10771   1.738   2.892  13.075  0.0779 -0.2102 -0.6386
  725TMC3     O10772   1.689   2.993  13.119  0.3657 -0.3640 -0.2176
  725TMC3     H10773   1.495   2.916  12.983  1.7262  2.4556 -2.6239
  725TMC3    H110774   1.790   2.632  13.102  1.1607 -0.0280 -1.8032
  725TMC3    H210775   1.522   2.549  12.774  0.6523  0.3382 -1.0388
  725TMC3    C710776   1.754   2.470  12.899 -0.4112  0.3233 -0.4865
  725TMC3    C810777   1.359   2.735  12.818 -0.0232  0.8994 -0.2050
  725TMC3    O110778   1.871   2.485  12.925  0.4820  0.0830  0.4964
  725TMC3    O210779   1.299   2.628  12.801 -0.7029 -0.7184  0.3839
  726MPD2     C10780   2.752   0.789  10.013  0.0923  0.9308 -0.7429
  726MPD2    C110781   2.879   0.784  10.067 -0.4010 -0.1830 -0.5593
  726MPD2    C210782   2.910   0.672  10.136  0.4065  0.1323 -0.1927
  726MPD2    C310783   2.827   0.560  10.138  0.0015  0.7553 -0.2391
  726MPD2    C410784   2.710   0.563  10.070  0.1208 -0.3082  0.7807
  726MPD2    C510785   2.669   0.681  10.017  0.4240  0.2654 -0.4980
  726MPD2     H10786   3.001   0.662  10.193  0.7293  1.8592 -0.4206
  726MPD2    H110787   2.657   0.469  10.064  1.3058 -0.7790 -2.1508
  726MPD2    H210788   2.705   0.873   9.963  1.3782  2.7319  1.0793
  726MPD2    H310789   2.593   0.681   9.939  2.4341  0.0375 -2.4875
  726MPD2     N10790   2.874   0.444  10.200  0.5018 -0.0525 -0.0076
  726MPD2    H510791   2.825   0.356  10.185  0.9799 -1.0219  4.0313
  726MPD2    N110792   2.966   0.898  10.064  0.3973  0.0769  0.0042
  726MPD2    H710793   3.058   0.884  10.104  1.2439 -0.6130 -2.1969
  727TMC3    C110794   3.051   1.109  10.010 -0.1787  0.0885 -0.2635
  727TMC3    C210795   3.124   1.101  10.122 -0.0447 -0.2254 -0.0604
  727TMC3    C310796   3.188   1.222  10.153 -0.2977 -0.5795 -0.2963
  727TMC3    C410797   3.040   1.217   9.929 -0.8442 -0.0066 -0.7830
  727TMC3    C510798   3.112   1.329   9.956  0.8205 -0.1308 -0.1180
  727TMC3    C610799   3.194   1.332  10.070 -1.0318 -0.2944 -0.0497
  727TMC3     C10800   2.940   1.013   9.991  0.1434 -0.4883 -0.3028
  727TMC3     O10801   2.838   1.048   9.936  0.2420  0.5491  0.2401
  727TMC3     H10802   3.116   1.019  10.192  3.4677 -0.5012  0.0111
  727TMC3    H110803   2.963   1.227   9.853  0.4901  0.1653 -2.1174
  727TMC3    H210804   3.252   1.416  10.105 -1.4668 -0.2803  0.6359
  727TMC3    C710805   3.076   1.450   9.897  0.2096 -0.2870  0.9243
  727TMC3    C810806   3.287   1.212  10.260 -0.2742  0.6133  0.0577
  727TMC3    O110807   3.041   1.449   9.780  0.0563  0.2791  0.6608
  727TMC3    O210808   3.313   1.095  10.288  0.8449 -0.3401 -0.0347
  728TMC3    C110809   3.357   3.295  15.556  0.8519 -0.4030  0.9302
  728TMC3    C210810   3.479   3.339  15.538  0.2259 -0.1654  0.2424
  728TMC3    C310811   3.518   3.388  15.418 -0.3142  0.5064  0.1799
  728TMC3    C410812   3.258   3.319  15.469 -0.2526 -0.3711  0.2110
  728TMC3    C510813   3.298   3.369  15.349  0.2750 -0.8001 -0.2451
  728TMC3    C610814   3.429   3.396  15.313 -0.1783  0.2489  0.4255
  728TMC3     C10815   3.330   3.244  15.681 -0.3709 -0.2507 -0.7211
  728TMC3     O10816   3.405   3.274  15.771  0.3061 -0.0466 -0.3195
  728TMC3     H10817   3.553   3.332  15.617  1.5820  0.7221 -0.9557
  728TMC3    H110818   3.154   3.307  15.496 -0.6346 -0.2558 -1.2078
  728TMC3    H210819   3.448   3.440  15.215 -0.9779 -2.0110 -0.7561
  728TMC3    C710820   3.188   3.391  15.253  0.4122 -0.5937 -0.4234
  728TMC3    C810821   3.662   3.415  15.404  0.7461  0.5466 -0.1602
  728TMC3    O110822   3.085   3.338  15.294  0.4249 -0.5695 -0.1286
  728TMC3    O210823   3.728   3.444  15.503 -0.3887 -0.1535 -0.2572
  729MPD2     C10824   0.700   4.425  17.072 -0.4339 -0.2018  0.6091
  729MPD2    C110825   0.817   4.391  17.131  0.2400  0.0215  0.9432
  729MPD2    C210826   0.837   4.416  17.266 -0.2034  0.0760 -0.5398
  729MPD2    C310827   0.733   4.459  17.349  0.3917  0.3916 -0.0547
  729MPD2    C410828   0.612   4.481  17.288  0.9674  0.6314  0.2600
  729MPD2    C510829   0.597   4.474  17.152 -0.3839 -0.2051 -0.4952
  729MPD2     H10830   0.934   4.386  17.303  0.0846 -1.5296 -2.5823
  729MPD2    H110831   0.526   4.518  17.343  0.3557 -0.7641  0.2626
  729MPD2    H210832   0.686   4.418  16.964  3.0230  1.5089  0.0705
  729MPD2    H310833   0.506   4.501  17.101 -0.0716  1.5123 -0.1623
  729MPD2     N10834   0.750   4.490  17.487  0.5354 -0.5902  0.2784
  729MPD2    H510835   0.679   4.544  17.536  1.2653 -0.6769  1.4334
  729MPD2    N110836   0.921   4.349  17.049  0.4453  0.5135  0.6508
  729MPD2    H710837   0.906   4.350  16.948 -0.9567  0.7002  0.8640
  730TMC3    C110838   0.871   4.582  17.657 -0.7797 -0.0485  0.0726
  730TMC3    C210839   0.953   4.560   0.027 -0.2494 -0.1771  0.1573
  730TMC3    C310840   0.993   4.661   0.107 -0.7271 -0.1600 -0.5870
  730TMC3    C410841   0.840   4.712  17.618 -0.1714  0.3895  0.7316
  730TMC3    C510842   0.879   0.085  17.697 -0.1149 -0.4320  0.1699
  730TMC3    C610843   0.948   0.055   0.082  0.7072  0.1158 -0.6427
  730TMC3     C10844   0.869   4.492  17.553 -0.2260 -0.0245  0.3213
  730TMC3     O10845   0.977   4.440  17.531  0.0633  0.4489  0.4119
  730TMC3     H10846   0.970   4.455   0.044 -2.2551 -0.2744  1.6109
  730TMC3    H110847   0.778   4.725  17.530  1.1805  2.5705  0.1152
  730TMC3    H210848   0.967   0.133   0.154  1.3495  0.4772 -1.2038
  730TMC3    C710849   0.818   0.209  17.678  0.6025 -0.2690  0.6447
  730TMC3    C810850   1.098   4.628   0.203 -1.9230 -0.9374  0.2391
  730TMC3    O110851   0.794   0.281   0.035 -0.3184  0.0467 -0.2956
  730TMC3    O210852   1.134   4.510   0.213  0.6216  0.2572  0.0330
  731MPD2     C10853   0.992   2.491  12.284 -0.1223  0.5595 -0.6419
  731MPD2    C110854   0.902   2.573  12.340 -0.6433  0.5878 -0.2311
  731MPD2    C210855   0.783   2.510  12.376 -0.7853  0.5638 -0.8215
  731MPD2    C310856   0.762   2.373  12.377 -0.1516  0.0457 -0.7397
  731MPD2    C410857   0.854   2.296  12.311  0.2500  0.0922 -0.9070
  731MPD2    C510858   0.960   2.358  12.255 -0.3677 -0.1423  0.5868
  731MPD2     H10859   0.712   2.566  12.436 -0.3562  0.5926 -0.3441
  731MPD2    H110860   0.849   2.188  12.305 -1.2488 -0.0176  2.1894
  731MPD2    H210861   1.084   2.541  12.256 -1.0477  2.9243  0.5511
  731MPD2    H310862   1.032   2.292  12.210 -2.0709 -1.2887 -0.4510
  731MPD2     N10863   0.655   2.301  12.443 -0.1604 -0.0562  0.6278
  731MPD2    H510864   0.657   2.200  12.436  0.0103 -0.1132  1.4913
  731MPD2    N110865   0.926   2.705  12.372  0.0160 -0.4714 -0.2694
  731MPD2    H710866   0.844   2.764  12.377  1.7237  2.0152 -1.7819
  732TMC3    C110867   1.062   2.887  12.389 -0.1521 -0.0750 -0.3693
  732TMC3    C210868   1.011   2.970  12.291 -0.3871 -0.9191  0.0297
  732TMC3    C310869   1.058   3.098  12.282 -0.0598 -0.2347 -0.4209
  732TMC3    C410870   1.170   2.921  12.468  0.2015  0.0597 -0.6851
  732TMC3    C510871   1.217   3.049  12.446 -0.0901  0.2917  0.2233
  732TMC3    C610872   1.160   3.142  12.363 -0.1096 -0.2135 -0.0609
  732TMC3     C10873   1.043   2.750  12.401  1.4054  0.3230  0.1736
  732TMC3     O10874   1.139   2.683  12.435 -0.1639 -0.6713 -0.5829
  732TMC3     H10875   0.939   2.930  12.221  0.3677 -1.9110 -0.1893
  732TMC3    H110876   1.218   2.859  12.543  3.4071  1.1311 -1.8465
  732TMC3    H210877   1.198   3.243  12.354 -0.6574  0.0711  0.7802
  732TMC3    C710878   1.331   3.087  12.519  0.0759 -0.2005  0.1085
  732TMC3    C810879   0.991   3.187  12.196 -0.5116 -0.6170  0.1836
  732TMC3    O110880   1.356   3.206  12.548  0.0096  0.5207 -0.3692
  732TMC3    O210881   1.061   3.271  12.142 -0.3283  0.2805 -0.1730
  733TMC3    C110882   2.130   0.769  12.500 -0.4362  1.0250  0.0912
  733TMC3    C210883   2.224   0.785  12.594  0.4425 -0.2250  0.4226
  733TMC3    C310884   2.320   0.879  12.565 -0.2753  0.3065 -0.4779
  733TMC3    C410885   2.142   0.832  12.381  0.5190  0.0025  0.1650
  733TMC3    C510886   2.237   0.924  12.363  0.2271  0.7297  0.6026
  733TMC3    C610887   2.340   0.945  12.453 -0.2877  0.1701  0.3792
  733TMC3     C10888   2.005   0.700  12.521  0.5847  0.0946 -0.1296
  733TMC3     O10889   1.912   0.764  12.466 -0.1582 -0.3383  0.2052
  733TMC3     H10890   2.218   0.747  12.695 -0.5831  0.9150  0.7921
  733TMC3    H110891   2.079   0.798  12.300 -1.1326  0.4464  1.2470
  733TMC3    H210892   2.420   1.017  12.439 -0.7821  0.9546  1.5720
  733TMC3    C710893   2.169   1.052  12.352 -0.1853 -0.3470 -0.6261
  733TMC3    C810894   2.319   0.974  12.680  0.3999 -0.1232  0.5522
  733TMC3    O110895   2.243   1.151  12.363 -0.2948 -0.2045  0.0189
  733TMC3    O210896   2.338   0.932  12.790 -0.2289  0.5864  0.3253
  734MPD2     C10897   3.416   3.383  12.944 -0.0789 -0.5216 -0.1627
  734MPD2    C110898   3.397   3.316  12.826 -0.1470 -0.3356 -0.1107
  734MPD2    C210899   3.431   3.376  12.707 -0.0732 -0.3993 -0.2282
  734MPD2    C310900   3.466   3.509  12.694  0.3275  0.1204  0.0815
  734MPD2    C410901   3.485   3.573  12.814  0.0517 -0.4598 -0.2014
  734MPD2    C510902   3.470   3.512  12.938  0.2365  0.4958  0.5481
  734MPD2     H10903   3.423   3.320  12.614  0.5026 -1.3341  0.2727
  734MPD2    H110904   3.512   3.677  12.807 -2.6899  0.4315  2.2011
  734MPD2    H210905   3.404   3.331  13.038 -0.1275 -0.2848 -0.0409
  734MPD2    H310906   3.478   3.570  13.029  2.2817 -0.4178  0.9479
  734MPD2     N10907   3.476   3.564  12.565  0.0800  0.2362  0.2665
  734MPD2    H510908   3.475   3.495  12.489  2.9664 -0.9615  1.3231
  734MPD2    N110909   3.344   3.187  12.833  0.7864 -0.6168 -0.3902
  734MPD2    H710910   3.337   3.138  12.922 -0.6166  3.2042  1.6220
  735TMC3    C110911   3.228   2.985  12.759  0.2082  0.0641  0.3046
  735TMC3    C210912   3.157   2.954  12.646 -1.1327 -0.1130 -0.2817
  735TMC3    C310913   3.182   2.837  12.573 -0.4627 -0.0662 -0.3581
  735TMC3    C410914   3.314   2.894  12.808 -0.3063 -0.2755 -0.5592
  735TMC3    C510915   3.353   2.793  12.724  0.5380 -0.1311 -0.1139
  735TMC3    C610916   3.291   2.764  12.605  0.4150 -0.6378  0.1162
  735TMC3     C10917   3.290   3.113  12.729 -0.4546  0.2510 -0.0029
  735TMC3     O10918   3.269   3.152  12.615 -0.1918 -0.5221 -0.2418
  735TMC3     H10919   3.086   3.026  12.607 -1.8343 -0.9553 -0.5630
  735TMC3    H110920   3.367   2.912  12.900 -1.3615 -0.0989  0.0098
  735TMC3    H210921   3.325   2.673  12.556 -2.6312 -1.3393 -0.6924
  735TMC3    C710922   3.498   2.804  12.706 -0.3597  0.0685  0.5930
  735TMC3    C810923   3.154   2.866  12.429  0.2862 -0.0532  0.1512
  735TMC3    O110924   3.556   2.910  12.703  0.5107 -0.6521  0.1163
  735TMC3    O210925   3.092   2.791  12.354  0.2314 -0.0578 -0.1497
  736MPD2     C10926   3.750   2.533  12.696  0.3530  0.2666  0.6637
  736MPD2    C110927   3.697   2.661  12.686  0.8261 -0.9345  0.3455
  736MPD2    C210928   3.788   2.763  12.651  0.2737  0.5077  0.0113
  736MPD2    C310929   3.921   2.734  12.607 -0.3955 -0.1410 -0.0673
  736MPD2    C410930   3.959   2.603  12.607 -0.4599  0.0665  0.0416
  736MPD2    C510931   3.876   2.505  12.655 -0.0477 -0.1577  0.0478
  736MPD2     H10932   3.746   2.859  12.622 -2.2076 -0.5290  0.1683
  736MPD2    H110933   4.062   2.575  12.589 -0.6037 -1.6742  1.9225
  736MPD2    H210934   3.694   2.447  12.731 -0.4021  0.9725  1.2023
  736MPD2    H310935   3.907   2.401  12.659  0.6259 -0.0163 -1.4124
  736MPD2     N10936   4.002   2.825  12.535 -0.4775  0.4894 -0.4071
  736MPD2    H510937   4.072   2.781  12.476  0.9317  1.7317  0.3279
  736MPD2    N110938   3.557   2.679  12.695  0.0456  0.7441  0.4431
  736MPD2    H710939   3.500   2.597  12.710  1.1322 -0.0686  0.0915
  737TMC3    C110940   4.002   3.004  12.379 -1.1027  0.3893 -0.6977
  737TMC3    C210941   3.926   3.104  12.327  0.0437  0.2092 -0.3436
  737TMC3    C310942   3.943   3.143  12.191 -0.3915 -0.4754 -0.2783
  737TMC3    C410943   4.088   2.938  12.298 -0.0133  0.4497 -0.6404
  737TMC3    C510944   4.100   2.976  12.166 -0.4690 -0.3982 -0.1272
  737TMC3    C610945   4.028   3.079  12.104  0.8000 -0.1213  0.4669
  737TMC3     C10946   3.955   2.956  12.510 -0.1281  0.8109 -0.0239
  737TMC3     O10947   3.876   3.028  12.567 -0.2564 -0.3600 -0.6586
  737TMC3     H10948   3.847   3.159  12.376  1.1926  1.9226 -0.4250
  737TMC3    H110949   4.162   2.878  12.348 -1.4119 -0.7755 -0.0339
  737TMC3    H210950   4.010   3.078  11.998 -1.6402 -2.2360  0.9183
  737TMC3    C710951   4.206   2.901  12.098 -0.1032 -0.6037  0.1916
  737TMC3    C810952   3.844   3.238  12.142  0.5751 -0.7202  0.8308
  737TMC3    O110953   4.228   2.794  12.156  0.1447 -0.2686 -0.4218
  737TMC3    O210954   3.748   3.267  12.212  0.0554  0.2131  0.1675
  738MPD2     C10955   0.157   1.653  15.004  0.3589 -0.2587  0.1098
  738MPD2    C110956   0.102   1.628  14.882 -0.5410  0.7371 -0.4009
  738MPD2    C210957   0.150   1.681  14.765 -0.5005  0.0644  0.3844
  738MPD2    C310958   0.273   1.752  14.772  0.2203 -0.2646 -0.3787
  738MPD2    C410959   0.336   1.763  14.898  0.3150  0.4649 -0.3392
  738MPD2    C510960   0.265   1.729  15.011  0.0570  0.4676  0.7119
  738MPD2     H10961   0.106   1.655  14.669  2.3289 -2.9429 -0.1207
  738MPD2    H110962   0.428   1.821  14.900  2.4885 -3.0148 -1.1925
  738MPD2    H210963   0.117   1.624  15.100  1.8480 -1.2194  0.4390
  738MPD2    H310964   0.310   1.743  15.108  0.6678 -1.3543  0.6901
  738MPD2     N10965   0.354   1.803  14.666  0.4556  0.3577 -0.0464
  738MPD2    H510966   0.442   1.848  14.688  0.1193  1.2015 -0.4465
  738MPD2    N110967   4.723   1.542  14.880  0.0751  0.1983  0.0241
  738MPD2    H710968   4.658   1.556  14.804  0.5768  0.7432 -0.2993
  739TMC3    C110969   0.401   1.901  14.451 -0.7659 -0.1048 -0.5138
  739TMC3    C210970   0.389   1.889  14.316 -0.1779  0.2718 -0.1490
  739TMC3    C310971   0.468   1.971  14.241 -0.7633 -0.1386 -0.0690
  739TMC3    C410972   0.484   1.998  14.513 -0.2901 -0.7299 -0.4749
  739TMC3    C510973   0.541   2.092  14.436 -0.5653 -0.0610  0.1320
  739TMC3    C610974   0.543   2.075  14.295 -0.3301 -0.2044  0.0943
  739TMC3     C10975   0.313   1.814  14.533 -0.3729  0.6509 -0.0811
  739TMC3     O10976   0.218   1.763  14.472  0.4057  0.4945 -0.3937
  739TMC3     H10977   0.320   1.827  14.261 -1.8914  1.1998  0.9434
  739TMC3    H110978   0.494   1.992  14.621  1.2240 -1.2673 -0.6422
  739TMC3    H210979   0.621   2.109  14.228  0.9260 -0.4824  1.4047
  739TMC3    C710980   0.657   2.155  14.500  0.1365  0.1116 -1.0534
  739TMC3    C810981   0.441   1.979  14.100 -0.0342 -0.6730  0.1651
  739TMC3    O110982   0.659   2.146  14.623 -0.2511  0.4517 -0.2497
  739TMC3    O210983   0.372   1.889  14.051  0.5348  0.5252  0.3407
  740TMC3    C110984   0.731   3.137  14.312 -0.1683  0.2453 -0.1261
  740TMC3    C210985   0.820   3.086  14.402  0.1569  0.6721 -0.3960
  740TMC3    C310986   0.933   3.020  14.358 -0.0430  0.4491 -0.4806
  740TMC3    C410987   0.758   3.125  14.177  0.4466 -0.2316  0.3044
  740TMC3    C510988   0.875   3.054  14.137 -0.6577  0.3107 -0.4282
  740TMC3    C610989   0.967   3.010  14.227  0.4790 -0.5842  0.0679
  740TMC3     C10990   0.620   3.219  14.354  0.3208  0.3894 -0.4608
  740TMC3     O10991   0.587   3.304  14.273 -0.3087  0.5800 -0.0601
  740TMC3     H10992   0.813   3.101  14.509 -2.6469  1.1276 -0.6330
  740TMC3    H110993   0.677   3.156  14.112  0.9773  0.5672  0.0258
  740TMC3    H210994   1.054   2.957  14.188 -0.7450 -0.0795 -3.4008
  740TMC3    C710995   0.894   3.038  13.992  0.2300  0.6141  0.3131
  740TMC3    C810996   1.000   2.929  14.444  0.1768  0.2481  0.3161
  740TMC3    O110997   0.990   2.977  13.949 -0.0375  0.1807 -0.0420
  740TMC3    O210998   1.117   2.904  14.422  0.0147  0.5302  0.4098
  741TMC3    C110999   0.256   2.300  14.535  0.9209 -0.0893  0.8269
  741TMC3    C211000   0.191   2.183  14.564  0.9112  0.7825 -0.0378
  741TMC3    C311001   0.163   2.171  14.702 -0.0850 -0.2579  0.6743
  741TMC3    C411002   0.288   2.393  14.633  0.5380  0.2223  0.1721
  741TMC3    C511003   0.251   2.376  14.766 -0.2853  0.2581  0.5860
  741TMC3    C611004   0.195   2.261  14.802  1.0768  0.0765  0.4696
  741TMC3     C11005   0.262   2.337  14.398 -0.0966 -0.7331 -0.3760
  741TMC3     O11006   0.255   2.241  14.321 -0.2663 -0.0202 -0.3681
  741TMC3     H11007   0.185   2.104  14.490 -1.0155  1.4188 -0.5581
  741TMC3    H111008   0.334   2.488  14.609 -0.0684  0.6216  0.5887
  741TMC3    H211009   0.165   2.237  14.903 -1.2692  0.1332 -0.2127
  741TMC3    C711010   0.280   2.479  14.864  0.0632  0.2219  0.2033
  741TMC3    C811011   0.054   2.079  14.718  0.4543  0.2720  0.5074
  741TMC3    O111012   0.352   2.572  14.830  0.1383  0.1286 -0.0371
  741TMC3    O211013   0.009   2.028  14.616 -0.1311  0.2597  0.0923
  742TMC3    C111014   0.340   1.277  15.183  0.1076 -0.0688 -1.2817
  742TMC3    C211015   0.235   1.252  15.095  0.2659  0.4788 -0.8021
  742TMC3    C311016   0.220   1.126  15.053 -0.3204  0.7340 -1.0678
  742TMC3    C411017   0.438   1.184  15.208  0.4094 -0.0695  0.3034
  742TMC3    C511018   0.411   1.059  15.163 -0.0858 -0.0278  0.7566
  742TMC3    C611019   0.309   1.026  15.077  0.5610 -0.4173 -0.1363
  742TMC3     C11020   0.342   1.394  15.266  0.3971  0.1766  0.4944
  742TMC3     O11021   0.458   1.438  15.280  0.1263  0.3310  0.3998
  742TMC3     H11022   0.158   1.322  15.066 -1.4186 -1.4634 -1.0303
  742TMC3    H111023   0.520   1.205  15.276 -1.1924  1.2053  1.8803
  742TMC3    H211024   0.292   0.928  15.035 -1.5281  0.4167 -1.2083
  742TMC3    C711025   0.524   0.963  15.146 -0.2054 -0.1975  0.1049
  742TMC3    C811026   0.156   1.095  14.928 -0.0580  0.2823  0.4315
  742TMC3    O111027   0.495   0.844  15.146  0.1789  0.0882  0.0253
  742TMC3    O211028   0.117   0.979  14.916 -0.2011  0.1695  0.4501
  743MPD2     C11029   2.085   3.039   1.724  0.8299  0.7151 -0.4507
  743MPD2    C111030   2.163   2.941   1.667 -1.1150 -0.0674  0.2484
  743MPD2    C211031   2.300   2.949   1.684 -0.1867 -0.1995 -0.7476
  743MPD2    C311032   2.357   3.046   1.764  0.2050 -0.2052 -0.1602
  743MPD2    C411033   2.265   3.141   1.816  0.3758 -0.6646 -0.2105
  743MPD2    C511034   2.135   3.147   1.795  0.5067 -0.1743  0.7185
  743MPD2     H11035   2.368   2.881   1.635 -1.9122 -3.5209  1.4188
  743MPD2    H111036   2.312   3.224   1.869  0.9744 -0.8158 -0.5019
  743MPD2    H211037   1.977   3.036   1.710  0.8231  0.0050 -0.2041
  743MPD2    H311038   2.081   3.229   1.841 -0.5667 -1.4061  1.6754
  743MPD2     N11039   2.494   3.044   1.772  0.0775 -0.0097  0.4527
  743MPD2    H511040   2.537   2.965   1.727 -0.6077  0.1537 -0.4976
  743MPD2    N111041   2.106   2.847   1.579 -0.3774 -0.1357 -0.6241
  743MPD2    H711042   2.006   2.856   1.563 -0.4314  1.5425  0.6696
  744TMC3    C111043   2.099   2.682   1.408 -0.1738 -0.8644  0.2548
  744TMC3    C211044   1.969   2.714   1.383 -0.0665 -0.0160  0.5035
  744TMC3    C311045   1.916   2.694   1.262  0.4547  0.5377 -0.3115
  744TMC3    C411046   2.177   2.638   1.300  1.2046 -0.2291  0.0455
  744TMC3    C511047   2.119   2.635   1.175 -0.3982  0.3417 -0.5450
  744TMC3    C611048   1.987   2.654   1.149 -0.0825  0.6017  0.2413
  744TMC3     C11049   2.170   2.741   1.518  0.4329  0.0982  0.5746
  744TMC3     O11050   2.285   2.702   1.540 -0.5514 -0.3475  0.6219
  744TMC3     H11051   1.903   2.750   1.462 -0.3866  0.2547  0.1106
  744TMC3    H111052   2.286   2.642   1.304  1.1769  1.4497 -0.9360
  744TMC3    H211053   1.945   2.659   1.049 -0.4062 -1.0711  0.3094
  744TMC3    C711054   2.213   2.605   1.065  0.6287  0.3080 -0.1045
  744TMC3    C811055   1.792   2.771   1.242  0.5894 -0.5917  0.0772
  744TMC3    O111056   2.319   2.554   1.087 -0.5137  0.2421 -0.5504
  744TMC3    O211057   1.767   2.858   1.328 -0.0992  0.2984 -0.3349
  745TMC3    C111058   0.553   0.229  13.214 -0.7435  0.1562 -0.8181
  745TMC3    C211059   0.455   0.134  13.205  0.1167  0.2804 -0.4587
  745TMC3    C311060   0.348   0.153  13.118  0.1889 -0.1385  0.3506
  745TMC3    C411061   0.553   0.341  13.140 -0.1653 -0.1036 -0.5964
  745TMC3    C511062   0.457   0.351  13.040  0.1337  0.0395  0.0987
  745TMC3    C611063   0.352   0.257  13.027  0.1318 -0.1879  0.1024
  745TMC3     C11064   0.607   0.241  13.350  0.3197 -0.4460  0.5930
  745TMC3     O11065   0.653   0.140  13.395  0.3370  0.0469  0.0652
  745TMC3     H11066   0.469   0.040  13.258 -0.8567 -0.9163 -2.3332
  745TMC3    H111067   0.634   0.410  13.159  2.0135 -2.1023 -2.6177
  745TMC3    H211068   0.259   0.291  12.983  0.3082 -0.4611 -0.4735
  745TMC3    C711069   0.466   0.440  12.928  0.1653  0.0252 -0.7936
  745TMC3    C811070   0.221   0.158  13.193  0.4645 -0.0206  0.7436
  745TMC3    O111071   0.397   0.421  12.829  0.3935  0.0695  0.8347
  745TMC3    O211072   0.122   0.180  13.131  0.0647 -0.6845  0.4080
  746TMC3    C111073   2.572   3.171  10.836  0.3446  0.2391  0.1276
  746TMC3    C211074   2.627   3.162  10.716  0.2941  0.4635 -0.2796
  746TMC3    C311075   2.564   3.076  10.633 -0.3442  0.4620  0.3433
  746TMC3    C411076   2.463   3.088  10.875 -0.1810  0.4754  0.3501
  746TMC3    C511077   2.405   3.001  10.785  0.4272  0.2251  0.1260
  746TMC3    C611078   2.449   3.001  10.658 -0.6543  0.0906  0.5840
  746TMC3     C11079   2.584   3.292  10.914  0.5403 -0.4231 -0.7279
  746TMC3     O11080   2.497   3.325  10.994 -0.0354  0.4261  0.0540
  746TMC3     H11081   2.710   3.223  10.681 -2.0921  3.7038 -0.3195
  746TMC3    H111082   2.405   3.107  10.964  0.0476  1.0025  0.3875
  746TMC3    H211083   2.404   2.935  10.584 -0.2931  0.8203 -0.2878
  746TMC3    C711084   2.280   2.938  10.817 -0.4005  0.5913  0.5394
  746TMC3    C811085   2.629   3.042  10.507 -0.0710 -0.2814 -0.1978
  746TMC3    O111086   2.189   2.943  10.735 -0.1163  0.1179 -0.2100
  746TMC3    O211087   2.751   3.067  10.510  0.3581  0.6312  0.3586
  747TMC3    C111088   0.098   3.217  11.310  0.3457 -0.1581  0.8501
  747TMC3    C211089   0.034   3.102  11.354  0.1643 -0.0599  0.3905
  747TMC3    C311090   4.682   3.118  11.454 -0.0520 -0.3914  0.2894
  747TMC3    C411091   0.099   3.334  11.381 -0.0735 -0.7248 -0.7022
  747TMC3    C511092   0.004   3.341  11.477  0.0534  0.1425  0.2290
  747TMC3    C611093   4.660   3.239  11.514  0.0621  0.2175  0.3220
  747TMC3     C11094   0.181   3.216  11.189 -0.1966  0.3873 -0.7663
  747TMC3     O11095   0.257   3.311  11.173  0.1526 -0.5879 -0.0997
  747TMC3     H11096   0.055   3.007  11.306 -0.8098 -0.1448  0.1201
  747TMC3    H111097   0.166   3.412  11.345  1.6858 -2.1339 -0.5328
  747TMC3    H211098   4.595   3.247  11.600 -1.2065 -4.1603 -0.2337
  747TMC3    C711099   4.688   3.468  11.530  0.1902 -0.2814 -1.1697
  747TMC3    C811100   4.652   2.996  11.533  0.1598  0.0930  0.1573
  747TMC3    O111101   4.583   3.464  11.591  0.2647 -0.6020 -0.4304
  747TMC3    O211102   4.695   2.887  11.489 -0.7323  0.0904 -0.4609
  748MPD2     C11103   1.944   3.986   2.008  0.4940  0.3880 -0.0336
  748MPD2    C111104   1.954   3.991   1.871  1.1621  0.4297  0.0415
  748MPD2    C211105   2.071   3.983   1.807 -0.1582 -0.2270  0.0268
  748MPD2    C311106   2.186   3.975   1.886 -0.5762  0.7708 -0.0939
  748MPD2    C411107   2.181   3.991   2.023 -0.6507  0.4460 -0.3075
  748MPD2    C511108   2.062   3.992   2.083  0.2138  0.0599  0.2059
  748MPD2     H11109   2.083   3.984   1.699 -2.7974  1.7224 -0.2521
  748MPD2    H111110   2.268   3.985   2.086  0.3397 -0.1968 -1.7371
  748MPD2    H211111   1.851   3.989   2.065  0.2717 -3.2150 -0.2414
  748MPD2    H311112   2.061   3.999   2.191  0.2641  1.5820  0.1029
  748MPD2     N11113   2.313   3.952   1.821 -0.2829  0.6859  0.2895
  748MPD2    H511114   2.313   3.939   1.721  1.1987 -0.1887  0.4188
  748MPD2    N111115   1.834   3.992   1.803  0.4945  0.0526  0.5587
  748MPD2    H711116   1.751   3.980   1.860 -0.4216 -0.2327 -0.8533
  749TMC3    C111117   2.523   3.845   1.795  0.7744  0.6854  0.2133
  749TMC3    C211118   2.586   3.749   1.859  0.0337  0.5920 -0.0488
  749TMC3    C311119   2.685   3.678   1.800 -0.0566  0.1118 -0.6518
  749TMC3    C411120   2.549   3.882   1.668 -0.9109 -0.1954  0.0558
  749TMC3    C511121   2.643   3.800   1.603 -0.0909  0.3448  0.4094
  749TMC3    C611122   2.705   3.694   1.664 -0.0135 -0.5145  0.6019
  749TMC3     C11123   2.431   3.934   1.878 -0.8926  0.0523 -0.6400
  749TMC3     O11124   2.481   3.960   1.985 -0.3538  0.0505 -0.1591
  749TMC3     H11125   2.576   3.742   1.967 -1.6702  0.4433 -0.2208
  749TMC3    H111126   2.516   3.980   1.635  1.8609  0.4920 -0.6949
  749TMC3    H211127   2.782   3.639   1.612 -0.4630  0.6632 -1.3433
  749TMC3    C711128   2.668   3.823   1.458 -0.1765  0.7351 -0.4473
  749TMC3    C811129   2.793   3.627   1.875 -0.2457  0.4433 -0.1431
  749TMC3    O111130   2.639   3.935   1.412  0.4819 -0.3843  0.3522
  749TMC3    O211131   2.808   3.675   1.986 -0.4420 -0.3078 -0.5052
  750MPD2     C11132   2.565   0.086  11.431 -0.3842  0.5214  0.2635
  750MPD2    C111133   2.517   4.718  11.504  0.2993 -0.0900 -0.4161
  750MPD2    C211134   2.431   4.629  11.434  0.1876 -0.0947  0.0215
  750MPD2    C311135   2.410   4.639  11.301 -0.1659 -0.0733 -0.0521
  750MPD2    C411136   2.460   0.013  11.239 -0.1691  0.9635  0.7985
  750MPD2    C511137   2.526   0.106  11.305  0.5023  0.1355  0.3556
  750MPD2     H11138   2.387   4.544  11.485 -1.4363  0.6618 -0.1382
  750MPD2    H111139   2.445   0.036  11.134  2.8762 -0.9623 -0.0534
  750MPD2    H211140   2.636   0.153  11.477 -1.3919  0.3571  2.0698
  750MPD2    H311141   2.571   0.187  11.249  4.2245 -1.0742  1.5653
  750MPD2     N11142   2.349   4.530  11.228 -0.3082  0.2331 -0.1956
  750MPD2    H511143   2.362   4.520  11.128 -0.8265 -0.1424 -0.2264
  750MPD2    N111144   2.542   4.707  11.648  0.6306 -0.1613 -0.7607
  750MPD2    H711145   2.596   0.052  11.681 -0.9337  0.4109  0.4288
  751TMC3    C111146   2.241   4.330  11.180  0.8760 -0.4654 -0.0751
  751TMC3    C211147   2.142   4.239  11.214 -0.5547 -0.0304 -0.1728
  751TMC3    C311148   2.132   4.124  11.139 -0.1072  0.3497 -0.4142
  751TMC3    C411149   2.336   4.304  11.078 -0.4006  0.4676  0.3218
  751TMC3    C511150   2.319   4.187  11.001  0.6576  0.0731  0.0745
  751TMC3    C611151   2.213   4.101  11.030 -0.4536 -0.5852  0.6220
  751TMC3     C11152   2.265   4.433  11.281 -0.4165 -0.6973 -0.0127
  751TMC3     O11153   2.224   4.418  11.396 -0.2661  0.2665 -0.3586
  751TMC3     H11154   2.068   4.271  11.286 -1.2938  0.3335 -1.0879
  751TMC3    H111155   2.438   4.341  11.076  0.0173 -0.5840  1.9588
  751TMC3    H211156   2.201   4.010  10.974 -0.1825  0.2058 -0.7158
  751TMC3    C711157   2.416   4.152  10.900  0.4782 -0.4724 -0.7091
  751TMC3    C811158   2.032   4.024  11.169 -0.1259  0.3276  0.2739
  751TMC3    O111159   2.521   4.215  10.910 -0.3201 -0.6572  0.0810
  751TMC3    O211160   2.023   3.932  11.085 -0.2401  0.0254 -0.0734
  752TMC3    C111161   1.868   3.822  17.503  0.1000  0.3455 -0.4519
  752TMC3    C211162   1.978   3.761  17.558  0.0326  0.2589  0.2744
  752TMC3    C311163   1.996   3.767  17.689 -0.4207  0.5517 -0.2352
  752TMC3    C411164   1.774   3.895  17.578  0.3068  0.0385 -0.0081
  752TMC3    C511165   1.795   3.889  17.716  0.1743  0.6886 -0.5912
  752TMC3    C611166   1.909   3.833   0.032 -0.3567 -0.4706  0.0988
  752TMC3     C11167   1.854   3.810  17.358 -0.0760  1.1726 -0.5844
  752TMC3     O11168   1.879   3.698  17.313  0.4408  0.0421  0.0658
  752TMC3     H11169   2.045   3.707  17.492 -0.1482  0.0333  0.2750
  752TMC3    H111170   1.683   3.941  17.540  0.9497  1.8837  0.6997
  752TMC3    H211171   1.941   3.847   0.135 -0.4992 -0.2335  0.1120
  752TMC3    C711172   1.744   3.993   0.068  0.1236  0.0125 -0.1728
  752TMC3    C811173   2.098   3.682   0.009 -0.2545  0.5621  0.0911
  752TMC3    O111174   1.770   3.977   0.184  0.3334  0.7658 -0.0129
  752TMC3    O211175   2.136   3.711   0.119  0.4539 -0.0236  0.0127
  753TMC3    C111176   3.018   0.461  13.605 -0.2890 -0.2774  0.1489
  753TMC3    C211177   3.091   0.426  13.715 -0.4358 -0.2244 -0.5732
  753TMC3    C311178   3.116   0.294  13.737  0.7952  0.0719  0.5669
  753TMC3    C411179   2.965   0.368  13.517 -0.1313 -0.0991 -0.5016
  753TMC3    C511180   2.992   0.237  13.541 -0.4989 -0.1773  0.1862
  753TMC3    C611181   3.062   0.193  13.657  0.1559  0.4901 -0.1108
  753TMC3     C11182   2.998   0.607  13.587  0.7625 -0.2008 -0.2136
  753TMC3     O11183   3.095   0.672  13.621 -0.4425  0.3181  0.1017
  753TMC3     H11184   3.137   0.506  13.773  1.1014 -0.2779 -1.7341
  753TMC3    H111185   2.899   0.401  13.437  1.2544  0.8027 -1.2638
  753TMC3    H211186   3.089   0.090  13.679  1.8332  1.0930  0.6597
  753TMC3    C711187   2.969   0.149  13.436  0.2779 -0.6394  0.2570
  753TMC3    C811188   3.225   0.250  13.825 -0.3016  0.3734 -0.0100
  753TMC3    O111189   2.950   0.208  13.334 -0.5024 -0.7835 -0.8429
  753TMC3    O211190   3.225   0.133  13.859  0.1156  0.3296 -0.5456
  754MPD2     C11191   2.615   4.092  13.219 -0.2842  0.1484 -0.0426
  754MPD2    C111192   2.639   3.956  13.233  0.4350  0.3223 -0.5647
  754MPD2    C211193   2.534   3.867  13.255  0.5773  0.4065  0.3952
  754MPD2    C311194   2.405   3.918  13.269 -0.5499 -0.1598 -0.2536
  754MPD2    C411195   2.384   4.054  13.284 -0.7132 -0.4931 -0.1693
  754MPD2    C511196   2.491   4.136  13.255  0.0148 -0.2035 -0.0029
  754MPD2     H11197   2.560   3.763  13.275  0.1388  0.0868 -0.6846
  754MPD2    H111198   2.289   4.096  13.315 -0.2036 -1.5907  2.8499
  754MPD2    H211199   2.685   4.166  13.182 -0.5239  1.3574  1.9002
  754MPD2    H311200   2.486   4.245  13.254 -0.9384 -0.2550 -1.4398
  754MPD2     N11201   2.293   3.839  13.307  0.2892 -0.4059  0.0944
  754MPD2    H511202   2.205   3.883  13.333  0.6696 -0.8338  2.1185
  754MPD2    N111203   2.773   3.914  13.249  0.2836 -0.8004 -0.0603
  754MPD2    H711204   2.846   3.984  13.255 -1.6552  1.3137 -1.3263
  755MPD2     C11205   1.427   4.048  13.414 -0.0807 -0.1387 -0.2652
  755MPD2    C111206   1.528   4.049  13.510  0.0612 -0.3959  0.6269
  755MPD2    C211207   1.619   3.949  13.508 -0.2302  0.8320  0.5510
  755MPD2    C311208   1.622   3.846  13.420  0.3360  0.6851 -0.2486
  755MPD2    C411209   1.518   3.845  13.326 -0.5496  0.7054 -0.9495
  755MPD2    C511210   1.424   3.942  13.327 -0.3544 -0.1510  0.0573
  755MPD2     H11211   1.682   3.945  13.596  1.6906  1.0550 -0.8087
  755MPD2    H111212   1.503   3.763  13.256  0.8951  1.3227 -1.9733
  755MPD2    H211213   1.348   4.123  13.412  0.8571  0.8900  1.4173
  755MPD2    H311214   1.336   3.924  13.265 -0.0630 -2.6857  0.3674
  755MPD2     N11215   1.723   3.750  13.418  0.3600 -0.7244 -0.3310
  755MPD2    H511216   1.724   3.686  13.339  1.9174 -1.1217  0.0087
  755MPD2    N111217   1.534   4.138  13.615  0.6207 -0.0889 -0.1320
  755MPD2    H711218   1.604   4.123  13.687 -0.0421  0.1589  0.5671
  756MPD2     C11219   1.339   0.076  10.198  0.0447 -0.1069  0.3213
  756MPD2    C111220   1.400   0.043  10.316  0.2684 -0.0148 -0.1434
  756MPD2    C211221   1.383   4.653  10.364  0.5964  0.2991 -0.2650
  756MPD2    C311222   1.307   4.556  10.292  0.2848 -0.7975  0.6735
  756MPD2    C411223   1.252   4.587  10.165  0.1693 -0.1470  0.1709
  756MPD2    C511224   1.272   4.715  10.126 -0.7313  0.0538  0.2883
  756MPD2     H11225   1.435   4.621  10.454 -1.4590  1.5254  1.3554
  756MPD2    H111226   1.211   4.514  10.096  1.0143  0.1953 -0.6972
  756MPD2    H211227   1.338   0.180  10.166 -3.0816 -0.2846 -0.1879
  756MPD2    H311228   1.217   0.015  10.040  1.4599  1.4816 -0.5392
  756MPD2     N11229   1.301   4.427  10.341  0.1231  0.7393 -0.2183
  756MPD2    H511230   1.353   4.414  10.427 -0.3493 -1.6353 -0.3107
  756MPD2    N111231   1.479   0.140  10.391 -0.1264 -0.3564  0.3922
  756MPD2    H711232   1.517   0.100  10.477  0.1474  0.3051  0.5813
  757MPD2     C11233   1.760   3.605  10.148 -0.4989 -0.2386 -0.0824
  757MPD2    C111234   1.629   3.623  10.090  0.7652  0.0832 -0.2569
  757MPD2    C211235   1.551   3.727  10.142 -0.0207  0.3928  0.0925
  757MPD2    C311236   1.588   3.793  10.258  0.1199  0.0365 -0.3505
  757MPD2    C411237   1.711   3.768  10.315 -0.0737 -0.1246 -0.2672
  757MPD2    C511238   1.797   3.685  10.255 -0.6858  0.5645  0.3209
  757MPD2     H11239   1.453   3.745  10.098  1.3792  1.2126 -2.7143
  757MPD2    H111240   1.731   3.812  10.412  1.3491 -1.5539  0.0758
  757MPD2    H211241   1.827   3.533  10.102  2.4366  0.5570  2.8951
  757MPD2    H311242   1.900   3.676  10.289 -0.0868  2.5867 -0.9523
  757MPD2     N11243   1.485   3.880  10.312  0.4292  0.1534 -0.4364
  757MPD2    H511244   1.394   3.882  10.267  0.6328  1.2223 -0.8077
  757MPD2    N111245   1.588   3.532   9.985  0.0161  0.2518 -0.0587
  757MPD2    H711246   1.639   3.450   9.953  0.2626 -0.8590  3.2130
  758MPD2     C11247   2.241   3.831  16.051  0.3710  0.0856 -0.0754
  758MPD2    C111248   2.340   3.803  16.141 -0.0428  0.2974 -0.1159
  758MPD2    C211249   2.308   3.809  16.276 -0.1469 -0.2950  1.1149
  758MPD2    C311250   2.184   3.859  16.320 -0.4595 -0.7946  1.0535
  758MPD2    C411251   2.086   3.900  16.222 -0.0210 -0.6066 -0.0545
  758MPD2    C511252   2.120   3.879  16.088  0.1402 -0.1876 -0.6535
  758MPD2     H11253   2.379   3.763  16.345  0.8089 -1.7624 -0.8415
  758MPD2    H111254   1.998   3.959  16.245 -0.5811 -0.0647 -3.4923
  758MPD2    H211255   2.262   3.826  15.945 -1.5964  0.2881 -0.4738
  758MPD2    H311256   2.051   3.908  16.010  0.6659  0.0224 -1.0423
  758MPD2     N11257   2.156   3.871  16.460  0.3401  0.8818 -0.5792
  758MPD2    H511258   2.059   3.884  16.486  0.8821 -0.2326  1.9749
  758MPD2    N111259   2.461   3.760  16.080 -0.1387  0.0305 -0.1244
  758MPD2    H711260   2.464   3.757  15.978 -0.4158  2.5302 -0.2118
  759MPD2     C11261   1.370   2.112  10.219  0.2871 -0.1613  0.3847
  759MPD2    C111262   1.253   2.170  10.265  0.3338 -0.4388 -0.7529
  759MPD2    C211263   1.209   2.288  10.209 -0.9820 -0.1667  0.3915
  759MPD2    C311264   1.288   2.348  10.108 -0.3912  0.0840 -0.5727
  759MPD2    C411265   1.412   2.296  10.071  0.0468  0.2184  0.3595
  759MPD2    C511266   1.445   2.175  10.121 -0.4540  0.9256 -0.0388
  759MPD2     H11267   1.108   2.320  10.231 -0.5613  2.0390 -0.8298
  759MPD2    H111268   1.473   2.338   9.992  0.1494  1.5702  1.1673
  759MPD2    H211269   1.403   2.011  10.244  2.1260  0.4109  0.2298
  759MPD2    H311270   1.538   2.135  10.081 -0.8834  0.1747 -0.2968
  759MPD2     N11271   1.236   2.470  10.059  0.3814 -0.1260 -0.8283
  759MPD2    H511272   1.147   2.506  10.093 -0.1421  0.0538 -2.4275
  759MPD2    N111273   1.163   2.104  10.354 -0.8831 -0.1115 -0.4368
  759MPD2    H711274   1.073   2.148  10.369 -1.5999 -2.3164  1.7799
  760MPD2     C11275   0.247   3.840  12.318  0.3648 -1.0403 -0.0357
  760MPD2    C111276   0.367   3.898  12.361 -0.1056 -0.3430  0.6413
  760MPD2    C211277   0.456   3.821  12.437  0.3744 -0.5903 -0.1150
  760MPD2    C311278   0.417   3.702  12.491  0.8571  0.0843 -0.1346
  760MPD2    C411279   0.289   3.657  12.467 -0.8382  0.0151 -0.7175
  760MPD2    C511280   0.216   3.717  12.372 -0.6328 -0.2061 -0.0986
  760MPD2     H11281   0.551   3.870  12.455  1.4481 -2.1718 -1.3662
  760MPD2    H111282   0.256   3.563  12.510  1.1672  0.2785  1.3855
  760MPD2    H211283   0.192   3.883  12.235  0.8183  2.3064  1.4205
  760MPD2    H311284   0.124   3.673  12.335  0.3285  0.7294 -3.5618
  760MPD2     N11285   0.501   3.616  12.565  0.0045  0.5892  0.2643
  760MPD2    H511286   0.454   3.530  12.590  3.1956 -1.2635 -0.0819
  760MPD2    N111287   0.409   4.029  12.325 -0.6177  0.0689  0.6905
  760MPD2    H711288   0.500   4.048  12.365 -1.1008  0.9687  1.3660
  761MPD2     C11289   1.586   3.880  11.384 -0.7815 -0.5548 -0.1467
  761MPD2    C111290   1.660   3.823  11.278  0.1173  0.3552 -0.5387
  761MPD2    C211291   1.787   3.878  11.246  0.2067  0.8422  0.0659
  761MPD2    C311292   1.843   3.983  11.320 -0.1699  0.5491  0.0662
  761MPD2    C411293   1.775   4.017  11.435  0.2949 -0.0875 -0.2135
  761MPD2    C511294   1.654   3.968  11.467 -0.4166 -0.5897 -0.5450
  761MPD2     H11295   1.837   3.845  11.156 -3.0710 -0.4466 -1.2981
  761MPD2    H111296   1.816   4.089  11.505 -0.9694  0.4217  0.0185
  761MPD2    H211297   1.490   3.838  11.411 -1.6598  1.1349 -0.6597
  761MPD2    H311298   1.604   3.998  11.559  1.3573 -0.9525  0.5266
  761MPD2     N11299   1.964   4.047  11.285 -0.3843  0.1738  0.9937
  761MPD2    H511300   1.997   4.123  11.343 -1.3366  0.3380  1.3200
  761MPD2    N111301   1.604   3.711  11.205 -0.2087 -0.8741  0.2050
  761MPD2    H711302   1.507   3.686  11.226 -0.2653  0.3684  1.4120
  762MPD2     C11303   1.688   3.085  10.570 -0.0833  0.3612 -0.1783
  762MPD2    C111304   1.776   3.177  10.631  0.1611 -0.0541 -0.3604
  762MPD2    C211305   1.867   3.247  10.549  0.2615 -0.1764  0.2107
  762MPD2    C311306   1.865   3.222  10.414 -0.3340  0.1658 -0.3184
  762MPD2    C411307   1.781   3.126  10.356 -0.1491 -0.0692  0.5155
  762MPD2    C511308   1.689   3.061  10.433 -0.7094  0.7231  0.0841
  762MPD2     H11309   1.927   3.320  10.601  1.7735 -1.1807 -0.1463
  762MPD2    H111310   1.781   3.103  10.250 -0.3732  0.7898  0.3322
  762MPD2    H211311   1.619   3.035  10.638 -0.8701  1.5732 -0.0715
  762MPD2    H311312   1.616   2.994  10.389 -0.6377  0.9733 -0.4194
  762MPD2     N11313   1.970   3.268  10.338  0.0509 -0.4027  0.0609
  762MPD2    H511314   2.042   3.320  10.387 -0.8266  1.0158 -0.1537
  762MPD2    N111315   1.740   3.213  10.760  0.2558  0.4980 -0.0052
  762MPD2    H711316   1.666   3.158  10.802  1.4606 -1.2170 -0.1510
  763MPD2     C11317   4.465   3.741  16.406 -0.0693  0.2225 -0.1729
  763MPD2    C111318   4.377   3.783  16.310 -0.3354 -0.1886  0.1933
  763MPD2    C211319   4.312   3.896  16.325  0.0094  0.7965 -0.2620
  763MPD2    C311320   4.326   3.973  16.438 -0.0204  0.5130  0.0777
  763MPD2    C411321   4.417   3.933  16.531 -0.1608  0.6234 -0.4320
  763MPD2    C511322   4.501   3.823  16.508  0.2675 -0.4408 -0.5994
  763MPD2     H11323   4.250   3.932  16.244  0.4628 -0.2111 -1.0484
  763MPD2    H111324   4.435   3.983  16.625 -0.9122 -0.5699  0.3480
  763MPD2    H211325   4.501   3.638  16.411 -0.1898  0.2139  0.4467
  763MPD2    H311326   4.561   3.788  16.591 -0.6633  1.2506  0.7990
  763MPD2     N11327   4.244   4.083  16.477 -0.2067 -0.1796  0.2980
  763MPD2    H511328   4.275   4.131  16.561 -0.5749  0.5368  0.0271
  763MPD2    N111329   4.354   3.712  16.195 -0.3507 -0.0302 -0.0243
  763MPD2    H711330   4.278   3.754  16.143  2.3686  0.6453 -3.4008
  764MPD2     C11331   3.044   0.769  17.700 -0.5509  0.6207  0.0540
  764MPD2    C111332   2.911   0.743  17.695  0.7070 -1.2278  0.0605
  764MPD2    C211333   2.848   0.693   0.073 -0.1206  0.0458  1.4625
  764MPD2    C311334   2.922   0.656   0.184  0.1486  0.2270 -0.2149
  764MPD2    C411335   3.061   0.678   0.181  0.4951  0.3699  0.1508
  764MPD2    C511336   3.122   0.738   0.075 -0.2930 -0.1411  0.2759
  764MPD2     H11337   2.741   0.674   0.074  0.0556 -1.0495 -0.5689
  764MPD2    H111338   3.122   0.648   0.265 -0.4275 -0.7752  0.4105
  764MPD2    H211339   3.103   0.795  17.613 -0.1525  1.6754  0.6528
  764MPD2    H311340   3.226   0.769   0.076 -0.3911  0.2165 -0.9252
  764MPD2     N11341   2.848   0.612   0.297  0.3805  0.1628  0.5430
  764MPD2    H511342   2.747   0.617   0.286  0.6546  1.0471 -1.6391
  764MPD2    N111343   2.833   0.752  17.576 -0.6808 -0.0165  0.4296
  764MPD2    H711344   2.734   0.731  17.590 -1.3624  1.4979 -1.9997
  765MPD2     C11345   1.961   2.798  16.195  0.3326  0.1414  0.7879
  765MPD2    C111346   2.011   2.871  16.087  0.1358  0.1324  0.3529
  765MPD2    C211347   2.135   2.840  16.035  0.4027 -0.5349  0.0902
  765MPD2    C311348   2.203   2.721  16.077  0.2508 -0.3459  0.0192
  765MPD2    C411349   2.150   2.660  16.191 -0.4898 -0.2825 -0.8830
  765MPD2    C511350   2.036   2.697  16.248 -0.3024 -0.2997  0.8878
  765MPD2     H11351   2.177   2.898  15.954 -1.1633  0.7260  0.1913
  765MPD2    H111352   2.217   2.590  16.240  0.2274  3.4618  3.4216
  765MPD2    H211353   1.865   2.815  16.243 -0.4536 -0.8025 -0.4335
  765MPD2    H311354   2.001   2.647  16.338 -1.8419  1.0998  1.0589
  765MPD2     N11355   2.323   2.692  16.001  0.6254  0.0370  0.1934
  765MPD2    H511356   2.339   2.753  15.921  0.7399 -0.3157 -0.0485
  765MPD2    N111357   1.933   2.977  16.038 -0.2268 -0.0425 -0.2317
  765MPD2    H711358   1.835   2.972  16.064  0.9694 -3.0667  3.7704
  766MPD2     C11359   1.321   3.151  15.519 -0.4415  0.0481  0.4024
  766MPD2    C111360   1.456   3.153  15.548  0.9823  0.6992  0.4097
  766MPD2    C211361   1.538   3.123  15.445 -0.2105 -0.3974  0.5639
  766MPD2    C311362   1.501   3.105  15.312  0.0891 -0.4913 -0.6914
  766MPD2    C411363   1.368   3.111  15.288  0.3930  0.0070  0.4175
  766MPD2    C511364   1.278   3.125  15.394  0.2035  0.0258  0.0240
  766MPD2     H11365   1.644   3.132  15.468  0.0350  1.1954 -1.1578
  766MPD2    H111366   1.324   3.106  15.189  1.6711  2.5047 -0.2569
  766MPD2    H211367   1.253   3.172  15.601 -0.7363  2.3327 -0.4357
  766MPD2    H311368   1.172   3.125  15.375  0.0435 -3.2987  1.0266
  766MPD2     N11369   1.595   3.096  15.213  0.6308 -0.4580  0.2609
  766MPD2    H511370   1.569   3.120  15.118  1.6830 -2.7043 -0.6060
  766MPD2    N111371   1.501   3.201  15.674 -0.1539  0.8424  0.1133
  766MPD2    H711372   1.437   3.240  15.743 -0.7223  0.0791  0.0130
  767MPD2     C11373   1.185   3.341  15.160 -1.0266 -0.3067  0.3931
  767MPD2    C111374   1.319   3.364  15.134  0.3236 -0.1215 -0.6607
  767MPD2    C211375   1.375   3.314  15.019 -0.3707  0.1541 -0.1335
  767MPD2    C311376   1.301   3.261  14.924  0.1627  0.0397 -0.6315
  767MPD2    C411377   1.167   3.240  14.945 -0.2912 -1.2035  0.1487
  767MPD2    C511378   1.105   3.271  15.067 -0.5270 -0.8988  0.2473
  767MPD2     H11379   1.482   3.320  15.004 -0.0344 -0.4538  2.0964
  767MPD2    H111380   1.112   3.184  14.870  0.2565 -0.7257 -0.6020
  767MPD2    H211381   1.128   3.379  15.244  0.8299 -2.0893  2.4399
  767MPD2    H311382   0.999   3.272  15.087 -0.1318 -0.8767  2.3172
  767MPD2     N11383   1.361   3.231  14.799  0.7101  1.0900  0.0571
  767MPD2    H511384   1.461   3.246  14.793  0.9913 -1.2173 -0.8405
  767MPD2    N111385   1.394   3.434  15.232 -0.2028  0.1905 -0.1229
  767MPD2    H711386   1.351   3.467  15.317  1.7620  2.0015  0.1547
  768MPD2     C11387   2.145   2.679  10.434 -0.0731 -0.0013  0.4241
  768MPD2    C111388   2.112   2.623  10.555 -0.2208 -0.0455 -0.0577
  768MPD2    C211389   2.213   2.597  10.648 -0.2308 -0.7019 -0.1906
  768MPD2    C311390   2.350   2.621  10.619 -0.6839  0.3772  0.4951
  768MPD2    C411391   2.381   2.688  10.499 -0.7038 -0.0457  0.0650
  768MPD2    C511392   2.271   2.717  10.412 -0.7265 -0.0337 -0.0649
  768MPD2     H11393   2.187   2.561  10.747 -3.6401 -0.7622 -1.1034
  768MPD2    H111394   2.481   2.721  10.473 -0.1498  0.5392  2.8790
  768MPD2    H211395   2.068   2.714  10.367 -0.7913 -0.9025  0.7782
  768MPD2    H311396   2.287   2.774  10.321 -0.7163 -0.1186 -0.1160
  768MPD2     N11397   2.458   2.599  10.711  0.1928 -0.5847  0.3773
  768MPD2    H511398   2.553   2.627  10.687  0.4248 -0.8859  0.9380
  768MPD2    N111399   1.979   2.598  10.600 -0.2020  0.1977 -0.3357
  768MPD2    H711400   1.963   2.570  10.697  2.1526  2.5286  0.7100
  769MPD2     C11401   3.258   0.293  15.012 -0.7434 -0.1393  1.3467
  769MPD2    C111402   3.179   0.225  15.105  0.2096  0.3393  0.4643
  769MPD2    C211403   3.210   0.208  15.239 -0.1014  0.4192 -0.1520
  769MPD2    C311404   3.330   0.267  15.285  0.3743  0.4645  0.0904
  769MPD2    C411405   3.417   0.331  15.188 -0.4217 -0.8629  0.3925
  769MPD2    C511406   3.377   0.340  15.060  0.2959  0.0622  0.1909
  769MPD2     H11407   3.139   0.164  15.307  0.0364 -1.8552 -1.4850
  769MPD2    H111408   3.515   0.372  15.210 -0.2139 -0.7184 -0.8084
  769MPD2    H211409   3.221   0.318  14.914 -0.6153 -3.2361  0.5212
  769MPD2    H311410   3.445   0.383  14.986  0.7391 -0.4129  0.3265
  769MPD2     N11411   3.352   0.273  15.429 -0.2524  0.3201 -0.7803
  769MPD2    H511412   3.278   0.235  15.487  1.0550  0.9203  1.2919
  769MPD2    N111413   3.059   0.189  15.045 -0.1275  0.2377  0.5033
  769MPD2    H711414   3.043   0.204  14.946 -1.7005 -0.2347  0.6742
  770MPD2     C11415   2.333   4.201  15.095  0.9546  0.0046 -0.2831
  770MPD2    C111416   2.465   4.193  15.062  0.7366  0.7825 -0.5661
  770MPD2    C211417   2.536   4.315  15.040 -0.2646 -0.6850 -0.1603
  770MPD2    C311418   2.468   4.434  15.044 -0.1237  0.0214 -0.4043
  770MPD2    C411419   2.328   4.438  15.070 -0.5129 -0.4031  0.1403
  770MPD2    C511420   2.267   4.323  15.096  0.0919  0.0167  0.4880
  770MPD2     H11421   2.644   4.314  15.030 -0.1217  0.9286  1.1337
  770MPD2    H111422   2.272   4.531  15.060 -3.6945 -2.1026  2.2283
  770MPD2    H211423   2.266   4.117  15.114  1.2473  0.0964  1.1426
  770MPD2    H311424   2.159   4.326  15.105 -0.0845  0.0984 -1.7196
  770MPD2     N11425   2.553   4.549  15.021  0.7103  0.0971  0.0285
  770MPD2    H511426   2.652   4.529  15.012  0.5984  0.2609 -1.5406
  770MPD2    N111427   2.529   4.071  15.061 -0.5972  0.2005  0.1590
  770MPD2    H711428   2.478   4.001  15.114  0.7671 -0.9236 -0.0079
  771MPD2     C11429   4.036   2.737  13.677 -0.1096  0.7700  0.4290
  771MPD2    C111430   3.983   2.830  13.587 -0.3076 -0.4787 -0.8010
  771MPD2    C211431   3.935   2.787  13.462 -0.3593  0.2722  1.0369
  771MPD2    C311432   3.936   2.655  13.417 -0.3921 -0.8267  1.4391
  771MPD2    C411433   3.985   2.567  13.511  0.3409 -0.1264 -0.4703
  771MPD2    C511434   4.031   2.603  13.636 -0.2783 -0.1056 -0.0851
  771MPD2     H11435   3.906   2.867  13.395 -1.5804  0.4859  1.8084
  771MPD2    H111436   3.987   2.459  13.501 -0.7167 -0.0432 -1.4798
  771MPD2    H211437   4.059   2.759  13.781  1.6197 -0.7710  0.3556
  771MPD2    H311438   4.050   2.524  13.707 -0.2033 -0.3303 -0.3565
  771MPD2     N11439   3.884   2.614  13.296  0.3843  0.0159  0.5809
  771MPD2    H511440   3.828   2.689  13.257 -0.0377 -0.1515  0.8701
  771MPD2    N111441   3.964   2.968  13.617 -0.0920 -0.7340  0.1818
  771MPD2    H711442   3.922   3.025  13.544  2.2221 -1.0944 -1.4352
  772MPD2     C11443   3.584   3.539  14.100  0.3677 -0.3108  0.6227
  772MPD2    C111444   3.591   3.410  14.061 -0.5648 -0.1861  0.0027
  772MPD2    C211445   3.471   3.338  14.066  0.3491  0.3754  0.2185
  772MPD2    C311446   3.352   3.380  14.133 -1.1332  0.0527  0.0278
  772MPD2    C411447   3.351   3.511  14.172 -0.2843 -0.4937  0.3679
  772MPD2    C511448   3.465   3.586  14.152  0.5142 -0.1070  0.3000
  772MPD2     H11449   3.471   3.235  14.032 -1.6064  0.2069  0.7161
  772MPD2    H111450   3.259   3.549  14.214 -0.6381  0.1758 -1.0214
  772MPD2    H211451   3.674   3.599  14.108  0.4152  0.0490 -2.4610
  772MPD2    H311452   3.471   3.691  14.179 -0.5940 -0.2868  1.2230
  772MPD2     N11453   3.234   3.308  14.141  0.0099 -0.1066  0.3781
  772MPD2    H511454   3.154   3.365  14.165  1.6587  0.7735  3.6980
  772MPD2    N111455   3.706   3.346  14.002  0.0701  0.5476 -0.6591
  772MPD2    H711456   3.688   3.260  13.951 -0.7498  0.5503 -0.3722
  773MPD2     C11457   3.433   3.859   0.614 -0.1735  0.0457  0.0824
  773MPD2    C111458   3.349   3.753   0.570  0.5155 -0.0165  0.8847
  773MPD2    C211459   3.407   3.627   0.557 -0.4589 -0.6970  0.0899
  773MPD2    C311460   3.542   3.608   0.592  0.5374 -0.3889 -0.6614
  773MPD2    C411461   3.603   3.713   0.658 -0.5465  0.3604 -0.3370
  773MPD2    C511462   3.554   3.841   0.661 -0.6565  1.0499  0.0556
  773MPD2     H11463   3.353   3.547   0.508  0.5734 -0.8005 -0.8988
  773MPD2    H111464   3.697   3.687   0.706  0.4727 -0.2278 -2.6489
  773MPD2    H211465   3.386   3.956   0.621  0.0153  0.1196  0.3312
  773MPD2    H311466   3.609   3.921   0.710  1.8776  0.2358 -1.4820
  773MPD2     N11467   3.612   3.480   0.577  0.3480  0.6716 -0.1749
  773MPD2    H511468   3.552   3.415   0.527  0.8580  0.0591  0.0263
  773MPD2    N111469   3.224   3.762   0.521 -0.0229 -0.2270  0.0129
  773MPD2    H711470   3.181   3.675   0.489  0.0898  0.2537 -1.4629
  774MPD2     C11471   2.853   2.945  13.530 -0.3216  0.3418  0.3787
  774MPD2    C111472   2.736   3.017  13.547  0.2015 -0.0949  0.9427
  774MPD2    C211473   2.744   3.155  13.567 -0.0563 -0.1039  0.8780
  774MPD2    C311474   2.865   3.216  13.550  0.1293 -0.2356 -0.8603
  774MPD2    C411475   2.984   3.145  13.533 -0.1016  0.8381 -0.0517
  774MPD2    C511476   2.972   3.010  13.529  0.0444  0.1470 -0.4836
  774MPD2     H11477   2.658   3.221  13.575  0.3189  0.5150 -0.0864
  774MPD2    H111478   3.082   3.185  13.509  0.1908  0.3725  0.3418
  774MPD2    H211479   2.840   2.838  13.516 -0.8047  0.2338  1.6830
  774MPD2    H311480   3.057   2.946  13.507 -1.2867 -1.6526 -0.3824
  774MPD2     N11481   2.864   3.358  13.540 -0.6222 -0.0732  0.2111
  774MPD2    H511482   2.775   3.406  13.551  0.2135  1.2347  1.2577
  774MPD2    N111483   2.616   2.946  13.573  0.1555 -0.5892  0.5489
  774MPD2    H711484   2.616   2.844  13.574  0.7113 -0.5989 -0.2237
  775MPD2     C11485   3.582   4.554  15.834  0.4233  0.2811 -0.1190
  775MPD2    C111486   3.616   4.666  15.901 -1.3073 -0.1605  0.3343
  775MPD2    C211487   3.675   0.033  15.830  0.8454 -0.0977  0.5808
  775MPD2    C311488   3.710   0.018  15.700  0.5157 -0.4620 -0.4225
  775MPD2    C411489   3.675   4.637  15.635  0.0136  0.2714  0.0115
  775MPD2    C511490   3.610   4.533  15.698 -0.1641  0.8472 -0.5254
  775MPD2     H11491   3.705   0.126  15.877 -0.4853 -0.1408  1.5072
  775MPD2    H111492   3.710   4.605  15.538  0.7047  1.4475 -0.1334
  775MPD2    H211493   3.529   4.477  15.889  0.6041 -1.0334 -1.8010
  775MPD2    H311494   3.586   4.440  15.646 -1.7086  0.9421  0.0460
  775MPD2     N11495   3.793   0.106  15.624 -0.4546 -0.2844  0.4219
  775MPD2    H511496   3.817   0.067  15.533  0.4992 -1.0439  0.9974
  775MPD2    N111497   3.571   4.673  16.035  0.2382 -0.3370 -0.6733
  775MPD2    H711498   3.522   4.589  16.060  2.4532 -0.4893  3.0863
  776MPD2     C11499   1.912   0.351  11.954 -0.1132  0.4320 -0.3712
  776MPD2    C111500   2.043   0.357  11.902 -0.1223 -0.7237  0.5138
  776MPD2    C211501   2.077   0.472  11.835  0.1208 -0.1698 -0.2492
  776MPD2    C311502   1.994   0.578  11.824 -0.1883  0.3125 -0.2136
  776MPD2    C411503   1.867   0.572  11.870 -0.2276 -0.5102 -0.2988
  776MPD2    C511504   1.828   0.460  11.941  0.6159  0.5931  0.0901
  776MPD2     H11505   2.176   0.480  11.792 -0.6456 -0.0791 -1.9900
  776MPD2    H111506   1.802   0.658  11.860 -2.1594 -1.6704  2.4803
  776MPD2    H211507   1.875   0.259  11.995  2.3031  0.9203  2.9115
  776MPD2    H311508   1.729   0.461  11.985  0.8086  1.8491  0.5058
  776MPD2     N11509   2.025   0.695  11.749 -0.0827 -0.1140 -1.1743
  776MPD2    H511510   1.956   0.769  11.747 -0.7299 -0.6247  2.4993
  776MPD2    N111511   2.126   0.242  11.913 -0.7016 -0.7097 -0.1288
  776MPD2    H711512   2.085   0.156  11.948 -1.0119 -0.6927 -0.4564
  777MPD2     C11513   3.470   2.940   0.889  0.0021 -0.2505 -0.2119
  777MPD2    C111514   3.365   2.926   0.961 -0.4959  0.0860 -0.8403
  777MPD2    C211515   3.249   2.860   0.915 -0.1519 -0.0842 -0.3261
  777MPD2    C311516   3.247   2.801   0.786  0.4967 -0.3732  0.4223
  777MPD2    C411517   3.366   2.803   0.721 -0.0362 -0.6160 -0.0947
  777MPD2    C511518   3.474   2.873   0.774 -0.7861  0.8116  0.1619
  777MPD2     H11519   3.162   2.862   0.979 -1.7105  1.0627 -2.4687
  777MPD2    H111520   3.380   2.759   0.623  1.6106 -0.1890 -0.0610
  777MPD2    H211521   3.561   2.991   0.920  0.1309 -0.9913  0.6076
  777MPD2    H311522   3.566   2.873   0.717 -0.0150  1.8208  1.3972
  777MPD2     N11523   3.129   2.742   0.743 -0.5370 -0.6344 -0.0884
  777MPD2    H511524   3.044   2.744   0.799 -0.3708  1.3400  0.0606
  777MPD2    N111525   3.370   2.964   1.095 -0.0313  0.2704 -0.1561
  777MPD2    H711526   3.449   3.024   1.117 -1.9108  2.4496  0.6064
  778MPD2     C11527   4.319   2.889  15.008 -0.3196  0.7317 -0.4916
  778MPD2    C111528   4.329   2.786  14.911  0.0076  0.3457 -0.5480
  778MPD2    C211529   4.416   2.817  14.803  0.4916 -0.5228  0.4711
  778MPD2    C311530   4.482   2.935  14.786 -0.3081 -0.1695 -0.2435
  778MPD2    C411531   4.451   3.037  14.878  0.8956  0.6529  0.2755
  778MPD2    C511532   4.376   3.008  14.987  0.1343  0.6082  0.7422
  778MPD2     H11533   4.436   2.732  14.739 -0.3739  1.1262 -2.0262
  778MPD2    H111534   4.500   3.133  14.879  2.9187 -0.3616 -2.4421
  778MPD2    H211535   4.268   2.860  15.100 -0.7041 -0.1321 -0.9799
  778MPD2    H311536   4.367   3.092  15.055  3.2735  0.3941  1.4451
  778MPD2     N11537   4.569   2.962  14.678 -0.3166 -0.3425  0.0255
  778MPD2    H511538   4.585   2.877  14.624  0.8983  0.6939 -1.2445
  778MPD2    N111539   4.251   2.664  14.912  0.1247  0.5432 -0.4350
  778MPD2    H711540   4.243   2.624  14.819 -0.4355 -0.4881  0.0589
  779MPD2     C11541   3.611   1.380  14.190  0.7283  0.5813 -0.3078
  779MPD2    C111542   3.731   1.343  14.253  0.3309  0.7754 -0.5990
  779MPD2    C211543   3.804   1.444  14.320 -0.3902 -0.8417  0.2687
  779MPD2    C311544   3.757   1.578  14.317  0.3438 -0.0722 -0.0099
  779MPD2    C411545   3.647   1.610  14.255 -0.2301 -1.0420  0.5699
  779MPD2    C511546   3.580   1.515  14.187 -0.5926  0.4225  0.0164
  779MPD2     H11547   3.903   1.432  14.362 -1.0215 -1.0665  1.6944
  779MPD2    H111548   3.626   1.715  14.240 -0.0552 -0.8431  1.7216
  779MPD2    H211549   3.541   1.313  14.141  0.3664 -0.4372  1.5818
  779MPD2    H311550   3.488   1.545  14.139 -0.9045  2.0973  1.6450
  779MPD2     N11551   3.823   1.688  14.372 -0.0181 -0.2719  0.0114
  779MPD2    H511552   3.781   1.781  14.369 -2.1670 -1.1701  1.9164
  779MPD2    N111553   3.784   1.214  14.246  0.3021 -0.0037 -0.3237
  779MPD2    H711554   3.867   1.200  14.303 -0.0679  0.3020  0.2971
  780MPD2     C11555   2.999   1.832   0.884  0.5185 -0.3363 -0.2698
  780MPD2    C111556   3.014   1.709   0.828  0.2606  0.0185 -0.6450
  780MPD2    C211557   3.099   1.705   0.713 -0.5692  0.0601  0.2428
  780MPD2    C311558   3.186   1.812   0.676  0.6759 -0.2030  0.0615
  780MPD2    C411559   3.176   1.923   0.753 -0.2583  0.3096  0.5437
  780MPD2    C511560   3.082   1.932   0.848  0.3441  0.0838 -0.2257
  780MPD2     H11561   3.122   1.607   0.673  0.6704 -0.5593  2.4766
  780MPD2    H111562   3.235   2.010   0.726 -0.8873  0.3013 -0.8470
  780MPD2    H211563   2.932   1.851   0.967  1.6004 -0.8724  0.7275
  780MPD2    H311564   3.078   2.028   0.897 -0.9013 -0.3563  0.5414
  780MPD2     N11565   3.273   1.801   0.565 -0.2998  0.1818 -0.3928
  780MPD2    H511566   3.275   1.712   0.516 -0.8317  1.0654 -2.0019
  780MPD2    N111567   2.932   1.604   0.873 -0.2994  0.3179 -0.2317
  780MPD2    H711568   2.863   1.626   0.943 -0.1788  2.4206 -0.7782
  781MPD2     C11569   4.143   4.044  12.570 -0.1576 -0.0440  0.0445
  781MPD2    C111570   4.151   3.915  12.504  0.3049 -0.8757 -0.1514
  781MPD2    C211571   4.142   3.920  12.359  0.1009  0.7360  0.1648
  781MPD2    C311572   4.126   4.033  12.281 -0.6812 -0.1524  0.1413
  781MPD2    C411573   4.128   4.149  12.356  0.2552  0.7514  0.1105
  781MPD2    C511574   4.126   4.154  12.492 -0.3440 -0.0749 -0.0022
  781MPD2     H11575   4.144   3.821  12.316 -0.9273  0.7339  0.1279
  781MPD2    H111576   4.101   4.243  12.310 -2.5541 -0.9753 -1.7766
  781MPD2    H211577   4.156   4.056  12.677 -0.3385  0.4692  0.0069
  781MPD2    H311578   4.103   4.251  12.534 -0.0178 -0.0181  0.0379
  781MPD2     N11579   4.115   4.036  12.140  0.6149  0.2373  0.3374
  781MPD2    H511580   4.083   4.125  12.103 -1.8241 -0.5564  0.5710
  781MPD2    N111581   4.187   3.794  12.565  0.6167 -0.1976 -0.1804
  781MPD2    H711582   4.193   3.713  12.504  0.3117  0.3455 -0.9337
  782MPD2     C11583   3.165   4.222  10.055 -0.7753  0.1838  0.5151
  782MPD2    C111584   3.199   4.268  10.180  0.1377 -0.3622 -0.4250
  782MPD2    C211585   3.190   4.405  10.206 -0.1889 -0.1957 -0.0115
  782MPD2    C311586   3.126   4.483  10.109 -0.7562 -0.0150  0.7022
  782MPD2    C411587   3.071   4.437   9.993 -0.4786  1.1838  0.5503
  782MPD2    C511588   3.096   4.300   9.965 -0.2054 -0.8476 -0.4400
  782MPD2     H11589   3.218   4.448  10.302 -0.8003  0.9498 -0.3434
  782MPD2    H111590   3.023   4.502   9.921 -0.7366  0.6363  0.2316
  782MPD2    H211591   3.176   4.117  10.029 -1.3493  0.7827 -2.0531
  782MPD2    H311592   3.066   4.255   9.871 -1.7330 -0.3499 -0.1910
  782MPD2     N11593   3.088   4.605  10.169  0.3412  0.1085 -0.6613
  782MPD2    H511594   3.125   4.622  10.262 -1.3782  0.3795 -0.0288
  782MPD2    N111595   3.249   4.180  10.280  0.3563  0.1267  0.0756
  782MPD2    H711596   3.234   4.082  10.258 -1.1579  0.2620  0.4796
  783MPD2     C11597   2.430   3.884  10.633  0.1660  0.2977 -0.1967
  783MPD2    C111598   2.468   3.989  10.717  0.3239 -1.1583  0.1706
  783MPD2    C211599   2.599   4.027  10.702 -0.2770  0.1081 -0.5416
  783MPD2    C311600   2.685   3.964  10.611 -0.4128  0.4936 -1.0152
  783MPD2    C411601   2.638   3.858  10.541  0.2434  0.2734 -0.0745
  783MPD2    C511602   2.515   3.816  10.558 -0.5035 -0.2666 -0.2666
  783MPD2     H11603   2.647   4.102  10.764 -2.4231  2.2478 -1.4688
  783MPD2    H111604   2.695   3.790  10.479  0.4040  0.1023  0.2580
  783MPD2    H211605   2.333   3.835  10.641  1.7303 -3.0484 -1.9639
  783MPD2    H311606   2.488   3.731  10.497  0.5775 -1.2186  0.5811
  783MPD2     N11607   2.823   3.996  10.614  0.2359  0.9985  0.2770
  783MPD2    H511608   2.850   4.068  10.680 -0.9788  0.6384  1.1550
  783MPD2    N111609   2.380   4.056  10.810  0.4871 -0.1163 -0.3008
  783MPD2    H711610   2.283   4.025  10.817  0.2880  1.0320  2.0201
  784MPD2     C11611   0.107   0.132   1.323  0.6163  0.4494  0.0781
  784MPD2    C111612   0.122   0.227   1.226 -0.1887  0.0667 -0.0702
  784MPD2    C211613   0.015   0.294   1.184  0.2625 -0.3904 -0.3648
  784MPD2    C311614   4.623   0.265   1.230 -0.6179  0.0085  0.6249
  784MPD2    C411615   4.605   0.169   1.321 -0.0412 -0.1882 -0.3354
  784MPD2    C511616   4.716   0.109   1.370  0.4290  0.0640  0.1094
  784MPD2     H11617   0.031   0.379   1.117  1.5785 -0.4235 -0.0837
  784MPD2    H111618   4.507   0.132   1.346 -0.5159  0.9038 -0.5643
  784MPD2    H211619   0.188   0.074   1.366  0.9452 -2.0165 -3.8738
  784MPD2    H311620   4.700   0.028   1.441  1.0620  0.3541  0.5783
  784MPD2     N11621   4.519   0.343   1.176 -0.0080  0.2069 -0.0568
  784MPD2    H511622   4.541   0.413   1.106 -0.6532  0.8981  0.4452
  784MPD2    N111623   0.252   0.257   1.178  0.0657  0.0226 -0.0609
  784MPD2    H711624   0.262   0.334   1.113  2.2636 -0.2351 -0.0186
  785MPD2     C11625   0.923   2.814  11.577  0.0738  0.2315  0.0152
  785MPD2    C111626   0.889   2.842  11.447 -0.1863  0.3654  0.3069
  785MPD2    C211627   0.860   2.740  11.361 -0.5967 -0.1957  0.3545
  785MPD2    C311628   0.859   2.610  11.400 -0.0475  0.1479  0.3442
  785MPD2    C411629   0.909   2.584  11.525  0.1794 -0.0532  0.7730
  785MPD2    C511630   0.942   2.685  11.613  0.3372 -0.3188 -0.3668
  785MPD2     H11631   0.828   2.766  11.261 -1.1965  2.1513  1.1498
  785MPD2    H111632   0.925   2.485  11.566  2.8448 -0.3421 -0.9855
  785MPD2    H211633   0.927   2.886  11.658  1.0498  1.4367 -1.0964
  785MPD2    H311634   0.980   2.654  11.710  0.9176  1.1835 -0.1057
  785MPD2     N11635   0.811   2.513  11.305  0.5306  0.0875  0.0594
  785MPD2    H511636   0.781   2.548  11.214  1.8703  3.1216  0.8117
  785MPD2    N111637   0.891   2.978  11.407  0.2941 -0.1051  0.1526
  785MPD2    H711638   0.887   3.050  11.478  1.9966  1.6371 -1.5378
  786MPD2     C11639   4.676   1.259  14.503 -0.1845 -0.3551  0.6504
  786MPD2    C111640   4.656   1.138  14.572 -1.0699 -0.1549  0.5991
  786MPD2    C211641   4.727   1.118  14.685  0.5029 -0.5770  0.5410
  786MPD2    C311642   0.078   1.214  14.730  0.6872 -0.5625 -0.7456
  786MPD2    C411643   0.102   1.329  14.664 -0.0353 -0.1517  0.0927
  786MPD2    C511644   0.024   1.354  14.557 -0.1319 -0.0898 -0.2432
  786MPD2     H11645   4.708   1.020  14.730 -1.2700 -0.6597 -0.3800
  786MPD2    H111646   0.167   1.406  14.705 -0.3227 -0.5944  1.3763
  786MPD2    H211647   4.621   1.290  14.414  0.7508 -1.6404 -0.3668
  786MPD2    H311648   0.017   1.449  14.504 -0.4993  1.1334  1.9870
  786MPD2     N11649   0.158   1.200  14.843 -0.3720 -0.8233  0.2171
  786MPD2    H511650   0.221   1.276  14.866 -1.2028 -0.3694  1.0066
  786MPD2    N111651   4.601   1.025  14.510  0.0917  0.5635 -0.4251
  786MPD2    H711652   4.596   0.940  14.565  1.3340  1.4791  1.0984
  787MPD2     C11653   4.314   0.314  14.627 -0.1285 -0.8011 -0.5496
  787MPD2    C111654   4.440   0.376  14.611 -0.5048 -0.7213  0.3357
  787MPD2    C211655   4.554   0.346  14.696  0.4920  0.1241 -0.2611
  787MPD2    C311656   4.531   0.258  14.803  0.6395  0.7466 -0.1186
  787MPD2    C411657   4.401   0.211  14.823  0.0052 -0.5209  0.1693
  787MPD2    C511658   4.298   0.229  14.733  0.3887 -0.4306  0.1427
  787MPD2     H11659   4.652   0.389  14.681 -0.0377  2.4366  2.8178
  787MPD2    H111660   4.379   0.142  14.904  1.3421 -1.0604  0.0694
  787MPD2    H211661   4.225   0.320  14.566  0.9087 -1.2681 -2.1074
  787MPD2    H311662   4.205   0.176  14.746  0.2147 -0.0755  0.3486
  787MPD2     N11663   4.639   0.227  14.894 -0.0176 -0.1757 -0.7420
  787MPD2    H511664   4.728   0.271  14.871  0.7128 -1.2388  0.0538
  787MPD2    N111665   4.447   0.471  14.503  0.6440 -0.1257  0.3513
  787MPD2    H711666   4.361   0.481  14.449  1.3331  1.2060 -0.4969
  788MPD2     C11667   2.304   3.910   1.192  0.0148  0.9710  0.0242
  788MPD2    C111668   2.179   3.864   1.173 -0.3474  0.4885 -0.3396
  788MPD2    C211669   2.084   3.941   1.105 -0.2723 -0.4927 -0.6604
  788MPD2    C311670   2.119   4.071   1.077  0.3265 -0.1307  0.0827
  788MPD2    C411671   2.240   4.121   1.117 -0.0206  0.0531  1.2231
  788MPD2    C511672   2.339   4.044   1.167  0.6831  0.2264 -0.8079
  788MPD2     H11673   1.985   3.904   1.083 -1.3942  3.4639 -2.3951
  788MPD2    H111674   2.257   4.228   1.121  0.6026  0.0456 -1.3547
  788MPD2    H211675   2.383   3.850   1.234  0.0675  0.7036 -0.4544
  788MPD2    H311676   2.434   4.090   1.192  0.8580  0.2043 -1.4463
  788MPD2     N11677   2.034   4.157   1.006  0.1753 -0.5038  0.1158
  788MPD2    H511678   2.074   4.250   0.994 -0.0941 -0.6202 -1.6994
  788MPD2    N111679   2.157   3.720   1.186 -0.1324 -0.3897  0.0634
  788MPD2    H711680   2.077   3.680   1.138  0.3172  0.5434 -1.4450
  789MPD2     C11681   2.098   3.445  16.919  0.1255 -0.6914  0.2041
  789MPD2    C111682   2.002   3.479  16.822 -0.1595  0.1134  0.2681
  789MPD2    C211683   1.875   3.502  16.869  0.0140  0.1941  0.2128
  789MPD2    C311684   1.845   3.502  17.001  0.8424 -0.0155 -0.3199
  789MPD2    C411685   1.944   3.463  17.088  0.1156  0.7808  0.8074
  789MPD2    C511686   2.069   3.432  17.053 -0.2499 -0.3088  0.0916
  789MPD2     H11687   1.807   3.529  16.789 -1.5005 -2.4225  0.6150
  789MPD2    H111688   1.928   3.457  17.195  2.1368 -5.0945  0.7702
  789MPD2    H211689   2.201   3.437  16.884 -0.6344  1.0331 -2.4134
  789MPD2    H311690   2.140   3.417  17.134 -0.9627 -0.0989  0.7529
  789MPD2     N11691   1.717   3.540  17.056  0.2291  0.6354 -0.0176
  789MPD2    H511692   1.715   3.560  17.155 -3.0849 -1.1584  0.2543
  789MPD2    N111693   2.032   3.495  16.686  0.0533  0.2408 -0.5669
  789MPD2    H711694   1.949   3.502  16.627 -1.9269 -1.3918  2.0079
  790MPD2     C11695   2.638   0.481  13.734 -0.0809  1.2100 -0.5972
  790MPD2    C111696   2.668   0.353  13.726  0.1005 -0.0064  0.2924
  790MPD2    C211697   2.653   0.284  13.606  0.0841  0.1404 -0.3313
  790MPD2    C311698   2.632   0.350  13.489  0.2287  0.1794 -0.6431
  790MPD2    C411699   2.594   0.481  13.500 -0.2945  0.1100  0.2645
  790MPD2    C511700   2.590   0.542  13.621 -0.2790 -0.1019  0.3563
  790MPD2     H11701   2.670   0.177  13.600 -0.0250  0.0418  1.0570
  790MPD2    H111702   2.564   0.540  13.414 -0.3781  0.4700  0.5410
  790MPD2    H211703   2.658   0.541  13.823  1.1638  1.9949 -1.4071
  790MPD2    H311704   2.546   0.641  13.624 -1.6051 -0.6946  0.3865
  790MPD2     N11705   2.638   0.286  13.360 -0.0726  0.2737  0.3386
  790MPD2    H511706   2.645   0.186  13.349 -1.0906  0.3530 -0.9329
  790MPD2    N111707   2.720   0.291  13.849  0.5981 -0.2214 -0.0901
  790MPD2    H711708   2.712   0.346  13.934 -1.0811  1.2174 -1.1676
  791MPD2     C11709   2.138   0.091  12.715 -0.7575 -0.4339  0.6542
  791MPD2    C111710   2.190   0.049  12.837 -0.1730  0.0189 -0.5994
  791MPD2    C211711   2.106   4.716  12.923 -0.5991  0.5391 -0.0460
  791MPD2    C311712   1.976   4.686  12.883  0.2935  0.2280 -0.1518
  791MPD2    C411713   1.931   0.001  12.763  0.6747 -0.8147  0.5117
  791MPD2    C511714   2.009   0.077  12.686 -0.7269 -0.0970 -0.5939
  791MPD2     H11715   2.145   4.681  13.017 -1.8888 -0.7447  0.0021
  791MPD2    H111716   1.843   4.693  12.718 -0.6294  2.3789  0.0361
  791MPD2    H211717   2.198   0.155  12.651 -0.4805 -1.2007  0.1482
  791MPD2    H311718   1.966   0.116  12.594  0.1538  1.4030 -0.3656
  791MPD2     N11719   1.904   4.615  12.979  0.3019 -0.2732 -0.1794
  791MPD2    H511720   1.945   4.588  13.068  1.2341 -2.1299 -1.1839
  791MPD2    N111721   2.327   0.086  12.869 -0.1293 -0.2023  0.4957
  791MPD2    H711722   2.377   0.138  12.798  0.7936 -0.6710  0.8072
  792MPD2     C11723   2.828   0.508  11.636  0.1817 -0.1978  0.1707
  792MPD2    C111724   2.773   0.546  11.523 -0.6003  0.6617 -0.6516
  792MPD2    C211725   2.638   0.505  11.492 -0.4985 -0.2854  0.1241
  792MPD2    C311726   2.566   0.429  11.586 -0.0299  0.3326 -0.1608
  792MPD2    C411727   2.627   0.399  11.702 -0.1842  0.4414  0.3835
  792MPD2    C511728   2.756   0.436  11.731  0.9321 -0.2241 -0.0578
  792MPD2     H11729   2.593   0.521  11.395 -2.6837 -1.9412  0.8586
  792MPD2    H111730   2.574   0.356  11.786 -0.0209 -0.7660 -0.1243
  792MPD2    H211731   2.926   0.546  11.660  0.4852  0.4188 -2.0347
  792MPD2    H311732   2.790   0.407  11.830  2.0959  1.1945 -0.0465
  792MPD2     N11733   2.435   0.380  11.565  0.1206  0.4497 -0.7563
  792MPD2    H511734   2.382   0.337  11.640  0.8327 -0.4681 -0.7860
  792MPD2    N111735   2.850   0.625  11.436  0.4757 -0.1857 -0.5786
  792MPD2    H711736   2.949   0.631  11.456  0.8418 -0.8331 -2.2276
  793MPD2     C11737   1.533   0.462  11.086 -0.3498  0.4452 -0.1092
  793MPD2    C111738   1.662   0.456  11.031 -0.2322 -0.3107  0.6061
  793MPD2    C211739   1.775   0.454  11.118 -0.5005 -0.2463 -0.4602
  793MPD2    C311740   1.753   0.465  11.254 -0.2109 -0.0176 -0.0870
  793MPD2    C411741   1.626   0.470  11.306 -0.7705 -0.2810  0.4901
  793MPD2    C511742   1.518   0.467  11.223 -0.4158  0.6771 -0.7701
  793MPD2     H11743   1.876   0.451  11.078 -0.4866 -0.0246 -0.4419
  793MPD2    H111744   1.606   0.480  11.412 -0.3953 -0.0940  0.5428
  793MPD2    H211745   1.444   0.455  11.024 -0.3006  3.9846 -0.5922
  793MPD2    H311746   1.422   0.480  11.272  0.4613  0.8139  0.8973
  793MPD2     N11747   1.874   0.456  11.339  0.7242  0.9398  0.4640
  793MPD2    H511748   1.963   0.440  11.292  0.6127  2.5136 -0.2985
  793MPD2    N111749   1.689   0.452  10.897 -0.0180  0.0690 -0.6355
  793MPD2    H711750   1.788   0.460  10.875 -0.0907  5.4783  1.1608
  794MPD2     C11751   2.630   4.382   0.266  0.5999  0.8468 -0.3373
  794MPD2    C111752   2.653   4.294   0.162 -0.5088  0.6997 -0.7307
  794MPD2    C211753   2.607   4.323   0.037  0.9447  0.1880  0.1385
  794MPD2    C311754   2.547   4.440   0.006  0.2437  0.0476 -0.2538
  794MPD2    C411755   2.524   4.530   0.112 -1.2343 -0.3381  0.0683
  794MPD2    C511756   2.558   4.492   0.238 -0.0006  0.9717  0.0037
  794MPD2     H11757   2.615   4.241  17.705 -2.0328 -0.5905  0.7205
  794MPD2    H111758   2.505   4.636   0.099  3.5581  0.6029  0.7142
  794MPD2    H211759   2.664   4.369   0.369  2.7989  1.2433 -1.0141
  794MPD2    H311760   2.544   4.566   0.316  2.0560  0.8335  0.4929
  794MPD2     N11761   2.511   4.480  17.611  0.2740 -0.5952  0.1418
  794MPD2    H511762   2.463   4.569  17.613 -1.9595 -1.8081  0.8363
  794MPD2    N111763   2.728   4.177   0.192 -0.0285  0.2028 -0.0131
  794MPD2    H711764   2.743   4.112   0.115 -1.0009 -0.2377  0.1720
  795MPD2     C11765   0.361   1.521  13.325  0.2221 -0.2763 -0.2349
  795MPD2    C111766   0.283   1.412  13.354 -0.6838  0.2439  0.7454
  795MPD2    C211767   0.314   1.344  13.474  0.4760 -0.0013  0.0492
  795MPD2    C311768   0.428   1.382  13.547 -0.5830  0.4160  0.5217
  795MPD2    C411769   0.507   1.490  13.512 -0.4061  0.2421 -0.0734
  795MPD2    C511770   0.473   1.561  13.395  0.5236 -0.0190 -0.0155
  795MPD2     H11771   0.257   1.258  13.506 -0.5454  0.3764 -0.7393
  795MPD2    H111772   0.606   1.511  13.551 -0.2316 -2.5371  0.9807
  795MPD2    H211773   0.325   1.581  13.242 -0.7293  0.7403  0.9098
  795MPD2    H311774   0.539   1.640  13.361  0.3773 -0.9964 -2.5996
  795MPD2     N11775   0.452   1.283  13.648  0.1009  0.6472  0.0425
  795MPD2    H511776   0.385   1.207  13.650 -2.6564  2.9999 -2.0128
  795MPD2    N111777   0.155   1.394  13.286 -0.3075  0.2509  0.6861
  795MPD2    H711778   0.085   1.347  13.343  0.9198 -2.4217 -0.0122
  796MPD2     C11779   4.658   3.406  15.553 -0.8276  0.5586  0.1541
  796MPD2    C111780   4.691   3.485  15.662  0.0956 -0.6440  0.1024
  796MPD2    C211781   4.633   3.610  15.679 -0.5018  0.0584  0.0599
  796MPD2    C311782   4.541   3.651  15.590  0.0639  0.0586 -0.2726
  796MPD2    C411783   4.508   3.578  15.479 -0.0536 -0.6270  0.2235
  796MPD2    C511784   4.565   3.450  15.460 -0.3414 -0.2416 -0.3516
  796MPD2     H11785   4.662   3.683  15.753 -0.5447 -0.3798  0.5122
  796MPD2    H111786   4.451   3.616  15.394 -0.2677  3.9085  2.3865
  796MPD2    H211787   4.704   3.310  15.532  1.2671  1.2685  1.4161
  796MPD2    H311788   4.565   3.386  15.372 -1.7520 -2.1214  1.0001
  796MPD2     N11789   4.490   3.781  15.605 -0.9256 -0.0845 -0.1438
  796MPD2    H511790   4.517   3.833  15.688  0.8701  0.6699 -1.1906
  796MPD2    N111791   0.038   3.417  15.761  0.1311 -0.4109  0.1209
  796MPD2    H711792   0.071   3.325  15.731  1.0350 -0.8867  2.5775
  797MPD2     C11793   0.980   2.936  17.310 -0.6142 -0.4692  0.3755
  797MPD2    C111794   0.966   3.067  17.352  0.5437 -0.5097  0.6120
  797MPD2    C211795   0.892   3.151  17.276  0.3140 -0.3424  0.4823
  797MPD2    C311796   0.831   3.113  17.155 -0.4191  0.9449 -0.5599
  797MPD2    C411797   0.847   2.988  17.113  0.0503 -0.0411  0.0377
  797MPD2    C511798   0.921   2.898  17.189 -0.4693 -0.2761 -0.1847
  797MPD2     H11799   0.889   3.250  17.318 -0.2743  0.7093 -2.0033
  797MPD2    H111800   0.811   2.950  17.018 -0.2361 -0.3062  0.2499
  797MPD2    H211801   1.036   2.861  17.365 -0.4162 -1.4594 -1.1547
  797MPD2    H311802   0.928   2.793  17.164 -1.0177 -0.7207  1.4878
  797MPD2     N11803   0.751   3.206  17.080 -0.6710  0.4485 -0.2128
  797MPD2    H511804   0.712   3.171  16.993 -0.2416 -0.4316 -0.0604
  797MPD2    N111805   1.054   3.116  17.451 -0.1891  0.0520 -0.6946
  797MPD2    H711806   1.053   3.216  17.470 -1.2519  0.5290 -3.2281
  798MPD2     C11807   0.886   3.756  17.476  0.3752 -0.2618 -0.1620
  798MPD2    C111808   0.948   3.693  17.368 -0.1567 -0.7205  0.0710
  798MPD2    C211809   1.063   3.628  17.385  0.3200  0.6348 -0.1723
  798MPD2    C311810   1.125   3.617  17.505 -0.1346  0.2991 -0.6556
  798MPD2    C411811   1.068   3.678  17.612 -0.3254 -0.0039  0.5054
  798MPD2    C511812   0.943   3.740  17.602 -0.1499  0.3928 -0.2532
  798MPD2     H11813   1.104   3.563  17.308  2.7670  0.5364  1.2088
  798MPD2    H111814   1.117   3.682  17.708  1.9220  1.4028 -0.7132
  798MPD2    H211815   0.793   3.811  17.462 -0.0743 -1.0534 -0.2884
  798MPD2    H311816   0.897   3.791  17.686 -0.5887  1.7172 -1.2918
  798MPD2     N11817   1.223   3.521  17.513 -0.2173 -0.3473  0.5429
  798MPD2    H511818   1.247   3.480  17.424  1.0881  3.6491 -0.9452
  798MPD2    N111819   0.877   3.687  17.249  0.0625  0.0443 -0.8569
  798MPD2    H711820   0.778   3.707  17.258  0.0960 -0.5512  0.9218
  799MPD2     C11821   0.115   4.408  14.833  0.0643 -0.6270  0.4642
  799MPD2    C111822   0.005   4.322  14.841  0.3175 -0.2907  0.2764
  799MPD2    C211823   4.624   4.362  14.776 -0.1177  0.6406 -0.1087
  799MPD2    C311824   4.625   4.483  14.705  0.0791  0.1088  0.5226
  799MPD2    C411825   0.002   4.552  14.679 -0.1303 -0.2223 -0.1227
  799MPD2    C511826   0.113   4.520  14.747 -0.6087 -0.2130 -0.1772
  799MPD2     H11827   4.537   4.298  14.791 -0.3896  1.0222 -0.0737
  799MPD2    H111828   0.011   4.631  14.605  0.5936  1.5724  1.8616
  799MPD2    H211829   0.207   4.384  14.884  0.0293 -0.4395  0.6120
  799MPD2    H311830   0.204   4.577  14.736  0.4268 -1.6238  1.0172
  799MPD2     N11831   4.509   4.535  14.642 -0.3399  0.0492  0.8959
  799MPD2    H511832   4.522   4.620  14.587  0.5921  1.5353  3.3923
  799MPD2    N111833   0.007   4.197  14.905 -0.0004  0.6716 -0.0163
  799MPD2    H711834   4.654   4.145  14.914  0.8057  0.1084  4.5757
  800MPD2     C11835   4.716   0.315  13.627  0.3768 -0.0056 -0.0903
  800MPD2    C111836   0.118   0.318  13.645  0.4338 -0.6336 -0.6304
  800MPD2    C211837   0.206   0.263  13.556 -0.2154 -0.2125  0.1512
  800MPD2    C311838   0.156   0.209  13.435  0.3998  0.2054 -0.2399
  800MPD2    C411839   0.015   0.202  13.418  0.2009 -0.2088  0.0741
  800MPD2    C511840   4.669   0.249  13.521 -0.1161 -0.3999 -0.4691
  800MPD2     H11841   0.314   0.271  13.561 -0.4029  1.6833  0.8431
  800MPD2    H111842   4.702   0.171  13.325 -1.5710 -1.0214  1.2568
  800MPD2    H211843   4.647   0.355  13.701  2.0696 -0.7158  1.8799
  800MPD2    H311844   4.564   0.267  13.501  0.0605  2.2482  1.0129
  800MPD2     N11845   0.250   0.174  13.326  0.2635  0.9469 -0.2328
  800MPD2    H511846   0.347   0.178  13.356 -0.1177 -0.9791  1.2727
  800MPD2    N111847   0.161   0.395  13.757 -0.7481  0.0965 -0.4401
  800MPD2    H711848   0.096   0.453  13.810  0.5791  1.8509 -0.7113
  801MPD2     C11849   0.174   1.137  13.805  0.4182  0.0806 -0.2888
  801MPD2    C111850   0.256   1.111  13.911 -0.5076 -0.0746  0.4079
  801MPD2    C211851   0.303   1.217  13.983 -0.0783  0.0367  0.2329
  801MPD2    C311852   0.259   1.343  13.972  0.0297  0.3443  0.4421
  801MPD2    C411853   0.180   1.370  13.854  0.5413 -0.3207  0.7658
  801MPD2    C511854   0.142   1.260  13.778  0.5223 -0.5377  0.5092
  801MPD2     H11855   0.359   1.189  14.072 -0.9321 -0.9231  0.4711
  801MPD2    H111856   0.129   1.464  13.838  0.5089 -0.9032 -2.4914
  801MPD2    H211857   0.120   1.068  13.740  1.6983 -0.1244 -1.1427
  801MPD2    H311858   0.074   1.265  13.693 -0.2687  1.1946  1.2461
  801MPD2     N11859   0.298   1.455  14.040 -0.3664 -0.2459 -0.2330
  801MPD2    H511860   0.280   1.542  13.992  0.7122  0.4281  0.5872
  801MPD2    N111861   0.305   0.978  13.936  0.3264  1.1617  0.3035
  801MPD2    H711862   0.372   0.974  14.012 -0.1441 -1.4617  0.5709
  802MPD2     C11863   4.306   1.720  17.289 -1.0683  0.0915 -0.2278
  802MPD2    C111864   4.437   1.773  17.300  0.1633 -0.3379 -0.3323
  802MPD2    C211865   4.544   1.723  17.235  0.2039 -0.9334  0.2647
  802MPD2    C311866   4.536   1.601  17.175  0.5387  0.3236  0.2711
  802MPD2    C411867   4.414   1.539  17.163  0.0821 -0.3574 -0.2176
  802MPD2    C511868   4.304   1.596  17.224 -0.2346 -0.6000  0.1391
  802MPD2     H11869   4.638   1.777  17.233 -0.2410 -0.1779 -0.4314
  802MPD2    H111870   4.406   1.444  17.113  1.9142  0.4185 -2.0049
  802MPD2    H211871   4.230   1.740  17.364 -1.7578  1.5499 -1.3196
  802MPD2    H311872   4.215   1.534  17.227  0.4550 -1.6196 -0.4541
  802MPD2     N11873   4.648   1.550  17.107 -0.1199  0.6620  0.3532
  802MPD2    H511874   0.001   1.593  17.133 -0.6994  1.6491  0.6627
  802MPD2    N111875   4.458   1.898  17.375 -0.1632  0.4643 -0.0912
  802MPD2    H711876   4.553   1.933  17.372  0.6353 -1.8300 -1.6480
  803MPD2     C11877   4.637   4.727  12.887 -0.0506  0.7538 -0.1293
  803MPD2    C111878   4.714   0.093  12.837  0.0144 -0.7206 -0.6518
  803MPD2    C211879   0.118   0.071  12.820 -0.4051  0.7582 -0.6829
  803MPD2    C311880   0.182   4.689  12.860 -0.0971  0.2414 -0.0301
  803MPD2    C411881   0.104   4.592  12.910 -0.0884 -0.9709 -0.2039
  803MPD2    C511882   4.704   4.618  12.928  0.1658 -0.1448  0.3602
  803MPD2     H11883   0.177   0.156  12.789  0.2198  0.5070 -0.1709
  803MPD2    H111884   0.140   4.502  12.958 -1.9954 -0.4447  2.2368
  803MPD2    H211885   4.531   4.735  12.908  0.1236 -2.7268  2.0572
  803MPD2    H311886   4.642   4.552  12.987  0.2373  1.1636  1.8835
  803MPD2     N11887   0.323   4.675  12.854  0.7789  0.8355  0.3315
  803MPD2    H511888   0.366   4.591  12.891  3.0449  1.5284 -0.7507
  803MPD2    N111889   4.664   0.215  12.789 -0.4564 -0.1801  0.2211
  803MPD2    H711890   4.730   0.288  12.762 -0.1172 -0.5566  0.0264
  804MPD2     C11891   0.372   1.265  16.915  0.0729 -0.3575 -0.3650
  804MPD2    C111892   0.316   1.255  17.042 -0.8879 -0.0205 -0.1309
  804MPD2    C211893   0.362   1.338  17.143  0.2264  0.5104 -0.6128
  804MPD2    C311894   0.446   1.445  17.112  0.1218  0.8401 -0.4747
  804MPD2    C411895   0.493   1.462  16.984 -0.0875  0.5335 -0.2627
  804MPD2    C511896   0.456   1.369  16.891 -0.3628  0.0915  0.7339
  804MPD2     H11897   0.322   1.341  17.244  1.7163  2.3453 -0.0635
  804MPD2    H111898   0.562   1.541  16.957 -0.5468  0.7951 -0.6832
  804MPD2    H211899   0.354   1.192  16.837  1.2019 -0.5661 -0.4376
  804MPD2    H311900   0.502   1.377  16.793 -0.0407 -0.8130  0.8156
  804MPD2     N11901   0.493   1.533  17.210  0.1944 -0.4874 -0.5713
  804MPD2    H511902   0.444   1.509  17.295  1.5129  2.7333  1.0936
  804MPD2    N111903   0.231   1.143  17.071 -0.0148  0.1028 -0.1270
  804MPD2    H711904   0.211   1.128  17.169 -1.7606 -0.7087 -0.6110
  805MPD2     C11905   4.085   4.534  15.538  0.0445 -0.3297 -0.3630
  805MPD2    C111906   4.186   4.559  15.449 -0.5237  0.1608  0.2098
  805MPD2    C211907   4.293   4.630  15.494  0.4172 -0.0680 -0.2319
  805MPD2    C311908   4.309   4.667  15.625 -0.4331 -0.0231  0.4353
  805MPD2    C411909   4.216   4.639  15.713  0.1426 -0.2364 -0.1941
  805MPD2    C511910   4.098   4.576  15.669 -0.2704 -0.8531 -0.3764
  805MPD2     H11911   4.382   4.635  15.432 -0.3550  3.5370 -1.0581
  805MPD2    H111912   4.225   4.663  15.818  0.3649 -2.4120  0.2798
  805MPD2    H211913   4.006   4.463  15.519 -0.4892 -0.1117  1.0460
  805MPD2    H311914   4.025   4.536  15.738 -0.1004 -1.3092 -0.4602
  805MPD2     N11915   4.438   4.726  15.660 -0.3139  0.3949  0.2567
  805MPD2    H511916   4.508   4.726  15.587  1.2102 -1.4798  1.7086
  805MPD2    N111917   4.198   4.496  15.325 -0.1278  0.4573  0.1926
  805MPD2    H711918   4.285   4.503  15.272  0.0493 -0.4440  0.3504
  806MPD2     C11919   0.285   3.817   0.778  0.0514 -0.2285  0.4438
  806MPD2    C111920   0.287   3.954   0.808 -0.1165  0.3707 -0.8951
  806MPD2    C211921   0.323   4.037   0.703  0.5283 -0.3744 -0.4413
  806MPD2    C311922   0.354   3.991   0.575  0.1445  0.7346 -0.2735
  806MPD2    C411923   0.346   3.854   0.546  0.4049 -0.7095 -0.4969
  806MPD2    C511924   0.304   3.772   0.650  1.0276 -0.4737 -0.4065
  806MPD2     H11925   0.324   4.144   0.720 -0.6300 -0.4233 -0.0573
  806MPD2    H111926   0.349   3.818   0.444  0.0147 -1.2461 -0.3140
  806MPD2    H211927   0.259   3.743   0.853 -1.5378 -0.3653 -0.2347
  806MPD2    H311928   0.285   3.667   0.637 -2.5153  0.0736  0.3607
  806MPD2     N11929   0.404   4.080   0.475  0.1736 -0.0185  0.2197
  806MPD2    H511930   0.425   4.174   0.506  0.1866 -0.4675  1.5741
  806MPD2    N111931   0.281   3.989   0.949  0.6358 -0.5249 -0.1717
  806MPD2    H711932   0.243   3.919   1.012 -0.5329  0.0968 -0.1665
  807MPD2     C11933   0.016   3.778   1.591  0.1087  0.2584  0.0675
  807MPD2    C111934   0.140   3.830   1.620  0.5309 -0.0099 -0.1959
  807MPD2    C211935   0.199   3.803   1.738 -0.1820  0.0714  0.2351
  807MPD2    C311936   0.154   3.706   1.821 -0.7230 -0.2598 -0.2169
  807MPD2    C411937   0.031   3.646   1.796 -0.0770 -0.0248 -0.4760
  807MPD2    C511938   4.700   3.684   1.679 -0.0349 -0.1430  0.1249
  807MPD2     H11939   0.290   3.859   1.754 -0.6940  0.6084  1.2541
  807MPD2    H111940   4.718   3.565   1.850 -1.3275  0.3854 -0.9650
  807MPD2    H211941   4.692   3.797   1.502 -1.7535  0.5318  1.3493
  807MPD2    H311942   4.611   3.627   1.654  0.3034 -0.6831  0.1507
  807MPD2     N11943   0.242   3.663   1.924 -0.2309 -0.2471 -0.0523
  807MPD2    H511944   0.325   3.720   1.930 -0.4574 -0.0366  1.0565
  807MPD2    N111945   0.209   3.919   1.528 -0.4394  0.1823  0.0486
  807MPD2    H711946   0.303   3.947   1.552  0.1793 -0.9630 -1.0568
  808MPD2     C11947   4.344   1.278   9.916 -0.2964  0.2287  0.9644
  808MPD2    C111948   4.438   1.288  10.019 -0.3849 -0.0580  0.5502
  808MPD2    C211949   4.512   1.406  10.034 -0.7421  0.4998  0.1414
  808MPD2    C311950   4.507   1.508   9.942 -0.9985 -0.0302  0.1833
  808MPD2    C411951   4.410   1.495   9.847 -1.2708  0.3837  0.1013
  808MPD2    C511952   4.323   1.385   9.840 -0.0851 -0.0627  0.2024
  808MPD2     H11953   4.581   1.405  10.118 -0.3394  0.0377 -0.1914
  808MPD2    H111954   4.397   1.572   9.771  1.6154 -1.1988 -2.0242
  808MPD2    H211955   4.291   1.187   9.891 -1.4359  0.9014  0.9270
  808MPD2    H311956   4.251   1.371   9.760  0.7496 -2.2406 -0.1599
  808MPD2     N11957   4.593   1.618   9.936  0.6415 -0.2784 -0.0895
  808MPD2    H511958   4.601   1.681   9.857 -0.7883 -0.5324 -0.4217
  808MPD2    N111959   4.470   1.191  10.113 -0.0172 -0.5256  0.6635
  808MPD2    H711960   4.527   1.216  10.193  0.1786 -0.6159  0.5517
  809MPD2     C11961   0.694   1.955   9.520  0.7695  0.5192 -0.1607
  809MPD2    C111962   0.714   1.968   9.664 -0.0110  0.2300  0.1400
  809MPD2    C211963   0.602   1.961   9.738 -0.4615 -0.7982 -0.7128
  809MPD2    C311964   0.473   1.934   9.692  0.3223  0.2868  0.6596
  809MPD2    C411965   0.455   1.928   9.554  0.1067 -0.8559  0.0795
  809MPD2    C511966   0.571   1.921   9.470  0.8589  1.6902  0.7144
  809MPD2     H11967   0.617   1.983   9.843 -0.0644  1.5354 -1.2392
  809MPD2    H111968   0.357   1.906   9.512 -0.5246  3.0596 -0.4444
  809MPD2    H211969   0.777   1.963   9.450 -1.0666  1.0974 -2.2521
  809MPD2    H311970   0.547   1.904   9.366 -1.9653  1.1549  1.4337
  809MPD2     N11971   0.366   1.933   9.786  0.5590  0.1978  0.3205
  809MPD2    H511972   0.386   1.952   9.884  0.8392  2.2028 -0.1336
  809MPD2    N111973   0.838   1.982   9.728  0.0501  0.0694 -0.6012
  809MPD2    H711974   0.840   1.995   9.829  0.4054 -0.2225 -0.5717
  810MPD2     C11975   4.256   1.134  11.440  0.2524  0.3739 -0.8060
  810MPD2    C111976   4.228   1.004  11.427  0.3787 -0.4590 -0.1796
  810MPD2    C211977   4.124   0.963  11.345 -0.5387  0.0164 -0.5358
  810MPD2    C311978   4.054   1.057  11.266 -0.4182 -0.3210  0.0169
  810MPD2    C411979   4.084   1.192  11.286  0.4291 -0.7871 -0.5460
  810MPD2    C511980   4.181   1.230  11.375 -0.6376  0.3915 -0.2599
  810MPD2     H11981   4.080   0.864  11.334 -1.5922  0.5685 -1.2108
  810MPD2    H111982   4.028   1.266  11.229 -1.3073 -0.1800  1.9201
  810MPD2    H211983   4.326   1.173  11.513 -0.8130 -1.8194  1.3715
  810MPD2    H311984   4.202   1.332  11.405  1.6342 -0.4929  1.1357
  810MPD2     N11985   3.950   1.032  11.170  0.4444 -0.1693 -0.3768
  810MPD2    H511986   3.925   1.112  11.112  1.1696 -0.2295 -0.7776
  810MPD2    N111987   4.314   0.918  11.509 -0.5675 -0.1703  0.3480
  810MPD2    H711988   4.366   0.964  11.583  0.9497  0.5614 -1.1538
  811MPD2     C11989   4.128   0.626  10.740  0.5429 -0.4022  0.3264
  811MPD2    C111990   4.172   0.715  10.830 -0.2722 -0.2257 -0.5503
  811MPD2    C211991   4.139   0.850  10.817 -0.2049 -0.4195  0.3184
  811MPD2    C311992   4.076   0.895  10.695  0.1497 -0.0215 -0.2769
  811MPD2    C411993   4.032   0.794  10.604 -0.5141  0.1226 -0.5905
  811MPD2    C511994   4.060   0.665  10.627  0.1714 -0.3322  0.1392
  811MPD2     H11995   4.162   0.923  10.894 -1.3231  1.5479 -1.2056
  811MPD2    H111996   3.979   0.818  10.513 -0.2291 -1.5362 -1.1866
  811MPD2    H211997   4.144   0.520  10.756 -0.2224 -0.3697  1.3127
  811MPD2    H311998   4.029   0.594  10.552  2.5620 -1.1076 -0.1312
  811MPD2     N11999   4.052   1.032  10.675 -0.2126  0.3038  0.5107
  811MPD2    H512000   4.087   1.099  10.742 -0.2606 -1.5246  2.3496
  811MPD2    N112001   4.224   0.663  10.949 -0.3001  0.8086 -0.6226
  811MPD2    H712002   4.215   0.565  10.973 -2.1636  1.1035 -0.1045
  812MPD2     C12003   3.440   0.622  11.948 -0.1187  0.4075  0.0625
  812MPD2    C112004   3.371   0.726  12.013  0.3911 -1.1155 -0.0216
  812MPD2    C212005   3.331   0.699  12.145 -0.1111 -0.2325  0.7073
  812MPD2    C312006   3.362   0.583  12.211  0.1940 -0.2585 -0.1622
  812MPD2    C412007   3.443   0.488  12.145  0.0496 -0.1256 -0.0959
  812MPD2    C512008   3.482   0.507  12.017  0.4173  0.0961 -0.1511
  812MPD2     H12009   3.263   0.769  12.192 -0.7991 -0.2780 -0.2302
  812MPD2    H112010   3.487   0.405  12.201  0.5433 -0.7567 -1.4019
  812MPD2    H212011   3.453   0.631  11.841  1.6745 -0.2069  0.2391
  812MPD2    H312012   3.538   0.436  11.958  0.6074  0.7260 -0.7224
  812MPD2     N12013   3.315   0.561  12.339  0.4852 -0.0119  0.2683
  812MPD2    H512014   3.271   0.639  12.388  0.5613 -0.5777  1.2317
  812MPD2    N112015   3.326   0.837  11.943  0.3335  0.0488  0.6457
  812MPD2    H712016   3.336   0.839  11.842  0.8997  0.5316  0.7172
  813MPD2     C12017   2.408   2.114  12.683 -0.1106  0.2641  0.2727
  813MPD2    C112018   2.540   2.073  12.722  0.0938 -0.3715 -0.3784
  813MPD2    C212019   2.551   2.023  12.851 -0.0823 -0.5782 -0.5222
  813MPD2    C312020   2.441   2.019  12.935 -0.5224 -0.7777  0.1670
  813MPD2    C412021   2.312   2.044  12.893  0.5935 -0.9043 -0.7635
  813MPD2    C512022   2.304   2.091  12.766 -0.6872 -0.6672 -0.7130
  813MPD2     H12023   2.643   1.995  12.900  0.2876 -0.2001 -1.0048
  813MPD2    H112024   2.221   2.039  12.951  0.1486 -0.6562 -1.4334
  813MPD2    H212025   2.396   2.159  12.585 -1.8192 -1.3783 -0.2664
  813MPD2    H312026   2.205   2.110  12.726  0.0594  2.6288 -0.9656
  813MPD2     N12027   2.469   1.969  13.061 -0.5557 -0.1308  0.0048
  813MPD2    H512028   2.565   1.935  13.067  0.2004  1.2753 -3.9197
  813MPD2    N112029   2.652   2.098  12.639  0.0804  0.1313 -0.0040
  813MPD2    H712030   2.640   2.161  12.560  1.1796  1.9980  1.3272
  814MPD2     C12031   3.052   3.391  12.479 -0.2363  0.3975 -0.4630
  814MPD2    C112032   2.994   3.479  12.386 -0.5413  0.2016  0.9238
  814MPD2    C212033   3.000   3.613  12.408 -0.2668 -0.3907 -0.0757
  814MPD2    C312034   3.062   3.667  12.520  0.1781  0.0367  0.7227
  814MPD2    C412035   3.129   3.579  12.603 -0.5487  0.2545  0.2255
  814MPD2    C512036   3.120   3.444  12.580 -0.2812  0.0655  0.5889
  814MPD2     H12037   2.967   3.679  12.329 -0.6107  1.7507  1.8623
  814MPD2    H112038   3.182   3.613  12.691  0.7538 -0.1771 -0.3924
  814MPD2    H212039   3.039   3.283  12.482  0.9890  0.2770  0.9629
  814MPD2    H312040   3.152   3.376  12.658  2.0339  1.3186  0.7402
  814MPD2     N12041   3.075   3.806  12.538  0.8217 -0.3131 -0.5008
  814MPD2    H512042   3.139   3.834  12.612  0.3320  0.9810 -0.5683
  814MPD2    N112043   2.921   3.428  12.274  0.6526 -0.1843 -0.1765
  814MPD2    H712044   2.895   3.491  12.199 -1.3411 -0.8223 -0.0204
  815MPD2     C12045   3.580   2.621  11.883  0.1093 -0.3355  0.0445
  815MPD2    C112046   3.560   2.490  11.920 -0.0169 -0.4774 -0.2490
  815MPD2    C212047   3.441   2.455  11.980  0.5472 -0.4030 -0.0280
  815MPD2    C312048   3.336   2.544  11.974  0.3304 -0.8593  0.4398
  815MPD2    C412049   3.358   2.674  11.950  0.0825 -0.6136 -0.0623
  815MPD2    C512050   3.478   2.711  11.896 -0.1133  0.1695 -0.2222
  815MPD2     H12051   3.422   2.352  12.009  0.6850 -0.3848  0.1271
  815MPD2    H112052   3.274   2.742  11.958  0.8150  0.4410 -1.3432
  815MPD2    H212053   3.677   2.653  11.849 -1.0844  1.2741 -1.8247
  815MPD2    H312054   3.498   2.814  11.867  1.2636 -0.1359 -0.3555
  815MPD2     N12055   3.209   2.503  12.004  0.0549 -0.7237  1.0668
  815MPD2    H512056   3.205   2.406  12.032  1.3652 -1.4785 -1.3588
  815MPD2    N112057   3.656   2.390  11.886 -0.2376 -0.0978 -0.2074
  815MPD2    H712058   3.729   2.423  11.823  0.5452  0.1511  0.8370
  816MPD2     C12059   3.709   0.819  17.054  0.5942  0.3486  0.5561
  816MPD2    C112060   3.730   0.924  16.968 -0.2854 -0.3197 -0.9582
  816MPD2    C212061   3.805   0.900  16.852  0.1038  0.2086  0.0735
  816MPD2    C312062   3.855   0.771  16.823  0.5905  0.3593  0.0767
  816MPD2    C412063   3.840   0.663  16.917  0.2933  0.5993  0.1768
  816MPD2    C512064   3.764   0.693  17.027 -0.5141 -1.2765 -0.1233
  816MPD2     H12065   3.834   0.974  16.779 -0.6084 -0.7584 -1.1978
  816MPD2    H112066   3.874   0.563  16.894  1.8170  0.8355  1.4320
  816MPD2    H212067   3.644   0.824  17.141 -0.2004 -0.1882 -0.0066
  816MPD2    H312068   3.741   0.607  17.089 -3.1051 -0.2119  0.3973
  816MPD2     N12069   3.911   0.756  16.695 -0.6731  0.0033 -0.4524
  816MPD2    H512070   3.905   0.833  16.629 -1.7622  1.0283  0.8610
  816MPD2    N112071   3.658   1.047  16.989 -0.0291 -0.2891  0.4694
  816MPD2    H712072   3.587   1.055  17.061 -1.8806 -1.3257 -1.2423
  817MPD2     C12073   2.752   3.330   9.846 -1.1169  0.0348  0.3722
  817MPD2    C112074   2.818   3.374   9.959  0.0363  0.4996  0.9989
  817MPD2    C212075   2.779   3.492  10.014 -0.1160  0.0515  0.3510
  817MPD2    C312076   2.667   3.557   9.963 -0.0026  0.1753 -0.0382
  817MPD2    C412077   2.598   3.520   9.850 -0.7455 -0.4641 -0.3254
  817MPD2    C512078   2.655   3.410   9.790  0.2555  0.2111  0.0623
  817MPD2     H12079   2.840   3.531  10.095 -0.1367 -0.2530  0.5154
  817MPD2    H112080   2.519   3.581   9.808  1.4032  0.2345 -3.3234
  817MPD2    H212081   2.777   3.239   9.794  2.3807  1.0938  0.2049
  817MPD2    H312082   2.607   3.384   9.696  0.8660 -1.8234  0.3339
  817MPD2     N12083   2.630   3.682  10.026 -0.8826  0.2236  0.3249
  817MPD2    H512084   2.693   3.718  10.096 -0.8729 -0.1082  0.4897
  817MPD2    N112085   2.936   3.312  10.013  0.4338 -0.5230 -0.3047
  817MPD2    H712086   2.970   3.348  10.102 -1.0999 -1.3000  0.5922
  818MPD2     C12087   1.329   3.076   9.994 -0.1081  0.0232 -0.0294
  818MPD2    C112088   1.275   3.045  10.117  1.0223  0.5781  0.3971
  818MPD2    C212089   1.323   2.934  10.184 -0.1063 -0.2745  0.6481
  818MPD2    C312090   1.439   2.860  10.130 -0.3642  0.4043  0.8138
  818MPD2    C412091   1.487   2.903  10.006 -0.1914 -0.1480  0.4074
  818MPD2    C512092   1.427   3.005   9.936  0.2816  0.4537 -0.6344
  818MPD2     H12093   1.289   2.911  10.285 -0.4821  0.7988  0.7663
  818MPD2    H112094   1.571   2.852   9.961 -0.4276  0.3729 -0.6350
  818MPD2    H212095   1.284   3.155   9.934  0.1619  1.8309  2.1325
  818MPD2    H312096   1.468   3.018   9.836 -0.2195  1.6015 -0.6872
  818MPD2     N12097   1.492   2.749  10.198 -0.1244 -0.2561  0.6635
  818MPD2    H512098   1.581   2.709  10.169 -1.5471 -1.6868 -1.7871
  818MPD2    N112099   1.173   3.113  10.185  0.8417  0.0260  0.9165
  818MPD2    H712100   1.163   3.083  10.282  0.4777  0.2011  0.9342
  819MPD2     C12101   0.300   4.202  15.830 -0.3443 -0.0594 -0.1525
  819MPD2    C112102   0.327   4.068  15.840 -0.2025 -0.2240 -0.4116
  819MPD2    C212103   0.423   4.030  15.930 -0.4398 -0.1965  0.0322
  819MPD2    C312104   0.499   4.120  16.005  0.1521  0.6346 -0.5014
  819MPD2    C412105   0.461   4.251  16.001 -0.7411 -0.5760  0.1783
  819MPD2    C512106   0.365   4.292  15.908 -0.1753 -0.3197 -0.2528
  819MPD2     H12107   0.448   3.927  15.954  0.4472 -0.2572 -1.1560
  819MPD2    H112108   0.494   4.330  16.068 -0.7393  1.5190 -2.3176
  819MPD2    H212109   0.215   4.236  15.772 -0.1638 -1.1434 -1.0554
  819MPD2    H312110   0.351   4.400  15.899 -1.2589 -0.4759 -0.4134
  819MPD2     N12111   0.614   4.074  16.076 -0.1465 -0.3692  0.1865
  819MPD2    H512112   0.641   3.976  16.075 -0.2480 -0.4059  1.1963
  819MPD2    N112113   0.256   3.976  15.756  0.1097 -0.4936  0.3376
  819MPD2    H712114   0.201   4.017  15.681 -0.1986  0.3527  1.0386
  820MPD2     C12115   4.382   3.779  14.977  0.1744 -0.8655 -0.6640
  820MPD2    C112116   4.430   3.888  15.048 -0.1169  0.4197 -0.0428
  820MPD2    C212117   4.536   3.877  15.149 -0.2016  0.4296 -0.3830
  820MPD2    C312118   4.590   3.756  15.172 -0.6345 -0.0286  0.2756
  820MPD2    C412119   4.540   3.647  15.090 -0.3067  0.2131 -0.0889
  820MPD2    C512120   4.438   3.656  15.004  0.6689 -0.3237  0.7969
  820MPD2     H12121   4.567   3.969  15.198  1.6970  0.5620 -1.8646
  820MPD2    H112122   4.584   3.548  15.095 -2.3330 -0.6634  0.2489
  820MPD2    H212123   4.299   3.791  14.908 -0.2977 -0.7075 -0.0674
  820MPD2    H312124   4.413   3.567  14.949 -0.3830 -1.0062  2.3850
  820MPD2     N12125   4.696   3.729  15.259 -0.1294 -0.1029  0.5839
  820MPD2    H512126   4.728   3.632  15.262  0.8486  0.1994 -0.2872
  820MPD2    N112127   4.367   4.012  15.026  0.4052  0.0904  0.4458
  820MPD2    H712128   4.273   3.998  14.988  0.1640  1.6860  0.4776
  821MPD2     C12129   0.560   0.624  12.711  0.4763 -0.4186  0.4053
  821MPD2    C112130   0.643   0.579  12.811  0.3411  0.6231 -0.0033
  821MPD2    C212131   0.776   0.611  12.822  0.1376  0.4660 -0.2649
  821MPD2    C312132   0.836   0.684  12.720  0.2809 -0.1597 -0.6790
  821MPD2    C412133   0.756   0.729  12.613 -0.5832  0.2733  0.0419
  821MPD2    C512134   0.620   0.707  12.618 -0.0615  0.1518 -0.7530
  821MPD2     H12135   0.830   0.597  12.915  1.1166  2.0714 -0.5893
  821MPD2    H112136   0.794   0.803  12.544 -0.0353  1.1282  1.2452
  821MPD2    H212137   0.453   0.608  12.703  0.6538 -1.6732  0.4699
  821MPD2    H312138   0.563   0.762  12.544  1.8088  3.1967  0.0362
  821MPD2     N12139   0.967   0.731  12.726 -0.6989 -0.0248  0.2630
  821MPD2    H512140   0.989   0.802  12.657  1.5547 -1.1384 -0.1883
  821MPD2    N112141   0.587   0.506  12.926 -0.0906  0.3913 -0.6939
  821MPD2    H712142   0.647   0.495  13.007 -1.8060 -0.8196  0.4138
  822MPD2     C12143   1.134   0.695  15.607 -0.0593  0.1902 -0.5384
  822MPD2    C112144   1.061   0.654  15.719 -0.4949 -0.0016  0.0111
  822MPD2    C212145   0.992   0.752  15.785  0.6120 -0.7166 -0.5370
  822MPD2    C312146   0.998   0.886  15.737 -0.3503  0.4404 -0.4417
  822MPD2    C412147   1.053   0.920  15.614 -0.3672 -0.8296 -0.2575
  822MPD2    C512148   1.121   0.819  15.553 -0.5823 -0.0980  0.5870
  822MPD2     H12149   0.930   0.737  15.872  1.6540 -2.5141 -0.1121
  822MPD2    H112150   1.056   1.018  15.568  0.0794 -0.2176  1.0826
  822MPD2    H212151   1.191   0.622  15.549  1.4289  0.4007  0.6682
  822MPD2    H312152   1.168   0.830  15.456  1.0294  0.0979  1.4004
  822MPD2     N12153   0.933   0.967  15.825  0.1264 -0.3864 -0.1931
  822MPD2    H512154   0.892   0.929  15.910  0.2786  1.5149  0.7465
  822MPD2    N112155   1.063   0.524  15.770 -0.3435 -0.0620  0.0182
  822MPD2    H712156   1.016   0.502  15.857 -1.2826 -1.4718 -0.8460
  823MPD2     C12157   0.408   1.156  16.452  0.1507  0.2139  0.8015
  823MPD2    C112158   0.491   1.068  16.379 -0.3143 -0.1697 -0.6406
  823MPD2    C212159   0.538   0.945  16.435  0.5278 -0.5841 -0.2435
  823MPD2    C312160   0.489   0.918  16.562 -0.1096 -0.1272 -0.0254
  823MPD2    C412161   0.400   1.002  16.625 -0.3944 -0.3064  0.1585
  823MPD2    C512162   0.358   1.120  16.572 -0.4109  0.0780  0.1945
  823MPD2     H12163   0.607   0.879  16.384 -1.1572 -0.1066 -3.1142
  823MPD2    H112164   0.363   0.988  16.725  0.8940 -0.4753  0.6085
  823MPD2    H212165   0.366   1.249  16.416  0.4693  1.1087  2.7635
  823MPD2    H312166   0.288   1.178  16.630  1.4508  2.1878  0.3454
  823MPD2     N12167   0.523   0.806  16.644  0.1061  0.6729  0.6714
  823MPD2    H512168   0.504   0.792  16.743  0.4474 -0.2542  0.6008
  823MPD2    N112169   0.562   1.137  16.272 -0.5156 -0.5968 -0.1978
  823MPD2    H712170   0.534   1.232  16.247 -0.6600 -0.7953 -0.7888
  824MPD2     C12171   1.294   4.369  15.929  0.6372 -0.3969 -0.4062
  824MPD2    C112172   1.342   4.481  15.860 -0.1313  0.0681  0.0909
  824MPD2    C212173   1.436   4.454  15.763 -0.2398  0.2960 -0.1218
  824MPD2    C312174   1.497   4.334  15.749 -0.4270 -0.1719 -0.0003
  824MPD2    C412175   1.441   4.233  15.816  0.1759  0.0558 -0.1607
  824MPD2    C512176   1.339   4.247  15.903  0.6026  0.5662 -0.0706
  824MPD2     H12177   1.465   4.544  15.709 -0.9333  0.6284  0.0518
  824MPD2    H112178   1.473   4.130  15.800  0.8239  0.2672 -0.2172
  824MPD2    H212179   1.206   4.383  15.991 -0.2426  1.6166 -2.1088
  824MPD2    H312180   1.302   4.156  15.949 -0.3595 -0.1863 -2.3475
  824MPD2     N12181   1.617   4.335  15.678 -0.1910 -0.0277 -0.0160
  824MPD2    H512182   1.655   4.419  15.636 -0.1756  0.3429  0.7436
  824MPD2    N112183   1.279   4.602  15.890 -0.2508  0.2372  0.4372
  824MPD2    H712184   1.225   4.609  15.975  1.2405  3.0160  1.1809
  825MPD2     C12185   2.400   4.534  15.410 -0.3864  0.4837 -0.1950
  825MPD2    C112186   2.275   4.578  15.394 -0.2598 -0.0962 -0.1897
  825MPD2    C212187   2.249   4.705  15.346  0.6619 -0.3510  0.0488
  825MPD2    C312188   2.355   0.055  15.321  0.1237  0.1914  0.3540
  825MPD2    C412189   2.484   0.006  15.332  0.4812 -0.1038  0.5601
  825MPD2    C512190   2.500   4.614  15.380 -0.4670  0.3377 -0.9000
  825MPD2     H12191   2.149   0.010  15.335  1.4073  1.5668  0.1178
  825MPD2    H112192   2.571   0.068  15.314 -0.3735  0.8913 -0.1296
  825MPD2    H212193   2.421   4.429  15.431 -1.2762  0.4550  0.5798
  825MPD2    H312194   2.601   4.574  15.385  0.6693  3.3162  0.2227
  825MPD2     N12195   2.345   0.190  15.286 -0.5222 -0.0567 -0.1111
  825MPD2    H512196   2.435   0.236  15.278 -0.3285 -0.1519  1.5327
  825MPD2    N112197   2.180   4.481  15.417 -0.1855  0.0181 -0.2282
  825MPD2    H712198   2.220   4.391  15.441  1.0140  0.2407 -1.3524
  826MPD2     C12199   1.920   4.601  14.016 -0.2696  0.4236  0.3638
  826MPD2    C112200   1.858   4.580  13.895  0.3267  0.4659 -0.6787
  826MPD2    C212201   1.722   4.612  13.880 -0.5944 -0.4908 -0.1349
  826MPD2    C312202   1.650   4.675  13.984 -0.7794  0.0581 -0.6366
  826MPD2    C412203   1.707   4.677  14.109  0.0260 -0.4935 -0.2841
  826MPD2    C512204   1.842   4.636  14.122  0.4016  0.7760  0.1558
  826MPD2     H12205   1.687   4.594  13.780 -1.4522  1.8232 -0.2368
  826MPD2    H112206   1.643   4.701  14.194  0.6878  1.7617 -0.4319
  826MPD2    H212207   2.024   4.574  14.029 -0.5745 -0.3287  1.2373
  826MPD2    H312208   1.886   4.641  14.221  1.9617  3.2022 -0.6577
  826MPD2     N12209   1.519   4.730  13.970 -0.0303 -0.0874  0.1189
  826MPD2    H512210   1.475   0.044  14.048 -1.5819 -0.4545 -0.5249
  826MPD2    N112211   1.937   4.520  13.797  0.4915  0.2095 -0.2430
  826MPD2    H712212   2.031   4.507  13.832 -1.0638 -0.8538  3.5380
  827MPD2     C12213   2.067   2.027  10.143  0.0281  0.5077 -0.0969
  827MPD2    C112214   2.082   1.896  10.188  0.0440 -0.1611  0.2743
  827MPD2    C212215   1.981   1.806  10.167 -0.6050 -0.0214 -0.1059
  827MPD2    C312216   1.858   1.844  10.123 -0.3444  0.2588  0.1303
  827MPD2    C412217   1.839   1.974  10.076 -0.0681  1.1058 -0.8865
  827MPD2    C512218   1.947   2.062  10.091  0.0870  1.0849  0.5052
  827MPD2     H12219   1.981   1.709  10.216  1.2420 -0.0160 -0.1047
  827MPD2    H112220   1.750   2.003  10.020 -0.6133 -0.0821 -0.6506
  827MPD2    H212221   2.153   2.092  10.147 -0.7409  1.5320 -0.3278
  827MPD2    H312222   1.942   2.165  10.059 -1.5704  1.1763  1.0141
  827MPD2     N12223   1.762   1.732  10.096  0.0155 -0.3611 -0.3796
  827MPD2    H512224   1.781   1.645  10.145 -1.7681 -0.2257  0.5196
  827MPD2    N112225   2.205   1.869  10.243  0.7718  0.1288 -0.0341
  827MPD2    H712226   2.272   1.945  10.252  0.2201  0.4641  1.2819
  828MPD2     C12227   1.120   1.206  12.390  0.6476  0.7715 -0.4207
  828MPD2    C112228   1.040   1.250  12.285  0.0062 -0.2260  0.2587
  828MPD2    C212229   1.093   1.340  12.199  0.5243  0.5422 -0.4758
  828MPD2    C312230   1.223   1.387  12.216 -0.5858 -0.1422 -0.1568
  828MPD2    C412231   1.300   1.339  12.314  0.4761  0.4043  1.0364
  828MPD2    C512232   1.253   1.243  12.396  0.4541  0.1901  0.2305
  828MPD2     H12233   1.034   1.375  12.115 -2.8799 -3.6771  0.1693
  828MPD2    H112234   1.404   1.366  12.326  0.2851  0.7384  1.9342
  828MPD2    H212235   1.084   1.134  12.462 -2.7754  1.1053 -1.8011
  828MPD2    H312236   1.320   1.215  12.477 -0.0636 -0.3099  0.4856
  828MPD2     N12237   1.280   1.480  12.128 -0.6743 -0.1367 -0.0865
  828MPD2    H512238   1.379   1.502  12.132 -0.4472 -1.1576  0.0597
  828MPD2    N112239   0.903   1.225  12.261  0.4399  0.0691 -0.3441
  828MPD2    H712240   0.860   1.260  12.176 -0.3097 -1.3968 -0.5834
  829MPD2     C12241   0.394   1.807  11.931 -0.8673  0.3440  0.4230
  829MPD2    C112242   0.327   1.767  12.046 -0.6336  0.4866 -0.7245
  829MPD2    C212243   0.364   1.650  12.113 -0.6004 -0.7992 -0.2134
  829MPD2    C312244   0.468   1.574  12.052 -0.2799  0.2809  0.2544
  829MPD2    C412245   0.540   1.630  11.951  0.5381  0.6105  0.0310
  829MPD2    C512246   0.515   1.751  11.905  0.3058 -0.0217  0.7766
  829MPD2     H12247   0.310   1.621  12.202 -0.8669  1.8908  0.5099
  829MPD2    H112248   0.621   1.574  11.906 -1.2126 -1.2036 -0.8748
  829MPD2    H212249   0.368   1.896  11.876 -1.2565  0.6989  1.1725
  829MPD2    H312250   0.578   1.787  11.825  0.0578 -1.2444  0.0133
  829MPD2     N12251   0.509   1.449  12.096  0.1086 -0.1813  0.7526
  829MPD2    H512252   0.595   1.414  12.055 -1.3589 -2.0272 -0.7506
  829MPD2    N112253   0.216   1.847  12.091  0.3671 -0.2535 -0.7336
  829MPD2    H712254   0.182   1.920  12.028 -2.0393 -1.8566 -1.2783
  830MPD2     C12255   1.419   3.849  15.957  0.0938  0.5919 -0.1330
  830MPD2    C112256   1.295   3.884  15.924 -0.0297  0.4448 -0.4571
  830MPD2    C212257   1.273   3.919  15.790  0.2612  0.3793  0.2574
  830MPD2    C312258   1.371   3.905  15.693  0.3397 -0.8127  0.4458
  830MPD2    C412259   1.484   3.845  15.732 -0.3356 -0.7568  0.1643
  830MPD2    C512260   1.509   3.816  15.864  0.5178 -0.4074 -0.5098
  830MPD2     H12261   1.176   3.955  15.756  0.2043  0.7030  0.7798
  830MPD2    H112262   1.567   3.829  15.665  0.6862 -3.5172  2.0998
  830MPD2    H212263   1.452   3.821  16.057 -0.0120  3.3073  0.6623
  830MPD2    H312264   1.603   3.773  15.898  0.5429  0.9059  1.0984
  830MPD2     N12265   1.375   3.961  15.566 -0.6151  0.4883 -0.4937
  830MPD2    H512266   1.458   3.942  15.510 -1.2731 -0.1267 -1.2598
  830MPD2    N112267   1.204   3.911  16.021  0.3642  0.7138 -0.2719
  830MPD2    H712268   1.245   3.908  16.114 -0.2629  0.2437 -0.0108
  831MPD2     C12269   1.062   0.989  16.219 -0.4302 -0.3565  0.4070
  831MPD2    C112270   1.077   0.887  16.135  1.0052  0.4965 -0.4489
  831MPD2    C212271   0.986   0.778  16.144 -1.3826  0.5829  0.4045
  831MPD2    C312272   0.881   0.782  16.234 -0.3246  0.0295  0.2270
  831MPD2    C412273   0.886   0.875  16.331  0.2829  0.7073  0.2576
  831MPD2    C512274   0.983   0.973  16.323 -0.2241 -0.8778  0.4377
  831MPD2     H12275   0.992   0.694  16.075 -0.4866 -0.4200  1.7163
  831MPD2    H112276   0.806   0.877  16.404  0.9466 -2.6836  1.0361
  831MPD2    H212277   1.121   1.080  16.217 -1.1789  0.1374  0.9528
  831MPD2    H312278   0.975   1.062  16.384 -0.4944 -0.6135  0.0194
  831MPD2     N12279   0.778   0.681  16.240  0.2179  0.3719 -0.6384
  831MPD2    H512280   0.711   0.674  16.316  1.5259 -2.6109  0.2208
  831MPD2    N112281   1.181   0.898  16.038  0.0898 -0.3702  0.2957
  831MPD2    H712282   1.235   0.982  16.023 -0.5749  0.1038  0.5789
  832MPD2     C12283   4.553   1.946  16.995 -0.4582  0.7056 -0.1983
  832MPD2    C112284   4.514   2.079  17.012 -0.1391  0.8572 -0.0521
  832MPD2    C212285   4.398   2.132  16.948 -0.9749 -0.2026 -0.0934
  832MPD2    C312286   4.312   2.044  16.880 -0.3502 -0.4811  0.0298
  832MPD2    C412287   4.355   1.912  16.865  0.5693  0.6556 -0.4255
  832MPD2    C512288   4.468   1.863  16.927 -0.5364 -0.9799  0.3264
  832MPD2     H12289   4.377   2.237  16.963  1.4653  0.5720 -2.0391
  832MPD2    H112290   4.306   1.840  16.801 -0.8422  0.8544  0.4392
  832MPD2    H212291   4.645   1.909  17.040 -2.2520 -1.9060  1.3719
  832MPD2    H312292   4.487   1.756  16.922  0.0798 -0.9039  1.0364
  832MPD2     N12293   4.182   2.091  16.826 -0.5343  0.2482 -0.6980
  832MPD2    H512294   4.129   2.022  16.773 -1.8488  0.4137  0.3967
  832MPD2    N112295   4.609   2.155  17.091  0.4743 -0.0465 -0.2296
  832MPD2    H712296   4.684   2.102  17.135  0.4433 -0.0242 -0.1507
  833MPD2     C12297   1.495   3.520  12.904 -0.0575 -0.3940 -0.1871
  833MPD2    C112298   1.486   3.656  12.864  0.4751 -0.0484 -0.3488
  833MPD2    C212299   1.548   3.688  12.745 -0.2618 -0.5985  0.2664
  833MPD2    C312300   1.622   3.593  12.672 -0.4079 -0.8351  1.0595
  833MPD2    C412301   1.634   3.465  12.725  0.2642 -0.3471 -0.0062
  833MPD2    C512302   1.564   3.421  12.833 -0.7916 -0.7607  0.0657
  833MPD2     H12303   1.526   3.784  12.699  0.7658  0.6216  2.2921
  833MPD2    H112304   1.696   3.395  12.669  1.6761  1.3211 -0.5557
  833MPD2    H212305   1.470   3.490  13.005  1.6383  1.3342  0.7255
  833MPD2    H312306   1.576   3.323  12.879 -0.7167 -0.6844  0.2079
  833MPD2     N12307   1.677   3.643  12.553  0.5289  0.1566  0.0416
  833MPD2    H512308   1.654   3.741  12.542 -0.4117  0.1438  1.9526
  833MPD2    N112309   1.425   3.751  12.947 -0.1420  0.3635 -0.5771
  833MPD2    H712310   1.383   3.717  13.033 -0.9684  0.1013 -1.0921
  834MPD2     C12311   1.559   3.570  11.527  0.0405  0.0998 -0.1630
  834MPD2    C112312   1.462   3.646  11.586 -0.1952 -0.5985  0.7288
  834MPD2    C212313   1.495   3.678  11.722 -0.7713 -0.1808 -0.0641
  834MPD2    C312314   1.615   3.634  11.783  0.3569 -0.5078 -0.8586
  834MPD2    C412315   1.706   3.560  11.718  0.6799  0.8466  0.5005
  834MPD2    C512316   1.670   3.530  11.585 -0.0168 -0.6453 -0.1770
  834MPD2     H12317   1.413   3.722  11.777 -1.4091 -0.2293 -0.9709
  834MPD2    H112318   1.805   3.534  11.754 -0.2970 -1.6421  1.3915
  834MPD2    H212319   1.539   3.541  11.424 -1.0333  2.2498 -0.5646
  834MPD2    H312320   1.745   3.477  11.526 -0.0989 -1.7303  0.7072
  834MPD2     N12321   1.634   3.675  11.916 -0.0199 -0.3000 -0.1667
  834MPD2    H512322   1.564   3.736  11.956 -0.4915 -1.6356  1.0260
  834MPD2    N112323   1.328   3.663  11.539 -0.4625 -0.1619 -0.3517
  834MPD2    H712324   1.258   3.696  11.604  0.1689  0.1789  0.1483
  835MPD2     C12325   1.529   1.485  11.281 -0.0365  0.0763  0.5821
  835MPD2    C112326   1.562   1.614  11.297 -0.8338 -0.0316 -0.5596
  835MPD2    C212327   1.672   1.647  11.369 -0.3145  0.0037 -0.9077
  835MPD2    C312328   1.753   1.552  11.424  0.7934  0.7121 -0.7941
  835MPD2    C412329   1.720   1.421  11.406  0.2617 -0.2005 -0.0781
  835MPD2    C512330   1.611   1.384  11.331 -0.1296  0.2098 -0.7974
  835MPD2     H12331   1.698   1.752  11.378 -0.3701 -0.0375 -0.2653
  835MPD2    H112332   1.779   1.346  11.457  2.6983  0.7788 -1.4447
  835MPD2    H212333   1.441   1.452  11.226  0.0782  3.0313 -1.3704
  835MPD2    H312334   1.584   1.279  11.324  3.1098 -0.6493 -0.1668
  835MPD2     N12335   1.854   1.580  11.519  0.1687 -0.3775 -0.4252
  835MPD2    H512336   1.905   1.501  11.557  1.2155  0.6965  0.4227
  835MPD2    N112337   1.479   1.712  11.249 -0.7003  0.3569  0.0585
  835MPD2    H712338   1.514   1.807  11.253 -0.3515  0.0940  3.3726
  836MPD2     C12339   1.525   1.987  11.832 -0.7230 -0.4233  0.5832
  836MPD2    C112340   1.588   1.911  11.927 -0.2206 -0.3459  0.1394
  836MPD2    C212341   1.510   1.875  12.038 -0.2752 -0.4450 -1.1013
  836MPD2    C312342   1.382   1.931  12.056  0.7309  0.3104 -0.1877
  836MPD2    C412343   1.333   2.027  11.962  0.3624 -0.9931  0.5898
  836MPD2    C512344   1.406   2.054  11.853 -0.1684 -0.4066 -0.6683
  836MPD2     H12345   1.546   1.804  12.112 -0.0625 -0.6871 -1.4364
  836MPD2    H112346   1.235   2.072  11.967  0.0921 -1.8813  3.0319
  836MPD2    H212347   1.583   2.006  11.742 -0.3499 -1.6371  0.5741
  836MPD2    H312348   1.360   2.116  11.776  0.5203  1.0332  0.0843
  836MPD2     N12349   1.295   1.906  12.166  0.1966  0.2059 -0.1794
  836MPD2    H512350   1.215   1.966  12.183  1.1551  1.5601 -0.4279
  836MPD2    N112351   1.716   1.851  11.908 -0.3316  1.0869  0.4452
  836MPD2    H712352   1.765   1.887  11.827 -0.9188 -0.8235 -0.7564
  837MPD2     C12353   4.352   1.778  10.682 -0.1822 -0.5167 -0.5669
  837MPD2    C112354   4.273   1.758  10.572 -0.5363  0.4006  0.3934
  837MPD2    C212355   4.260   1.859  10.489 -0.3727  0.1163  0.2987
  837MPD2    C312356   4.320   1.986  10.511 -0.0461 -0.6308 -1.1456
  837MPD2    C412357   4.405   2.003  10.618  1.0290 -0.0713  0.1136
  837MPD2    C512358   4.428   1.892  10.698 -0.2053 -0.7714 -0.0827
  837MPD2     H12359   4.182   1.863  10.414 -0.9246  3.0615  1.0175
  837MPD2    H112360   4.469   2.089  10.635 -0.0018  0.1565  2.8683
  837MPD2    H212361   4.371   1.702  10.756  1.0672  0.9584  0.6377
  837MPD2    H312362   4.505   1.904  10.774 -0.6455  1.8531 -0.0493
  837MPD2     N12363   4.281   2.088  10.422  0.0278 -0.0513  0.2965
  837MPD2    H512364   4.216   2.056  10.350  0.7418  0.1190 -0.4272
  837MPD2    N112365   4.193   1.643  10.550  0.3272 -0.5020  0.0818
  837MPD2    H712366   4.146   1.641  10.460  2.3017  0.0524 -0.9675
  838MPD2     C12367   2.498   3.906  11.110  0.1350  0.9443  0.4567
  838MPD2    C112368   2.491   3.996  11.215  0.5826 -0.6595  0.0063
  838MPD2    C212369   2.397   3.971  11.310 -0.1702 -0.4069  0.2406
  838MPD2    C312370   2.321   3.856  11.310  0.5327  0.0765 -0.2689
  838MPD2    C412371   2.333   3.767  11.206 -0.5062  0.1516 -0.2956
  838MPD2    C512372   2.418   3.798  11.095  0.5308 -0.0943  0.1723
  838MPD2     H12373   2.374   4.048  11.383 -0.8826 -0.8764  0.5189
  838MPD2    H112374   2.283   3.672  11.201  0.3333 -0.3833  1.4365
  838MPD2    H212375   2.562   3.931  11.027 -0.4174  2.0111  0.3555
  838MPD2    H312376   2.424   3.729  11.012  0.7506 -0.6726  0.6651
  838MPD2     N12377   2.228   3.836  11.414 -0.6782  0.2418 -0.6004
  838MPD2    H512378   2.234   3.902  11.491 -0.4512 -1.3912  0.7787
  838MPD2    N112379   2.572   4.111  11.212  0.4852  0.3472 -0.6442
  838MPD2    H712380   2.642   4.114  11.140  1.7596  2.8744  0.7012
  839MPD2     C12381   2.772   4.243  11.902 -0.7674  0.3921 -0.2902
  839MPD2    C112382   2.769   4.212  11.769  0.6277 -0.3211 -0.4863
  839MPD2    C212383   2.794   4.311  11.681  0.2625  0.4072 -0.0228
  839MPD2    C312384   2.809   4.444  11.716 -0.4565 -0.5201 -0.1152
  839MPD2    C412385   2.822   4.469  11.845 -0.6184  0.5054  0.2810
  839MPD2    C512386   2.810   4.369  11.935 -0.2925 -0.0349 -0.0697
  839MPD2     H12387   2.792   4.274  11.580  1.0911  2.3220 -0.7487
  839MPD2    H112388   2.846   4.568  11.882  2.2370 -0.0111 -0.1537
  839MPD2    H212389   2.763   4.169  11.980 -1.6621  0.8934  0.0846
  839MPD2    H312390   2.825   4.394  12.039 -0.7633  2.0714 -0.5045
  839MPD2     N12391   2.827   4.554  11.632 -0.6526  0.0009  1.0387
  839MPD2    H512392   2.828   4.645  11.679 -0.2759 -0.2474  1.5153
  839MPD2    N112393   2.743   4.084  11.710  0.0056 -0.2501 -0.1682
  839MPD2    H712394   2.741   4.071  11.609 -1.1069 -0.7116 -0.0921
  840MPD2     C12395   2.775   2.146  10.149 -0.8498  0.3760  0.1335
  840MPD2    C112396   2.788   2.088  10.274  0.2091 -0.2769 -0.7130
  840MPD2    C212397   2.898   2.119  10.354 -0.0606  0.0850 -0.9130
  840MPD2    C312398   2.980   2.225  10.309 -0.1319 -0.2587  0.5565
  840MPD2    C412399   2.958   2.289  10.190  0.2138 -0.5874  0.1498
  840MPD2    C512400   2.862   2.246  10.106  0.4346 -0.2396  0.2155
  840MPD2     H12401   2.923   2.066  10.445 -1.7433  0.6920 -0.0913
  840MPD2    H112402   3.021   2.373  10.162  0.6220 -1.0620 -0.3511
  840MPD2    H212403   2.701   2.122  10.073 -0.1793 -1.8302  0.1689
  840MPD2    H312404   2.854   2.296  10.010  0.4678  1.2386  0.9788
  840MPD2     N12405   3.081   2.278  10.381 -0.1368 -0.2589 -0.1645
  840MPD2    H512406   3.128   2.360  10.343 -0.7577  1.2287  2.3124
  840MPD2    N112407   2.700   1.985  10.302 -0.3546 -0.0967  0.6716
  840MPD2    H712408   2.639   1.955  10.226 -0.9931  0.1934  1.0700
  841MPD2     C12409   2.569   1.706  14.263  0.1629  0.4351 -0.5158
  841MPD2    C112410   2.626   1.590  14.317  0.0909  0.6882  0.2019
  841MPD2    C212411   2.738   1.608  14.404 -0.6025 -0.8502 -0.5335
  841MPD2    C312412   2.781   1.737  14.444  0.3139  0.5402 -0.2959
  841MPD2    C412413   2.727   1.845  14.378  0.5684 -0.1806 -0.8442
  841MPD2    C512414   2.623   1.834  14.288 -0.6025 -0.2154 -0.4080
  841MPD2     H12415   2.781   1.516  14.443  0.5891 -0.5527 -1.1361
  841MPD2    H112416   2.764   1.946  14.398  1.4332 -0.2998 -1.7935
  841MPD2    H212417   2.475   1.709  14.208  0.2266 -1.1425 -0.7064
  841MPD2    H312418   2.585   1.919  14.233 -1.0943 -0.4193 -0.3899
  841MPD2     N12419   2.884   1.743  14.538  0.3262 -0.3537  0.0394
  841MPD2    H512420   2.921   1.663  14.588  2.5466  0.3008 -0.5852
  841MPD2    N112421   2.587   1.459  14.280  0.0044  0.2620  0.1931
  841MPD2    H712422   2.614   1.382  14.340  0.0237  0.5762  0.5852
  842MPD2     C12423   3.797   2.530  16.923 -0.1306 -0.1885 -0.0370
  842MPD2    C112424   3.685   2.456  16.964 -0.4606  0.2751  0.6230
  842MPD2    C212425   3.707   2.369  17.071  0.1139 -0.7483 -0.2771
  842MPD2    C312426   3.825   2.361  17.137 -0.6038 -0.3261  0.0040
  842MPD2    C412427   3.938   2.429  17.087  0.2557 -0.1859 -0.3392
  842MPD2    C512428   3.921   2.513  16.984 -0.1743 -0.2434 -0.0085
  842MPD2     H12429   3.625   2.301  17.094 -0.0747 -0.0704  1.0417
  842MPD2    H112430   4.039   2.420  17.126 -0.7516 -0.0764  2.3163
  842MPD2    H212431   3.784   2.599  16.840  2.5087 -0.4653 -0.6683
  842MPD2    H312432   4.011   2.566  16.956 -1.2516  3.2825  3.3141
  842MPD2     N12433   3.847   2.271  17.248 -0.1738  0.8344  0.4091
  842MPD2    H512434   3.935   2.224  17.261 -1.0536 -1.1413 -0.8961
  842MPD2    N112435   3.566   2.506  16.915 -0.5658 -0.4401 -0.0974
  842MPD2    H712436   3.576   2.573  16.840 -0.5933  0.4457  0.6974
  843MPD2     C12437   0.801   3.145  17.669 -0.2152  0.4068  0.4869
  843MPD2    C112438   0.890   3.104   0.030 -0.6143  0.3253 -0.2678
  843MPD2    C212439   0.969   3.198   0.099  0.1590 -0.3460  0.0826
  843MPD2    C312440   0.979   3.327   0.055  0.4002 -0.0273  0.4319
  843MPD2    C412441   0.904   3.368  17.687 -0.0389  0.3730  0.2985
  843MPD2    C512442   0.810   3.278  17.638  0.0151  0.0625  0.2382
  843MPD2     H12443   1.034   3.157   0.175 -0.7836 -2.8053 -0.4630
  843MPD2    H112444   0.896   3.472  17.657 -3.6210  0.4454  1.5175
  843MPD2    H212445   0.739   3.076  17.614 -0.4177 -0.7051  2.0998
  843MPD2    H312446   0.746   3.318  17.560  1.5106 -2.9918 -2.5476
  843MPD2     N12447   1.059   3.426   0.123 -0.0261 -0.1137  0.5467
  843MPD2    H512448   1.079   3.505   0.063  0.0360  0.0267  0.7533
  843MPD2    N112449   0.883   2.966   0.052 -0.6952  0.1606 -0.1020
  843MPD2    H712450   0.806   2.916   0.007  0.3699 -1.3081 -0.2860
  844MPD2     C12451   3.735   1.625  16.336  0.7696  0.6879 -0.2386
  844MPD2    C112452   3.760   1.692  16.222 -0.2138  0.5367 -0.5349
  844MPD2    C212453   3.828   1.808  16.238 -0.2443  0.3032 -0.5681
  844MPD2    C312454   3.895   1.842  16.356 -0.0634 -0.3059 -0.4059
  844MPD2    C412455   3.872   1.758  16.468  1.7873  0.3154  0.1208
  844MPD2    C512456   3.791   1.653  16.451 -0.5633  0.5847  0.1645
  844MPD2     H12457   3.860   1.857  16.147  1.8713 -1.2015 -0.6311
  844MPD2    H112458   3.919   1.765  16.565  2.2422 -3.2015  0.1431
  844MPD2    H212459   3.682   1.531  16.331  1.1555  0.2964  3.0828
  844MPD2    H312460   3.746   1.595  16.531  1.2022  0.6216  1.1775
  844MPD2     N12461   3.989   1.949  16.368  0.0534 -0.3267 -0.7504
  844MPD2    H512462   4.048   1.941  16.450 -0.7671  1.5631  0.0199
  844MPD2    N112463   3.716   1.649  16.093 -0.0878  0.2302 -0.0563
  844MPD2    H712464   3.734   1.711  16.016  0.6656 -0.6584 -0.5947
  845MPD2     C12465   4.208   2.884  16.713  0.5225  0.5694 -0.4694
  845MPD2    C112466   4.238   2.781  16.795  0.0243 -0.0037 -0.5083
  845MPD2    C212467   4.232   2.656  16.738 -0.3558  0.3182 -0.1505
  845MPD2    C312468   4.211   2.639  16.602  0.2368 -0.2143 -0.2279
  845MPD2    C412469   4.179   2.748  16.526  0.3920 -0.4718 -0.5222
  845MPD2    C512470   4.175   2.870  16.582 -0.0406  0.1522 -0.3907
  845MPD2     H12471   4.252   2.567  16.797 -0.2895  1.3293  1.3515
  845MPD2    H112472   4.161   2.747  16.419 -0.3968  0.7041 -0.3968
  845MPD2    H212473   4.229   2.981  16.756  1.3163 -0.2652  1.0312
  845MPD2    H312474   4.177   2.958  16.519  3.3814 -0.8888 -1.7596
  845MPD2     N12475   4.236   2.510  16.559 -0.5325  0.2434 -0.2460
  845MPD2    H512476   4.248   2.438  16.630  2.8222  0.2335 -0.8634
  845MPD2    N112477   4.261   2.799  16.933 -0.0548  0.4197  0.0484
  845MPD2    H712478   4.270   2.897  16.958  0.0606  0.3433  0.3139
  846MPD2     C12479   0.697   3.073  13.518 -0.3338  0.7302  0.1151
  846MPD2    C112480   0.650   3.174  13.596  0.3988  0.5991 -0.4453
  846MPD2    C212481   0.686   3.181  13.729 -0.2990  0.4192 -0.0841
  846MPD2    C312482   0.766   3.088  13.787 -1.0893  0.9732 -0.6081
  846MPD2    C412483   0.805   2.981  13.711 -0.2309 -0.9279  0.1633
  846MPD2    C512484   0.783   2.983  13.574  0.1745  0.4077  0.0570
  846MPD2     H12485   0.647   3.260  13.792 -2.0892  1.5442 -2.6055
  846MPD2    H112486   0.870   2.901  13.742 -1.6512 -1.7575  1.0028
  846MPD2    H212487   0.659   3.052  13.418 -0.7400 -0.2476  0.4653
  846MPD2    H312488   0.811   2.901  13.508  1.3430 -0.4122  1.5702
  846MPD2     N12489   0.798   3.097  13.924 -0.3358 -0.0250 -0.2136
  846MPD2    H512490   0.751   3.175  13.968 -1.5700 -0.0250 -1.5259
  846MPD2    N112491   0.560   3.276  13.543 -0.4384 -0.1552 -0.4592
  846MPD2    H712492   0.523   3.348  13.603 -0.8324 -0.6067 -0.1594
  847MPD2     C12493   1.022   3.807  14.177  0.2236  0.6824  0.7576
  847MPD2    C112494   1.051   3.781  14.308 -0.1675  0.1029 -0.3074
  847MPD2    C212495   1.154   3.694  14.343 -0.2783  0.1006  0.0136
  847MPD2    C312496   1.243   3.646  14.250  0.7925 -0.2029 -0.2145
  847MPD2    C412497   1.218   3.667  14.123 -0.1990 -0.6658 -0.3866
  847MPD2    C512498   1.108   3.737  14.091  0.0692 -0.0855  0.4287
  847MPD2     H12499   1.174   3.683  14.449 -0.9288 -2.6642 -0.1644
  847MPD2    H112500   1.279   3.613  14.052  3.1916  1.0707  1.2203
  847MPD2    H212501   0.946   3.875  14.140  1.5278  0.8780 -1.5149
  847MPD2    H312502   1.097   3.762  13.986 -1.4842 -1.5422  0.2344
  847MPD2     N12503   1.356   3.572  14.290 -0.1559  0.3528  0.0913
  847MPD2    H512504   1.433   3.572  14.223  2.0049  0.5257  2.5586
  847MPD2    N112505   0.979   3.828  14.418  0.8514 -0.3628  0.6928
  847MPD2    H712506   0.997   3.790  14.510  0.8431 -0.7634  0.5283
  848MPD2     C12507   3.879   2.562  16.258  0.1150  0.6429 -0.4557
  848MPD2    C112508   3.880   2.615  16.388 -0.3697 -0.3743 -0.7783
  848MPD2    C212509   3.883   2.749  16.411  0.2747 -0.4515 -0.1604
  848MPD2    C312510   3.883   2.838  16.298  0.6585 -0.1844  0.2969
  848MPD2    C412511   3.893   2.786  16.173  0.0080 -0.2080 -0.0851
  848MPD2    C512512   3.889   2.652  16.152 -0.5785  0.0509 -0.1674
  848MPD2     H12513   3.872   2.790  16.511  0.7610 -0.4213 -0.1191
  848MPD2    H112514   3.904   2.847  16.084 -0.0677 -0.4302 -0.2464
  848MPD2    H212515   3.856   2.459  16.231  1.8253 -0.1403  1.0946
  848MPD2    H312516   3.876   2.612  16.052  0.3405  1.1679 -0.7349
  848MPD2     N12517   3.885   2.982  16.305  0.2877  0.5034 -0.2989
  848MPD2    H512518   3.882   3.041  16.223 -0.5326  3.1560  1.6589
  848MPD2    N112519   3.866   2.526  16.500  0.6921 -0.3265  0.2950
  848MPD2    H712520   3.867   2.579  16.587 -0.8054 -1.5716  1.0911
  849MPD2     C12521   3.168   2.344  13.872  0.0017  0.1847  0.2298
  849MPD2    C112522   3.274   2.402  13.810  0.7610 -0.6017 -0.4215
  849MPD2    C212523   3.382   2.432  13.888 -0.1577  0.2540 -0.4120
  849MPD2    C312524   3.386   2.404  14.026  0.7215  0.8128 -0.3698
  849MPD2    C412525   3.266   2.361  14.087 -0.6775  0.3174 -0.9402
  849MPD2    C512526   3.161   2.329  14.011 -0.2242  0.0137 -0.2826
  849MPD2     H12527   3.479   2.454  13.844  0.2544 -2.6952 -1.0118
  849MPD2    H112528   3.250   2.357  14.194 -0.8406 -0.5617 -1.0024
  849MPD2    H212529   3.081   2.310  13.817  1.6852 -0.1503 -2.2185
  849MPD2    H312530   3.075   2.284  14.060  1.3774 -2.4690  0.1981
  849MPD2     N12531   3.512   2.420  14.088  0.1937 -0.3409 -0.2467
  849MPD2    H512532   3.588   2.448  14.028  0.2745 -1.3083 -0.5889
  849MPD2    N112533   3.263   2.436  13.670  0.6777 -0.0631  0.1804
  849MPD2    H712534   3.210   2.379  13.604  0.1971 -0.1943  0.6748
  850MPD2     C12535   0.953   4.592  14.900  0.0358 -0.0056  0.6203
  850MPD2    C112536   0.971   4.725  14.929  0.0413 -0.1274  0.3026
  850MPD2    C212537   1.099   0.041  14.926 -0.1047  0.6179 -0.2564
  850MPD2    C312538   1.208   4.684  14.917  0.2722 -0.0556  0.1043
  850MPD2    C412539   1.189   4.556  14.878  0.7188 -0.7408  0.0148
  850MPD2    C512540   1.060   4.511  14.881 -0.9293  0.2133  0.0780
  850MPD2     H12541   1.109   0.149  14.932 -2.4289  0.7123  2.1695
  850MPD2    H112542   1.268   4.482  14.870  0.4008 -0.9701 -0.9519
  850MPD2    H212543   0.856   4.545  14.913  0.9411 -2.6386 -2.2940
  850MPD2    H312544   1.045   4.405  14.865 -0.3828  0.0505  0.6323
  850MPD2     N12545   1.342   4.719  14.947  0.3442 -0.5909  0.6902
  850MPD2    H512546   1.413   4.650  14.925  0.6097 -0.1430  0.1470
  850MPD2    N112547   0.850   0.065  14.948 -0.4382  0.7360 -0.1955
  850MPD2    H712548   0.767   0.015  14.917 -0.7127  1.3782 -0.5038
  851MPD2     C12549   1.520   0.151  15.451  0.5648  0.7437 -0.4719
  851MPD2    C112550   1.395   0.104  15.403 -0.0608 -0.8101  0.2838
  851MPD2    C212551   1.371   4.711  15.357 -0.4063  0.2416  0.5728
  851MPD2    C312552   1.483   4.624  15.356 -0.3831 -0.9350  0.3699
  851MPD2    C412553   1.604   4.661  15.419 -0.7502 -1.0034 -0.4650
  851MPD2    C512554   1.619   0.063  15.450 -0.3239  0.3970  0.7014
  851MPD2     H12555   1.279   4.674  15.312 -0.0185 -0.8835  0.7150
  851MPD2    H112556   1.685   4.589  15.423 -0.0530 -0.3244 -2.5246
  851MPD2    H212557   1.528   0.254  15.483 -2.0369  0.7434  0.1922
  851MPD2    H312558   1.716   0.080  15.496 -0.4672  2.4212  0.2274
  851MPD2     N12559   1.461   4.489  15.311  0.6114  0.5146 -0.0066
  851MPD2    H512560   1.382   4.484  15.248 -0.3665  1.2886  1.1556
  851MPD2    N112561   1.288   0.201  15.391 -0.2612  0.7491  0.4535
  851MPD2    H712562   1.302   0.300  15.409  3.0608  0.2058  0.9109
  852MPD2     C12563   0.592   2.300  10.604 -0.0828 -0.2373 -0.2952
  852MPD2    C112564   0.589   2.420  10.676  0.1810  0.1553  0.2460
  852MPD2    C212565   0.576   2.540  10.609 -0.4594  1.0042  0.3014
  852MPD2    C312566   0.571   2.535  10.473 -0.4067 -0.0105 -0.4444
  852MPD2    C412567   0.561   2.423  10.404 -0.6570 -0.5339  0.3167
  852MPD2    C512568   0.578   2.302  10.465 -0.4677 -0.0890  0.0115
  852MPD2     H12569   0.576   2.631  10.669 -1.4233  0.9654  0.3614
  852MPD2    H112570   0.558   2.421  10.295 -1.6487 -0.0251  0.3389
  852MPD2    H212571   0.608   2.197  10.635  0.0891  0.0893  0.7033
  852MPD2    H312572   0.571   2.209  10.410  0.9635  0.5755 -1.3061
  852MPD2     N12573   0.557   2.660  10.408 -0.9483  0.2581 -0.4552
  852MPD2    H512574   0.551   2.739  10.472  1.5646 -1.8789  2.4410
  852MPD2    N112575   0.597   2.425  10.813 -0.2322  0.1601  0.7949
  852MPD2    H712576   0.572   2.510  10.862 -0.1715  0.0917  0.9433
  853MPD2     C12577   2.482   2.255  12.173  0.1810  0.3557  0.7139
  853MPD2    C112578   2.506   2.393  12.172  0.0410  0.1086  0.0770
  853MPD2    C212579   2.506   2.466  12.055 -0.4807  0.1889 -0.2464
  853MPD2    C312580   2.468   2.401  11.936  0.1893  0.0338  0.3407
  853MPD2    C412581   2.455   2.260  11.929  0.0384 -0.2600 -0.2972
  853MPD2    C512582   2.458   2.191  12.047 -0.4183  0.4945 -0.8533
  853MPD2     H12583   2.524   2.572  12.067  0.2879 -0.1124  1.2917
  853MPD2    H112584   2.423   2.210  11.838  0.0091  0.4838 -0.6972
  853MPD2    H212585   2.477   2.199  12.266  0.0827 -2.4505 -0.9936
  853MPD2    H312586   2.426   2.088  12.042  2.4760 -0.3966 -0.7556
  853MPD2     N12587   2.441   2.477  11.821  0.1369  0.2572 -0.1148
  853MPD2    H512588   2.423   2.427  11.734 -1.6692  0.6025  0.0531
  853MPD2    N112589   2.521   2.466  12.293  0.3204  0.1156 -0.9396
  853MPD2    H712590   2.527   2.568  12.293 -1.2879  0.1999 -2.0751
  854MPD2     C12591   3.939   2.794  12.932  0.1423 -0.2837  0.0085
  854MPD2    C112592   4.005   2.911  12.958  0.6912 -0.0886 -0.3350
  854MPD2    C212593   4.137   2.902  12.999 -0.3800  1.1101  0.3270
  854MPD2    C312594   4.199   2.776  13.013  0.8353 -0.0945  0.4676
  854MPD2    C412595   4.121   2.667  13.000  0.7186  0.2860 -0.2942
  854MPD2    C512596   3.998   2.674  12.951 -0.2085  0.4257  0.5403
  854MPD2     H12597   4.194   2.993  13.008  1.0385  0.1994  0.6105
  854MPD2    H112598   4.166   2.568  13.001 -1.7244 -0.8481 -2.2215
  854MPD2    H212599   3.840   2.786  12.887  0.5353  1.4096 -1.1584
  854MPD2    H312600   3.942   2.585  12.925  0.0454  0.5997 -0.6250
  854MPD2     N12601   4.338   2.763  13.030 -0.1558  0.6374  0.0417
  854MPD2    H512602   4.366   2.667  13.047  1.3497  0.9779 -0.5002
  854MPD2    N112603   3.935   3.036  12.949 -0.6939  0.9990 -0.0448
  854MPD2    H712604   3.833   3.035  12.946 -0.6398  2.0146 -2.0332
  855MPD2     C12605   0.035   2.042  12.945  0.3848  0.7348 -0.1838
  855MPD2    C112606   0.075   2.091  13.068 -0.1080  0.0902  0.2110
  855MPD2    C212607   0.046   2.217  13.101 -0.1859 -0.4255  0.1492
  855MPD2    C312608   4.723   2.306  13.011  0.0158 -0.2305  0.2128
  855MPD2    C412609   4.686   2.257  12.883 -0.0245  0.4478 -0.2729
  855MPD2    C512610   4.712   2.124  12.853 -0.2012 -0.3439 -0.0385
  855MPD2     H12611   0.087   2.255  13.194  0.5242  0.1845 -0.4077
  855MPD2    H112612   4.653   2.327  12.808 -1.1443 -1.1519 -1.2552
  855MPD2    H212613   0.068   1.943  12.916 -0.5340  0.9238 -1.8428
  855MPD2    H312614   4.701   2.093  12.749 -1.9087  1.6398 -0.4520
  855MPD2     N12615   4.699   2.441  13.044  0.3327 -0.0684  0.0540
  855MPD2    H512616   4.665   2.498  12.968 -3.1546 -1.7946  0.3307
  855MPD2    N112617   0.118   2.006  13.172 -0.3891 -0.2166 -0.0292
  855MPD2    H712618   0.132   2.051  13.262 -0.0945 -1.9372  0.7883
  856MPD2     C12619   1.806   3.360  13.626  0.6629 -0.5949  0.5967
  856MPD2    C112620   1.824   3.430  13.743 -0.6981 -0.3573  0.2839
  856MPD2    C212621   1.732   3.519  13.786  0.5066  0.0863  0.0111
  856MPD2    C312622   1.616   3.546  13.716 -0.4462 -0.3686 -0.5168
  856MPD2    C412623   1.589   3.463  13.610 -0.2438 -0.1410  0.4326
  856MPD2    C512624   1.686   3.374  13.561 -0.4128  0.4835  0.4914
  856MPD2     H12625   1.751   3.569  13.881 -2.2338  0.4197  0.3980
  856MPD2    H112626   1.502   3.470  13.546  0.8902  0.9089 -1.0077
  856MPD2    H212627   1.867   3.274  13.598 -0.5809 -1.4785  0.5872
  856MPD2    H312628   1.669   3.310  13.475  1.0128 -1.6734  1.8473
  856MPD2     N12629   1.535   3.655  13.749 -0.4171  0.0619 -0.8099
  856MPD2    H512630   1.455   3.687  13.695 -1.2645  0.2296  0.5377
  856MPD2    N112631   1.943   3.404  13.817  0.0584  0.0177 -0.4105
  856MPD2    H712632   1.947   3.453  13.906 -2.6373 -1.1646  0.3704
  857MPD2     C12633   3.081   1.032  13.134 -0.1363 -0.0084 -0.0744
  857MPD2    C112634   3.172   1.110  13.074 -0.2564  0.2978 -0.0659
  857MPD2    C212635   3.247   1.200  13.153 -0.1528 -0.2683 -0.5227
  857MPD2    C312636   3.240   1.191  13.290  0.0369  0.1845 -0.2813
  857MPD2    C412637   3.144   1.116  13.351 -0.7995  0.1472 -0.2877
  857MPD2    C512638   3.062   1.038  13.274  0.0608  0.2455 -0.4074
  857MPD2     H12639   3.315   1.271  13.108  0.5123 -1.3579 -1.2146
  857MPD2    H112640   3.125   1.122  13.458  1.5944  1.7997  0.0354
  857MPD2    H212641   3.019   0.960  13.082  1.7208 -1.3037 -0.4890
  857MPD2    H312642   2.976   0.982  13.310 -0.6577  0.4202 -1.8244
  857MPD2     N12643   3.328   1.275  13.362  0.3988 -0.2033 -0.0178
  857MPD2    H512644   3.383   1.340  13.307  1.7842 -1.3041  0.0823
  857MPD2    N112645   3.175   1.106  12.932  0.4218  0.9504  0.0307
  857MPD2    H712646   3.108   1.040  12.894  1.5096 -0.8966  1.3660
  858MPD2     C12647   4.069   0.151  16.646 -0.5581  0.2124 -0.9073
  858MPD2    C112648   4.122   0.035  16.706 -0.3496  0.0895 -0.2834
  858MPD2    C212649   4.163   0.043  16.837  0.4748 -0.3046 -0.2536
  858MPD2    C312650   4.166   0.164  16.908 -0.1353 -0.1004 -0.2923
  858MPD2    C412651   4.107   0.275  16.851  0.5327 -0.1705 -0.3379
  858MPD2    C512652   4.049   0.265  16.723 -0.1623 -0.0903  0.0202
  858MPD2     H12653   4.208   4.692  16.884 -1.3231 -1.0066  0.2076
  858MPD2    H112654   4.087   0.367  16.904 -0.9238 -1.3126  1.1158
  858MPD2    H212655   4.030   0.147  16.545 -1.6503  0.8517 -0.5173
  858MPD2    H312656   4.000   0.346  16.670  0.9519  0.9313  0.5481
  858MPD2     N12657   4.233   0.184  17.030  0.4785 -0.0316 -0.0498
  858MPD2    H512658   4.229   0.279  17.064 -1.6500 -0.8495  1.9585
  858MPD2    N112659   4.139   4.657  16.625  0.0231 -0.0182  0.3533
  858MPD2    H712660   4.102   4.671  16.531 -0.9418 -1.2991  0.5339
  859MPD2     C12661   3.248   2.580  15.921 -0.2701  0.8380 -0.6101
  859MPD2    C112662   3.199   2.544  15.797  0.0656 -0.7309 -0.9927
  859MPD2    C212663   3.151   2.417  15.780 -0.5945  0.0090  0.2466
  859MPD2    C312664   3.130   2.340  15.890 -0.2449 -0.7371 -0.5786
  859MPD2    C412665   3.173   2.369  16.018  0.5422  0.2585 -0.1024
  859MPD2    C512666   3.233   2.496  16.034 -0.0523  1.0192 -0.3618
  859MPD2     H12667   3.113   2.369  15.690  1.0293 -0.1336 -0.3698
  859MPD2    H112668   3.156   2.305  16.103 -2.7437 -2.2062 -2.6205
  859MPD2    H212669   3.294   2.677  15.938 -0.9762  1.1671 -0.6083
  859MPD2    H312670   3.262   2.534  16.131 -0.0805  1.2421 -0.4413
  859MPD2     N12671   3.074   2.206  15.880 -0.0561  0.5313 -0.3197
  859MPD2    H512672   3.041   2.163  15.966 -2.6982 -1.7082 -2.4144
  859MPD2    N112673   3.209   2.627  15.682  0.4314  0.1865  0.2098
  859MPD2    H712674   3.269   2.708  15.692 -0.9507  1.6289 -3.1068
  860MPD2     C12675   0.801   3.357  12.052  0.0181  0.2757  0.0363
  860MPD2    C112676   0.765   3.250  12.131  0.1752 -0.5479  0.4636
  860MPD2    C212677   0.634   3.235  12.158 -0.0644 -0.5491  0.1324
  860MPD2    C312678   0.538   3.319  12.110  1.5848 -0.4147 -0.6217
  860MPD2    C412679   0.576   3.417  12.023 -0.1491  0.1668 -0.2345
  860MPD2    C512680   0.710   3.435  11.987 -0.1185  0.0120 -0.3111
  860MPD2     H12681   0.605   3.160  12.231 -0.6077 -1.3008 -0.8520
  860MPD2    H112682   0.511   3.497  11.988  2.8982  2.3815 -0.9190
  860MPD2    H212683   0.903   3.384  12.026  0.1678 -0.3241  0.0028
  860MPD2    H312684   0.746   3.509  11.917 -0.8087 -0.2450 -0.9316
  860MPD2     N12685   0.405   3.297  12.156  0.6200  0.2024 -0.0451
  860MPD2    H512686   0.396   3.223  12.224 -1.7128  1.4246  0.9656
  860MPD2    N112687   0.857   3.173  12.207  0.0932 -0.5031  0.0134
  860MPD2    H712688   0.815   3.104  12.269 -1.5958  0.3398 -0.1842
  861MPD2     C12689   3.431   0.884  11.044 -0.1330  0.0049 -0.3746
  861MPD2    C112690   3.493   0.997  11.099  0.7171 -0.1829  0.0226
  861MPD2    C212691   3.480   1.115  11.035 -0.2412 -0.4335  0.1256
  861MPD2    C312692   3.397   1.133  10.925 -0.1413  0.4477 -0.9254
  861MPD2    C412693   3.353   1.018  10.862  0.3940  0.7882  0.0604
  861MPD2    C512694   3.365   0.894  10.928  0.0454 -0.0540 -0.3430
  861MPD2     H12695   3.518   1.203  11.085 -0.9704  1.3449 -2.4376
  861MPD2    H112696   3.302   1.025  10.767 -0.4574  0.2490  0.4767
  861MPD2    H212697   3.432   0.790  11.098 -2.9487 -0.2637 -0.7951
  861MPD2    H312698   3.320   0.805  10.886 -1.9142  0.2847  1.0772
  861MPD2     N12699   3.357   1.256  10.872 -0.2652  0.2576  0.1241
  861MPD2    H512700   3.289   1.254  10.798 -0.5004 -1.7885  0.3895
  861MPD2    N112701   3.545   1.002  11.232 -0.2091  0.2488  0.1147
  861MPD2    H712702   3.583   1.087  11.272 -2.1010  1.5678 -0.8950
  862MPD2     C12703   2.903   1.599  10.399  0.2365 -0.0191 -0.0158
  862MPD2    C112704   2.972   1.499  10.464 -0.2435 -0.0169 -0.4217
  862MPD2    C212705   2.949   1.368  10.428 -0.0224 -0.0632 -0.0428
  862MPD2    C312706   2.843   1.328  10.342  0.1993  0.7646 -0.3933
  862MPD2    C412707   2.776   1.428  10.278 -0.1541 -0.3225 -0.5729
  862MPD2    C512708   2.807   1.560  10.302  0.7511  0.2816 -0.0786
  862MPD2     H12709   2.997   1.295  10.493 -0.2919 -0.0342  0.1894
  862MPD2    H112710   2.693   1.396  10.217  0.2022  0.4424 -1.4649
  862MPD2    H212711   2.915   1.707  10.411 -0.9820  0.2793 -1.5097
  862MPD2    H312712   2.742   1.631  10.251 -2.0808 -0.5081  2.4577
  862MPD2     N12713   2.802   1.195  10.333 -0.4820  0.3369  0.4160
  862MPD2    H512714   2.726   1.173  10.269  0.5048 -0.0453 -0.6120
  862MPD2    N112715   3.065   1.514  10.570 -0.5507 -0.2969 -0.0760
  862MPD2    H712716   3.110   1.431  10.605 -0.7217  0.0682  1.0378
  863MPD2     C12717   2.638   3.574  16.846  0.2797 -0.5326  0.7378
  863MPD2    C112718   2.581   3.654  16.940 -0.9053  0.2336  0.0444
  863MPD2    C212719   2.648   3.660  17.065 -0.4884 -0.3699  0.4442
  863MPD2    C312720   2.764   3.588  17.082  0.1343  0.1358 -0.5838
  863MPD2    C412721   2.812   3.516  16.979 -0.5882  0.4096 -0.3423
  863MPD2    C512722   2.750   3.495  16.867 -0.3063 -0.4136 -0.5457
  863MPD2     H12723   2.600   3.703  17.152  0.8219  1.3557  0.3218
  863MPD2    H112724   2.904   3.459  16.988 -1.0982 -0.1240  1.4736
  863MPD2    H212725   2.592   3.557  16.749 -0.5411 -1.3330  1.2712
  863MPD2    H312726   2.791   3.424  16.796  2.5719  0.7446 -0.0760
  863MPD2     N12727   2.833   3.576  17.206 -0.3317 -0.7876  0.0985
  863MPD2    H512728   2.906   3.505  17.205 -0.2772 -0.7085 -1.4998
  863MPD2    N112729   2.453   3.710  16.911  0.0515 -0.2080  0.0555
  863MPD2    H712730   2.425   3.703  16.814 -0.1623  0.5123  0.0654
  864MPD2     C12731   3.249   0.499  17.434 -0.0687  0.3303  0.8740
  864MPD2    C112732   3.308   0.396  17.370  0.0051 -0.4537  0.5402
  864MPD2    C212733   3.379   0.423  17.260 -1.2400  0.4508 -0.6561
  864MPD2    C312734   3.369   0.549  17.193  0.1619  0.4244  0.3589
  864MPD2    C412735   3.300   0.651  17.259 -0.1913  0.8463  0.1506
  864MPD2    C512736   3.239   0.627  17.382 -0.7081  0.4106  0.4255
  864MPD2     H12737   3.434   0.343  17.213  0.0854  2.0506 -1.8450
  864MPD2    H112738   3.291   0.748  17.212 -0.5073  0.4394 -0.6286
  864MPD2    H212739   3.205   0.472  17.529  1.1653 -1.5938  0.9060
  864MPD2    H312740   3.199   0.711  17.438  0.6087  0.1353  1.7702
  864MPD2     N12741   3.426   0.569  17.075 -0.4696  0.1653 -0.0331
  864MPD2    H512742   3.420   0.666  17.046  0.0402  0.2804  0.2462
  864MPD2    N112743   3.301   0.264  17.422 -0.2411 -0.3509  0.2733
  864MPD2    H712744   3.213   0.250  17.472 -0.1542 -3.2095 -0.4228
  865MPD2     C12745   3.283   0.588  16.207  0.9275  0.4487 -0.0520
  865MPD2    C112746   3.282   0.514  16.327 -0.0065 -0.4283  0.6719
  865MPD2    C212747   3.273   0.581  16.445 -0.7720 -0.2797 -0.2990
  865MPD2    C312748   3.256   0.724  16.440  0.6277  0.1512  0.4128
  865MPD2    C412749   3.234   0.787  16.324  0.4350 -0.0113 -0.5626
  865MPD2    C512750   3.245   0.717  16.206  0.1755  0.5815 -0.0668
  865MPD2     H12751   3.264   0.531  16.541  2.1639  0.2920  0.2736
  865MPD2    H112752   3.213   0.893  16.317 -1.7061 -0.5061 -1.5613
  865MPD2    H212753   3.309   0.559  16.106 -1.9322 -0.3290 -0.5626
  865MPD2    H312754   3.248   0.779  16.118 -2.1223 -0.5153 -0.9255
  865MPD2     N12755   3.267   0.816  16.547  0.1142  0.3523 -0.0920
  865MPD2    H512756   3.222   0.904  16.523 -0.0956 -0.4945 -2.7256
  865MPD2    N112757   3.299   0.377  16.310 -0.5694 -0.2973  0.0220
  865MPD2    H712758   3.309   0.340  16.216 -0.4540  0.7923 -0.3985
  866MPD2     C12759   4.221   1.588  11.763  0.6341 -0.5812  0.3393
  866MPD2    C112760   4.254   1.569  11.628 -0.8261 -1.0672 -0.4378
  866MPD2    C212761   4.174   1.600  11.518 -0.6018  0.6117 -0.7625
  866MPD2    C312762   4.049   1.651  11.541 -0.3036 -0.2721 -0.5473
  866MPD2    C412763   4.006   1.654  11.671 -1.0004  0.8311 -0.3988
  866MPD2    C512764   4.093   1.629  11.781  0.6810 -0.3044  0.0918
  866MPD2     H12765   4.213   1.599  11.417  1.6670  1.4305  0.0989
  866MPD2    H112766   3.908   1.693  11.693 -1.3812 -0.8868  0.9426
  866MPD2    H212767   4.282   1.550  11.844 -0.2590 -0.5532  1.0207
  866MPD2    H312768   4.047   1.620  11.879 -0.5969  0.5216 -0.4394
  866MPD2     N12769   3.955   1.686  11.444 -0.2892 -0.6458 -0.5564
  866MPD2    H512770   3.869   1.724  11.482  0.9296  1.1026  0.4323
  866MPD2    N112771   4.375   1.494  11.613  0.1227 -0.0161  0.0472
  866MPD2    H712772   4.433   1.469  11.693 -0.5289 -0.1474  0.4799
  867MPD2     C12773   2.124   0.277  17.095  0.0983 -0.0780 -0.3129
  867MPD2    C112774   2.248   0.247  17.153  0.4136  0.8388 -0.9226
  867MPD2    C212775   2.337   0.350  17.182 -0.5106 -0.5430  0.6473
  867MPD2    C312776   2.311   0.485  17.148 -0.3726 -0.4770 -0.3082
  867MPD2    C412777   2.194   0.516  17.089  1.1252  0.0698  0.4557
  867MPD2    C512778   2.107   0.410  17.068  0.4635 -0.2660  0.1347
  867MPD2     H12779   2.429   0.327  17.234 -0.1285 -2.1739 -0.7324
  867MPD2    H112780   2.161   0.617  17.069  1.3430  0.0481 -0.0268
  867MPD2    H212781   2.056   0.198  17.067 -0.4429  0.4546 -0.5169
  867MPD2    H312782   2.017   0.440  17.015 -0.2282  0.3687  1.6810
  867MPD2     N12783   2.395   0.593  17.175 -0.1934 -0.1078 -0.3792
  867MPD2    H512784   2.360   0.689  17.171 -2.0641 -0.6522  2.8297
  867MPD2    N112785   2.287   0.116  17.181  0.0443  0.0737 -0.1820
  867MPD2    H712786   2.228   0.039  17.151 -1.4336  1.1971 -0.1218
  868MPD2     C12787   3.587   0.004  13.544  0.2761 -0.6979 -0.5106
  868MPD2    C112788   3.617   4.607  13.559  0.0700 -0.5536  1.2546
  868MPD2    C212789   3.519   4.513  13.583 -0.3926  0.4399 -0.7205
  868MPD2    C312790   3.389   4.556  13.599  1.1469 -0.3907 -0.8196
  868MPD2    C412791   3.359   4.686  13.594 -0.6867  0.2884 -0.2957
  868MPD2    C512792   3.455   0.044  13.565 -0.1887  0.3794  0.2330
  868MPD2     H12793   3.533   4.405  13.582 -2.2820  0.2048 -0.0601
  868MPD2    H112794   3.255   4.713  13.613 -1.5743 -1.1998 -3.0396
  868MPD2    H212795   3.670   0.070  13.517 -1.2706  0.7620 -1.6887
  868MPD2    H312796   3.427   0.149  13.567 -2.7026 -0.2933  0.7225
  868MPD2     N12797   3.293   4.461  13.621  0.1854 -0.1647 -0.4356
  868MPD2    H512798   3.331   4.368  13.602 -0.7561  0.0929 -3.6075
  868MPD2    N112799   3.756   4.564  13.544  0.5953 -0.6935 -0.0976
  868MPD2    H712800   3.814   4.633  13.499 -1.8422  1.0107 -0.6461
  869MPD2     C12801   0.155   2.693   1.296  0.1635  1.1970  0.0789
  869MPD2    C112802   0.214   2.571   1.265  0.0700  1.2891  0.4707
  869MPD2    C212803   0.353   2.549   1.276 -0.6685  0.0687  0.5079
  869MPD2    C312804   0.433   2.645   1.321 -0.1250  0.3955  0.2222
  869MPD2    C412805   0.376   2.767   1.353 -0.0331 -0.7136 -0.4394
  869MPD2    C512806   0.239   2.789   1.344  0.7374  0.2893  0.2153
  869MPD2     H12807   0.400   2.458   1.239 -0.3888  0.0943  0.8010
  869MPD2    H112808   0.438   2.848   1.391 -0.2561 -1.0020  0.5459
  869MPD2    H212809   0.049   2.713   1.301 -0.0839  0.8385 -3.5846
  869MPD2    H312810   0.206   2.891   1.356  0.2464  0.1577 -0.0422
  869MPD2     N12811   0.578   2.639   1.324 -0.0953 -0.0333 -0.5305
  869MPD2    H512812   0.627   2.728   1.317 -1.2337  0.7206  1.0868
  869MPD2    N112813   0.128   2.469   1.215 -0.6001 -0.5351  0.1572
  869MPD2    H712814   0.034   2.502   1.196 -0.4490 -0.8855 -1.1875
  870MPD2     C12815   3.119   0.941   1.026 -0.3163 -0.0549  0.3259
  870MPD2    C112816   3.130   1.083   1.023  0.5770  0.2901 -0.1851
  870MPD2    C212817   3.089   1.154   0.909 -0.3932  0.6409  1.0035
  870MPD2    C312818   3.020   1.074   0.808  0.2768 -0.0374 -0.5236
  870MPD2    C412819   3.009   0.933   0.820  0.9271 -0.5365 -0.0594
  870MPD2    C512820   3.054   0.872   0.931 -0.0718  0.0423 -0.4515
  870MPD2     H12821   3.081   1.262   0.899 -0.1848  0.4241 -1.4330
  870MPD2    H112822   2.959   0.865   0.754 -0.7758 -1.0907  1.8000
  870MPD2    H212823   3.162   0.894   1.114 -1.1859 -0.6014  0.4592
  870MPD2    H312824   3.063   0.764   0.921 -1.0625 -0.1379  0.6242
  870MPD2     N12825   2.995   1.139   0.691 -0.6276 -0.2546  0.2180
  870MPD2    H512826   3.017   1.238   0.689 -4.5884  0.6152  1.0252
  870MPD2    N112827   3.204   1.141   1.129  0.1469 -0.2852  0.4507
  870MPD2    H712828   3.235   1.084   1.207  1.1196 -0.2680  0.0868
  871MPD2     C12829   0.899   0.123  16.426  0.1676  0.0237  0.2160
  871MPD2    C112830   0.884   0.140  16.559 -0.0094  1.2093 -0.2655
  871MPD2    C212831   0.947   0.051  16.648 -0.6531 -1.2685 -0.2150
  871MPD2    C312832   1.035   4.693  16.598  0.4074  0.0930  0.4758
  871MPD2    C412833   1.056   4.680  16.463  0.4727 -0.2414  0.0549
  871MPD2    C512834   0.984   0.027  16.379  0.1982 -0.1168 -0.1040
  871MPD2     H12835   0.920   0.057  16.753  1.7886 -0.6292  0.3624
  871MPD2    H112836   1.127   4.607  16.424  2.4099  1.2866  0.7329
  871MPD2    H212837   0.843   0.176  16.350  1.3114  2.4995  1.0984
  871MPD2    H312838   0.994   0.020  16.271 -0.8890 -2.2417 -0.0675
  871MPD2     N12839   1.084   4.596  16.689  0.0023 -0.0720 -0.3580
  871MPD2    H512840   1.051   4.601  16.785 -0.6829  0.4030 -0.6210
  871MPD2    N112841   0.799   0.247  16.606 -0.6656 -0.2795  0.1195
  871MPD2    H712842   0.775   0.314  16.533  1.2011  0.4042  0.1457
  872MPD2     C12843   1.731   2.986  13.488 -0.0613 -0.8618 -0.3045
  872MPD2    C112844   1.772   2.967  13.617 -0.2010  0.4238  0.4489
  872MPD2    C212845   1.680   2.948  13.717 -0.0534  0.0059  0.3048
  872MPD2    C312846   1.544   2.957  13.691 -0.7281 -0.5247 -0.0674
  872MPD2    C412847   1.503   2.996  13.558  0.5378  0.6284  0.5919
  872MPD2    C512848   1.600   3.018  13.462 -0.0807  0.7419  0.1529
  872MPD2     H12849   1.723   2.917  13.811  0.6432  1.2038  0.3701
  872MPD2    H112850   1.402   3.001  13.518  0.0648 -1.6504  1.5138
  872MPD2    H212851   1.802   2.983  13.406 -0.5858 -2.3057 -0.7040
  872MPD2    H312852   1.566   3.057  13.367 -1.7398 -1.4473 -0.1363
  872MPD2     N12853   1.445   2.927  13.789  0.2271 -0.8391 -0.1487
  872MPD2    H512854   1.348   2.923  13.759  0.3887  1.2066 -0.9706
  872MPD2    N112855   1.909   2.956  13.645 -0.3435  0.6346 -0.3337
  872MPD2    H712856   1.933   2.967  13.744 -1.7491 -0.7987  0.1604
  873MPD2     C12857   3.985   2.824   1.060 -0.2412 -0.1880 -0.8534
  873MPD2    C112858   3.883   2.846   1.150 -0.2537  0.4011  0.5058
  873MPD2    C212859   3.761   2.779   1.138 -0.2213 -0.5789  0.3838
  873MPD2    C312860   3.736   2.686   1.032 -0.5822 -0.2145  0.4664
  873MPD2    C412861   3.847   2.658   0.949 -0.2146  0.1778  0.0021
  873MPD2    C512862   3.964   2.728   0.963  0.2180 -0.3693 -0.5158
  873MPD2     H12863   3.676   2.793   1.204 -1.0853 -2.6288 -0.2856
  873MPD2    H112864   3.850   2.575   0.879 -1.2373  0.0684  0.0885
  873MPD2    H212865   4.078   2.878   1.056 -0.2421  0.0515  2.6023
  873MPD2    H312866   4.047   2.712   0.895  0.4773 -2.0144  0.1985
  873MPD2     N12867   3.621   2.612   1.008 -0.3621 -0.0369 -0.1847
  873MPD2    H512868   3.627   2.542   0.935 -0.4650 -0.2717  0.0310
  873MPD2    N112869   3.905   2.936   1.257 -0.3658  1.0228 -0.0803
  873MPD2    H712870   3.835   2.947   1.330 -0.0242  0.1830  0.3803
  874MPD2     C12871   3.149   3.035  16.462  0.2432 -0.0251  0.0573
  874MPD2    C112872   3.250   3.003  16.549  0.3266  0.7416  1.1089
  874MPD2    C212873   3.366   3.079  16.560  0.9541  0.3420  0.0341
  874MPD2    C312874   3.383   3.181  16.467  0.1494 -0.5191  0.3407
  874MPD2    C412875   3.284   3.212  16.381  0.1913  0.3211 -0.8490
  874MPD2    C512876   3.161   3.143  16.381 -0.0669 -0.2820 -0.4181
  874MPD2     H12877   3.454   3.055  16.619 -0.8282 -2.3204  1.6011
  874MPD2    H112878   3.301   3.291  16.308 -0.1524  0.4394 -0.8005
  874MPD2    H212879   3.057   2.977  16.459 -1.1676  2.2021  0.1800
  874MPD2    H312880   3.099   3.164  16.295 -0.9322 -0.3104  0.2000
  874MPD2     N12881   3.506   3.255  16.460  0.2226  0.1197 -0.0210
  874MPD2    H512882   3.576   3.233  16.530  1.4258 -1.3169 -1.6540
  874MPD2    N112883   3.220   2.895  16.636 -0.3627 -0.2241 -0.1806
  874MPD2    H712884   3.127   2.860  16.617  0.7672 -3.2778  0.0121
  875MPD2     C12885   4.234   0.725  14.578 -0.0774 -0.2629 -0.4897
  875MPD2    C112886   4.187   0.853  14.540  0.7911 -0.9530  0.0958
  875MPD2    C212887   4.250   0.963  14.592  0.7179  0.0477  0.3008
  875MPD2    C312888   4.343   0.949  14.695  0.3225 -0.3323  0.3611
  875MPD2    C412889   4.377   0.824  14.739 -0.4206  0.3704  0.6657
  875MPD2    C512890   4.327   0.709  14.676  0.1976 -0.2564 -0.0307
  875MPD2     H12891   4.219   1.062  14.561 -0.5879  0.1708  1.9815
  875MPD2    H112892   4.432   0.812  14.831 -0.2872 -1.8119  0.3119
  875MPD2    H212893   4.194   0.634  14.534 -2.0890 -0.7223  2.3114
  875MPD2    H312894   4.356   0.615  14.721 -0.6145  0.3376  1.7059
  875MPD2     N12895   4.385   1.050  14.782 -0.2241 -0.6875  0.2301
  875MPD2    H512896   4.431   1.021  14.868 -1.2367  1.4220  1.4926
  875MPD2    N112897   4.085   0.879  14.446  0.0630 -0.4509  0.3163
  875MPD2    H712898   4.072   0.974  14.415 -0.1173 -0.5222  0.1739
  876MPD2     C12899   3.566   2.969  16.098 -0.4515 -1.0847 -0.6361
  876MPD2    C112900   3.608   2.865  16.015 -0.2759 -0.3856  0.4131
  876MPD2    C212901   3.591   2.733  16.050  0.3043  0.4563  0.1525
  876MPD2    C312902   3.536   2.701  16.178  0.0795 -0.0367 -0.6914
  876MPD2    C412903   3.500   2.806  16.260  0.5417 -0.0147 -0.3117
  876MPD2    C512904   3.509   2.933  16.218  0.1206 -0.0671  0.5986
  876MPD2     H12905   3.609   2.649  15.983 -0.8418  0.7909 -0.5853
  876MPD2    H112906   3.472   2.791  16.364  1.0148  0.4134 -0.1273
  876MPD2    H212907   3.587   3.072  16.072  0.8409 -1.3331 -0.5760
  876MPD2    H312908   3.471   3.010  16.284 -2.6943 -1.5540  0.6930
  876MPD2     N12909   3.529   2.565  16.211 -0.0635  0.0230  0.5755
  876MPD2    H512910   3.548   2.505  16.132 -0.6864  0.2850  0.2214
  876MPD2    N112911   3.674   2.910  15.900 -0.2571 -0.0029 -0.6290
  876MPD2    H712912   3.678   3.010  15.882  0.0433  0.0905 -0.0678
  877MPD2     C12913   3.336   3.040  15.246  0.3851  0.8555 -0.0290
  877MPD2    C112914   3.468   3.069  15.209  0.5650  0.5008  0.1826
  877MPD2    C212915   3.489   3.130  15.093 -0.1973 -0.2807 -0.1412
  877MPD2    C312916   3.396   3.146  14.995  0.3554  0.1580  0.0715
  877MPD2    C412917   3.273   3.097  15.019 -1.2135  0.2696 -0.1842
  877MPD2    C512918   3.248   3.045  15.143  0.3499 -0.1458  0.5305
  877MPD2     H12919   3.590   3.167  15.077 -0.3538  0.0521 -0.3669
  877MPD2    H112920   3.195   3.097  14.944  0.2136 -1.7039 -1.6614
  877MPD2    H212921   3.304   2.997  15.340 -1.1981  0.6343 -0.6743
  877MPD2    H312922   3.146   3.015  15.167  1.0558 -2.2328  0.9879
  877MPD2     N12923   3.415   3.217  14.872 -0.0943  0.2092 -0.4593
  877MPD2    H512924   3.349   3.217  14.796  1.7833  0.2027 -2.0737
  877MPD2    N112925   3.572   3.071  15.302 -0.2728 -0.2148 -0.2111
  877MPD2    H712926   3.662   3.091  15.259  0.7209 -0.1029  1.9595
  878MPD2     C12927   3.230   1.847  12.970  0.0078 -0.0964 -0.1314
  878MPD2    C112928   3.246   1.988  12.935  0.6612 -0.5448 -0.2795
  878MPD2    C212929   3.292   2.077  13.026  0.3692  0.3005 -1.4575
  878MPD2    C312930   3.318   2.040  13.163  0.0741 -0.6442  0.2354
  878MPD2    C412931   3.287   1.910  13.197  0.2014  0.7015 -0.8352
  878MPD2    C512932   3.260   1.818  13.100 -0.0450  0.0927  0.0814
  878MPD2     H12933   3.323   2.172  12.983 -2.3556  1.8005 -0.1584
  878MPD2    H112934   3.326   1.875  13.291  0.5182  1.3487 -0.7259
  878MPD2    H212935   3.217   1.778  12.888 -1.0946  0.3434 -0.3372
  878MPD2    H312936   3.261   1.715  13.133 -0.4328  0.7439  2.1410
  878MPD2     N12937   3.358   2.129  13.268  0.6488  0.2109  0.0434
  878MPD2    H512938   3.377   2.080  13.355  1.1194 -1.1889 -0.8458
  878MPD2    N112939   3.208   2.019  12.805  0.0304 -0.2081 -0.3195
  878MPD2    H712940   3.176   1.939  12.750  2.0239 -0.4839 -1.1058
  879MPD2     C12941   3.192   3.974  17.304  0.2080  0.2325  0.1232
  879MPD2    C112942   3.282   3.882  17.346  0.2471 -0.2026  0.1599
  879MPD2    C212943   3.267   3.758  17.294 -0.1097 -0.4782 -0.1460
  879MPD2    C312944   3.175   3.731  17.195 -0.3984 -0.7322  0.6289
  879MPD2    C412945   3.092   3.829  17.155 -1.0121  0.1955  0.3766
  879MPD2    C512946   3.100   3.952  17.208  0.1150  0.4885  0.0542
  879MPD2     H12947   3.342   3.683  17.315 -0.8958 -0.5425  2.3945
  879MPD2    H112948   3.022   3.819  17.073  0.6687  1.8259 -1.2570
  879MPD2    H212949   3.193   4.078  17.334 -1.3074 -0.1298  1.4199
  879MPD2    H312950   3.041   4.034  17.170 -0.4595  0.6929  1.4056
  879MPD2     N12951   3.199   3.618  17.107  0.3534 -0.4110  0.4871
  879MPD2    H512952   3.154   3.612  17.016 -0.5605 -0.1541  0.9261
  879MPD2    N112953   3.368   3.910  17.454  0.7529  0.3671  0.1455
  879MPD2    H712954   3.363   4.005  17.490 -1.3085  0.1582  0.4297
  880MPD2     C12955   4.500   0.739   0.346  0.3105  0.1629 -0.5553
  880MPD2    C112956   4.395   0.802   0.394  0.5636 -0.1857  0.2367
  880MPD2    C212957   4.353   0.769   0.519 -0.3010 -0.4568 -0.5223
  880MPD2    C312958   4.422   0.677   0.594  0.6986 -0.0610 -0.0279
  880MPD2    C412959   4.525   0.607   0.539 -0.4823  0.1708  0.0624
  880MPD2    C512960   4.566   0.639   0.415  0.4485  0.7027  0.1796
  880MPD2     H12961   4.261   0.811   0.558  0.1788 -1.3757  1.6214
  880MPD2    H112962   4.585   0.538   0.597 -0.1565  2.3036  2.2735
  880MPD2    H212963   4.545   0.770   0.253  1.2939  0.1881 -0.0720
  880MPD2    H312964   4.659   0.603   0.372  0.2068 -0.9316  1.0277
  880MPD2     N12965   4.381   0.658   0.730  0.4176  0.1588  0.7147
  880MPD2    H512966   4.311   0.724   0.763 -0.0525  0.3894 -0.7429
  880MPD2    N112967   4.334   0.898   0.306  0.9803  0.2073 -0.3498
  880MPD2    H712968   4.369   0.906   0.211 -2.0659  0.5973 -1.4240
  881MPD2     C12969   4.370   1.128  17.110 -0.0682  0.1128  0.3439
  881MPD2    C112970   4.402   1.028  17.193 -0.0321 -0.3419  0.4721
  881MPD2    C212971   4.348   1.024  17.323  0.2892  0.2605  0.6040
  881MPD2    C312972   4.247   1.113  17.359  0.2881 -0.5541 -0.2575
  881MPD2    C412973   4.202   1.202  17.267  0.9167  0.5758  0.6444
  881MPD2    C512974   4.262   1.207  17.143  0.8701  0.4155  0.2735
  881MPD2     H12975   4.382   0.947  17.391 -0.8371 -0.9699 -0.2161
  881MPD2    H112976   4.122   1.273  17.282 -0.4441 -0.8856  0.3364
  881MPD2    H212977   4.409   1.124  17.008 -0.0895 -1.1855  0.3917
  881MPD2    H312978   4.211   1.265  17.068  0.8412 -1.0534 -0.8361
  881MPD2     N12979   4.183   1.113  17.487 -0.5139 -0.3532  0.0182
  881MPD2    H512980   4.093   1.159  17.488 -0.4425 -0.2332  0.9950
  881MPD2    N112981   4.522   0.964  17.166  0.1366 -0.2872 -0.1069
  881MPD2    H712982   4.554   0.968  17.069  2.2567 -0.1933  0.5931
  882MPD2     C12983   3.370   2.869  14.344 -0.3810 -0.3881  0.6759
  882MPD2    C112984   3.300   2.942  14.434  0.2447  0.4541  0.8145
  882MPD2    C212985   3.187   2.887  14.491 -0.4699  0.3713 -0.3477
  882MPD2    C312986   3.143   2.757  14.454  0.4797  0.4037 -0.4599
  882MPD2    C412987   3.234   2.683  14.373  0.6726 -0.5015  0.3672
  882MPD2    C512988   3.340   2.739  14.312 -0.1116  0.3250  0.4426
  882MPD2     H12989   3.127   2.942  14.564 -0.8761 -2.8653  1.7460
  882MPD2    H112990   3.206   2.582  14.346 -1.5481  0.3766 -0.5215
  882MPD2    H212991   3.450   2.914  14.288 -0.3898  0.7160  1.5492
  882MPD2    H312992   3.398   2.679  14.243 -0.9196 -0.7854  0.7379
  882MPD2     N12993   3.033   2.683  14.507  0.4764  0.4955 -0.8858
  882MPD2    H512994   3.028   2.584  14.487 -2.0301  0.9065 -2.2915
  882MPD2    N112995   3.355   3.069  14.461 -0.2508 -0.5693  0.0987
  882MPD2    H712996   3.440   3.092  14.412 -0.4965  2.0046  0.8680
  883MPD2     C12997   0.473   2.818  16.125  0.3979  0.1076  0.6113
  883MPD2    C112998   0.585   2.814  16.052 -0.4677 -0.4635  0.2410
  883MPD2    C212999   0.694   2.861  16.112  0.2842  0.1536  0.8053
  883MPD2    C313000   0.705   2.903  16.242  0.1581  0.3779 -0.3307
  883MPD2    C413001   0.586   2.912  16.314 -0.1835 -0.0319  0.3206
  883MPD2    C513002   0.472   2.863  16.252 -0.5153  0.0290 -0.7743
  883MPD2     H13003   0.780   2.857  16.046 -1.3934 -0.6722 -1.3458
  883MPD2    H113004   0.584   2.959  16.412  0.6304  1.7142 -0.4950
  883MPD2    H213005   0.376   2.781  16.094  0.6484  0.1781 -0.2508
  883MPD2    H313006   0.378   2.860  16.306  0.5721 -2.4428  0.9565
  883MPD2     N13007   0.838   2.943  16.291  0.4544  0.0107  0.0753
  883MPD2    H513008   0.914   2.938  16.224 -0.5291 -0.2786 -1.0395
  883MPD2    N113009   0.597   2.770  15.918  0.0300  0.0045  0.1127
  883MPD2    H713010   0.686   2.758  15.872  0.0412  1.0007 -0.1262
  884MPD2     C13011   2.424   3.398  15.283 -0.4510  0.1653 -0.1049
  884MPD2    C113012   2.377   3.520  15.233 -0.2213 -0.4816  0.4196
  884MPD2    C213013   2.245   3.556  15.255  1.1725  0.6189  0.0164
  884MPD2    C313014   2.159   3.482  15.328 -0.3788 -0.1356  0.0189
  884MPD2    C413015   2.202   3.360  15.366 -0.6806 -0.0023 -0.3257
  884MPD2    C513016   2.328   3.314  15.335  0.5955 -0.1710  0.3951
  884MPD2     H13017   2.214   3.650  15.212  0.2404  0.3127  0.0188
  884MPD2    H113018   2.130   3.286  15.401  0.5141 -0.9549  0.0940
  884MPD2    H213019   2.527   3.366  15.269 -0.8686 -1.0070 -0.4818
  884MPD2    H313020   2.364   3.213  15.353  2.5109  0.1072 -1.9194
  884MPD2     N13021   2.026   3.534  15.349 -0.0979  0.3298 -0.4278
  884MPD2    H513022   2.011   3.632  15.326 -0.5607  0.0369 -1.3678
  884MPD2    N113023   2.462   3.605  15.159  0.3543  0.2585 -0.3493
  884MPD2    H713024   2.433   3.702  15.146  0.6657  0.5075  0.8048
  885MPD2     C13025   0.765   3.470   0.443 -0.2850 -0.5220 -0.0216
  885MPD2    C113026   0.834   3.580   0.475  0.6859  0.5105 -0.3119
  885MPD2    C213027   0.817   3.691   0.394  0.3175 -0.2625  0.1523
  885MPD2    C313028   0.728   3.688   0.287 -0.5442  0.3773  0.3796
  885MPD2    C413029   0.668   3.569   0.257 -0.4762 -0.1673 -0.4667
  885MPD2    C513030   0.685   3.465   0.335 -0.3137  0.3788  0.2846
  885MPD2     H13031   0.874   3.781   0.412  0.4802 -0.2290 -0.5142
  885MPD2    H113032   0.598   3.563   0.174  1.0911 -0.8200 -1.7427
  885MPD2    H213033   0.776   3.376   0.497 -0.3084 -0.5288 -0.0290
  885MPD2    H313034   0.629   3.374   0.316  2.9729 -1.4844 -0.5624
  885MPD2     N13035   0.702   3.808   0.208  0.1649 -0.0902 -0.1135
  885MPD2    H513036   0.733   3.899   0.240 -0.7433  0.5370 -1.0491
  885MPD2    N113037   0.937   3.571   0.576 -0.4440  0.5212 -0.0058
  885MPD2    H713038   0.937   3.482   0.626  0.4034  1.6891  2.0537
  886MPD2     C13039   1.783   1.889  15.340 -0.2110  0.6132  0.0568
  886MPD2    C113040   1.920   1.890  15.342 -0.1156 -0.6153  0.2699
  886MPD2    C213041   1.979   1.999  15.278 -0.5408  0.0951  0.7850
  886MPD2    C313042   1.905   2.108  15.223  0.3900 -0.2811  0.2592
  886MPD2    C413043   1.771   2.094  15.225 -0.2327  0.8025 -0.8192
  886MPD2    C513044   1.713   1.988  15.282 -0.6724  0.0184 -0.4365
  886MPD2     H13045   2.088   2.000  15.278 -0.5458  1.5032  1.6019
  886MPD2    H113046   1.707   2.174  15.189 -1.4023  0.8695  1.4230
  886MPD2    H213047   1.719   1.824  15.399 -0.7484  2.6258  1.6725
  886MPD2    H313048   1.604   1.985  15.287 -0.5380  0.9686  3.0770
  886MPD2     N13049   1.964   2.214  15.154 -0.8889  0.4732  0.4038
  886MPD2    H513050   1.903   2.285  15.116 -2.4946 -1.6060 -0.9270
  886MPD2    N113051   2.002   1.787  15.411 -0.1032  0.1087  0.5409
  886MPD2    H713052   2.099   1.815  15.410  0.1202 -0.6721  0.4692
  887MPD2     C13053   2.638   1.871  15.559  0.0734 -0.8589 -0.3608
  887MPD2    C113054   2.541   1.895  15.658 -1.2666  0.1117 -0.4939
  887MPD2    C213055   2.549   2.015  15.728  0.3711 -0.0137 -0.5400
  887MPD2    C313056   2.645   2.109  15.708  0.7343 -0.4034  0.8454
  887MPD2    C413057   2.731   2.084  15.600 -0.0412 -0.3153 -0.5104
  887MPD2    C513058   2.733   1.964  15.535  0.1238 -0.3031 -0.2025
  887MPD2     H13059   2.480   2.025  15.811  0.4505 -1.6967 -0.2702
  887MPD2    H113060   2.811   2.152  15.575 -0.1716 -0.8589 -2.3861
  887MPD2    H213061   2.646   1.778  15.504 -0.3428 -0.8458 -0.4484
  887MPD2    H313062   2.809   1.940  15.461  0.6760  2.1149 -0.4069
  887MPD2     N13063   2.657   2.218  15.795  0.1786  0.3217  0.2801
  887MPD2    H513064   2.596   2.215  15.877  1.1192  0.6101  0.9885
  887MPD2    N113065   2.436   1.809  15.682 -0.1317  0.1662 -0.5758
  887MPD2    H713066   2.360   1.847  15.738 -0.5401 -1.6995  0.1403
  888MPD2     C13067   4.427   2.285  14.844  0.5737  0.0040  0.5822
  888MPD2    C113068   4.388   2.329  14.968 -0.0308  0.2544 -0.5743
  888MPD2    C213069   4.467   2.431  15.031  0.4989  0.0891 -0.2831
  888MPD2    C313070   4.555   2.505  14.959  0.3206 -0.1815  1.0911
  888MPD2    C413071   4.580   2.461  14.834 -0.0599  0.0841  0.6570
  888MPD2    C513072   4.512   2.360  14.771 -0.2599 -0.3898  0.1421
  888MPD2     H13073   4.453   2.459  15.135 -0.6704  0.3999 -0.5268
  888MPD2    H113074   4.666   2.495  14.776 -1.5779 -1.4354 -2.5124
  888MPD2    H213075   4.377   2.200  14.799 -1.0120  1.0474  0.4012
  888MPD2    H313076   4.537   2.343  14.667  1.3330  0.0065  0.4667
  888MPD2     N13077   4.614   2.623  15.013  0.0844 -0.0859 -0.1435
  888MPD2    H513078   4.590   2.646  15.109 -2.0560 -1.1611 -0.4320
  888MPD2    N113079   4.296   2.255  15.048  0.3350  0.2010  0.1676
  888MPD2    H713080   4.296   2.274  15.147  2.6296 -0.8832  0.3698
  889MPD2     C13081   3.580   1.710  12.981 -0.6158 -0.2200  0.3708
  889MPD2    C113082   3.630   1.752  13.097  0.0688  0.0874  0.0451
  889MPD2    C213083   3.673   1.884  13.097 -0.0195  0.0061 -0.5400
  889MPD2    C313084   3.657   1.963  12.989 -0.1822  0.3790  0.2489
  889MPD2    C413085   3.613   1.914  12.865  0.3402 -0.2398 -0.4868
  889MPD2    C513086   3.587   1.783  12.863  0.4783 -0.5170 -0.2982
  889MPD2     H13087   3.701   1.930  13.192  0.2961  0.4793 -0.8635
  889MPD2    H113088   3.610   1.973  12.774  0.8855  1.4213  0.5730
  889MPD2    H213089   3.579   1.601  12.979 -0.2165 -0.2432  1.3149
  889MPD2    H313090   3.571   1.742  12.764 -3.0200  0.6474 -0.2380
  889MPD2     N13091   3.676   2.098  13.020 -0.2406 -0.3384  0.8178
  889MPD2    H513092   3.716   2.109  13.112  0.6755  1.7594  0.1766
  889MPD2    N113093   3.622   1.678  13.221 -0.2473  0.2897  0.6103
  889MPD2    H713094   3.649   1.727  13.306  1.2504 -0.1766  0.4156
  890MPD2     C13095   2.999   3.481  14.788  0.1465 -0.5407  0.5382
  890MPD2    C113096   3.107   3.567  14.804 -0.9798  0.2612 -0.1915
  890MPD2    C213097   3.174   3.553  14.920  0.1503  0.2309 -0.0257
  890MPD2    C313098   3.136   3.468  15.026 -0.0861 -0.5856 -0.3301
  890MPD2    C413099   3.021   3.386  15.013  0.7088  0.4000  0.4071
  890MPD2    C513100   2.963   3.390  14.889  0.4121  0.9255 -0.6930
  890MPD2     H13101   3.262   3.611  14.946  0.4312  0.7138 -2.0913
  890MPD2    H113102   2.998   3.303  15.080 -1.9838  0.3271 -0.5875
  890MPD2    H213103   2.937   3.486  14.699  1.2950  2.6440 -0.0955
  890MPD2    H313104   2.884   3.322  14.859 -0.7928  1.9777  0.1282
  890MPD2     N13105   3.220   3.454  15.140 -0.3249 -0.0424 -0.1469
  890MPD2    H513106   3.311   3.499  15.137 -0.2243 -0.3408 -1.9084
  890MPD2    N113107   3.149   3.653  14.696 -0.4725 -0.3421  0.4792
  890MPD2    H713108   3.096   3.643  14.610  1.0311  0.7643 -0.5532
  891MPD2     C13109   1.524   2.516  16.530  0.3428 -0.3833 -0.2849
  891MPD2    C113110   1.424   2.451  16.604 -0.2235 -0.3037 -0.0309
  891MPD2    C213111   1.444   2.400  16.725  0.1911 -0.7263  0.0371
  891MPD2    C313112   1.571   2.409  16.789  0.3431  1.3240  0.9836
  891MPD2    C413113   1.670   2.481  16.724  0.1445  0.4779  0.7310
  891MPD2    C513114   1.643   2.537  16.601  0.0857 -0.7935 -0.3644
  891MPD2     H13115   1.365   2.336  16.763 -0.4415 -1.0537 -1.8707
  891MPD2    H113116   1.771   2.495  16.760  0.4356 -0.2718  0.1784
  891MPD2    H213117   1.495   2.569  16.440 -2.1383  1.4699  1.6064
  891MPD2    H313118   1.724   2.592  16.554 -0.3168  0.8333  0.8631
  891MPD2     N13119   1.596   2.339  16.911 -0.0428  0.3544 -0.1139
  891MPD2    H513120   1.690   2.346  16.948  0.2785 -0.6923 -0.7259
  891MPD2    N113121   1.302   2.463  16.536 -0.2841  0.4584  0.1249
  891MPD2    H713122   1.305   2.518  16.451 -0.8708  1.4917  0.7771
  892MPD2     C13123   2.470   3.256  14.966 -0.1202  0.0218  0.1340
  892MPD2    C113124   2.392   3.143  14.975 -0.5445  0.5611  0.7402
  892MPD2    C213125   2.446   3.023  14.941  0.0177  0.1690  0.1018
  892MPD2    C313126   2.572   3.012  14.878 -0.0779 -0.5918  0.3686
  892MPD2    C413127   2.640   3.129  14.863 -0.3732  0.1726 -0.5871
  892MPD2    C513128   2.599   3.250  14.914  0.1424  0.2340  0.3899
  892MPD2     H13129   2.379   2.941  14.965  1.5416 -1.9228 -2.8255
  892MPD2    H113130   2.737   3.121  14.816  0.1247 -1.0968  0.6508
  892MPD2    H213131   2.435   3.350  15.008  0.6889 -1.3334  3.8510
  892MPD2    H313132   2.662   3.337  14.901 -1.3959  1.1941 -0.8006
  892MPD2     N13133   2.634   2.893  14.844  0.7026 -0.2654 -0.2386
  892MPD2    H513134   2.715   2.910  14.784  2.0617  1.1325  2.0090
  892MPD2    N113135   2.258   3.162  15.019 -0.8376 -0.0088 -0.4169
  892MPD2    H713136   2.222   3.256  15.004  2.9134  1.6847  1.1570
  893MPD2     C13137   3.531   1.415   0.648  0.2822  0.1283  0.1880
  893MPD2    C113138   3.589   1.537   0.689 -0.3444  0.1076  0.1736
  893MPD2    C213139   3.526   1.606   0.796  0.3753 -0.8892  0.0106
  893MPD2    C313140   3.409   1.559   0.849  0.1989  0.4583  0.0796
  893MPD2    C413141   3.356   1.440   0.799  0.0350 -0.3460 -0.4373
  893MPD2    C513142   3.413   1.367   0.697 -0.7650  0.0975 -0.3725
  893MPD2     H13143   3.568   1.701   0.826 -2.7558 -0.2470  2.4256
  893MPD2    H113144   3.265   1.401   0.844  0.0257  0.9849  0.7041
  893MPD2    H213145   3.568   1.352   0.569 -1.1701 -0.8508  0.2947
  893MPD2    H313146   3.365   1.280   0.655  0.6114 -0.0566 -1.6072
  893MPD2     N13147   3.338   1.628   0.956 -0.3705 -0.3595  0.3424
  893MPD2    H513148   3.260   1.575   0.995 -2.1026  0.2861 -2.1948
  893MPD2    N113149   3.700   1.584   0.622 -0.0914 -0.2152  0.3451
  893MPD2    H713150   3.742   1.535   0.543 -1.1323 -1.2678  0.4478
  894MPD2     C13151   1.839   4.409   1.264  0.3708 -0.3359  0.0946
  894MPD2    C113152   1.902   4.519   1.206  0.0294 -0.4433 -0.2086
  894MPD2    C213153   2.041   4.519   1.207  0.1785  0.4486  0.2126
  894MPD2    C313154   2.109   4.418   1.278 -0.5713 -0.1177  0.7881
  894MPD2    C413155   2.040   4.308   1.330  0.0469 -0.4385  0.3826
  894MPD2    C513156   1.910   4.308   1.324  0.0897 -0.6946  0.5716
  894MPD2     H13157   2.095   4.605   1.168 -1.6172  0.9529 -1.1475
  894MPD2    H113158   2.093   4.227   1.380  3.1207  0.3878 -1.5519
  894MPD2    H213159   1.733   4.393   1.279 -0.2067  1.5480 -1.9689
  894MPD2    H313160   1.862   4.218   1.363  0.6385  0.0652  3.0158
  894MPD2     N13161   2.251   4.417   1.304  0.2727 -0.1134  0.4320
  894MPD2    H513162   2.297   4.343   1.355 -1.1786  1.7536  4.4064
  894MPD2    N113163   1.840   4.615   1.130  0.1159  0.3786 -0.2720
  894MPD2    H713164   1.894   4.687   1.083 -0.6891  0.8264 -0.5190
  895MPD2     C13165   1.390   1.948  13.522 -0.6024  0.4099 -0.1571
  895MPD2    C113166   1.314   1.854  13.466  0.0722 -0.2834  0.3285
  895MPD2    C213167   1.357   1.724  13.470 -0.3026 -1.0416  0.4917
  895MPD2    C313168   1.486   1.690  13.513 -0.0031  0.1302  0.2613
  895MPD2    C413169   1.567   1.793  13.566 -0.3725  0.2940  0.2898
  895MPD2    C513170   1.513   1.915  13.568 -0.6938  0.3279 -0.4462
  895MPD2     H13171   1.298   1.639  13.440 -0.1521 -1.8395  2.4320
  895MPD2    H113172   1.670   1.779  13.598  0.3125  2.5686 -0.9944
  895MPD2    H213173   1.357   2.052  13.528 -0.3097  0.3640  2.1536
  895MPD2    H313174   1.573   1.994  13.612 -0.9320  0.8304 -1.0109
  895MPD2     N13175   1.529   1.555  13.509 -0.2707  0.1204 -0.5292
  895MPD2    H513176   1.467   1.488  13.466 -0.3209 -0.3078  0.2084
  895MPD2    N113177   1.183   1.882  13.420  0.6440  0.1484 -0.3048
  895MPD2    H713178   1.136   1.795  13.396  2.2039 -0.7642 -0.0632
  896MPD2     C13179   3.830   0.093   1.759 -0.4958 -0.3426  0.1638
  896MPD2    C113180   3.792   0.061   1.630 -0.0094  0.7462  0.3140
  896MPD2    C213181   3.739   4.668   1.601  0.3852 -0.8817  0.5061
  896MPD2    C313182   3.716   4.578   1.701  0.1545 -0.1410  0.2835
  896MPD2    C413183   3.752   4.617   1.830 -0.5242  0.4359  0.0514
  896MPD2    C513184   3.806   0.004   1.860  0.6090  0.1165  0.3780
  896MPD2     H13185   3.724   4.632   1.500  0.2301 -1.9597  0.9070
  896MPD2    H113186   3.738   4.553   1.916  0.5072 -0.5487 -0.5042
  896MPD2    H213187   3.890   0.182   1.777 -0.7774 -0.2100  0.4560
  896MPD2    H313188   3.841   0.025   1.960  0.6330 -0.8995  0.5805
  896MPD2     N13189   3.658   4.453   1.672 -0.2070  0.3287 -0.1528
  896MPD2    H513190   3.652   4.435   1.572  1.1404 -2.2596  0.2178
  896MPD2    N113191   3.829   0.152   1.534 -0.4162  0.5789 -0.2039
  896MPD2    H713192   3.843   0.243   1.578  2.3579  0.7851 -1.5160
  897MPD2     C13193   0.143   2.128  10.957 -1.2328  0.3215  0.6658
  897MPD2    C113194   0.038   2.175  10.879 -1.3242  0.2898 -0.1501
  897MPD2    C213195   4.643   2.127  10.899 -0.5841  0.3808  0.2263
  897MPD2    C313196   4.618   2.038  11.000  0.3740  0.4130  0.6202
  897MPD2    C413197   4.724   1.995  11.081 -0.0491 -0.1663  0.6574
  897MPD2    C513198   0.119   2.025  11.051 -0.0190 -0.6768  0.7188
  897MPD2     H13199   4.560   2.180  10.854 -0.5367  0.7235  0.5413
  897MPD2    H113200   4.712   1.937  11.171  1.5335 -0.8554  0.4423
  897MPD2    H213201   0.245   2.163  10.947 -0.7577 -0.8231  1.4666
  897MPD2    H313202   0.197   1.990  11.116 -1.0776 -0.5324  2.0574
  897MPD2     N13203   4.481   2.011  11.034  0.3274 -0.1138  0.1676
  897MPD2    H513204   4.414   2.070  10.986 -0.1320 -1.0136 -0.2976
  897MPD2    N113205   0.060   2.267  10.770 -0.1169  0.0107 -0.0364
  897MPD2    H713206   0.001   2.262  10.688 -1.5396  1.6174  0.9180
  898MPD2     C13207   2.685   2.901   0.622  0.1056 -0.1443 -0.0165
  898MPD2    C113208   2.640   2.999   0.708 -0.2523 -0.6873  0.3271
  898MPD2    C213209   2.532   3.071   0.668  0.2023  0.0502 -0.2850
  898MPD2    C313210   2.480   3.056   0.543 -0.2092  0.0196  0.6003
  898MPD2    C413211   2.527   2.962   0.456  0.3908 -0.4345  0.4873
  898MPD2    C513212   2.621   2.880   0.501 -0.0408 -0.0626  0.6503
  898MPD2     H13213   2.484   3.142   0.735 -1.6887 -2.1876  0.7145
  898MPD2    H113214   2.499   2.942   0.354 -1.1730  1.8387  0.4844
  898MPD2    H213215   2.769   2.836   0.646  0.4094  1.2183  2.6056
  898MPD2    H313216   2.659   2.810   0.428  0.4527 -1.6209  2.4048
  898MPD2     N13217   2.368   3.137   0.505  0.7332 -0.5743  0.0803
  898MPD2    H513218   2.323   3.192   0.577  1.7097 -0.4621  0.6137
  898MPD2    N113219   2.687   3.020   0.839  0.5422 -0.0503  0.1391
  898MPD2    H713220   2.625   3.070   0.901 -0.3864 -0.6441 -0.3162
  899MPD2     C13221   3.069   3.055  17.424  0.3785 -0.6993 -0.0726
  899MPD2    C113222   3.110   3.152  17.517  0.3411 -0.6602 -0.4025
  899MPD2    C213223   3.135   3.120  17.648 -0.1482 -0.4963 -0.3366
  899MPD2    C313224   3.125   2.985  17.680  0.1339  0.7438  0.5936
  899MPD2    C413225   3.084   2.892  17.588 -0.0614  0.2665  0.1869
  899MPD2    C513226   3.051   2.922  17.461  0.7006 -0.1347  0.0773
  899MPD2     H13227   3.142   3.186  17.734 -1.1688  2.7347 -2.7438
  899MPD2    H113228   3.068   2.789  17.617 -1.2910  1.2157  2.8448
  899MPD2    H213229   3.036   3.079  17.323  2.8694 -1.4833 -1.0923
  899MPD2    H313230   3.019   2.841  17.396  0.0691 -0.7737  1.1956
  899MPD2     N13231   3.148   2.938   0.075 -0.4502 -0.0380 -0.4792
  899MPD2    H513232   3.115   2.847   0.104 -1.1714  0.6323  0.7780
  899MPD2    N113233   3.105   3.282  17.462 -0.1595  0.4097  0.3215
  899MPD2    H713234   3.053   3.297  17.377  1.7078 -1.1578 -1.0951
  900MPD2     C13235   1.958   4.378  12.542 -0.4352  0.2545 -0.1023
  900MPD2    C113236   1.873   4.352  12.644 -0.0961  0.0008  0.6891
  900MPD2    C213237   1.742   4.399  12.640  0.6161  0.1906 -0.5759
  900MPD2    C313238   1.706   4.492  12.550  0.5546  0.8032 -0.2578
  900MPD2    C413239   1.789   4.517  12.439 -0.3814 -0.5758 -0.6383
  900MPD2    C513240   1.915   4.458  12.439 -0.3714 -0.4541  0.1825
  900MPD2     H13241   1.674   4.382  12.722  2.2971 -2.4420  0.2640
  900MPD2    H113242   1.774   4.595  12.366 -0.5228 -0.5215 -0.5511
  900MPD2    H213243   2.058   4.340  12.524  0.7029  1.4147  3.9082
  900MPD2    H313244   1.982   4.498  12.364 -2.8510  1.0029 -1.2463
  900MPD2     N13245   1.585   4.553  12.574  0.1435  0.2211 -0.1833
  900MPD2    H513246   1.538   4.529  12.661  1.1843  0.7367  0.5252
  900MPD2    N113247   1.914   4.254  12.729  0.6462 -0.6003 -0.4917
  900MPD2    H713248   2.012   4.230  12.715  0.5434 -2.0270  1.1476
  901MPD2     C13249   2.052   3.285  12.850  0.2193  0.9184  0.0468
  901MPD2    C113250   2.144   3.365  12.788  0.0476  0.6590 -0.2452
  901MPD2    C213251   2.126   3.507  12.796  0.6419  0.6917 -0.1033
  901MPD2    C313252   2.021   3.561  12.869  0.6400 -0.2629  0.1789
  901MPD2    C413253   1.929   3.478  12.926 -0.0227 -0.7147 -0.2688
  901MPD2    C513254   1.948   3.347  12.910 -0.0812 -0.4066 -0.2734
  901MPD2     H13255   2.201   3.568  12.748  1.6627 -0.9275 -0.5764
  901MPD2    H113256   1.839   3.515  12.974 -0.7781 -1.8602 -0.8047
  901MPD2    H213257   2.062   3.178  12.849 -0.4736  0.8495  1.2550
  901MPD2    H313258   1.877   3.280  12.958  1.7921 -1.9084  0.3833
  901MPD2     N13259   2.022   3.703  12.884 -0.0975 -0.4648 -0.4108
  901MPD2    H513260   2.089   3.746  12.821  0.7282  0.2050  0.9282
  901MPD2    N113261   2.258   3.304  12.731  0.3194 -0.1309 -0.1338
  901MPD2    H713262   2.271   3.206  12.755  2.2451 -0.0584 -0.9666
  902MPD2     C13263   1.713   2.179  12.670  0.3454  0.4474 -0.0731
  902MPD2    C113264   1.772   2.292  12.724  0.4307  0.1157 -0.0584
  902MPD2    C213265   1.903   2.323  12.681  0.3793  0.4231  0.7733
  902MPD2    C313266   1.971   2.240  12.587 -0.1824  0.4648 -0.4082
  902MPD2    C413267   1.910   2.126  12.540  0.0732  0.0099  0.6187
  902MPD2    C513268   1.789   2.095  12.580  0.0705 -0.2884 -0.6209
  902MPD2     H13269   1.939   2.417  12.721 -0.5351  0.9810  0.2875
  902MPD2    H113270   1.953   2.061  12.464 -0.3273 -0.9045  1.1770
  902MPD2    H213271   1.611   2.154  12.697  0.8560  0.0918  1.5045
  902MPD2    H313272   1.742   2.005  12.540 -0.8626 -0.4604  0.8885
  902MPD2     N13273   2.083   2.288  12.524 -0.1516 -0.2397 -0.0247
  902MPD2    H513274   2.107   2.255  12.431  2.1108  0.1601  0.4158
  902MPD2    N113275   1.701   2.379  12.806  0.6516  0.0709  0.0738
  902MPD2    H713276   1.600   2.371  12.804  0.6326 -0.2396  2.0724
  903MPD2     C13277   1.795   2.961  12.704  0.4102  0.3328  0.5349
  903MPD2    C113278   1.755   2.872  12.603 -0.6294  0.2116 -0.1782
  903MPD2    C213279   1.627   2.884  12.549  0.1967 -0.2578 -0.2100
  903MPD2    C313280   1.536   2.978  12.592  0.1536  0.4579 -0.5375
  903MPD2    C413281   1.574   3.064  12.687 -0.4317  0.0078  0.4611
  903MPD2    C513282   1.700   3.057  12.746  0.3442 -0.0204  0.5805
  903MPD2     H13283   1.593   2.810  12.478  0.5977  0.1066 -0.7769
  903MPD2    H113284   1.506   3.143  12.717  1.3660  1.2719  1.1748
  903MPD2    H213285   1.892   2.951  12.751  0.7464  0.7564 -0.0744
  903MPD2    H313286   1.732   3.136  12.813 -1.0064 -1.1192  2.4950
  903MPD2     N13287   1.418   2.982  12.521  0.1813  0.0974  0.0770
  903MPD2    H513288   1.394   2.918  12.446 -0.7227  1.4292 -0.7803
  903MPD2    N113289   1.849   2.769  12.557  0.8664  0.0807 -0.4618
  903MPD2    H713290   1.941   2.756  12.599  0.1000  0.1171  1.2194
  904MPD2     C13291   1.207   1.517  13.901 -0.6642  0.3188 -0.5020
  904MPD2    C113292   1.200   1.540  14.034 -0.1603 -0.9908 -1.2370
  904MPD2    C213293   1.319   1.548  14.107  0.7573  0.2648 -0.7303
  904MPD2    C313294   1.444   1.562  14.042 -0.1259 -0.0972  0.1767
  904MPD2    C413295   1.448   1.550  13.904 -0.2269  0.9151  0.3063
  904MPD2    C513296   1.328   1.515  13.847 -0.2828 -0.7084 -0.4368
  904MPD2     H13297   1.322   1.567  14.214  0.0543  0.9069 -0.8205
  904MPD2    H113298   1.540   1.550  13.847  0.4763 -1.3704  1.4273
  904MPD2    H213299   1.131   1.492  13.827  1.3484 -2.2776 -1.6795
  904MPD2    H313300   1.346   1.513  13.740  1.1731  0.0182 -0.2004
  904MPD2     N13301   1.560   1.597  14.111 -0.5620 -0.0413  0.2821
  904MPD2    H513302   1.548   1.604  14.212 -0.3036 -2.5894  0.4757
  904MPD2    N113303   1.082   1.533  14.115  0.0688 -0.3653 -0.5265
  904MPD2    H713304   1.088   1.519  14.215  1.0561 -1.1370 -0.6829
  905MPD2     C13305   0.852   1.196  13.539  0.0885 -0.8623 -0.0990
  905MPD2    C113306   0.931   1.303  13.537  0.4967 -0.2321 -0.7583
  905MPD2    C213307   1.063   1.300  13.489 -0.5375 -0.7635 -0.8144
  905MPD2    C313308   1.117   1.175  13.464  0.3763  0.2880 -0.5335
  905MPD2    C413309   1.041   1.061  13.491 -0.2336  0.0818 -0.2364
  905MPD2    C513310   0.910   1.072  13.525  0.2332  0.1488 -0.3054
  905MPD2     H13311   1.130   1.384  13.505 -0.8164 -0.6936 -0.0046
  905MPD2    H113312   1.078   0.960  13.481 -2.3398 -0.4801 -2.3052
  905MPD2    H213313   0.757   1.204  13.591 -0.9320  0.8271 -2.1835
  905MPD2    H313314   0.856   0.980  13.544  1.7866 -0.5997  0.5072
  905MPD2     N13315   1.259   1.160  13.452 -0.6494 -0.0018 -0.9451
  905MPD2    H513316   1.298   1.067  13.445  0.7173  0.4889 -0.1103
  905MPD2    N113317   0.880   1.413  13.612  0.4618  0.4051 -0.3935
  905MPD2    H713318   0.790   1.408  13.658  0.3944 -3.2015 -0.9754
  906MPD2     C13319   3.340   2.619  11.001  0.0220 -0.5431 -0.0145
  906MPD2    C113320   3.253   2.538  10.931  0.1391 -0.2437 -0.3354
  906MPD2    C213321   3.178   2.446  11.004  0.7327 -0.2551 -0.2463
  906MPD2    C313322   3.192   2.417  11.140 -0.2211 -0.8778 -0.6986
  906MPD2    C413323   3.286   2.494  11.207 -0.0090 -0.8123  0.5363
  906MPD2    C513324   3.361   2.588  11.133  0.3515 -0.9172 -0.1424
  906MPD2     H13325   3.102   2.390  10.949  0.2115  1.1166 -0.9184
  906MPD2    H113326   3.293   2.488  11.315  0.0381 -0.6592  0.5414
  906MPD2    H213327   3.408   2.690  10.954  0.9045 -1.5972 -0.3185
  906MPD2    H313328   3.430   2.647  11.192  1.8029  1.2520 -4.0583
  906MPD2     N13329   3.121   2.319  11.209 -0.2991 -0.7909 -0.1515
  906MPD2    H513330   3.131   2.317  11.310 -1.8567  1.7894  0.0498
  906MPD2    N113331   3.239   2.539  10.790  0.8059  0.4706  0.1171
  906MPD2    H713332   3.179   2.466  10.753  1.2097  0.4224 -0.4568
  907MPD2     C13333   2.729   0.756  15.395  0.1346 -0.4460 -0.6428
  907MPD2    C113334   2.648   0.655  15.439 -0.3158 -0.1903  0.4003
  907MPD2    C213335   2.679   0.593  15.556 -0.5388  0.5790  0.3407
  907MPD2    C313336   2.788   0.635  15.631 -0.4010 -0.1019 -0.1668
  907MPD2    C413337   2.861   0.736  15.589 -0.6166 -0.5281 -0.1004
  907MPD2    C513338   2.842   0.790  15.462 -0.0745  0.5637  0.0012
  907MPD2     H13339   2.622   0.508  15.592 -2.0406  0.4977 -2.2152
  907MPD2    H113340   2.946   0.767  15.649 -0.8470 -0.2555  0.0802
  907MPD2    H213341   2.714   0.812  15.303 -0.3187  0.7198  0.1384
  907MPD2    H313342   2.903   0.870  15.423 -0.0744  0.3352 -0.4754
  907MPD2     N13343   2.809   0.570  15.755 -0.5262 -0.0108 -0.1423
  907MPD2    H513344   2.741   0.499  15.779 -1.6814  2.1118  2.8369
  907MPD2    N113345   2.537   0.607  15.371 -0.4751 -0.3364 -0.3656
  907MPD2    H713346   2.473   0.542  15.415 -1.7721  1.1831 -0.0049
  908MPD2     C13347   4.672   2.199   9.915 -0.3549 -0.1258 -0.0344
  908MPD2    C113348   4.630   2.144  10.034 -1.0231 -0.5533 -0.1317
  908MPD2    C213349   4.667   2.206  10.153  0.0617  0.4619 -0.0190
  908MPD2    C313350   0.029   2.306  10.156  0.6374 -0.7074 -0.4484
  908MPD2    C413351   0.076   2.359  10.029  0.3418  0.3145 -0.2226
  908MPD2    C513352   0.027   2.305   9.915 -0.1758 -0.0918 -0.4633
  908MPD2     H13353   4.619   2.167  10.242  1.2927  1.5437  1.1232
  908MPD2    H113354   0.152   2.436  10.021  0.7466  0.0990  1.5714
  908MPD2    H213355   4.625   2.165   9.824  2.2088 -2.8694 -0.3472
  908MPD2    H313356   0.050   2.359   9.824 -0.1340  2.6618  1.1821
  908MPD2     N13357   0.075   2.343  10.283 -0.1501  0.2293  0.0987
  908MPD2    H513358   0.031   2.305  10.366  3.5415 -2.6442  0.7512
  908MPD2    N113359   4.526   2.051  10.021  0.3297  0.4581 -0.6642
  908MPD2    H713360   4.490   2.047   9.926  3.1235 -0.1613 -1.7150
  909MPD2     C13361   4.477   4.677  11.601  0.8497 -0.3184  0.1336
  909MPD2    C113362   4.519   0.068  11.644 -0.0748  0.2581 -0.1290
  909MPD2    C213363   4.449   0.128  11.756  0.1283  0.2567 -0.3938
  909MPD2    C313364   4.344   0.070  11.818  0.2945 -0.2518 -0.5013
  909MPD2    C413365   4.300   4.683  11.772  0.2630  0.0243  0.5127
  909MPD2    C513366   4.375   4.621  11.679  0.1227 -0.4350  0.5033
  909MPD2     H13367   4.473   0.229  11.786  0.6657  0.7706 -2.5277
  909MPD2    H113368   4.217   4.631  11.818  0.3709 -1.1730 -0.6640
  909MPD2    H213369   4.514   4.605  11.529  1.7472  0.5931 -0.3238
  909MPD2    H313370   4.345   4.520  11.652 -1.1352  0.3117 -0.8991
  909MPD2     N13371   4.277   0.148  11.917 -0.2012  0.4051 -0.5560
  909MPD2    H513372   4.313   0.242  11.930  2.2144 -0.5168 -0.6278
  909MPD2    N113373   4.623   0.138  11.583  0.1363  0.0319 -0.1708
  909MPD2    H713374   4.644   0.232  11.617 -1.3557 -0.7043  2.7548
  910MPD2     C13375   1.579   1.525  16.198  0.0323  0.1057  0.2529
  910MPD2    C113376   1.620   1.438  16.101  0.5756  0.8893 -0.4895
  910MPD2    C213377   1.593   1.467  15.972 -0.4852  0.2386  0.0122
  910MPD2    C313378   1.527   1.577  15.936 -0.0857 -0.0416 -0.2051
  910MPD2    C413379   1.489   1.661  16.030 -0.2986 -0.1392  0.0251
  910MPD2    C513380   1.500   1.634  16.164  0.1444 -0.1207  0.3804
  910MPD2     H13381   1.642   1.402  15.902  1.6595  2.2659 -0.3758
  910MPD2    H113382   1.439   1.752  15.998 -2.4857 -0.7679  1.6662
  910MPD2    H213383   1.600   1.501  16.302 -1.3061  2.1094  0.9900
  910MPD2    H313384   1.459   1.697  16.243 -0.7253  1.7473 -1.5579
  910MPD2     N13385   1.489   1.614  15.805 -0.1256  0.7591  0.4043
  910MPD2    H513386   1.457   1.709  15.786  2.4682  1.2228 -1.6604
  910MPD2    N113387   1.710   1.338  16.143  0.1299 -0.1140 -0.4850
  910MPD2    H713388   1.756   1.286  16.069  1.9464 -1.3431  1.5179
  911MPD2     C13389   4.376   1.916  16.120  0.2600  0.3631 -0.0015
  911MPD2    C113390   4.434   2.041  16.120 -0.0933 -0.6508 -0.0924
  911MPD2    C213391   4.382   2.139  16.032 -0.5366  0.1128  0.3936
  911MPD2    C313392   4.271   2.111  15.946 -0.4990 -0.2852  0.8133
  911MPD2    C413393   4.220   1.980  15.957  0.5181  0.8818 -0.1102
  911MPD2    C513394   4.275   1.887  16.043  0.3230  0.7168  0.0824
  911MPD2     H13395   4.434   2.233  16.036  3.5313 -2.0177 -3.3994
  911MPD2    H113396   4.127   1.962  15.905 -2.0373  2.5958  3.9152
  911MPD2    H213397   4.421   1.837  16.179 -1.3065  0.4576  1.3349
  911MPD2    H313398   4.212   1.800  16.051  2.2620 -0.7591 -0.5977
  911MPD2     N13399   4.212   2.212  15.859  0.6070  0.1549 -0.0363
  911MPD2    H513400   4.142   2.177  15.794  0.1457  0.3952  0.3294
  911MPD2    N113401   4.550   2.053  16.196  0.3809 -0.1328 -0.0574
  911MPD2    H713402   4.588   1.967  16.235  0.3909  0.3423  0.9829
  912MPD2     C13403   3.735   2.061  15.322 -0.0490  0.2613  0.6849
  912MPD2    C113404   3.799   2.072  15.443 -0.2996 -0.0831  0.1319
  912MPD2    C213405   3.786   1.965  15.534  0.0241  0.9125  0.2234
  912MPD2    C313406   3.717   1.845  15.509  0.3708  0.2864  0.0458
  912MPD2    C413407   3.659   1.833  15.384  0.5960  0.1575  0.3628
  912MPD2    C513408   3.670   1.939  15.293  0.1115 -0.1822  0.3516
  912MPD2     H13409   3.838   1.963  15.628  1.1740 -0.0238 -0.4357
  912MPD2    H113410   3.602   1.749  15.346  1.3748 -0.2902  0.1835
  912MPD2    H213411   3.744   2.137  15.245  0.9064  0.5650  1.0978
  912MPD2    H313412   3.637   1.924  15.191 -1.4298 -1.5033  1.0451
  912MPD2     N13413   3.704   1.739  15.604  0.1258 -0.2467 -0.5516
  912MPD2    H513414   3.740   1.764  15.695  0.4611  0.0356 -0.7613
  912MPD2    N113415   3.881   2.184  15.469 -0.9791  0.0182 -0.2776
  912MPD2    H713416   3.876   2.260  15.402 -0.1801  1.2386  1.0484
  913MPD2     C13417   0.115   3.585  10.842  0.0662 -0.3025 -0.7308
  913MPD2    C113418   0.155   3.704  10.789 -0.5939  0.0596 -0.1482
  913MPD2    C213419   0.057   3.784  10.729 -0.0935  0.0016  0.6964
  913MPD2    C313420   4.656   3.747  10.730  0.1244 -0.7373 -0.2156
  913MPD2    C413421   4.623   3.621  10.782  0.1232  0.8677 -0.3090
  913MPD2    C513422   4.725   3.536  10.828  0.5279 -0.1311 -0.6740
  913MPD2     H13423   0.089   3.878  10.686 -1.7709 -0.5126 -1.6635
  913MPD2    H113424   4.522   3.585  10.800 -1.1417  4.2646 -0.7221
  913MPD2    H213425   0.185   3.518  10.891  1.3451  1.8222  0.3593
  913MPD2    H313426   4.696   3.441  10.872  2.1915 -1.1610 -1.7996
  913MPD2     N13427   4.546   3.827  10.689 -0.4434 -0.2416 -0.1853
  913MPD2    H513428   4.455   3.783  10.694  0.2630 -2.0430 -3.2247
  913MPD2    N113429   0.285   3.747  10.825  0.0917  0.2447  0.5943
  913MPD2    H713430   0.327   3.670  10.875 -4.8586 -1.7004  1.7630
  914MPD2     C13431   2.163   3.143  11.836 -0.2347  0.2942  0.0279
  914MPD2    C113432   2.198   3.269  11.881  0.2560 -0.5569 -0.8413
  914MPD2    C213433   2.285   3.277  11.985  0.4381  0.1929 -0.3551
  914MPD2    C313434   2.336   3.163  12.049  0.1536  0.0607 -0.0103
  914MPD2    C413435   2.289   3.036  12.008  0.2101 -0.1973  0.1788
  914MPD2    C513436   2.207   3.033  11.902  0.2174 -0.3726  0.0491
  914MPD2     H13437   2.329   3.373  12.010  2.8133 -0.6959 -1.1990
  914MPD2    H113438   2.316   2.942  12.054  0.5625 -0.9285 -1.5227
  914MPD2    H213439   2.076   3.122  11.774 -0.4111  2.7850 -0.5695
  914MPD2    H313440   2.162   2.937  11.881 -0.8810 -0.1299  1.3294
  914MPD2     N13441   2.403   3.180  12.172 -0.0656  0.1687  0.3655
  914MPD2    H513442   2.423   3.276  12.198  1.2141  0.4122 -1.4959
  914MPD2    N113443   2.147   3.381  11.812  0.0440  0.1980 -0.1077
  914MPD2    H713444   2.078   3.365  11.739 -0.3491  0.7276  0.1384
  915MPD2     C13445   0.894   3.740  16.359 -0.6962  0.0122  0.1997
  915MPD2    C113446   0.784   3.755  16.275  0.4753  0.6796 -0.5881
  915MPD2    C213447   0.666   3.805  16.323 -0.1715 -0.8658  0.4347
  915MPD2    C313448   0.658   3.857  16.455 -0.3482 -0.3775  0.2567
  915MPD2    C413449   0.768   3.840  16.533 -0.0138  0.0472 -0.2263
  915MPD2    C513450   0.884   3.784  16.486  0.8454  0.7020 -0.5833
  915MPD2     H13451   0.576   3.781  16.266  0.6314 -2.9459  0.0278
  915MPD2    H113452   0.762   3.869  16.637 -2.0190  1.8379 -0.8508
  915MPD2    H213453   0.979   3.681  16.326  0.7174  2.2768 -0.2549
  915MPD2    H313454   0.970   3.765  16.548 -0.1061  2.1394  1.1977
  915MPD2     N13455   0.534   3.921  16.491 -0.8123  0.7388 -0.6817
  915MPD2    H513456   0.464   3.939  16.420 -0.8184  2.9937 -0.0977
  915MPD2    N113457   0.805   3.715  16.145 -0.5486 -0.3576 -0.0530
  915MPD2    H713458   0.893   3.671  16.118 -0.8503 -1.5432  0.9128
  916MPD2     C13459   3.485   2.085  15.823 -0.1694 -0.3553  0.2847
  916MPD2    C113460   3.415   2.038  15.931  0.1502 -0.4209 -0.0985
  916MPD2    C213461   3.358   1.909  15.927  0.2757  0.5821  0.0336
  916MPD2    C313462   3.348   1.838  15.807  0.4214 -0.2597 -0.4099
  916MPD2    C413463   3.399   1.903  15.694  0.3518  0.5815  0.0609
  916MPD2    C513464   3.469   2.022  15.700  0.1030 -0.1364 -0.0141
  916MPD2     H13465   3.322   1.858  16.015  0.3568  1.3529  0.5084
  916MPD2    H113466   3.400   1.859  15.595  0.5684  1.4456 -0.3223
  916MPD2    H213467   3.534   2.182  15.826 -1.9823  0.5917 -0.8877
  916MPD2    H313468   3.481   2.078  15.609 -1.7562  2.1584  1.1638
  916MPD2     N13469   3.291   1.708  15.798 -0.4954 -0.6299  0.2509
  916MPD2    H513470   3.266   1.657  15.882 -0.9234 -1.4206 -0.3497
  916MPD2    N113471   3.410   2.116  16.048 -0.1551 -0.6033  0.2106
  916MPD2    H713472   3.473   2.196  16.041  0.3716 -1.0222  0.1412
  917MPD2     C13473   3.243   0.076  11.751 -1.1989  0.3413  0.3017
  917MPD2    C113474   3.239   4.693  11.678  0.0324 -0.8663  0.5634
  917MPD2    C213475   3.220   4.701  11.542 -0.0834 -0.2421 -0.0712
  917MPD2    C313476   3.245   0.092  11.475  0.1487 -0.4713 -0.0493
  917MPD2    C413477   3.255   0.205  11.554 -0.1652  0.1164 -0.4847
  917MPD2    C513478   3.248   0.195  11.692  0.1736  0.5220  0.2601
  917MPD2     H13479   3.193   4.614  11.483 -1.4405 -0.1712  0.4355
  917MPD2    H113480   3.266   0.309  11.525 -1.3152  0.2981 -0.2534
  917MPD2    H213481   3.262   0.058  11.856  1.5231 -3.5562 -0.8649
  917MPD2    H313482   3.254   0.281  11.757 -1.4848  0.0851  0.9845
  917MPD2     N13483   3.234   0.116  11.337  0.5548  0.1413 -0.1571
  917MPD2    H513484   3.254   0.212  11.310 -0.8034  0.2961 -0.6024
  917MPD2    N113485   3.217   4.573  11.758 -0.0065 -0.5704 -0.1310
  917MPD2    H713486   3.237   4.597  11.854  0.5082  1.0963 -0.6463
  918MPD2     C13487   3.226   4.659  12.590  0.5473 -0.4670  0.0021
  918MPD2    C113488   3.318   4.689  12.499  0.1726 -0.6740 -0.1006
  918MPD2    C213489   3.297   4.623  12.373 -0.6253 -0.4191  0.2839
  918MPD2    C313490   3.194   4.534  12.350 -0.0555  0.0199 -0.4243
  918MPD2    C413491   3.102   4.505  12.450 -0.2086  0.2546  0.6115
  918MPD2    C513492   3.122   4.574  12.567 -0.9039 -0.1679  0.5340
  918MPD2     H13493   3.372   4.635  12.295  0.8354 -1.4154  1.5195
  918MPD2    H113494   3.023   4.431  12.449  0.7694 -0.7424 -2.2053
  918MPD2    H213495   3.219   4.716  12.681 -2.1798  0.1124 -0.5775
  918MPD2    H313496   3.043   4.566  12.641 -2.8548  0.0325 -1.5455
  918MPD2     N13497   3.187   4.476  12.224 -0.2532 -0.6059  0.6649
  918MPD2    H513498   3.228   4.517  12.141 -0.0852 -2.2160 -0.0510
  918MPD2    N113499   3.435   0.030  12.516 -0.2666  0.3754 -0.4031
  918MPD2    H713500   3.492   0.043  12.433  0.8207 -1.0231  0.1302
  919MPD2     C13501   3.680   3.419  11.964 -0.1565 -0.0409 -1.1800
  919MPD2    C113502   3.811   3.383  11.940 -1.0721  0.1951  0.4595
  919MPD2    C213503   3.871   3.408  11.814  0.1621 -0.1635 -0.1795
  919MPD2    C313504   3.799   3.471  11.710  0.0745  0.2105 -0.0123
  919MPD2    C413505   3.666   3.506  11.741 -0.4747 -0.6068 -0.0890
  919MPD2    C513506   3.607   3.484  11.865 -0.2169  0.1925 -0.1337
  919MPD2     H13507   3.979   3.402  11.808  0.2168 -1.2353  1.8548
  919MPD2    H113508   3.599   3.548  11.667 -0.0831 -1.1443 -0.7433
  919MPD2    H213509   3.618   3.391  12.049 -0.5151 -1.7568 -2.0009
  919MPD2    H313510   3.500   3.503  11.876 -0.3409  0.2737 -1.4905
  919MPD2     N13511   3.859   3.513  11.592  0.4952 -0.0412  0.1986
  919MPD2    H513512   3.795   3.538  11.518  1.6590 -0.6307 -0.9936
  919MPD2    N113513   3.885   3.291  12.020 -0.1273 -0.1883  0.2923
  919MPD2    H713514   3.982   3.276  11.995 -0.1012  0.3997  0.0241
  920MPD2     C13515   3.475   3.905  10.822  0.1327 -0.5752  0.6598
  920MPD2    C113516   3.532   3.790  10.770  0.0655  0.4958  0.0945
  920MPD2    C213517   3.630   3.727  10.840  0.0387  0.1405  0.3553
  920MPD2    C313518   3.670   3.766  10.968  0.1635  0.4344 -0.2229
  920MPD2    C413519   3.596   3.873  11.017 -0.3828  0.7628  0.8314
  920MPD2    C513520   3.503   3.939  10.952  0.1089 -0.0156 -0.5826
  920MPD2     H13521   3.676   3.639  10.796  2.0682  0.9174  0.9282
  920MPD2    H113522   3.607   3.915  11.116  0.2038 -1.8295  1.8435
  920MPD2    H213523   3.405   3.965  10.765  1.3702  1.0659  0.8751
  920MPD2    H313524   3.452   4.025  10.996  0.5517  0.2175 -0.5224
  920MPD2     N13525   3.778   3.702  11.026  0.6300 -0.1297  0.4440
  920MPD2    H513526   3.835   3.632  10.979 -1.6403 -1.2643 -0.6557
  920MPD2    N113527   3.501   3.725  10.650 -0.6133  0.1765 -0.5004
  920MPD2    H713528   3.566   3.657  10.611  0.0472  0.1299  0.6908
  921MPD2     C13529   0.428   2.732  16.585 -0.4371  1.2250  0.7020
  921MPD2    C113530   0.489   2.604  16.590  0.6120  0.4299 -0.4758
  921MPD2    C213531   0.418   2.490  16.572  0.3315 -0.5244  0.0522
  921MPD2    C313532   0.282   2.497  16.552 -0.1867  0.1632  0.8086
  921MPD2    C413533   0.223   2.623  16.556 -0.6946  0.3743 -0.4659
  921MPD2    C513534   0.289   2.739  16.583  0.1356  0.0760  0.2348
  921MPD2     H13535   0.466   2.394  16.560  0.7860 -0.2320 -0.4805
  921MPD2    H113536   0.116   2.632  16.542 -0.9332 -3.8807 -1.2445
  921MPD2    H213537   0.493   2.818  16.583 -1.5021  2.0072  0.1757
  921MPD2    H313538   0.239   2.835  16.581  2.7187  1.4232 -0.0412
  921MPD2     N13539   0.203   2.388  16.532  0.0803  0.3574 -0.4172
  921MPD2    H513540   0.114   2.409  16.489 -0.1975 -3.9244 -1.9907
  921MPD2    N113541   0.628   2.611  16.577  0.2158  0.1308 -0.4753
  921MPD2    H713542   0.662   2.706  16.572 -1.2930  0.8023  1.7449
  922MPD2     C13543   1.463   0.042   0.544  0.1580  0.4840 -0.1951
  922MPD2    C113544   1.408   0.156   0.486  0.2613  0.6753  0.7914
  922MPD2    C213545   1.301   0.139   0.398  1.3759 -0.0634 -0.2422
  922MPD2    C313546   1.251   0.010   0.368 -0.1156 -0.2461 -0.3762
  922MPD2    C413547   1.301   4.637   0.436  0.1699 -0.2161  0.9443
  922MPD2    C513548   1.406   4.651   0.522 -0.4949  0.4602 -0.1049
  922MPD2     H13549   1.255   0.224   0.348  0.6373 -0.7858 -0.7821
  922MPD2    H113550   1.267   4.535   0.422  0.0407 -0.2022  1.1583
  922MPD2    H213551   1.546   0.046   0.614 -1.4686 -0.2979  1.7690
  922MPD2    H313552   1.450   4.570   0.579 -3.9103 -1.1046  0.3175
  922MPD2     N13553   1.142   0.006   0.274  0.4250  0.4031  0.6150
  922MPD2    H513554   1.123   0.098   0.235  0.3710  0.7047  1.3420
  922MPD2    N113555   1.457   0.289   0.498  1.0119 -0.0094 -0.6661
  922MPD2    H713556   1.407   0.362   0.449 -1.4211 -0.6999  0.7698
  923MPD2     C13557   2.053   2.040   9.023  0.7074  0.2892 -0.6537
  923MPD2    C113558   2.042   2.141   9.109  0.4267 -0.0211  0.3569
  923MPD2    C213559   2.123   2.147   9.217  0.0977 -0.1242  0.1895
  923MPD2    C313560   2.210   2.038   9.247 -0.0240  0.4058  0.1222
  923MPD2    C413561   2.214   1.931   9.152  0.8627 -0.0023  0.8796
  923MPD2    C513562   2.136   1.935   9.046  0.0162 -0.4034 -0.3281
  923MPD2     H13563   2.118   2.235   9.280 -3.5270  1.0899 -1.8140
  923MPD2    H113564   2.281   1.848   9.173 -0.3132 -0.7309  1.7428
  923MPD2    H213565   1.993   2.042   8.932 -2.5338  0.2658  1.5054
  923MPD2    H313566   2.132   1.861   8.967 -2.9774 -0.3113 -0.2962
  923MPD2     N13567   2.286   2.024   9.366  0.1232  0.4666 -0.6323
  923MPD2    H513568   2.340   1.940   9.379 -1.0502 -0.4212 -1.5194
  923MPD2    N113569   1.968   2.259   9.071 -0.0786 -0.0261 -0.4283
  923MPD2    H713570   1.917   2.246   8.984  2.6004 -0.7354 -1.8931
  924MPD2     C13571   2.547   4.634  16.369  0.7001  0.2287 -0.0997
  924MPD2    C113572   2.597   0.008  16.438 -0.1676  0.3829  0.4550
  924MPD2    C213573   2.665   0.098  16.365 -0.1782 -0.1566 -0.0635
  924MPD2    C313574   2.706   0.068  16.237 -0.4306 -0.1211  0.1483
  924MPD2    C413575   2.669   4.683  16.170  0.0176 -0.8011  0.0978
  924MPD2    C513576   2.589   4.600  16.243  0.0814  0.0062 -0.0022
  924MPD2     H13577   2.691   0.192  16.413  0.4655 -0.2043 -0.3259
  924MPD2    H113578   2.699   4.651  16.071 -0.8364  0.4099 -0.5552
  924MPD2    H213579   2.498   4.559  16.431  0.3576 -0.8042 -1.6273
  924MPD2    H313580   2.563   4.500  16.211  4.4016 -0.6991 -1.2988
  924MPD2     N13581   2.787   0.160  16.167 -0.1961 -0.1706  0.7122
  924MPD2    H513582   2.817   0.242  16.219  1.6274  0.5352 -1.4266
  924MPD2    N113583   2.564   0.027  16.570  0.5009 -0.2003  0.3077
  924MPD2    H713584   2.503   4.690  16.608  0.6395 -1.1516 -1.2860
  925MPD2     C13585   1.588   2.612  14.442  0.5711  0.2146 -0.2436
  925MPD2    C113586   1.504   2.706  14.488 -0.3038 -0.1057 -0.1868
  925MPD2    C213587   1.517   2.756  14.618 -0.6360  0.2637 -0.1097
  925MPD2    C313588   1.602   2.685  14.701 -0.7482  0.1257 -0.2816
  925MPD2    C413589   1.677   2.575  14.658 -0.1891 -0.2276  0.0954
  925MPD2    C513590   1.679   2.549  14.521  0.6590 -0.1193 -0.2313
  925MPD2     H13591   1.440   2.820  14.659  0.5796 -0.2327  2.9698
  925MPD2    H113592   1.750   2.528  14.723  0.1242  0.6382  0.3646
  925MPD2    H213593   1.579   2.568  14.343  0.5995 -0.5975  0.1070
  925MPD2    H313594   1.753   2.484  14.477  0.6619 -0.3243  0.0765
  925MPD2     N13595   1.592   2.691  14.844 -0.6154 -0.0850 -0.1840
  925MPD2    H513596   1.622   2.605  14.889  1.1164  0.1094 -0.9315
  925MPD2    N113597   1.413   2.766  14.400  0.0784 -0.0423 -0.6905
  925MPD2    H713598   1.364   2.853  14.419  0.1920  0.0447 -0.8026
  926MPD2     C13599   0.266   0.906  13.397 -0.3137 -0.0657  0.0512
  926MPD2    C113600   0.141   0.941  13.337  0.0383 -0.8557  0.3321
  926MPD2    C213601   0.138   1.013  13.215  0.0531  0.5039 -0.3142
  926MPD2    C313602   0.254   1.052  13.155  0.4610  0.1979  0.4611
  926MPD2    C413603   0.371   1.016  13.216 -0.1654 -0.2879 -0.0236
  926MPD2    C513604   0.378   0.950  13.336  0.5686  0.0694  0.7340
  926MPD2     H13605   0.043   1.047  13.178 -2.1453 -1.6840  3.3096
  926MPD2    H113606   0.465   1.054  13.176 -1.0919  1.2170 -0.7598
  926MPD2    H213607   0.268   0.847  13.488 -0.3535  2.5457  1.7530
  926MPD2    H313608   0.474   0.927  13.381  0.9186  1.5251  0.7166
  926MPD2     N13609   0.259   1.116  13.027  0.2016 -0.0781  0.3360
  926MPD2    H513610   0.346   1.153  12.991  0.4475 -1.1315 -0.1315
  926MPD2    N113611   0.014   0.911  13.397  0.4322 -0.6749 -0.7358
  926MPD2    H713612   4.662   0.949  13.359 -0.2949 -0.3400  1.2950
  927MPD2     C13613   4.498   3.226   0.197 -0.1117 -0.1667 -0.1623
  927MPD2    C113614   4.564   3.349   0.212  0.2471 -0.5398  0.7319
  927MPD2    C213615   4.667   3.385   0.124  0.2000  0.1852 -0.6595
  927MPD2    C313616   4.683   3.304   0.010  0.0525 -0.4675 -0.2397
  927MPD2    C413617   4.611   3.195  17.730  0.0633  0.3379  0.0119
  927MPD2    C513618   4.526   3.147   0.088 -0.5074 -0.4062 -0.3318
  927MPD2     H13619   0.006   3.461   0.148 -1.3765  2.4291 -2.8661
  927MPD2    H113620   4.623   3.138  17.638  0.0916 -1.8771  1.3689
  927MPD2    H213621   4.427   3.199   0.274 -0.4970 -1.5744 -1.0130
  927MPD2    H313622   4.470   3.054   0.083  1.4551 -1.4227 -3.3319
  927MPD2     N13623   0.056   3.345  17.662 -0.3165  0.0188 -0.4981
  927MPD2    H513624   0.103   3.425  17.703 -0.1667 -0.7345  0.7955
  927MPD2    N113625   4.530   3.413   0.334 -0.1210  0.5461 -0.9531
  927MPD2    H713626   4.469   3.368   0.401  0.2005  1.0097 -0.3508
  928MPD2     C13627   2.150   2.682   0.702  0.5211  0.1191  0.0485
  928MPD2    C113628   2.225   2.655   0.816  0.3210  0.5598 -0.1891
  928MPD2    C213629   2.352   2.609   0.802 -0.7929  0.7562 -0.0309
  928MPD2    C313630   2.414   2.590   0.681  0.4304 -0.1959  0.4823
  928MPD2    C413631   2.330   2.608   0.567  0.1298  0.3033 -0.3733
  928MPD2    C513632   2.205   2.658   0.585 -0.4695  0.1521 -0.5609
  928MPD2     H13633   2.424   2.580   0.879 -0.6460 -3.3747 -1.7081
  928MPD2    H113634   2.372   2.598   0.468 -2.2991 -1.7771 -1.1896
  928MPD2    H213635   2.056   2.736   0.700  0.6873  0.3814 -0.7056
  928MPD2    H313636   2.153   2.684   0.493 -3.2532 -2.1335  0.3458
  928MPD2     N13637   2.548   2.567   0.656  0.3054  0.5171  0.3311
  928MPD2    H513638   2.569   2.560   0.557  0.3975 -1.1030  0.4529
  928MPD2    N113639   2.164   2.660   0.943  0.5867 -0.9482 -0.6101
  928MPD2    H713640   2.074   2.707   0.944  0.6238 -0.9061  0.2639
  929MPD2     C13641   2.220   2.458  10.180 -0.5302 -0.0619 -0.0220
  929MPD2    C113642   2.172   2.374  10.271 -0.5337 -0.1565 -0.3242
  929MPD2    C213643   2.036   2.346  10.279  0.1774 -0.2227  0.4445
  929MPD2    C313644   1.949   2.414  10.194 -0.1043  0.9240 -0.2279
  929MPD2    C413645   1.998   2.504  10.104 -0.1834 -0.3107  0.4738
  929MPD2    C513646   2.135   2.523  10.096 -0.2024 -0.6888 -0.4375
  929MPD2     H13647   1.996   2.287  10.360 -1.4074 -0.5936 -0.6051
  929MPD2    H113648   1.931   2.572  10.051 -1.2582 -0.7628  1.2431
  929MPD2    H213649   2.326   2.477  10.172 -0.6361  0.8071  0.6727
  929MPD2    H313650   2.175   2.591  10.022 -0.9151  0.4887  0.2502
  929MPD2     N13651   1.813   2.402  10.212 -0.2871  0.0366 -0.1823
  929MPD2    H513652   1.772   2.467  10.145  3.8497  2.0257 -0.7836
  929MPD2    N113653   2.252   2.314  10.368  0.4758  0.3745  0.7479
  929MPD2    H713654   2.347   2.346  10.380  0.8046 -0.2708 -0.1688
  930MPD2     C13655   0.092   3.779  14.249 -1.3697 -0.0579  0.3057
  930MPD2    C113656   4.730   3.876  14.253  0.1583 -0.4327  0.7108
  930MPD2    C213657   4.643   3.883  14.147  0.2073 -0.4802 -0.4273
  930MPD2    C313658   4.668   3.809  14.031 -0.5098 -0.3709 -0.2994
  930MPD2    C413659   0.014   3.707  14.038  1.1817 -0.1642 -0.1034
  930MPD2    C513660   0.100   3.690  14.144 -0.0022  0.9940  0.7594
  930MPD2     H13661   4.564   3.957  14.142  1.5725  0.9115 -1.0869
  930MPD2    H113662   0.036   3.638  13.957 -0.0282 -0.2550 -0.3533
  930MPD2    H213663   0.157   3.758  14.333 -1.1383 -0.5795 -0.0048
  930MPD2    H313664   0.180   3.617  14.136 -0.4835  0.4017  1.2869
  930MPD2     N13665   4.620   3.843  13.904  0.4708 -0.2525  0.4836
  930MPD2    H513666   4.658   3.789  13.826  0.5065 -0.6018  0.7405
  930MPD2    N113667   4.726   3.950  14.365 -0.2495  0.2018  0.4989
  930MPD2    H713668   0.069   3.936  14.429  0.7353  1.8283 -0.3743
  931MPD2     C13669   0.316   3.369   0.776 -0.0081 -0.9319  0.6912
  931MPD2    C113670   0.225   3.446   0.843  0.2225 -0.0107 -1.2222
  931MPD2    C213671   0.247   3.465   0.982  0.4384  0.1414 -0.4337
  931MPD2    C313672   0.348   3.388   1.051  0.5332  0.3521 -0.7346
  931MPD2    C413673   0.430   3.302   0.983 -0.5225 -0.5939  0.2526
  931MPD2    C513674   0.411   3.298   0.845 -0.2304 -0.1332  0.0532
  931MPD2     H13675   0.169   3.518   1.035 -1.7463 -0.1517 -3.3696
  931MPD2    H113676   0.500   3.233   1.029  0.3279 -0.2657 -0.5338
  931MPD2    H213677   0.308   3.359   0.668 -0.1904  1.4142  0.4809
  931MPD2    H313678   0.466   3.219   0.796  0.6899  2.3204 -2.8697
  931MPD2     N13679   0.372   3.393   1.190  0.3398 -0.1678  0.1268
  931MPD2    H513680   0.443   3.332   1.229 -0.3435 -1.1992 -0.2451
  931MPD2    N113681   0.116   3.496   0.769 -0.0519 -0.0187  0.1147
  931MPD2    H713682   0.110   3.463   0.673 -1.3328 -1.4880  0.7090
  932MPD2     C13683   0.938   3.224  11.731 -0.1763 -1.2866 -0.5925
  932MPD2    C113684   1.005   3.243  11.620 -0.1174 -0.3917  1.1632
  932MPD2    C213685   1.109   3.163  11.593  0.8900  0.1226 -0.7154
  932MPD2    C313686   1.156   3.064  11.678 -0.2403 -0.2329 -0.7329
  932MPD2    C413687   1.085   3.048  11.797  0.2030 -0.4203  0.1788
  932MPD2    C513688   0.979   3.134  11.819 -0.1731 -0.2467  0.1168
  932MPD2     H13689   1.150   3.190  11.496 -0.0036  0.3907 -1.0167
  932MPD2    H113690   1.112   2.971  11.868  0.8617  0.0116  0.3984
  932MPD2    H213691   0.855   3.289  11.756 -0.0507 -1.7676  1.0648
  932MPD2    H313692   0.927   3.123  11.914  0.2291  0.0085  0.3653
  932MPD2     N13693   1.254   2.972  11.636  0.5788 -0.8331  0.8546
  932MPD2    H513694   1.286   2.912  11.712 -0.6709 -2.6815 -0.0877
  932MPD2    N113695   0.994   3.351  11.536  0.7654  0.0942  0.0536
  932MPD2    H713696   1.071   3.362  11.472  0.8909 -0.5519  0.0943
  933MPD2     C13697   1.513   2.678   1.025 -0.0321 -0.0234 -0.3916
  933MPD2    C113698   1.582   2.752   1.121  0.1235  0.2104 -0.4879
  933MPD2    C213699   1.538   2.879   1.156 -0.0958  0.0277  1.0829
  933MPD2    C313700   1.420   2.924   1.103  0.2505  0.0447 -0.0385
  933MPD2    C413701   1.352   2.846   1.017 -1.1048 -0.1693 -0.0152
  933MPD2    C513702   1.387   2.715   0.995  0.1685 -0.6422 -0.4531
  933MPD2     H13703   1.602   2.947   1.211 -0.6273 -1.1182  3.1048
  933MPD2    H113704   1.262   2.890   0.977 -0.1047 -0.6997 -2.8166
  933MPD2    H213705   1.543   2.579   0.990  0.8157  0.2906 -0.5538
  933MPD2    H313706   1.328   2.649   0.932 -1.0689 -0.4532  0.4943
  933MPD2     N13707   1.386   3.060   1.132 -0.2479  0.3530  0.0467
  933MPD2    H513708   1.439   3.104   1.206 -0.9475 -0.5326  1.0578
  933MPD2    N113709   1.708   2.709   1.151  0.2787 -0.2625  0.0496
  933MPD2    H713710   1.746   2.623   1.114  0.7259  0.8204 -1.9753
  934MPD2     C13711   3.534   3.985   2.547  0.1652  0.1217 -0.2906
  934MPD2    C113712   3.643   3.974   2.467  0.3663 -0.4222  0.1810
  934MPD2    C213713   3.629   3.958   2.333 -0.0924  0.2931  0.5392
  934MPD2    C313714   3.502   3.968   2.272 -0.4242 -0.1434  0.3523
  934MPD2    C413715   3.398   3.991   2.358 -0.0126 -0.0019  0.4629
  934MPD2    C513716   3.415   3.996   2.496 -0.1480 -0.1327 -0.6283
  934MPD2     H13717   3.720   3.928   2.283 -1.1854 -1.1058 -0.6123
  934MPD2    H113718   3.298   3.998   2.317 -1.4707  0.1048  4.0184
  934MPD2    H213719   3.549   4.002   2.653 -0.1928  0.7553 -0.3372
  934MPD2    H313720   3.329   4.000   2.562  0.5794 -0.9910  0.3560
  934MPD2     N13721   3.476   3.945   2.135  0.3040 -0.2128 -0.4993
  934MPD2    H513722   3.380   3.938   2.102 -0.1724 -0.7862  1.0334
  934MPD2    N113723   3.777   3.939   2.520  0.1133  0.0643  0.2064
  934MPD2    H713724   3.844   3.935   2.444  0.2381  1.0502  0.2612
  935MPD2     C13725   4.103   3.563   1.471  0.0416 -0.5713 -0.6381
  935MPD2    C113726   3.988   3.551   1.401  0.3990  0.1815  0.8072
  935MPD2    C213727   3.875   3.617   1.447 -0.0306  0.4547  0.8644
  935MPD2    C313728   3.867   3.679   1.571  0.1736  0.3116  0.3868
  935MPD2    C413729   3.981   3.690   1.643  0.1242 -0.6921  0.1008
  935MPD2    C513730   4.097   3.636   1.590  0.8930  0.0055  0.4414
  935MPD2     H13731   3.793   3.620   1.376  0.1060  1.2616  0.7422
  935MPD2    H113732   3.989   3.731   1.742  2.1633  1.7234 -1.0541
  935MPD2    H213733   4.200   3.524   1.445  0.9213  1.1489  0.0557
  935MPD2    H313734   4.191   3.641   1.643  0.2370  1.5269  1.4641
  935MPD2     N13735   3.757   3.737   1.634  0.3028 -0.0005  0.2980
  935MPD2    H513736   3.774   3.777   1.726 -0.3043 -2.0621  1.3066
  935MPD2    N113737   3.982   3.483   1.277  0.3274  0.0289 -0.1108
  935MPD2    H713738   3.893   3.479   1.229  0.8085  2.8069 -1.2086
  936MPD2     C13739   1.803   1.102  12.412  0.3515 -0.0659  0.2720
  936MPD2    C113740   1.941   1.137  12.388 -0.2348  0.7259  0.6207
  936MPD2    C213741   1.969   1.267  12.360 -0.2055  0.3311  0.2400
  936MPD2    C313742   1.874   1.368  12.377  0.5690 -0.1993  0.0204
  936MPD2    C413743   1.748   1.335  12.420  0.6864 -0.4882  0.4224
  936MPD2    C513744   1.715   1.203  12.421 -0.1244  0.2598  0.1465
  936MPD2     H13745   2.071   1.290  12.332 -0.2772  0.2306 -0.0968
  936MPD2    H113746   1.672   1.411  12.432 -1.9681 -3.4677  2.5295
  936MPD2    H213747   1.769   0.999  12.422  0.2887 -0.1269 -0.5362
  936MPD2    H313748   1.609   1.184  12.433 -0.0358  0.4014  1.2159
  936MPD2     N13749   1.896   1.508  12.371  0.1745  0.8049 -0.3583
  936MPD2    H513750   1.814   1.566  12.382  0.3256  0.7715  0.8985
  936MPD2    N113751   2.034   1.036  12.393  0.5117 -0.0975 -0.7913
  936MPD2    H713752   2.004   0.940  12.406  2.1003 -0.3893  0.8149
  937MPD2     C13753   4.386   2.759  11.907  0.1111 -0.7727  0.4075
  937MPD2    C113754   4.342   2.890  11.896 -0.1875  0.0653  0.5226
  937MPD2    C213755   4.414   2.973  11.809 -0.3035 -0.9471 -0.0411
  937MPD2    C313756   4.495   2.920  11.710  0.9000  0.2131 -0.2356
  937MPD2    C413757   4.511   2.786  11.711 -0.4539  0.4044 -0.1831
  937MPD2    C513758   4.469   2.704  11.810 -0.2551  0.5901 -0.5079
  937MPD2     H13759   4.410   3.081  11.817 -2.7608 -1.0490 -0.0213
  937MPD2    H113760   4.563   2.741  11.627 -2.1423 -0.7505 -0.6098
  937MPD2    H213761   4.339   2.685  11.972 -0.0125 -0.5712  0.5467
  937MPD2    H313762   4.486   2.598  11.794 -0.4883  0.1171  2.3745
  937MPD2     N13763   4.557   3.017  11.636  0.5213 -0.0851 -0.8578
  937MPD2    H513764   4.515   3.109  11.643  0.7006  0.1475 -2.9584
  937MPD2    N113765   4.257   2.960  11.988 -0.3930  0.2522 -0.6476
  937MPD2    H713766   4.247   3.057  11.959 -0.1890  0.8220  1.1920
  938MPD2     C13767   2.725   3.628   0.987 -0.0119  0.5216 -0.0957
  938MPD2    C113768   2.711   3.762   1.036  0.3774  0.4584 -0.1869
  938MPD2    C213769   2.711   3.798   1.172 -0.7900 -0.4251  0.2314
  938MPD2    C313770   2.709   3.693   1.259  0.7302 -1.1284  0.2702
  938MPD2    C413771   2.739   3.567   1.214  0.3393  0.1452  0.3252
  938MPD2    C513772   2.741   3.539   1.080 -0.3719  0.0833  0.3328
  938MPD2     H13773   2.696   3.902   1.197  2.0515  0.0204  0.0460
  938MPD2    H113774   2.767   3.489   1.284  1.5359 -0.6679 -1.0425
  938MPD2    H213775   2.748   3.603   0.884 -1.2777  1.7534 -0.6713
  938MPD2    H313776   2.772   3.441   1.049  1.0481  1.0358 -1.2481
  938MPD2     N13777   2.698   3.708   1.397  0.0532 -0.3894  0.8214
  938MPD2    H513778   2.705   3.624   1.453 -0.3687  1.1915  3.2296
  938MPD2    N113779   2.709   3.869   0.942  0.2572 -0.2463  0.7204
  938MPD2    H713780   2.706   3.959   0.990 -2.0803  1.3940 -2.4727
  939MPD2     C13781   3.494   0.164   1.258 -0.7018  0.3775 -0.0059
  939MPD2    C113782   3.519   0.290   1.213 -0.2161 -0.1725 -0.2741
  939MPD2    C213783   3.587   0.307   1.090 -0.0866  0.3753 -0.6409
  939MPD2    C313784   3.644   0.199   1.026  0.0319  0.1099 -0.1107
  939MPD2    C413785   3.621   0.072   1.079 -0.2687  0.1833 -0.0378
  939MPD2    C513786   3.548   0.059   1.189  0.2627 -0.0780  0.3314
  939MPD2     H13787   3.615   0.405   1.056  2.0055 -0.1362 -0.3816
  939MPD2    H113788   3.670   4.721   1.036  1.3451  0.4861  1.2507
  939MPD2    H213789   3.438   0.140   1.348 -0.4423 -0.3405 -0.0339
  939MPD2    H313790   3.529   4.694   1.227 -1.9395  0.2269  0.0033
  939MPD2     N13791   3.718   0.217   0.906 -0.7684 -0.1668 -0.1836
  939MPD2    H513792   3.707   0.312   0.871  1.0421 -0.2008 -0.8220
  939MPD2    N113793   3.467   0.393   1.298  0.1958  0.0521 -0.5069
  939MPD2    H713794   3.423   0.362   1.384  0.1899 -1.0137 -0.8927
  940MPD2     C13795   2.697   1.206  12.559  0.2541  0.4070  0.4344
  940MPD2    C113796   2.659   1.120  12.657 -0.1083  0.2421 -0.6047
  940MPD2    C213797   2.651   0.985  12.635 -0.4417  0.9284 -0.0378
  940MPD2    C313798   2.672   0.936  12.507  0.3596 -0.1358  0.0808
  940MPD2    C413799   2.709   1.027  12.410 -0.2460  0.3389  0.2783
  940MPD2    C513800   2.722   1.159  12.428 -0.0910  0.9694  0.6015
  940MPD2     H13801   2.619   0.914  12.711  0.5365  1.6262  1.0319
  940MPD2    H113802   2.746   1.001  12.312 -0.1649  0.9226  0.1571
  940MPD2    H213803   2.714   1.312  12.578 -0.9430  0.7117 -0.1635
  940MPD2    H313804   2.745   1.220  12.342  4.0826  1.2998  1.9386
  940MPD2     N13805   2.646   0.811  12.459  0.1167 -0.0973  0.5696
  940MPD2    H513806   2.659   0.795  12.359  0.0857  1.1369  0.3777
  940MPD2    N113807   2.617   1.164  12.784  0.2518 -0.1542 -0.0244
  940MPD2    H713808   2.610   1.086  12.849  1.7234  0.0906  0.4219
  941MPD2     C13809   1.292   0.503  10.409  0.7283  0.5457 -0.3932
  941MPD2    C113810   1.322   0.590  10.512  0.7824 -0.0083  0.7874
  941MPD2    C213811   1.269   0.569  10.635 -0.2742 -0.2984  0.8003
  941MPD2    C313812   1.186   0.461  10.658 -0.4001 -0.2741 -0.0429
  941MPD2    C413813   1.148   0.378  10.554 -0.0204  0.4984  0.5331
  941MPD2    C513814   1.209   0.404  10.430  0.1742 -0.0171 -0.1112
  941MPD2     H13815   1.291   0.640  10.714  1.6603  0.7210 -0.6542
  941MPD2    H113816   1.074   0.300  10.567  0.9297 -0.5204 -0.1645
  941MPD2    H213817   1.337   0.509  10.310  0.9112 -1.5046 -0.4265
  941MPD2    H313818   1.176   0.337  10.351  0.7645  1.2191 -1.4226
  941MPD2     N13819   1.138   0.442  10.795  0.2641 -0.1879 -0.1070
  941MPD2    H513820   1.088   0.355  10.806  1.3147 -0.5867  1.4229
  941MPD2    N113821   1.415   0.694  10.498  0.6104 -0.3509  0.0521
  941MPD2    H713822   1.438   0.753  10.577 -1.6203 -0.5045  0.8300
  942MPD2     C13823   0.860   2.563   9.786 -0.0009 -0.1181  0.3520
  942MPD2    C113824   0.873   2.615   9.660 -0.5400  0.3260  0.8894
  942MPD2    C213825   0.980   2.579   9.577 -0.6027 -0.6683  0.6059
  942MPD2    C313826   1.072   2.480   9.609 -0.1632  0.1899  0.5034
  942MPD2    C413827   1.046   2.418   9.725  0.1825 -0.3095 -0.1541
  942MPD2    C513828   0.953   2.466   9.816  0.0580 -0.8573  0.7249
  942MPD2     H13829   1.001   2.637   9.488 -2.3533 -2.6210 -1.0818
  942MPD2    H113830   1.118   2.350   9.768 -0.8247  0.8191  3.3086
  942MPD2    H213831   0.774   2.575   9.850 -1.3237  1.7529 -1.7355
  942MPD2    H313832   0.936   2.406   9.905 -2.7538  0.3577  1.0337
  942MPD2     N13833   1.195   2.452   9.543 -0.1755  0.2102  0.1069
  942MPD2    H513834   1.266   2.411   9.603 -0.6353 -0.6671  0.0521
  942MPD2    N113835   0.788   2.718   9.623  0.3338 -0.0788  0.4943
  942MPD2    H713836   0.794   2.754   9.528  1.1411  1.5031  1.1533
  943MPD2     C13837   4.692   0.782  10.105 -0.4320 -0.1486  0.4796
  943MPD2    C113838   4.682   0.684  10.198  0.7268 -0.1195 -0.8047
  943MPD2    C213839   4.722   0.711  10.326 -0.6035 -0.1499 -0.5635
  943MPD2    C313840   0.033   0.835  10.369 -0.1698  0.4612 -0.5542
  943MPD2    C413841   0.038   0.934  10.272 -0.4934 -0.5121  0.4280
  943MPD2    C513842   0.006   0.901  10.140  0.0946  0.4205  0.1191
  943MPD2     H13843   4.716   0.643  10.410 -2.0965  0.1864 -0.4062
  943MPD2    H113844   0.064   1.038  10.294  2.2503 -1.7090  2.8990
  943MPD2    H213845   4.655   0.759  10.005  0.8693 -0.2113  0.0170
  943MPD2    H313846   0.007   0.981  10.067  0.9146 -0.4382 -0.8138
  943MPD2     N13847   0.076   0.864  10.504  0.2886  0.1676 -0.2060
  943MPD2    H513848   0.101   0.962  10.520 -0.6313  0.1611  1.2558
  943MPD2    N113849   4.629   0.557  10.161  0.5221  0.8869  0.1454
  943MPD2    H713850   4.591   0.544  10.068 -1.0589  2.5613  0.5602
  944MPD2     C13851   4.162   3.986  11.368 -0.4334  0.5290  0.2011
  944MPD2    C113852   4.269   4.076  11.362 -0.3001 -0.5795  0.0309
  944MPD2    C213853   4.240   4.208  11.392  0.1880 -0.3441  0.7091
  944MPD2    C313854   4.110   4.251  11.417 -0.3359  0.2509  0.1970
  944MPD2    C413855   4.006   4.160  11.419 -0.0843  0.5017  0.0412
  944MPD2    C513856   4.030   4.024  11.390 -0.1603  0.2238  0.0735
  944MPD2     H13857   4.316   4.285  11.385  0.8033 -1.0165  0.0913
  944MPD2    H113858   3.903   4.191  11.433 -0.9585 -2.3683 -0.0814
  944MPD2    H213859   4.181   3.884  11.338  2.6220  1.3140 -0.4623
  944MPD2    H313860   3.952   3.950  11.379  1.8343 -1.5673 -1.8190
  944MPD2     N13861   4.099   4.388  11.441  0.0831 -0.6005  0.4950
  944MPD2    H513862   4.182   4.445  11.448 -0.0712 -0.5457  1.8338
  944MPD2    N113863   4.393   4.025  11.331 -0.2518 -0.2710  0.3208
  944MPD2    H713864   4.401   3.925  11.311 -1.4712 -0.0481 -1.2685
    1TMC1    C113865   2.826   0.404  15.279  0.5022  0.3531 -0.1043
    1TMC1    C213866   2.837   0.328  15.394  0.2663  0.4539 -0.3019
    1TMC1    C313867   2.944   0.360  15.474  0.4599 -0.8199 -0.2690
    1TMC1    C413868   2.908   0.511  15.248  1.1944  0.7663 -0.1288
    1TMC1    C513869   3.013   0.529  15.333  0.5431  0.0774  0.1616
    1TMC1    C613870   3.027   0.465  15.452 -0.2169 -0.0141  0.1059
    1TMC1     C13871   2.719   0.360  15.191 -0.0839 -0.3121 -0.2540
    1TMC1     O13872   2.623   0.302  15.242 -0.0173 -0.0350 -0.4864
    1TMC1     H13873   2.763   0.250  15.408 -0.5373  1.5855  1.6680
    1TMC1    H113874   2.911   0.564  15.154  1.8860  0.1114 -0.4724
    1TMC1    H213875   3.122   0.472  15.503 -0.5865 -0.2686  0.8328
    1TMC1    C713876   3.124   0.593  15.278  0.2253 -0.1447 -0.2320
    1TMC1    C813877   2.979   0.280  15.589 -0.4173 -0.1716  0.5495
    1TMC1    O113878   3.156   0.604  15.160 -0.1513  0.8412  0.1686
    1TMC1    O213879   3.090   0.296  15.642 -0.7949 -0.3887 -0.5238
    1TMC1    O313880   3.176   0.669  15.379  0.1212 -0.4615 -0.2633
    1TMC1    H313881   3.158   0.646  15.473  0.6144  1.3803  0.2742
    1TMC1    O513882   2.890   0.184  15.620 -0.3764  0.1742  0.2639
    1TMC1    H513883   2.801   0.212  15.592  0.1264  2.6114  1.1099
    2MPD2     C13884   2.509   0.405  14.726  0.4029 -0.1349  0.4476
    2MPD2    C113885   2.639   0.455  14.721 -0.3298  0.0472 -0.2840
    2MPD2    C213886   2.716   0.450  14.832 -0.0080 -0.0019  0.4212
    2MPD2    C313887   2.668   0.406  14.950  0.3761 -0.4022  0.3768
    2MPD2    C413888   2.539   0.350  14.951  0.3849 -0.1374  0.3367
    2MPD2    C513889   2.461   0.344  14.842 -1.0169  0.1162  0.0172
    2MPD2     H13890   2.816   0.491  14.841 -0.0548  0.2264 -0.1130
    2MPD2    H113891   2.498   0.305  15.040  1.1428  0.3942  0.9521
    2MPD2    H213892   2.430   0.414  14.653  0.8011  0.1604  0.0526
    2MPD2    H313893   2.361   0.300  14.845 -1.0201  0.2188  1.4056
    2MPD2     N13894   2.749   0.397  15.066  0.3082  1.1698  0.0990
    2MPD2    H513895   2.844   0.432  15.058  1.1376 -0.9165  0.9407
    2MPD2    N113896   2.683   0.512  14.598  0.3536  0.2915  0.1152
    2MPD2    H713897   2.615   0.517  14.523 -1.0814 -0.1932  1.3587
    3TMC2    C113898   2.823   0.623  14.448  0.4409 -0.1893 -0.5611
    3TMC2    C213899   2.776   0.559  14.337 -0.0478 -0.2201 -0.2475
    3TMC2    C313900   2.828   0.593  14.215  0.0204  0.2229  0.3686
    3TMC2    C413901   2.921   0.711  14.429 -0.6321  0.5165  0.1569
    3TMC2    C513902   2.965   0.745  14.308  0.3504 -0.3887 -0.0011
    3TMC2    C613903   2.914   0.694  14.199  0.1911 -0.1744  0.3603
    3TMC2     C13904   2.807   0.572  14.580 -0.3279  0.4603  1.2185
    3TMC2     O13905   2.882   0.602  14.670  0.0426 -0.3685  0.7985
    3TMC2     H13906   2.699   0.483  14.337 -1.3741  1.1275 -0.6162
    3TMC2    H113907   2.963   0.766  14.512 -0.4136  0.7419 -0.1045
    3TMC2    H213908   2.953   0.718  14.101  1.5756 -1.4165  0.6208
    3TMC2    C713909   3.021   0.877  14.315 -0.0521  0.3794 -0.0117
    3TMC2    C813910   2.764   0.535  14.103 -0.0986  0.3265 -0.4680
    3TMC2    O113911   3.093   0.908  14.411 -0.2814 -0.3461  0.2524
    3TMC2    O213912   2.655   0.477  14.110  0.2129 -0.1092  0.1301
    3TMC2    O513913   2.849   0.530  14.003  0.1170 -0.2240 -0.1138
    3TMC2    H513914   2.938   0.554  14.036 -0.9951  1.2015  1.8413
    4TMC2    C113915   2.515   1.519  13.713 -0.3605 -0.2811  0.1467
    4TMC2    C213916   2.515   1.650  13.755 -0.0983 -0.4289  0.1046
    4TMC2    C313917   2.605   1.692  13.845  0.0964  0.3445 -0.4256
    4TMC2    C413918   2.600   1.427  13.767 -0.0552 -0.3092 -0.0803
    4TMC2    C513919   2.676   1.472  13.864 -1.3165  0.5538  0.4387
    4TMC2    C613920   2.688   1.600  13.908  0.4204 -0.1149 -0.0819
    4TMC2     C13921   2.427   1.476  13.602 -0.0849  0.0223 -0.7860
    4TMC2     O13922   2.442   1.364  13.554  0.2772  0.2488 -0.5172
    4TMC2     H13923   2.457   1.728  13.706 -2.3770 -1.7879  0.6820
    4TMC2    H113924   2.609   1.325  13.731 -2.1242  0.0256 -1.5920
    4TMC2    H213925   2.759   1.629  13.985  0.1624  2.1635 -0.7041
    4TMC2    C713926   2.764   1.374  13.926 -0.2658 -0.0731 -0.1564
    4TMC2    C813927   2.630   1.830  13.864 -0.2814  0.6928 -0.3889
    4TMC2    O113928   2.753   1.257  13.888 -0.1593  0.4622 -0.2047
    4TMC2    O213929   2.649   1.886  13.972 -0.0299  0.1998 -0.3568
    4TMC2    O513930   2.660   1.879  13.747  0.3912 -0.7612  0.3416
    4TMC2    H513931   2.660   1.810  13.678 -0.1542  2.4080 -2.8473
    5MPD2     C13932   2.018   1.557  13.295  0.3673 -0.3770  0.4841
    5MPD2    C113933   2.039   1.673  13.371  0.5598  0.2248 -0.1704
    5MPD2    C213934   2.159   1.685  13.439 -0.2740  0.1483  0.1542
    5MPD2    C313935   2.235   1.570  13.464  0.1286  0.0102  0.2369
    5MPD2    C413936   2.210   1.456  13.387  0.7056  0.2197 -0.3907
    5MPD2    C513937   2.105   1.447  13.302  0.1387  0.8935 -0.7284
    5MPD2     H13938   2.186   1.780  13.482 -1.7010  1.1551 -1.1760
    5MPD2    H113939   2.257   1.360  13.404  2.3435  0.9245 -0.9482
    5MPD2    H213940   1.927   1.549  13.236  2.8131 -0.5861 -3.2465
    5MPD2    H313941   2.085   1.362  13.238 -0.7593 -0.2578  1.0962
    5MPD2     N13942   2.335   1.571  13.566 -0.0183 -0.7868 -0.6129
    5MPD2    H513943   2.346   1.662  13.611 -1.0293 -0.8817 -0.1668
    5MPD2    N113944   1.945   1.775  13.363  0.1353  0.2821  0.4870
    5MPD2    H713945   1.882   1.767  13.284  1.2313  1.7274 -0.5152
    6MPD1     C13946   0.577   2.919  12.726  0.1662  0.1177 -0.1234
    6MPD1    C113947   0.591   2.788  12.685  0.5705 -0.6945 -0.2958
    6MPD1    C213948   0.646   2.699  12.772 -0.0470  0.4670 -0.0175
    6MPD1    C313949   0.689   2.738  12.901 -0.3202  0.0373  0.2509
    6MPD1    C413950   0.658   2.861  12.944 -0.2490 -0.0339  0.4266
    6MPD1    C513951   0.592   2.949  12.861 -0.1306  0.4680 -0.0182
    6MPD1     H13952   0.656   2.597  12.736  2.0172  0.8673 -0.6342
    6MPD1    H113953   0.688   2.897  13.042 -3.9231 -0.3239  1.6681
    6MPD1    H213954   0.544   2.993  12.653 -1.6207 -0.4071  0.1558
    6MPD1    H313955   0.584   3.054  12.886  1.0097  0.5599 -0.0366
    6MPD1     N13956   0.749   2.649  12.995  0.5173 -0.1827  0.2114
    6MPD1    H513957   0.775   2.694  13.082 -0.3360  0.0372  0.3496
    6MPD1    N113958   0.569   2.758  12.548  0.5230 -0.2715 -0.3193
    6MPD1    H613959   0.561   2.658  12.535  1.8050 -0.4504  0.2592
    6MPD1    H713960   0.487   2.803  12.508  1.0916  1.5948  0.5854
    7MPD2     C13961   1.139   1.863  13.077  0.2399  0.6882 -1.0711
    7MPD2    C113962   1.190   1.994  13.099  0.0211  0.6682  0.3609
    7MPD2    C213963   1.329   2.003  13.118  1.0931 -0.8650  0.1937
    7MPD2    C313964   1.413   1.893  13.097 -0.0599  0.2409 -0.3748
    7MPD2    C413965   1.357   1.773  13.058  0.3163  0.0357 -0.8988
    7MPD2    C513966   1.226   1.758  13.045 -0.2217  0.6346 -0.0519
    7MPD2     H13967   1.360   2.102  13.148  3.0664 -1.8294  1.3212
    7MPD2    H113968   1.420   1.686  13.039 -0.1981 -0.8725  1.6324
    7MPD2    H213969   1.035   1.853  13.049 -0.4723  1.1478  1.4117
    7MPD2    H313970   1.189   1.664  13.006 -0.5750  0.5180  0.5720
    7MPD2     N13971   1.545   1.904  13.135 -0.3818 -0.6284 -0.1714
    7MPD2    H513972   1.605   1.822  13.147  0.2733  0.0868  1.3653
    7MPD2    N113973   1.115   2.108  13.121 -0.6039  0.3425 -0.0110
    7MPD2    H713974   1.163   2.196  13.137  0.1983 -0.5966  2.8317
    8TMC3    C113975   1.741   2.013  13.185  0.4949 -1.3412 -0.3885
    8TMC3    C213976   1.766   1.934  13.293 -0.7012  0.0362  0.3819
    8TMC3    C313977   1.837   1.982  13.399  0.1271  0.2206 -0.3500
    8TMC3    C413978   1.798   2.141  13.175  0.0007 -0.0051  0.1955
    8TMC3    C513979   1.865   2.188  13.285 -0.3555 -0.5732  0.2674
    8TMC3    C613980   1.873   2.114  13.402  0.0715  0.6796 -1.0152
    8TMC3     C13981   1.611   2.016  13.126  0.3664  0.2275  0.2819
    8TMC3     O13982   1.581   2.127  13.099  0.4099  0.2764 -0.5268
    8TMC3     H13983   1.728   1.833  13.285 -1.6810  0.5200 -1.0016
    8TMC3    H113984   1.806   2.184  13.075 -2.9747  1.7263  0.7059
    8TMC3    H213985   1.912   2.153  13.496  0.1185  0.7259 -1.0544
    8TMC3    C713986   1.836   2.330  13.296 -0.0248  0.3108 -0.2507
    8TMC3    C813987   1.939   1.887  13.447 -0.6987  0.0127 -0.7047
    8TMC3    O113988   1.893   2.397  13.381 -0.2493  0.2094  0.2302
    8TMC3    O213989   1.998   1.918  13.547  0.0192  0.5681  0.0629
    9TMC3    C113990   0.846   2.462  13.073 -0.0124 -0.1719  0.6771
    9TMC3    C213991   0.950   2.532  13.133  0.3876  0.3079  0.0596
    9TMC3    C313992   1.040   2.464  13.205 -0.4027  0.3058 -0.2379
    9TMC3    C413993   0.859   2.326  13.073  0.2578 -0.1830 -0.6772
    9TMC3    C513994   0.946   2.264  13.150 -0.1613  0.4250 -0.0792
    9TMC3    C613995   1.045   2.329  13.217 -0.5592  0.6829 -0.0748
    9TMC3     C13996   0.761   2.517  12.978  0.2248 -0.2591  0.5813
    9TMC3     O13997   0.723   2.438  12.894 -0.8208  0.6735  0.1593
    9TMC3     H13998   0.965   2.639  13.122  2.6837  0.2294  2.4053
    9TMC3    H113999   0.790   2.259  13.021  1.6764 -2.4358  0.3380
    9TMC3    H214000   1.118   2.282  13.282 -0.4713 -1.7500 -1.9640
    9TMC3    C714001   0.975   2.124  13.127 -0.0288  0.9206 -0.3217
    9TMC3    C814002   1.149   2.544  13.266  0.3861  0.9388  0.0016
    9TMC3    O114003   0.890   2.049  13.085 -0.3666  0.2279  0.9042
    9TMC3    O214004   1.138   2.666  13.282  0.5601  0.3708  0.2414
   10MPD2     C14005   1.660   2.567  13.334 -0.6363  0.1181 -0.4232
   10MPD2    C114006   1.624   2.450  13.280 -0.6863 -0.0689  0.4865
   10MPD2    C214007   1.493   2.429  13.247  0.1878 -0.0650  0.1394
   10MPD2    C314008   1.392   2.519  13.282 -0.2222  0.3069 -0.0792
   10MPD2    C414009   1.421   2.629  13.354 -0.2139  0.3732 -0.1442
   10MPD2    C514010   1.560   2.655  13.374 -0.3763 -0.1151 -0.4288
   10MPD2     H14011   1.476   2.331  13.204  0.8627 -0.2143  0.2004
   10MPD2    H114012   1.343   2.686  13.402  0.7771  0.6082  1.2156
   10MPD2    H214013   1.763   2.590  13.355 -1.3667  0.0657  3.1703
   10MPD2    H314014   1.592   2.743  13.429 -1.0402  1.2972 -2.2770
   10MPD2     N14015   1.264   2.472  13.260 -0.0381 -0.0665 -0.8898
   10MPD2    H514016   1.263   2.389  13.202  2.1013 -0.3806 -0.4841
   10MPD2    N114017   1.709   2.346  13.241  0.4750  0.1207 -0.5276
   10MPD2    H714018   1.666   2.269  13.191 -0.1941  1.2528 -1.6807
   11MPD2     C14019   3.033   1.179  14.338  0.4194 -0.1931 -0.2710
   11MPD2    C114020   2.969   1.114  14.238  0.2071  0.1757  0.4093
   11MPD2    C214021   2.911   1.189  14.133 -0.4225  0.7963  0.1035
   11MPD2    C314022   2.904   1.326  14.127 -0.1239 -1.1322 -0.0730
   11MPD2    C414023   2.969   1.388  14.241 -0.2107  0.2179 -0.0841
   11MPD2    C514024   3.023   1.317  14.348  0.8463 -0.7364 -0.2686
   11MPD2     H14025   2.856   1.147  14.050 -2.0237  1.2856  0.9178
   11MPD2    H114026   2.961   1.495  14.254  1.8015  0.1819  1.4186
   11MPD2    H214027   3.080   1.130  14.423  0.3674 -1.0436 -0.7244
   11MPD2    H314028   3.075   1.365  14.430 -1.6364 -2.8677  2.5169
   11MPD2     N14029   2.840   1.412  14.035 -0.3054  0.6490 -0.0249
   11MPD2    H514030   2.840   1.512  14.053 -3.4383  0.7910 -0.8740
   11MPD2    N114031   2.961   0.970  14.228 -0.2633 -0.1714 -0.0008
   11MPD2    H714032   2.909   0.934  14.149  1.6585 -0.4641 -1.1188
    1MPD1     C14033   1.934   2.713  17.347  0.0394  0.1840  0.1841
    1MPD1    C114034   1.811   2.660  17.373  0.2202  0.3835  0.4262
    1MPD1    C214035   1.716   2.657  17.271 -0.3549  0.4744 -0.0972
    1MPD1    C314036   1.741   2.722  17.151 -0.4032 -0.2765  0.3365
    1MPD1    C414037   1.865   2.777  17.127  0.0927 -0.5432  0.3938
    1MPD1    C514038   1.957   2.771  17.228 -0.1282  0.5378 -0.0291
    1MPD1     H14039   1.619   2.610  17.282 -0.3974  0.6155  0.1266
    1MPD1    H114040   1.888   2.814  17.027 -0.4439  0.7474  0.7582
    1MPD1    H214041   2.020   2.715  17.412 -0.4543  2.3671  0.7924
    1MPD1    H314042   2.051   2.823  17.212 -1.1752  2.5396  0.2556
    1MPD1     N14043   1.646   2.735  17.041 -0.0878  0.0138  0.4901
    1MPD1    H514044   1.680   2.798  16.969  0.3644 -2.0376 -1.1117
    1MPD1    N114045   1.788   2.597  17.500  0.2611  0.0535 -0.0338
    1MPD1    H614046   1.849   2.641  17.569 -0.9051  1.8829 -0.1696
    1MPD1    H714047   1.693   2.604  17.534 -0.2871 -2.7366 -0.9392
    2MPD1     C14048   1.847   3.117  16.338  0.1672 -1.3338  0.3766
    2MPD1    C114049   1.890   3.101  16.467  0.7297 -0.0472  0.1515
    2MPD1    C214050   1.795   3.052  16.554  1.1104  0.5858 -0.1818
    2MPD1    C314051   1.679   2.995  16.509  0.1966  0.4145  0.1935
    2MPD1    C414052   1.639   3.010  16.382 -0.0364 -0.0619  1.1160
    2MPD1    C514053   1.717   3.078  16.294 -0.1826 -0.4348 -0.3371
    2MPD1     H14054   1.815   3.063  16.660  0.0124  1.1386 -0.0325
    2MPD1    H114055   1.546   2.976  16.337 -0.1184  0.2167  1.0752
    2MPD1    H214056   1.911   3.159  16.261  0.2616  0.0312  1.2071
    2MPD1    H314057   1.687   3.092  16.191  2.9977  0.2222 -1.1738
    2MPD1     N14058   1.604   2.925  16.607 -0.0528 -0.2145 -0.7162
    2MPD1    H514059   1.644   2.916  16.700  0.8421  3.4731 -0.7273
    2MPD1    N114060   2.008   3.168  16.514  0.9831  0.2029  0.2952
    2MPD1    H614061   2.083   3.190  16.449  0.8797 -0.1980  0.0358
    2MPD1    H714062   2.053   3.121  16.592  0.8936  0.7674  0.6804
    3TMC3    C114063   1.422   2.802  16.700  0.2372  0.2139 -0.1054
    3TMC3    C214064   1.289   2.776  16.691  0.2508  0.2592 -0.2977
    3TMC3    C314065   1.233   2.717  16.800 -1.0088  0.3556  0.6363
    3TMC3    C414066   1.508   2.753  16.796 -0.3292 -0.2707  0.1384
    3TMC3    C514067   1.444   2.704  16.907  0.0724 -0.3548 -0.5115
    3TMC3    C614068   1.311   2.678  16.909 -0.6310  0.0198  0.0615
    3TMC3     C14069   1.473   2.874  16.585 -0.0756 -0.5617  0.2503
    3TMC3     O14070   1.395   2.901  16.494  0.1338  0.1946  0.1586
    3TMC3     H14071   1.226   2.816  16.613 -1.9728 -1.3399  0.6598
    3TMC3    H114072   1.615   2.767  16.788 -0.4311  1.1032  1.0941
    3TMC3    H214073   1.264   2.645  17.001  1.0916  1.4522  1.4880
    3TMC3    C714074   1.520   2.667  17.029  0.3090  0.1579  0.0860
    3TMC3    C814075   1.089   2.728  16.815 -0.5607 -0.1181  0.6052
    3TMC3    O114076   1.474   2.594  17.113  0.3580  0.5930  0.1237
    3TMC3    O214077   1.049   2.830  16.763  0.4382 -0.1819  0.3836
    4MPD1     C14078   0.619   2.623  16.959 -0.0029 -0.3323  0.2354
    4MPD1    C114079   0.697   2.522  17.010 -0.3295  0.2197  0.2489
    4MPD1    C214080   0.832   2.532  16.983 -0.2062 -0.7121 -0.1114
    4MPD1    C314081   0.890   2.634  16.902  0.1288  0.5109 -0.1770
    4MPD1    C414082   0.805   2.728  16.849  0.0511 -0.1128 -0.0389
    4MPD1    C514083   0.677   2.721  16.881  0.0437 -0.4350 -0.2424
    4MPD1     H14084   0.905   2.457  17.010  1.6350  0.6291 -1.3778
    4MPD1    H114085   0.831   2.808  16.781 -0.8490 -0.1367 -0.4014
    4MPD1    H214086   0.511   2.626  16.964 -0.1217 -0.9726 -2.4594
    4MPD1    H314087   0.602   2.786  16.839 -0.2136 -0.3132  0.4094
    4MPD1     N14088   1.028   2.636  16.895 -0.3575 -0.1691 -0.0068
    4MPD1    H514089   1.081   2.559  16.934  1.1407  0.5148 -0.6917
    4MPD1    N114090   0.657   2.413  17.088  0.3273 -0.2733 -0.7151
    4MPD1    H614091   0.585   2.435  17.156  1.4131 -1.4115  0.8270
    4MPD1    H714092   0.729   2.376  17.151  1.2099  0.5785 -1.2308
    1TCq1    O114093   1.296   3.309  11.356  0.1566 -0.4539 -0.0041
    1TCq1    C114094   1.204   3.300  11.258  0.5351  0.4604 -0.3495
    1TCq1    O214095   1.095   3.354  11.264 -0.0865 -0.0573 -0.6802
    1TCq1    C214096   1.249   3.233  11.135  0.0892  0.2325 -0.1600
    1TCq1    C314097   1.347   3.133  11.128 -0.3312 -0.4270 -0.2486
    1TCq1    C414098   1.392   3.093  11.008  0.0509  1.0879 -0.3512
    1TCq1    C514099   1.364   3.165  10.890 -0.2372 -0.8406 -0.7141
    1TCq1    C614100   1.259   3.245  10.895 -0.3263 -0.1669 -0.4835
    1TCq1    C714101   1.199   3.286  11.014 -0.0453 -0.0534  0.1725
    1TCq1    C814102   1.236   3.333  10.777 -0.3598  0.6812  0.3023
    1TCq1    O414103   1.150   3.422  10.789 -0.3403 -0.0067  0.2309
    1TCq1    C914104   1.517   3.023  11.004  0.0105 -0.5717 -0.1322
    1TCq1    O514105   1.593   3.045  10.909 -0.2696  0.9436 -0.5268
    1TCq1    O614106   1.537   2.940  11.094  0.1010 -0.2857 -0.2294
    1TCq1    H114107   1.385   3.270  11.343  1.8588  3.2269  0.5525
    1TCq1    H214108   1.368   3.071  11.214 -0.0475  0.3273  0.2310
    1TCq1    H314109   1.418   3.137  10.801 -0.7211 -1.4520 -0.8199
    1TCq1    H414110   1.125   3.364  11.020 -0.7508 -0.6010 -1.4446
    2MPD1     C14111   1.330   3.496  10.300  0.6857  0.3679 -0.4326
    2MPD1    C114112   1.385   3.374  10.319  0.1401  0.0614 -0.0828
    2MPD1    C214113   1.375   3.310  10.439 -0.3532  0.3172 -0.6808
    2MPD1    C314114   1.316   3.375  10.547  0.9104 -0.4691 -0.1390
    2MPD1    C414115   1.269   3.507  10.533  0.4926  0.3768 -0.0287
    2MPD1    C514116   1.275   3.561  10.407  0.6513 -0.0391 -0.0082
    2MPD1     H14117   1.403   3.206  10.454  1.8550  0.9805 -0.1690
    2MPD1    H114118   1.215   3.555  10.613  2.2935 -0.5162  1.7277
    2MPD1    H214119   1.323   3.550  10.206  1.9254  0.8792 -0.2254
    2MPD1    H314120   1.248   3.663  10.384  0.0450  0.3111  2.2849
    2MPD1     N14121   1.303   3.293  10.667  0.1716 -0.1585 -0.0461
    2MPD1    H514122   1.341   3.199  10.659  0.3938  0.0255 -1.1700
    2MPD1    N114123   1.454   3.308  10.222 -0.4702  0.3759  0.1288
    2MPD1    H614124   1.431   3.210  10.238 -0.9580  0.4357 -0.1996
    2MPD1    H714125   1.436   3.340  10.127  0.0052  3.0287  0.9226
    1TMC1    C114126   4.099   1.806   1.004  0.4602  0.7310 -0.0261
    1TMC1    C214127   4.188   1.745   0.925  0.6732  0.2348  0.0096
    1TMC1    C314128   4.157   1.623   0.866 -0.3780 -0.3203 -0.5627
    1TMC1    C414129   3.986   1.741   1.050 -0.8205  0.3125 -0.4141
    1TMC1    C514130   3.964   1.617   1.002  0.0779  0.6870  0.6218
    1TMC1    C614131   4.043   1.565   0.899 -0.1294  0.4008  0.0689
    1TMC1     C14132   4.127   1.941   1.038 -0.3708 -0.1140  0.5244
    1TMC1     O14133   4.245   1.979   1.042  0.0210 -0.1898 -0.2541
    1TMC1     H14134   4.269   1.802   0.880 -0.8549  1.3764 -1.2842
    1TMC1    H114135   3.928   1.782   1.132 -1.1233 -0.8550 -0.0424
    1TMC1    H214136   4.020   1.468   0.857  0.4518  0.0307  0.5997
    1TMC1    C714137   3.837   1.561   1.006 -0.3352  0.0506  0.0374
    1TMC1    C814138   4.205   1.607   0.732  0.0557 -0.1513 -0.1425
    1TMC1    O114139   3.829   1.438   1.014  0.3492 -0.2982  0.1515
    1TMC1    O214140   4.153   1.535   0.647 -0.1777  0.1294  0.5023
    1TMC1    O314141   3.748   1.641   1.072 -0.4331 -0.0693 -0.2889
    1TMC1    H314142   3.743   1.727   1.025 -1.4156 -1.2675 -2.3713
    1TMC1    O514143   4.332   1.651   0.729 -0.0200  0.2388  0.0429
    1TMC1    H514144   4.362   1.683   0.817  2.1364  1.6135 -1.1946
    2MPD1     C14145   3.967   2.412   1.172  0.2120  0.6726  0.7032
    2MPD1    C114146   3.858   2.332   1.176 -0.7265  0.1997  0.0635
    2MPD1    C214147   3.879   2.197   1.152  0.8809  0.1231 -0.6132
    2MPD1    C314148   4.003   2.147   1.109 -0.0615 -0.3731 -0.8042
    2MPD1    C414149   4.113   2.230   1.112  0.3558 -0.3661 -0.4284
    2MPD1    C514150   4.091   2.365   1.135  0.1227 -0.0932  0.0102
    2MPD1     H14151   3.799   2.123   1.159  0.7265  0.5806  2.4117
    2MPD1    H114152   4.209   2.196   1.075 -0.0789  0.6133 -2.4626
    2MPD1    H214153   3.962   2.518   1.195 -2.0980 -0.2147  4.2919
    2MPD1    H314154   4.177   2.432   1.135  0.6556 -0.7727  0.5581
    2MPD1     N14155   4.009   2.012   1.068 -0.6291 -0.7999 -0.0308
    2MPD1    H514156   3.918   1.968   1.072 -1.3509  0.4412 -2.5336
    2MPD1    N114157   3.729   2.377   1.218  0.1905  0.0606 -0.3182
    2MPD1    H614158   3.656   2.311   1.193  0.4471  0.0593 -1.0594
    2MPD1    H714159   3.704   2.476   1.220 -0.6778 -0.1033 -3.7554
    1MPD1     C14160   3.445   1.842  12.477  0.3749  0.1477 -0.3673
    1MPD1    C114161   3.477   1.858  12.347  0.2658  0.2969 -0.2284
    1MPD1    C214162   3.517   1.980  12.299  0.8978 -0.2377 -0.7920
    1MPD1    C314163   3.519   2.092  12.387 -0.2015 -0.0743 -0.5711
    1MPD1    C414164   3.481   2.076  12.519 -0.1915  0.3782  0.4863
    1MPD1    C514165   3.438   1.952  12.560  0.4723 -0.2443  0.1195
    1MPD1     H14166   3.527   1.983  12.191  0.9290  2.3168 -0.7188
    1MPD1    H114167   3.462   2.161  12.584 -1.2418  1.5591 -1.3684
    1MPD1    H214168   3.418   1.748  12.522 -0.3914  0.0581 -1.0093
    1MPD1    H314169   3.424   1.936  12.666  0.0915  0.0937  0.1211
    1MPD1     N14170   3.560   2.221  12.330 -0.3306 -0.5414 -0.2611
    1MPD1    H514171   3.599   2.218  12.236  0.6465 -1.3611  0.1715
    1MPD1    N114172   3.483   1.748  12.259  0.1286 -0.1783  0.4054
    1MPD1    H614173   3.456   1.773  12.164 -0.9025 -1.4839  0.3616
    1MPD1    H714174   3.443   1.661  12.291  3.0403 -1.6365  0.0899
    2MPD1     C14175   2.759   3.081  11.408  0.3239 -0.4754  0.1497
    2MPD1    C114176   2.707   3.104  11.284  1.5762 -0.5422  0.0048
    2MPD1    C214177   2.794   3.119  11.175  0.3164  0.5274  0.1616
    2MPD1    C314178   2.933   3.098  11.187  0.3581  0.1428  0.0379
    2MPD1    C414179   2.980   3.070  11.313 -0.0072 -0.3264 -0.3191
    2MPD1    C514180   2.899   3.065  11.425 -0.6117  0.8324  0.4324
    2MPD1     H14181   2.757   3.124  11.073 -3.1004  0.0266  1.4002
    2MPD1    H114182   3.082   3.034  11.327 -0.8907 -2.3255  1.0096
    2MPD1    H214183   2.696   3.074  11.496 -0.3161  0.6926 -0.2057
    2MPD1    H314184   2.945   3.037  11.519 -2.0399  0.8825  1.1412
    2MPD1     N14185   3.022   3.081  11.080  0.3771 -0.2714  0.1992
    2MPD1    H514186   3.112   3.051  11.115 -0.2574 -0.6004  1.5375
    2MPD1    N114187   2.571   3.106  11.266 -0.4234 -0.6783  0.3840
    2MPD1    H614188   2.547   3.162  11.184  0.4650 -1.5520 -0.4772
    2MPD1    H714189   2.531   3.155  11.345 -2.7850 -0.3562 -0.9876
    3MPD1     C14190   2.851   2.633  10.241  0.7604 -0.4143 -0.3425
    3MPD1    C114191   2.819   2.605  10.372  0.5653 -0.3910  0.0944
    3MPD1    C214192   2.884   2.670  10.478  0.9837 -0.0002 -0.2277
    3MPD1    C314193   3.000   2.741  10.451 -0.5503  0.3902 -0.0443
    3MPD1    C414194   3.047   2.759  10.320 -0.9326  0.2575 -1.0457
    3MPD1    C514195   2.972   2.698  10.219 -0.1464 -0.4019 -0.1384
    3MPD1     H14196   2.850   2.663  10.581 -0.0479 -0.3293 -0.5939
    3MPD1    H114197   3.133   2.821  10.295 -0.5824  0.2100  0.0504
    3MPD1    H214198   2.793   2.582  10.164  1.1411 -0.1180 -0.8230
    3MPD1    H314199   3.004   2.704  10.116  1.9705  0.8640  0.5776
    3MPD1     N14200   3.058   2.818  10.552  0.4741  0.0046  0.1690
    3MPD1    H514201   3.009   2.821  10.641 -1.0927 -1.2175 -0.6320
    3MPD1    N114202   2.694   2.543  10.393 -0.9604 -0.2098  0.0276
    3MPD1    H614203   2.667   2.474  10.323 -1.0913  0.9556 -1.0623
    3MPD1    H714204   2.691   2.502  10.486 -1.3728  1.2212  0.6469
    4MPD2     C14205   3.517   3.022  12.053  0.7660  0.8217  0.6507
    4MPD2    C114206   3.625   2.933  12.060 -0.7637  0.2394 -0.2335
    4MPD2    C214207   3.726   2.944  11.959 -0.5517  0.6185 -0.0956
    4MPD2    C314208   3.708   3.029  11.846 -0.0950 -0.7822 -0.0837
    4MPD2    C414209   3.589   3.097  11.839  0.1337  0.1041  1.0986
    4MPD2    C514210   3.489   3.092  11.937  0.1976  0.2981  0.5233
    4MPD2     H14211   3.806   2.876  11.982  0.4552  1.6772 -0.4718
    4MPD2    H114212   3.580   3.164  11.755 -1.4902  0.0152  1.2083
    4MPD2    H214213   3.435   3.002  12.122  2.1640  0.7058  2.2971
    4MPD2    H314214   3.398   3.151  11.931 -0.7169 -1.2404 -0.8322
    4MPD2     N14215   3.801   3.038  11.739  0.4977  0.2681 -0.1557
    4MPD2    H514216   3.784   3.106  11.666 -0.2893 -0.1418 -0.3480
    4MPD2    N114217   3.653   2.843  12.168 -0.3712  0.1274  0.4326
    4MPD2    H714218   3.728   2.778  12.146  1.4437  1.8719  1.4840
    5TMC3    C114219   3.637   2.687  12.341 -0.3074  0.5066  0.5319
    5TMC3    C214220   3.550   2.581  12.351  0.0604 -0.0758 -0.2869
    5TMC3    C314221   3.574   2.455  12.305  0.8514  0.5229  0.8480
    5TMC3    C414222   3.763   2.650  12.297  0.3465 -0.5893 -0.2333
    5TMC3    C514223   3.793   2.526  12.247 -0.5512  1.1330 -0.2112
    5TMC3    C614224   3.700   2.424  12.252 -0.4138 -0.2946  0.8296
    5TMC3     C14225   3.578   2.815  12.280 -0.7359 -0.0492 -0.5768
    5TMC3     O14226   3.484   2.872  12.336 -0.0105 -0.6551 -0.3073
    5TMC3     H14227   3.447   2.597  12.382  0.4810  0.3153  0.9344
    5TMC3    H114228   3.839   2.727  12.292 -0.0283 -0.2138 -0.1152
    5TMC3    H214229   3.725   2.330  12.204 -1.0791  0.1084 -0.3072
    5TMC3    C714230   3.894   2.541  12.142  0.4121  1.1691 -0.2763
    5TMC3    C814231   3.532   2.345  12.391  0.0661  0.2440  0.4307
    5TMC3    O114232   3.943   2.652  12.125 -0.2576  0.1527  0.4547
    5TMC3    O214233   3.482   2.368  12.500  0.0857 -0.3104 -0.1350
    6TMC3    C114234   3.114   3.061  10.871 -0.2344  0.1851 -0.2177
    6TMC3    C214235   3.086   2.993  10.756 -0.5157  0.5914  0.7520
    6TMC3    C314236   3.193   2.965  10.677  0.1166 -0.3212 -0.5592
    6TMC3    C414237   3.243   3.084  10.919 -1.5721 -0.4272  0.1875
    6TMC3    C514238   3.343   3.046  10.840 -0.4202  0.6886  0.2757
    6TMC3    C614239   3.323   2.992  10.714 -0.5501  0.6807  0.0022
    6TMC3     C14240   3.005   3.111  10.947 -0.3266  0.8301 -0.3854
    6TMC3     O14241   2.905   3.145  10.888  0.2310 -0.3606 -0.1942
    6TMC3     H14242   2.983   2.978  10.725 -0.2659  2.7645 -1.1362
    6TMC3    H114243   3.267   3.125  11.017 -2.8515  1.2789 -0.2305
    6TMC3    H214244   3.399   2.980  10.639 -1.5397 -0.8595 -0.7502
    6TMC3    C714245   3.454   3.005  10.906  0.4690  0.2068 -0.1463
    6TMC3    C814246   3.175   2.890  10.552 -0.3590 -0.7932 -0.1031
    6TMC3    O114247   3.472   3.052  11.017  0.0332  0.1812 -0.5477
    6TMC3    O214248   3.269   2.892  10.478  0.3909 -0.0459 -0.2314
    7MPD2     C14249   4.185   2.440  11.723  0.9064 -0.8049 -1.1597
    7MPD2    C114250   4.120   2.556  11.755  0.0175  0.0861  0.3443
    7MPD2    C214251   4.036   2.557  11.872 -0.3945  0.0942  0.2220
    7MPD2    C314252   4.009   2.440  11.946  0.2401 -0.0161 -0.4747
    7MPD2    C414253   4.064   2.326  11.892 -0.4954 -0.0975  0.6323
    7MPD2    C514254   4.149   2.328  11.788  0.1169  0.3587 -0.5334
    7MPD2     H14255   3.995   2.653  11.900 -0.2401 -0.2598  1.6617
    7MPD2    H114256   4.047   2.233  11.946  2.0554 -1.6473 -1.2213
    7MPD2    H214257   4.240   2.424  11.630  1.1478  1.5192 -1.4111
    7MPD2    H314258   4.196   2.239  11.749  0.6209 -0.0992  1.1300
    7MPD2     N14259   3.930   2.432  12.069  0.2291 -0.4638 -0.1313
    7MPD2    H514260   3.902   2.344  12.110 -0.0410  0.2409  1.1969
    7MPD2    N114261   4.124   2.678  11.681  0.2236  0.5862  0.0495
    7MPD2    H714262   4.079   2.752  11.733 -0.4296 -0.0156  0.3237
    8TMC3    C114263   4.130   2.828  11.499  0.1073 -0.2918 -0.1484
    8TMC3    C214264   4.043   2.818  11.396 -0.1368  0.9391 -0.0647
    8TMC3    C314265   3.932   2.893  11.389 -0.5669 -0.0217  0.2993
    8TMC3    C414266   4.103   2.925  11.593 -0.5566  0.0864 -0.3299
    8TMC3    C514267   3.988   2.991  11.592  0.3328 -0.3983 -0.9120
    8TMC3    C614268   3.896   2.979  11.487  0.0725  0.0698 -0.3749
    8TMC3     C14269   4.170   2.700  11.553 -0.0581  0.1575  0.6724
    8TMC3     O14270   4.231   2.626  11.476  0.0207  0.4633 -0.3954
    8TMC3     H14271   4.070   2.758  11.310 -0.6463 -0.2171  0.5827
    8TMC3    H114272   4.178   2.941  11.669  0.2258  1.1933 -1.3469
    8TMC3    H214273   3.811   3.041  11.463 -1.4814 -2.2852 -0.8968
    8TMC3    C714274   3.930   2.979  11.731  0.5979  0.8483 -0.3138
    8TMC3    C814275   3.866   2.915  11.258  0.0160  0.3987  0.0934
    8TMC3    O114276   3.978   2.892  11.806  0.1141 -0.3162  0.5627
    8TMC3    O214277   3.799   3.018  11.245 -0.6845  0.0135  0.1105
    9MPD2     C14278   3.863   2.703  10.956 -0.7015  0.5735 -0.8989
    9MPD2    C114279   3.815   2.804  11.034  0.2763 -0.1705 -0.3337
    9MPD2    C214280   3.709   2.881  11.002  0.1013  0.4779  0.3976
    9MPD2    C314281   3.648   2.850  10.882  0.5802 -0.0568 -0.5871
    9MPD2    C414282   3.696   2.753  10.797 -0.4029  0.1157 -0.7568
    9MPD2    C514283   3.804   2.681  10.827 -0.0286  0.1952 -1.0465
    9MPD2     H14284   3.673   2.964  11.063 -1.8536  0.0386 -0.1467
    9MPD2    H114285   3.638   2.729  10.709  2.1014  2.7051 -3.1070
    9MPD2    H214286   3.950   2.642  10.977 -2.1190 -1.5134 -1.0496
    9MPD2    H314287   3.834   2.602  10.760 -1.2394 -0.0869 -1.2484
    9MPD2     N14288   3.532   2.915  10.839 -0.0832  0.1376  0.1591
    9MPD2    H514289   3.488   2.876  10.756  1.2142 -0.0480 -0.4592
    9MPD2    N114290   3.877   2.816  11.166 -0.4720 -0.7946  0.2867
    9MPD2    H714291   3.941   2.738  11.183  0.6642 -0.0517 -0.6064
    1MPD1     C14292   4.029   1.303  15.523 -0.0016 -0.2841 -0.0114
    1MPD1    C114293   3.992   1.427  15.569  0.2521  0.0682  0.0996
    1MPD1    C214294   3.988   1.441  15.710 -0.7450  0.1282 -0.3089
    1MPD1    C314295   4.025   1.340  15.795 -0.3962  0.3994 -0.4887
    1MPD1    C414296   4.053   1.218  15.744  0.0019 -0.5633  0.3062
    1MPD1    C514297   4.056   1.203  15.608 -0.3041  0.9268 -0.6573
    1MPD1     H14298   3.957   1.534  15.757 -0.8661 -0.5415  0.9444
    1MPD1    H114299   4.086   1.142  15.813  0.0045  1.2943  2.3484
    1MPD1    H214300   4.053   1.289  15.418 -2.2208  0.9406 -0.6942
    1MPD1    H314301   4.083   1.105  15.570  0.6178 -0.1580  2.7081
    1MPD1     N14302   4.034   1.351  15.936 -0.0135 -0.3155  0.3657
    1MPD1    H514303   4.044   1.267  15.990 -0.2257 -0.8694 -0.4530
    1MPD1    N114304   3.959   1.532  15.484  0.0036  0.6479  0.2662
    1MPD1    H614305   3.909   1.607  15.531 -0.7572 -0.8976  1.9216
    1MPD1    H714306   3.903   1.503  15.403  1.5436  0.2503 -0.6548
    2TMC2    C114307   3.982   1.347  16.343  0.3087  1.0047  0.3901
    2TMC2    C214308   4.078   1.422  16.411 -0.5123  0.6385 -0.1617
    2TMC2    C314309   4.154   1.513  16.344 -0.0477 -0.2578  0.1261
    2TMC2    C414310   3.967   1.358  16.208 -0.6536 -0.4025 -0.0606
    2TMC2    C514311   4.045   1.454  16.146 -0.2756  0.2443  0.1271
    2TMC2    C614312   4.135   1.536  16.206  0.1894 -1.0111 -0.1155
    2TMC2     C14313   3.877   1.281  16.422 -0.2670  0.1469  0.1342
    2TMC2     O14314   3.915   1.267  16.538  0.4481 -0.2866 -0.4311
    2TMC2     H14315   4.098   1.415  16.517  1.5100  4.7883 -0.2573
    2TMC2    H114316   3.916   1.284  16.147  1.6375 -1.2639 -0.9126
    2TMC2    H214317   4.182   1.622  16.159 -2.0234  0.0337 -0.4152
    2TMC2    C714318   4.047   1.469  16.002 -1.1823 -0.0590  0.0678
    2TMC2    C814319   4.236   1.604  16.431  0.9085 -0.1880  0.1766
    2TMC2    O114320   4.073   1.579  15.952  0.2082 -0.3912 -0.5242
    2TMC2    O214321   4.210   1.642  16.548  0.1399  0.0710  0.0181
    2TMC2    O514322   4.329   1.659  16.348 -0.2116 -0.3646 -0.1041
    2TMC2    H514323   4.355   1.599  16.275 -2.3397 -0.4356 -0.7858
    3MPD1     C14324   3.417   1.151  16.583 -0.7795 -0.2107 -0.9156
    3MPD1    C114325   3.398   1.243  16.479  0.0968  0.1236  0.6229
    3MPD1    C214326   3.509   1.277  16.410  0.6052  0.2134  0.1349
    3MPD1    C314327   3.636   1.237  16.440 -0.0997  0.7990 -0.1050
    3MPD1    C414328   3.651   1.147  16.545 -0.4409  0.3716 -0.2282
    3MPD1    C514329   3.540   1.102  16.610  0.3932 -0.4312 -0.2777
    3MPD1     H14330   3.493   1.339  16.322  1.4107  1.4098  0.8311
    3MPD1    H114331   3.747   1.105  16.576 -1.4136 -1.3374  0.4945
    3MPD1    H214332   3.335   1.112  16.642 -0.7924  0.9959 -0.1306
    3MPD1    H314333   3.559   1.031  16.690  1.3195  0.4168  0.2442
    3MPD1     N14334   3.750   1.286  16.369  0.4239 -0.2666  0.0759
    3MPD1    H514335   3.729   1.343  16.288  0.2635  0.9104  0.9492
    3MPD1    N114336   3.274   1.301  16.455  0.6200  0.2528  0.1751
    3MPD1    H614337   3.245   1.333  16.547  3.8670  1.5627  0.7275
    3MPD1    H714338   3.272   1.377  16.388  2.3796  0.1631  0.0248
    1TMC1    C114339   1.231   0.192  13.128  0.3384  0.7191  0.1678
    1TMC1    C214340   1.191   0.115  13.235  0.4540 -0.3654  0.6134
    1TMC1    C314341   1.065   0.130  13.296  0.7686  0.1273 -0.0505
    1TMC1    C414342   1.136   0.270  13.070 -0.1503  0.4917  0.6670
    1TMC1    C514343   1.012   0.278  13.125  0.1129  0.2698  0.0005
    1TMC1    C614344   0.970   0.207  13.237 -0.6078 -0.3692  0.5971
    1TMC1     C14345   1.362   0.177  13.075  0.3415 -0.4291  0.0637
    1TMC1     O14346   1.383   0.205  12.957  0.0565  0.1493  0.4139
    1TMC1     H14347   1.257   0.037  13.271  0.5337  0.1375  1.5657
    1TMC1    H114348   1.161   0.325  12.981 -0.2637 -1.7564 -0.7557
    1TMC1    H214349   0.872   0.224  13.279 -0.5284  1.5602 -0.0342
    1TMC1    C714350   0.922   0.394  13.109 -0.3080 -0.6849 -0.3631
    1TMC1    C814351   1.036   0.068  13.426  0.6285 -0.4209  0.0947
    1TMC1    O114352   0.872   0.436  13.214  0.0800 -0.3457 -0.5094
    1TMC1    O214353   1.121   0.026  13.500  0.5593 -0.2263  0.3425
    1TMC1    O314354   0.851   0.362  13.004  0.2377 -0.1555 -0.2746
    1TMC1    H314355   0.899   0.307  12.939  0.0628  0.2286 -0.7312
    1TMC1    O514356   0.905   0.042  13.438 -0.5165  0.5612 -0.5704
    1TMC1    H514357   0.855   0.069  13.358 -2.5668 -0.0058  0.4977
    2MPD2     C14358   1.656   0.175  13.047 -0.1566 -1.0953  0.4544
    2MPD2    C114359   1.589   0.178  13.169  0.8265 -0.2149  0.5003
    2MPD2    C214360   1.655   0.163  13.287  0.7641  0.4105 -0.5387
    2MPD2    C314361   1.792   0.164  13.296 -0.1811 -0.4627  0.5269
    2MPD2    C414362   1.862   0.167  13.175 -0.1160  0.3194  0.1269
    2MPD2    C514363   1.793   0.181  13.059 -0.0403  0.4220 -0.2340
    2MPD2     H14364   1.593   0.159  13.376  0.2309  0.4756 -0.9096
    2MPD2    H114365   1.970   0.172  13.169  0.1092 -2.1260  2.0753
    2MPD2    H214366   1.614   0.177  12.947 -2.8364 -1.4015  1.5645
    2MPD2    H314367   1.850   0.188  12.967 -1.0349 -1.7004 -1.0132
    2MPD2     N14368   1.853   0.156  13.424  0.4146  0.2477  0.7812
    2MPD2    H514369   1.788   0.150  13.501 -1.8110 -0.7555 -1.1676
    2MPD2    N114370   1.451   0.173  13.179 -0.3443  0.5420  0.4621
    2MPD2    H714371   1.406   0.172  13.271 -1.6772 -0.1047 -0.1958
    3TCq1    O114372   2.237   4.696  13.956 -0.0833 -0.2741  0.5920
    3TCq1    C114373   2.230   4.704  13.819  0.0478 -0.0706  0.0175
    3TCq1    O214374   2.277   4.626  13.736  0.5530 -0.3886 -0.5854
    3TCq1    C214375   2.132   0.068  13.780  0.2061  0.2925  0.0455
    3TCq1    C314376   2.039   0.122  13.866  0.1254  0.5398 -0.1360
    3TCq1    C414377   1.937   0.194  13.813  0.8900 -0.1056  0.0107
    3TCq1    C514378   1.923   0.209  13.679 -0.3739  0.1954 -0.2185
    3TCq1    C614379   2.004   0.141  13.598 -1.0686  0.4748  0.3874
    3TCq1    C714380   2.113   0.071  13.644 -0.1645 -0.3904 -0.0971
    3TCq1    C814381   1.984   0.142  13.452 -0.1560 -0.1987  0.3394
    3TCq1    O414382   2.070   0.096  13.373 -0.1202  0.0920 -0.1392
    3TCq1    C914383   1.839   0.256  13.895 -0.2558 -0.1138 -0.0930
    3TCq1    O514384   1.740   0.296  13.830  0.1230  0.0076 -0.1716
    3TCq1    O614385   1.839   0.240  14.016  0.0565 -0.1750  0.1436
    3TCq1    H114386   2.192   0.033  14.005 -0.3072  0.6878 -1.0116
    3TCq1    H214387   2.045   0.109  13.973 -0.9673 -0.5410 -0.1994
    3TCq1    H314388   1.848   0.277  13.640  0.2270  1.1023  0.1892
    3TCq1    H414389   2.186   0.027  13.578  0.5659  1.3537 -0.4483
    1MPD2     C14390   1.277   1.437  14.957  0.4389  0.1229  0.2011
    1MPD2    C114391   1.160   1.378  14.913 -0.0985 -0.5806  0.5508
    1MPD2    C214392   1.152   1.245  14.879  0.5072  0.3145 -0.2784
    1MPD2    C314393   1.263   1.165  14.877 -0.4607  0.1833 -0.8511
    1MPD2    C414394   1.382   1.222  14.921 -0.4380 -0.7417  0.2756
    1MPD2    C514395   1.388   1.358  14.961  0.3881 -0.7285  0.5316
    1MPD2     H14396   1.057   1.205  14.844  0.8838 -0.2649 -0.6293
    1MPD2    H114397   1.468   1.155  14.919  1.4665  1.6781  1.1922
    1MPD2    H214398   1.300   1.540  14.978  0.5599  0.0734  0.3137
    1MPD2    H314399   1.488   1.393  14.984  0.6552 -0.4172 -1.0829
    1MPD2     N14400   1.265   1.032  14.825 -0.2524 -0.2477  0.5607
    1MPD2    H514401   1.355   0.986  14.825  0.2449  0.7244  1.4323
    1MPD2    N114402   1.055   1.467  14.925 -0.0774  0.5721  0.0340
    1MPD2    H714403   1.075   1.560  14.961 -4.0649  1.6541 -0.5878
    2TMC3    C114404   0.814   1.534  14.924 -0.6571 -0.1982  0.4459
    2TMC3    C214405   0.692   1.473  14.962  0.9735  0.2323  0.0893
    2TMC3    C314406   0.587   1.479  14.882  0.7097 -0.5185 -0.3102
    2TMC3    C414407   0.815   1.619  14.817 -0.0972 -0.3392 -0.7715
    2TMC3    C514408   0.695   1.642  14.749  0.0741  0.2228 -0.5133
    2TMC3    C614409   0.585   1.567  14.778  0.6026  0.0262  0.2529
    2TMC3     C14410   0.921   1.427  14.925 -0.0840  0.5404  0.1413
    2TMC3     O14411   0.869   1.318  14.939 -0.1659  0.4222 -0.4182
    2TMC3     H14412   0.691   1.400  15.042 -1.4621  2.1993  1.8417
    2TMC3    H114413   0.910   1.642  14.771 -0.3201  2.2970  0.0731
    2TMC3    H214414   0.490   1.574  14.728  0.5048 -0.3805  0.3827
    2TMC3    C714415   0.700   1.698  14.617 -0.4236  0.0834 -0.1137
    2TMC3    C814416   0.534   1.348  14.854 -0.4543  0.1714  0.5124
    2TMC3    O114417   0.627   1.642  14.542 -0.6235  0.0984  0.1811
    2TMC3    O214418   0.416   1.344  14.822 -0.3836 -0.4705 -0.0390
    3TCq1    O114419   1.574   2.403  14.169 -0.6107 -0.3415  0.1534
    3TCq1    C114420   1.640   2.335  14.269  0.6512 -0.4652 -0.2621
    3TCq1    O214421   1.755   2.304  14.277  0.8163  0.3172  0.2645
    3TCq1    C214422   1.534   2.297  14.364  0.6432 -0.3992 -0.5278
    3TCq1    C314423   1.572   2.267  14.494 -0.3408 -0.0123 -0.2948
    3TCq1    C414424   1.492   2.193  14.572 -0.1490 -0.0295 -0.1230
    3TCq1    C514425   1.372   2.145  14.527  0.2701  0.0359 -0.1136
    3TCq1    C614426   1.334   2.176  14.393  0.2899  0.5436 -0.4009
    3TCq1    C714427   1.413   2.257  14.315 -0.8111 -0.2486 -0.4106
    3TCq1    C814428   1.217   2.123  14.329  0.3610  0.2206  0.2759
    3TCq1    O414429   1.193   2.142  14.212  0.2585 -0.4164 -0.5606
    3TCq1    C914430   1.536   2.163  14.709  0.0194 -0.1829 -0.2335
    3TCq1    O514431   1.443   2.118  14.784  0.1152  0.0299  0.9481
    3TCq1    O614432   1.650   2.187  14.744 -0.4757  0.2154 -0.1104
    3TCq1    H114433   1.498   2.444  14.215  0.2310  2.9981 -1.4360
    3TCq1    H214434   1.672   2.293  14.526 -0.5676 -0.1744  0.5636
    3TCq1    H314435   1.309   2.084  14.591 -0.0766  0.9570  0.4299
    3TCq1    H414436   1.381   2.285  14.215 -0.9764  0.4164 -0.1735
    4MPD2     C14437   0.960   1.969  14.267  0.3845 -0.5257  0.0518
    4MPD2    C114438   1.019   1.980  14.390  0.7637  0.2625 -0.0692
    4MPD2    C214439   0.969   1.915  14.503  0.2840 -0.5522  0.5827
    4MPD2    C314440   0.862   1.836  14.493  0.8634 -0.0469 -0.1684
    4MPD2    C414441   0.794   1.838  14.371 -0.6647 -0.1899  0.0344
    4MPD2    C514442   0.848   1.901  14.261  0.9072 -0.0410  0.4522
    4MPD2     H14443   1.015   1.937  14.598 -0.9658  0.7375  0.8792
    4MPD2    H114444   0.693   1.801  14.359 -0.2032 -1.0929 -1.0824
    4MPD2    H214445   0.999   2.019  14.179  0.1338  0.0831  0.2918
    4MPD2    H314446   0.788   1.908  14.171  2.7297  1.5564 -0.6356
    4MPD2     N14447   0.806   1.779  14.610  0.1080 -0.1477 -0.0046
    4MPD2    H514448   0.845   1.809  14.699 -0.3971 -0.7604  0.4250
    4MPD2    N114449   1.137   2.052  14.421  0.8437  0.2603 -0.0988
    4MPD2    H714450   1.170   2.053  14.517  0.0848  0.1012  0.1584
    5TMC2    C114451   1.001   0.686  14.710  0.0685 -0.5045  0.1086
    5TMC2    C214452   1.057   0.581  14.778  0.4684  0.3993 -0.1845
    5TMC2    C314453   1.177   0.612  14.848 -0.4943  0.0347  0.1120
    5TMC2    C414454   1.071   0.795  14.668  0.2430 -0.4827  0.3121
    5TMC2    C514455   1.175   0.833  14.746 -0.3245  0.0656  0.5280
    5TMC2    C614456   1.231   0.740  14.836 -0.2872 -0.3537 -0.3962
    5TMC2     C14457   0.853   0.695  14.714  0.2191  0.1566  0.0203
    5TMC2     O14458   0.785   0.599  14.755  0.1508 -0.0001  0.2772
    5TMC2     H14459   0.999   0.490  14.791 -0.7826  1.1128 -0.7682
    5TMC2    H114460   1.017   0.862  14.602  0.7532  0.1654  0.5517
    5TMC2    H214461   1.311   0.758  14.907 -0.1222  2.2686 -1.2514
    5TMC2    C714462   1.152   0.969  14.788 -0.4205 -0.2799 -0.3059
    5TMC2    C814463   1.256   0.514  14.912 -0.3447  0.0721  0.8343
    5TMC2    O114464   1.041   1.009  14.767  0.3090 -0.4172  0.0782
    5TMC2    O214465   1.367   0.544  14.957  0.4370  0.5147 -0.1390
    5TMC2    O514466   1.210   0.394  14.870 -0.3285 -0.4670  0.3271
    5TMC2    H514467   1.261   0.326  14.919  0.4021  0.8257  1.3633
    6MPD2     C14468   0.482   1.053  14.814 -0.0507  0.3773 -0.1699
    6MPD2    C114469   0.607   1.112  14.821  0.5152 -0.2858  0.0772
    6MPD2    C214470   0.716   1.035  14.801 -0.0505  0.2384 -0.5063
    6MPD2    C314471   0.707   0.898  14.773  0.6783 -0.1876 -0.0012
    6MPD2    C414472   0.585   0.838  14.756 -0.1704 -0.0994 -0.8711
    6MPD2    C514473   0.474   0.918  14.779 -0.0875 -0.0739 -0.1540
    6MPD2     H14474   0.810   1.089  14.806  0.9140 -1.4500 -0.4058
    6MPD2    H114475   0.586   0.740  14.711 -0.3034 -0.5899  0.2103
    6MPD2    H214476   0.388   1.104  14.832 -0.1874  0.3480 -0.8006
    6MPD2    H314477   0.374   0.877  14.773  0.4244 -1.3492 -0.1209
    6MPD2     N14478   0.830   0.834  14.738  0.0377  0.3984 -0.4046
    6MPD2    H514479   0.912   0.892  14.751 -0.4710  1.6722 -2.9246
    6MPD2    N114480   0.630   1.247  14.858 -0.1960  0.0578  1.0185
    6MPD2    H714481   0.724   1.284  14.870  0.9585 -2.8940  1.1255
  945NH3     N114482   1.553   4.552  12.161  0.2472  0.5710 -0.4399
  945NH3     H214483   1.534   4.511  12.252 -0.8493 -1.5353 -1.6281
  945NH3     H314484   1.636   4.507  12.125 -0.3258 -2.2208  1.7661
  945NH3     H414485   1.584   4.643  12.193  0.5752  0.0824  0.6412
  946SOD     NA14486   3.635   4.688   9.218  0.1808 -0.4467  0.0836
  947SOD     NA14487   0.676   1.081  12.837 -0.8434  0.4862 -0.4470
  948SOD     NA14488   3.937   1.294  16.783 -0.5254  0.5269  0.1797
  949SOD     NA14489   2.143   1.301   2.722 -0.4700 -0.4822  0.3615
  950SOD     NA14490   4.334   0.554  15.792 -0.1152  0.1567  0.2296
  951SOD     NA14491   4.590   1.012   8.147 -0.1864  0.2062 -0.4013
  952SOD     NA14492   3.419   3.002  13.926 -0.1056  0.5584  0.2859
  953SOD     NA14493   1.689   0.271  14.164 -0.3282 -0.0663 -0.1600
  954SOL     OW14494   2.089   1.053   4.231  0.1333  0.0742  0.1042
  954SOL    HW114495   2.032   1.125   4.204 -1.6636 -0.8726  1.3863
  954SOL    HW214496   2.121   1.039   4.141  1.7709 -1.2953  0.8882
  955SOL     OW14497   4.178   2.577   6.616 -0.2598  0.0257 -0.5546
  955SOL    HW114498   4.127   2.514   6.565  0.0650  0.6682 -1.6897
  955SOL    HW214499   4.241   2.606   6.549 -1.5883  1.2246 -1.2949
  956SOL     OW14500   0.750   0.201   6.290 -0.3833 -0.0973  0.3739
  956SOL    HW114501   0.799   0.142   6.232 -1.0240  1.3482 -1.6710
  956SOL    HW214502   0.799   0.194   6.372 -1.4210  2.7348  1.2539
  957SOL     OW14503   2.920   0.352  17.552  0.2020  0.1681 -0.1686
  957SOL    HW114504   2.928   0.355  17.648  1.6824 -0.5657 -0.2685
  957SOL    HW214505   2.827   0.356  17.533 -0.1082 -1.4139  1.0324
  958SOL     OW14506   2.152   4.127   7.849  0.1909  0.0366 -0.1569
  958SOL    HW114507   2.221   4.160   7.792  0.8438 -1.5072 -0.2460
  958SOL    HW214508   2.073   4.141   7.797 -1.0232 -1.0271  1.3998
  959SOL     OW14509   2.836   2.647   4.276  0.2183  0.4355 -0.3653
  959SOL    HW114510   2.868   2.625   4.364 -0.3873 -1.3255 -0.5820
  959SOL    HW214511   2.923   2.637   4.236  0.3057  0.8198 -0.2730
  960SOL     OW14512   0.379   4.171   6.400  0.3958  0.2445 -0.3565
  960SOL    HW114513   0.321   4.219   6.342 -2.3062 -1.3309  1.0299
  960SOL    HW214514   0.342   4.173   6.488 -1.2430  1.3504 -1.0740
  961SOL     OW14515   3.318   0.441   7.500 -0.0275 -0.3606 -0.1629
  961SOL    HW114516   3.257   0.380   7.542  1.0018 -0.5085  1.1005
  961SOL    HW214517   3.263   0.519   7.506  1.0005  0.3151  0.2983
  962SOL     OW14518   4.154   0.814   0.794 -0.1612  0.0514  0.1951
  962SOL    HW114519   4.099   0.871   0.848  1.1815  0.1993  1.4131
  962SOL    HW214520   4.149   0.852   0.707 -0.1351  1.4351  0.7935
  963SOL     OW14521   4.371   1.606   8.181  0.0738  0.3654 -0.4631
  963SOL    HW114522   4.424   1.675   8.142  0.0913  1.2188  1.0861
  963SOL    HW214523   4.301   1.650   8.227  0.2217  0.5392 -0.4070
  964SOL     OW14524   0.610   2.736   7.981  0.3335  0.1007 -0.0078
  964SOL    HW114525   0.572   2.677   8.046  0.5906 -0.5953 -0.4888
  964SOL    HW214526   0.592   2.688   7.900  2.1738 -1.5802  0.5826
  965SOL     OW14527   3.874   1.507   3.536  0.3469  0.5307  0.1391
  965SOL    HW114528   3.968   1.508   3.522  0.0807  0.9207 -1.6101
  965SOL    HW214529   3.843   1.549   3.456 -0.4457  2.6215  1.5281
  966SOL     OW14530   0.811   1.908   7.561  0.2799  0.6739 -0.4229
  966SOL    HW114531   0.771   1.852   7.627  0.9773  1.1114  0.3651
  966SOL    HW214532   0.729   1.950   7.536 -0.3667 -0.5848 -0.3888
  967SOL     OW14533   3.951   1.214   1.028  0.4430  0.3621  0.1922
  967SOL    HW114534   4.026   1.255   1.071 -0.2033  1.4760  0.2498
  967SOL    HW214535   3.902   1.294   1.007 -0.3404 -0.5074 -1.3404
  968SOL     OW14536   2.625   3.561  12.454  0.1546 -0.2934  0.2292
  968SOL    HW114537   2.535   3.560  12.486  0.0670  0.9765  0.0221
  968SOL    HW214538   2.663   3.624  12.515  1.4906 -1.0269  0.1496
  969SOL     OW14539   2.003   4.153   7.582  0.5689 -0.6994  0.3210
  969SOL    HW114540   1.943   4.142   7.508  0.9483  0.4300 -0.1515
  969SOL    HW214541   2.070   4.088   7.561  3.0267  1.4031  1.7441
  970SOL     OW14542   2.356   0.933   5.971  0.5038 -0.2694 -0.5318
  970SOL    HW114543   2.374   1.026   5.957 -1.2121  0.5887  3.1166
  970SOL    HW214544   2.267   0.932   6.004  0.0140  4.6763 -1.6591
  971SOL     OW14545   3.526   3.228   4.121  0.0049  0.1434 -0.2849
  971SOL    HW114546   3.521   3.223   4.217 -1.5631 -2.4555 -0.4871
  971SOL    HW214547   3.469   3.161   4.082 -0.9849 -0.6051  2.4414
  972SOL     OW14548   2.402   3.878   9.135 -0.6138 -0.2519 -0.1321
  972SOL    HW114549   2.307   3.872   9.125 -0.7129  0.4851  0.3096
  972SOL    HW214550   2.429   3.789   9.156 -2.4239 -0.7033  0.3181
  973SOL     OW14551   3.734   3.820  11.648  0.3804  0.4952 -0.5958
  973SOL    HW114552   3.680   3.794  11.574 -1.5326 -2.4760  1.8445
  973SOL    HW214553   3.661   3.830  11.709 -0.2845  0.3460 -1.3817
  974SOL     OW14554   3.311   2.780  14.847  0.1250 -0.1725 -0.0492
  974SOL    HW114555   3.220   2.812  14.845 -0.2543 -1.2920 -0.7651
  974SOL    HW214556   3.302   2.689  14.818 -0.4476 -0.2121  0.2359
  975SOL     OW14557   1.660   1.845   7.832 -0.5058  0.5174  0.2811
  975SOL    HW114558   1.624   1.901   7.763 -1.8085  0.5686  0.9968
  975SOL    HW214559   1.682   1.768   7.780  0.8034  0.8843  0.3122
  976SOL     OW14560   2.326   0.469   1.685  0.5408  0.0335  0.2026
  976SOL    HW114561   2.329   0.391   1.740  0.1883  0.0106  0.1883
  976SOL    HW214562   2.351   0.532   1.753 -1.1556 -0.5512  1.3688
  977SOL     OW14563   3.495   3.202   7.711 -0.1589  0.1844 -0.7898
  977SOL    HW114564   3.583   3.239   7.699  1.2017 -1.9537  2.8408
  977SOL    HW214565   3.522   3.111   7.722 -0.1264  0.1541 -1.1247
  978SOL     OW14566   1.656   3.451   9.424 -0.0935  0.3875 -0.3482
  978SOL    HW114567   1.741   3.407   9.428 -0.6240 -0.5384  0.8194
  978SOL    HW214568   1.667   3.522   9.487  0.7394  1.5628 -1.8176
  979SOL     OW14569   1.786   2.037  14.892 -0.3864 -0.1988  0.3401
  979SOL    HW114570   1.848   2.109  14.905 -0.6422 -0.1609  1.3925
  979SOL    HW214571   1.730   2.087  14.832  0.0097  0.8663  0.8574
  980SOL     OW14572   0.626   4.281   8.936  0.0842 -0.1258  0.4603
  980SOL    HW114573   0.671   4.346   8.882 -1.0107 -0.3331 -0.6864
  980SOL    HW214574   0.564   4.236   8.880 -0.4777  0.3096  0.7307
  981SOL     OW14575   0.480   1.045   7.790 -1.1107 -0.1005  0.1159
  981SOL    HW114576   0.434   1.111   7.841  0.5585  1.1360  0.0192
  981SOL    HW214577   0.427   0.967   7.808 -0.6489 -0.5600 -0.4719
  982SOL     OW14578   3.020   3.600   4.251 -0.1376  0.6088  0.0199
  982SOL    HW114579   2.939   3.610   4.202 -1.3089  2.9386  2.4396
  982SOL    HW214580   2.990   3.553   4.329  0.1231 -1.0914 -0.9023
  983SOL     OW14581   0.000   1.117   1.997 -0.0450 -0.5245 -0.0608
  983SOL    HW114582   4.658   1.174   2.003  0.3212 -0.0537  0.1659
  983SOL    HW214583   4.699   1.045   1.946  1.0397 -0.3492 -1.0808
  984SOL     OW14584   0.685   0.710   6.733 -0.0896 -0.0791 -0.3709
  984SOL    HW114585   0.718   0.620   6.734 -1.5419 -0.6109 -0.1244
  984SOL    HW214586   0.673   0.731   6.826 -0.6459 -1.9851 -0.0008
  985SOL     OW14587   0.672   2.673  12.060  0.1764  0.4823  0.1947
  985SOL    HW114588   0.724   2.743  12.020  0.0892  0.0795 -0.6268
  985SOL    HW214589   0.741   2.610  12.081 -0.7136 -0.9059 -0.9798
  986SOL     OW14590   2.288   4.619  12.505 -0.1849  0.3021 -0.3596
  986SOL    HW114591   2.326   4.589  12.588  0.7986 -1.1431 -1.3368
  986SOL    HW214592   2.207   4.569  12.494  1.5221 -2.4360 -0.3974
  987SOL     OW14593   4.536   0.559   7.423  0.3017  0.2695 -0.2110
  987SOL    HW114594   4.574   0.584   7.507 -0.0622 -0.3609  0.1432
  987SOL    HW214595   4.533   0.463   7.425 -0.3480  0.2694 -1.6019
  988SOL     OW14596   4.552   2.291  13.357 -0.2797 -0.1975 -0.4257
  988SOL    HW114597   4.627   2.351  13.352 -1.1620  0.9842  0.5072
  988SOL    HW214598   4.505   2.320  13.279  2.2297  2.4234 -0.9798
  989SOL     OW14599   2.845   3.190   8.745  0.2460 -0.1785  0.1109
  989SOL    HW114600   2.851   3.240   8.827 -1.8324 -0.2822  0.3358
  989SOL    HW214601   2.897   3.248   8.691  1.0120  0.6161  1.7067
  990SOL     OW14602   0.653   3.967   0.941 -0.1989  0.2905  0.2276
  990SOL    HW114603   0.675   3.945   0.850 -2.2263  1.7013 -0.5999
  990SOL    HW214604   0.558   3.953   0.939 -0.1836  0.1259  0.5904
  991SOL     OW14605   3.444   2.631   3.594 -0.1061 -0.2114 -0.2515
  991SOL    HW114606   3.424   2.540   3.570 -0.1503 -1.0357  2.9987
  991SOL    HW214607   3.355   2.666   3.590 -0.0258  0.2253  1.6983
  992SOL     OW14608   1.106   1.173   1.888 -0.4463 -0.1401  0.4675
  992SOL    HW114609   1.070   1.249   1.843 -0.6506  0.0296  0.9144
  992SOL    HW214610   1.050   1.098   1.869  0.7235 -1.1018  0.8037
  993SOL     OW14611   1.021   1.299   4.469 -0.6612  0.3549 -0.0661
  993SOL    HW114612   1.102   1.294   4.520 -1.4339  0.7884  1.2141
  993SOL    HW214613   1.044   1.347   4.390 -0.8601 -0.7221 -0.7723
  994SOL     OW14614   0.667   2.331   4.712 -0.1453 -0.0543 -0.2692
  994SOL    HW114615   0.603   2.259   4.706  0.0239 -0.1721 -0.6862
  994SOL    HW214616   0.614   2.405   4.682  0.6759  1.0524  1.0286
  995SOL     OW14617   1.699   0.407   8.324  0.0932  0.0948  0.4993
  995SOL    HW114618   1.713   0.473   8.392  1.6335 -0.7631  1.0003
  995SOL    HW214619   1.786   0.412   8.286  0.0189 -2.3330  0.0046
  996SOL     OW14620   3.615   1.956   4.249  0.1993  0.0072 -0.2349
  996SOL    HW114621   3.635   2.045   4.278 -0.6475 -0.5649  2.1409
  996SOL    HW214622   3.520   1.952   4.239  0.2869 -0.8364 -0.7179
  997SOL     OW14623   0.165   1.529   2.250 -0.5255  0.1990  0.6923
  997SOL    HW114624   0.140   1.615   2.218 -0.7034 -0.9079 -2.1541
  997SOL    HW214625   0.108   1.529   2.326  1.8895 -0.5016  2.4896
  998SOL     OW14626   0.658   4.651  16.760 -0.4391  0.4240 -0.0527
  998SOL    HW114627   0.691   0.005  16.771 -2.8745  1.5784 -2.1092
  998SOL    HW214628   0.591   4.654  16.691 -0.1742 -0.1547 -0.3376
  999SOL     OW14629   1.795   2.789  10.195 -0.4626 -0.6432 -0.3595
  999SOL    HW114630   1.888   2.800  10.179 -0.4746  0.8133  0.5846
  999SOL    HW214631   1.793   2.739  10.276  1.8834 -2.0508 -1.1637
 1000SOL     OW14632   4.567   0.299   2.237 -0.2297  0.1330  0.1590
 1000SOL    HW114633   4.620   0.242   2.181 -0.8845  0.3238 -0.6581
 1000SOL    HW214634   4.569   0.375   2.178  0.2366 -0.7753 -0.9937
 1001SOL     OW14635   2.333   0.618   9.783 -0.0330  0.0374 -0.4814
 1001SOL    HW114636   2.314   0.562   9.858  0.9125 -0.7238 -0.8214
 1001SOL    HW214637   2.406   0.566   9.751 -0.1988 -0.1382 -0.5748
 1002SOL     OW14638   1.440   1.370   6.963  0.6119 -0.2316  0.0962
 1002SOL    HW114639   1.495   1.433   6.918  0.0660  0.6175  0.6214
 1002SOL    HW214640   1.363   1.419   6.992  1.4476  1.0119  0.2149
 1003SOL     OW14641   2.110   4.331   6.853 -0.1507  0.1459  0.3890
 1003SOL    HW114642   2.143   4.361   6.769 -1.8311 -1.9803 -1.0400
 1003SOL    HW214643   2.047   4.400   6.874 -1.2440 -1.2622  1.7324
 1004SOL     OW14644   4.661   2.039  13.426  0.3405  0.3567  0.0035
 1004SOL    HW114645   4.705   2.071  13.505 -0.9699  3.2741 -0.4308
 1004SOL    HW214646   4.612   2.121  13.412 -0.3700  0.1257  1.0822
 1005SOL     OW14647   2.124   3.147   5.534 -0.5315  0.1078 -0.8708
 1005SOL    HW114648   2.069   3.225   5.527 -2.6098 -1.1441  1.6985
 1005SOL    HW214649   2.198   3.162   5.474  0.4472 -0.9876  0.0614
 1006SOL     OW14650   2.735   0.679   8.721 -0.0163 -0.2104 -0.0921
 1006SOL    HW114651   2.670   0.654   8.787  1.1480  0.6287  1.3828
 1006SOL    HW214652   2.693   0.757   8.685  0.1070 -0.3429 -0.5173
 1007SOL     OW14653   3.797   3.181   7.654  0.4130  0.6087 -0.2054
 1007SOL    HW114654   3.853   3.109   7.685 -2.0072  0.0554  2.8733
 1007SOL    HW214655   3.853   3.243   7.702  2.6838 -1.1952 -0.5099
 1008SOL     OW14656   1.547   2.765   9.690 -0.3346  0.3012  0.5385
 1008SOL    HW114657   1.595   2.682   9.696  3.2160  2.1992 -1.1215
 1008SOL    HW214658   1.608   2.825   9.647  0.2067 -0.7438 -0.1722
 1009SOL     OW14659   2.547   0.810   9.543  0.4453  0.3088  0.3027
 1009SOL    HW114660   2.572   0.734   9.596  0.4574 -0.5479 -0.9269
 1009SOL    HW214661   2.566   0.880   9.605 -0.6791 -0.5772  1.6375
 1010SOL     OW14662   0.822   0.722   1.478  0.3785  0.2396 -0.3091
 1010SOL    HW114663   0.910   0.759   1.469 -0.2499  1.3607 -1.7867
 1010SOL    HW214664   0.821   0.654   1.411  1.5142 -0.6427  0.5733
 1011SOL     OW14665   1.870   1.459   2.954  0.0790 -0.1397 -0.4158
 1011SOL    HW114666   1.895   1.394   2.888  0.1310  0.2729 -0.7997
 1011SOL    HW214667   1.861   1.536   2.899  1.0051  0.4084  0.2000
 1012SOL     OW14668   2.206   2.331   1.989  0.2503  0.3923 -0.4453
 1012SOL    HW114669   2.184   2.277   1.913  2.4934 -0.8037 -0.2608
 1012SOL    HW214670   2.134   2.311   2.049 -0.0198 -1.0655 -1.2417
 1013SOL     OW14671   1.854   2.360  14.014 -0.5037  0.5460 -0.0491
 1013SOL    HW114672   1.815   2.368  13.926 -0.9503  2.1875  0.2985
 1013SOL    HW214673   1.782   2.366  14.076  1.8336  1.8270  2.5242
 1014SOL     OW14674   3.867   2.734   8.617 -0.4828  0.5785 -0.2290
 1014SOL    HW114675   3.848   2.676   8.691 -0.0210 -0.0584 -0.6085
 1014SOL    HW214676   3.807   2.803   8.644 -0.8409  0.6762 -1.2747
 1015SOL     OW14677   1.807   0.996  15.584  0.1512 -0.0451  0.6208
 1015SOL    HW114678   1.898   0.998  15.613 -0.2239 -1.7025  1.9247
 1015SOL    HW214679   1.765   1.066  15.633  0.5660 -0.7527  2.0127
 1016SOL     OW14680   2.705   1.316  11.786  0.0779 -0.0944 -0.0907
 1016SOL    HW114681   2.620   1.320  11.744 -0.1045  0.4967  0.3448
 1016SOL    HW214682   2.688   1.253  11.856  1.3206 -0.0206  0.2888
 1017SOL     OW14683   4.262   2.114   5.618  0.2648  0.0475 -0.3187
 1017SOL    HW114684   4.198   2.185   5.626 -0.9018 -1.1817  1.2018
 1017SOL    HW214685   4.216   2.057   5.679 -0.2104 -1.6548 -2.2625
 1018SOL     OW14686   1.626   0.451  14.908  0.2407  0.0263 -0.0101
 1018SOL    HW114687   1.607   0.445  14.814  1.3220  0.1986 -0.2431
 1018SOL    HW214688   1.547   0.497  14.938 -0.3944  0.2633 -2.0158
 1019SOL     OW14689   1.371   0.901  13.388  0.6212 -0.1182  0.4700
 1019SOL    HW114690   1.459   0.906  13.352  0.0009 -0.3023 -1.0576
 1019SOL    HW214691   1.319   0.888  13.309 -1.0731 -1.6381  1.8321
 1020SOL     OW14692   4.153   0.852   1.620  0.6799  0.3983  0.2251
 1020SOL    HW114693   4.126   0.765   1.589  0.3298  0.3330  0.7049
 1020SOL    HW214694   4.091   0.908   1.573 -0.9132 -2.1171 -0.6675
 1021SOL     OW14695   2.598   0.299   4.080  0.3180  0.7261  0.3713
 1021SOL    HW114696   2.663   0.369   4.083  3.8548 -2.5831  0.6851
 1021SOL    HW214697   2.612   0.262   3.993 -1.5709  3.2939 -1.0442
 1022SOL     OW14698   4.423   3.248  16.929  0.1435 -0.5090  0.0327
 1022SOL    HW114699   4.446   3.279  17.016 -0.7658  0.8834 -0.2055
 1022SOL    HW214700   4.367   3.173  16.948  1.0219 -0.3154  3.3493
 1023SOL     OW14701   2.580   2.647   4.872  0.1569 -0.5265 -0.1321
 1023SOL    HW114702   2.568   2.582   4.941 -0.5449 -0.7890 -0.5036
 1023SOL    HW214703   2.518   2.712   4.905  1.1228 -0.5754  1.7600
 1024SOL     OW14704   3.936   1.705   7.714 -0.0117 -0.2496  0.0188
 1024SOL    HW114705   3.961   1.792   7.683 -2.5662  0.7859  0.8700
 1024SOL    HW214706   3.916   1.660   7.632 -0.4772 -2.9601  1.6576
 1025SOL     OW14707   0.026   2.364   4.393  0.6731 -0.0301 -0.2115
 1025SOL    HW114708   0.000   2.283   4.348  1.4003 -1.0726  1.2310
 1025SOL    HW214709   0.100   2.327   4.442  0.3423  0.3137  0.5479
 1026SOL     OW14710   3.480   0.217   2.712 -0.2675 -0.3639  0.2099
 1026SOL    HW114711   3.415   0.276   2.750 -1.3940 -0.7721 -1.1072
 1026SOL    HW214712   3.443   0.132   2.734 -0.8144 -0.2587 -0.2980
 1027SOL     OW14713   3.515   1.301   8.586 -0.4245  0.6011  0.5632
 1027SOL    HW114714   3.464   1.303   8.667 -1.1900 -0.7087  0.1185
 1027SOL    HW214715   3.531   1.393   8.567  0.5645  0.5140  0.9991
 1028SOL     OW14716   4.637   0.690   9.732 -0.3417 -0.2610 -0.1342
 1028SOL    HW114717   4.602   0.611   9.690 -1.8663 -0.2143  1.0430
 1028SOL    HW214718   4.728   0.698   9.704  0.1774 -3.3315  0.6674
 1029SOL     OW14719   2.272   3.059  17.738  0.4832 -0.1597 -0.1172
 1029SOL    HW114720   2.316   3.050   0.084 -1.0024  3.3915  1.0066
 1029SOL    HW214721   2.321   3.129  17.695  3.1916 -2.1079 -0.1829
 1030SOL     OW14722   1.580   0.926  16.960 -0.8543 -0.4934 -1.0432
 1030SOL    HW114723   1.614   0.841  16.931  2.8880  0.5163  0.3355
 1030SOL    HW214724   1.619   0.979  16.891  3.7061 -1.5920  0.6725
 1031SOL     OW14725   3.498   2.908   9.743 -0.0443 -0.7096 -0.3917
 1031SOL    HW114726   3.410   2.934   9.716  0.4409  0.9071 -0.4224
 1031SOL    HW214727   3.489   2.828   9.794 -0.2899 -1.3036 -1.3518
 1032SOL     OW14728   2.019   4.368   6.033  0.6093 -0.5028 -0.2173
 1032SOL    HW114729   1.976   4.405   5.956  1.4543  1.0415  0.0547
 1032SOL    HW214730   2.109   4.377   6.004  0.2045 -1.6620 -1.8541
 1033SOL     OW14731   3.136   2.796   3.144  0.0827  0.2459 -0.2360
 1033SOL    HW114732   3.135   2.709   3.184 -0.1986  0.1265 -0.5081
 1033SOL    HW214733   3.198   2.830   3.209  1.4258 -3.8031  0.6657
 1034SOL     OW14734   2.833   0.654   2.915 -0.4098  0.2395  0.3033
 1034SOL    HW114735   2.824   0.623   3.006 -1.4443 -0.0436  0.1078
 1034SOL    HW214736   2.746   0.652   2.874 -0.6055 -1.3537  0.7656
 1035SOL     OW14737   2.085   0.497   1.583  0.1570 -0.1796 -0.8366
 1035SOL    HW114738   2.067   0.590   1.596  0.9517 -0.2868  1.0034
 1035SOL    HW214739   2.172   0.494   1.622 -0.8858 -1.7468  1.3767
 1036SOL     OW14740   3.708   0.903   6.732 -0.4700 -0.1977 -0.2643
 1036SOL    HW114741   3.798   0.935   6.732 -0.2334 -0.8615 -0.7175
 1036SOL    HW214742   3.720   0.818   6.688  3.2782 -1.6169  3.4723
 1037SOL     OW14743   4.404   2.296  11.211 -0.3179  0.3829 -0.1653
 1037SOL    HW114744   4.477   2.318  11.270 -1.1148  0.1792  0.9101
 1037SOL    HW214745   4.337   2.291  11.280 -2.0254  1.5005 -1.7527
 1038SOL     OW14746   2.967   2.667   7.261  0.4386 -0.2589  0.0530
 1038SOL    HW114747   3.056   2.697   7.244 -0.6246  1.5761 -2.2137
 1038SOL    HW214748   2.982   2.636   7.350  1.5471  0.6476  0.1832
 1039SOL     OW14749   0.375   1.152   6.475 -0.5707 -0.0934 -0.6280
 1039SOL    HW114750   0.340   1.063   6.473  1.0732 -0.7093 -1.3897
 1039SOL    HW214751   0.401   1.159   6.567  3.4122 -0.1792 -1.7786
 1040SOL     OW14752   3.539   2.818   5.469  0.1598  0.0918 -0.1345
 1040SOL    HW114753   3.562   2.907   5.443  2.0382 -0.0286  1.0998
 1040SOL    HW214754   3.473   2.848   5.532  3.5301 -1.0063  3.9082
 1041SOL     OW14755   1.482   4.405   2.936  0.4406 -0.2690 -0.1098
 1041SOL    HW114756   1.450   4.335   2.993 -2.6414  0.6903 -0.7171
 1041SOL    HW214757   1.555   4.438   2.989  0.7399 -3.0682  1.1979
 1042SOL     OW14758   0.496   2.521   9.938  0.0896 -0.4211  0.2207
 1042SOL    HW114759   0.527   2.548  10.025  2.1521  1.2955 -1.0409
 1042SOL    HW214760   0.569   2.551   9.884  1.9510 -1.2065  2.3263
 1043SOL     OW14761   0.198   1.968   2.772  0.4227  0.2546 -0.2379
 1043SOL    HW114762   0.196   2.063   2.780 -2.7848  0.0662  0.9051
 1043SOL    HW214763   0.105   1.952   2.760  0.3619 -0.1062  0.7468
 1044SOL     OW14764   4.593   1.597  17.563  0.2344  0.2656 -0.0756
 1044SOL    HW114765   4.517   1.545  17.537 -0.2200  0.3911  0.9781
 1044SOL    HW214766   4.546   1.651  17.627 -0.4977  0.4577 -0.7920
 1045SOL     OW14767   4.556   1.193   3.633  0.0244 -0.4103 -0.0104
 1045SOL    HW114768   4.556   1.277   3.681  1.9689 -0.9890  0.9830
 1045SOL    HW214769   4.606   1.213   3.555 -0.3103 -2.5765 -0.7719
 1046SOL     OW14770   1.105   4.131  11.859 -0.0276 -0.5782 -0.2608
 1046SOL    HW114771   1.175   4.137  11.794 -0.4084 -2.0579 -0.8028
 1046SOL    HW214772   1.030   4.123  11.801  0.4739  0.2283 -1.0190
 1047SOL     OW14773   0.837   3.835   2.625  0.0259  0.1076  0.6679
 1047SOL    HW114774   0.915   3.788   2.595  0.3825  1.5292 -0.6377
 1047SOL    HW214775   0.829   3.903   2.558 -1.9755 -1.0266 -0.2350
 1048SOL     OW14776   0.771   0.922  11.234 -0.5088  0.3692  0.4478
 1048SOL    HW114777   0.769   0.850  11.171  1.0282 -0.1727  1.0256
 1048SOL    HW214778   0.865   0.935  11.235  0.0305 -3.4641 -0.6955
 1049SOL     OW14779   2.279   4.692   5.204 -0.6813  0.5728  0.5560
 1049SOL    HW114780   2.315   0.022   5.143 -1.8486 -0.5283 -1.3112
 1049SOL    HW214781   2.252   0.005   5.282  2.2636  0.9618  1.3163
 1050SOL     OW14782   3.102   3.441   6.844  0.2297 -0.4692 -0.6998
 1050SOL    HW114783   3.042   3.480   6.781  1.9299  2.8037 -0.2702
 1050SOL    HW214784   3.074   3.483   6.925 -0.7838 -0.2725 -1.1544
 1051SOL     OW14785   2.134   3.225   6.755  0.4631  0.0817 -0.1698
 1051SOL    HW114786   2.164   3.295   6.813 -0.2225  0.9752 -0.8966
 1051SOL    HW214787   2.212   3.170   6.755  1.3945  1.4212 -1.0454
 1052SOL     OW14788   2.506   2.368   1.069 -0.3355 -0.1353  0.4807
 1052SOL    HW114789   2.439   2.433   1.090  0.6020  0.3329  2.0114
 1052SOL    HW214790   2.562   2.420   1.011 -1.3319  1.2024  0.7319
 1053SOL     OW14791   1.393   1.386  16.411  0.4170  0.0174 -0.3853
 1053SOL    HW114792   1.396   1.421  16.500 -2.6978 -1.2714  0.2181
 1053SOL    HW214793   1.453   1.311  16.418  1.1505  0.6401 -0.1069
 1054SOL     OW14794   4.632   0.141   3.239 -0.1647 -0.1051  0.0498
 1054SOL    HW114795   4.653   0.111   3.150  0.6542  1.6484 -0.3356
 1054SOL    HW214796   4.678   0.224   3.238 -1.2134  0.4719  0.1986
 1055SOL     OW14797   1.118   4.035   5.075  0.2638 -0.2261 -0.4041
 1055SOL    HW114798   1.144   3.943   5.065  1.3238 -0.0061  0.3024
 1055SOL    HW214799   1.053   4.017   5.143 -1.2104 -1.6502 -2.1975
 1056SOL     OW14800   2.800   0.052  11.171  0.1350  0.8762  0.5865
 1056SOL    HW114801   2.778   4.733  11.247  0.2120 -2.0123 -1.4708
 1056SOL    HW214802   2.817   0.131  11.223 -0.9897  1.5961 -0.1511
 1057SOL     OW14803   4.609   1.773  11.626 -0.1037 -0.8577  0.5766
 1057SOL    HW114804   4.546   1.734  11.686  0.3451  0.0718  1.6538
 1057SOL    HW214805   4.651   1.845  11.675  0.6024 -0.4793 -0.5642
 1058SOL     OW14806   2.835   3.560   6.304  0.3682  0.0384 -0.1323
 1058SOL    HW114807   2.766   3.530   6.363 -1.4432 -0.2492 -2.4010
 1058SOL    HW214808   2.809   3.517   6.223 -0.9620  1.6537 -0.5819
 1059SOL     OW14809   2.294   3.049  12.864  0.2542 -0.1878  0.6772
 1059SOL    HW114810   2.253   2.970  12.829 -2.2038  1.6989 -0.7004
 1059SOL    HW214811   2.375   3.010  12.896  0.9238  1.7851  1.3731
 1060SOL     OW14812   3.904   1.080   2.681 -0.0641  0.2841 -0.0073
 1060SOL    HW114813   3.986   1.107   2.639  0.0614  1.4805  1.0300
 1060SOL    HW214814   3.876   1.018   2.613 -1.6966  2.5063 -1.3360
 1061SOL     OW14815   1.823   3.087  17.579  0.1772 -0.3842 -0.1732
 1061SOL    HW114816   1.886   3.031  17.534  0.2613  0.4624 -1.1134
 1061SOL    HW214817   1.885   3.155  17.606  1.0540 -1.4561  0.5323
 1062SOL     OW14818   3.661   1.607   5.620  0.1657  0.3899  0.3183
 1062SOL    HW114819   3.625   1.521   5.641  0.2437  0.8535  2.3119
 1062SOL    HW214820   3.740   1.573   5.579 -1.2599  1.1491 -3.0417
 1063SOL     OW14821   4.541   1.344   6.368  0.1740  0.2564 -1.0659
 1063SOL    HW114822   4.580   1.430   6.377 -0.0133  0.2238  0.0577
 1063SOL    HW214823   4.527   1.330   6.274 -2.6275  2.3809 -0.9575
 1064SOL     OW14824   1.502   2.224   3.570 -0.5126 -0.6421 -0.4435
 1064SOL    HW114825   1.581   2.259   3.529 -0.2142  0.3773  1.0140
 1064SOL    HW214826   1.498   2.275   3.651  1.1572  0.4244 -1.0096
 1065SOL     OW14827   4.195   4.310   0.352  0.1377 -0.1725  0.1459
 1065SOL    HW114828   4.107   4.326   0.319  0.6627  1.8948 -0.2409
 1065SOL    HW214829   4.225   4.297   0.262  0.7917  2.9700 -0.0887
 1066SOL     OW14830   3.857   2.594   9.373  0.0386 -0.5566 -0.5944
 1066SOL    HW114831   3.835   2.670   9.318 -1.4358 -0.6938 -0.1711
 1066SOL    HW214832   3.916   2.638   9.435 -0.4080  0.3336 -0.8018
 1067SOL     OW14833   4.549   2.306   5.138  0.0594 -0.2307 -0.2356
 1067SOL    HW114834   4.496   2.266   5.207 -0.0510 -2.5682 -1.6651
 1067SOL    HW214835   4.614   2.237   5.126  0.2287 -0.0640 -0.2659
 1068SOL     OW14836   4.306   1.149   2.840  0.1561 -0.0078  0.3655
 1068SOL    HW114837   4.269   1.064   2.865 -2.6972  1.1684  0.0418
 1068SOL    HW214838   4.231   1.207   2.843 -0.7672 -1.1703 -0.3307
 1069SOL     OW14839   0.687   0.347   9.476  0.0304 -0.2939 -0.1034
 1069SOL    HW114840   0.690   0.434   9.435 -0.1246  0.1256  0.7756
 1069SOL    HW214841   0.766   0.361   9.528  1.2560 -0.2698 -1.9387
 1070SOL     OW14842   0.138   2.359   8.409  0.0044  0.4909  0.6827
 1070SOL    HW114843   0.134   2.448   8.444  1.3276  0.2544  1.4201
 1070SOL    HW214844   0.061   2.365   8.352  1.0144 -1.8971 -0.9598
 1071SOL     OW14845   0.593   3.695   3.200 -0.4860 -0.2134 -0.0442
 1071SOL    HW114846   0.630   3.622   3.249  0.8808  0.0493 -0.6879
 1071SOL    HW214847   0.523   3.658   3.147 -1.0093  0.1481  0.3901
 1072SOL     OW14848   1.528   0.946   2.505 -0.2203  0.1233  0.2166
 1072SOL    HW114849   1.548   0.853   2.516  0.9573  0.4853  1.1569
 1072SOL    HW214850   1.582   0.998   2.565 -1.0167  0.9268  0.2461
 1073SOL     OW14851   0.737   4.047   5.306  0.5501  0.4184  0.2224
 1073SOL    HW114852   0.744   4.006   5.220 -1.1500 -2.0407  1.2569
 1073SOL    HW214853   0.740   4.142   5.290  0.2673  0.0203 -2.1572
 1074SOL     OW14854   0.776   1.984   0.329 -0.5736 -0.5266  0.4766
 1074SOL    HW114855   0.702   1.998   0.389  0.3787 -0.1279  1.5530
 1074SOL    HW214856   0.811   1.902   0.363 -0.5786 -0.1497  1.4000
 1075SOL     OW14857   4.359   1.664   2.555 -0.3687 -0.2782 -0.7978
 1075SOL    HW114858   4.395   1.662   2.644 -0.5503 -1.1956 -0.7430
 1075SOL    HW214859   4.328   1.574   2.561 -1.7530  0.4649  3.6304
 1076SOL     OW14860   3.013   0.608   8.608  0.1993 -0.1992 -0.5565
 1076SOL    HW114861   2.927   0.647   8.619  1.4133  2.3598 -0.1202
 1076SOL    HW214862   3.008   0.548   8.682 -1.1958 -0.1252 -0.6023
 1077SOL     OW14863   2.514   4.121   4.988 -0.2804 -0.1012 -0.5362
 1077SOL    HW114864   2.580   4.157   5.047  0.6071  1.1169 -2.2672
 1077SOL    HW214865   2.458   4.070   5.046  2.0831 -3.7436 -1.4857
 1078SOL     OW14866   3.316   3.559   8.440  0.2926  0.1026  0.1291
 1078SOL    HW114867   3.339   3.471   8.411 -2.5347 -0.7033  0.3711
 1078SOL    HW214868   3.236   3.575   8.390 -1.0901  0.9973  2.6438
 1079SOL     OW14869   1.782   3.617  15.080 -0.0981 -0.0685  0.6285
 1079SOL    HW114870   1.742   3.637  14.995 -2.9947 -2.9881  1.2934
 1079SOL    HW214871   1.739   3.535  15.102 -2.2787  0.7598 -0.4442
 1080SOL     OW14872   0.642   2.431   5.738 -0.4568  0.1855 -0.4042
 1080SOL    HW114873   0.692   2.426   5.820  1.1517  0.2461 -1.3772
 1080SOL    HW214874   0.565   2.399   5.785  1.4475 -3.2828  0.4212
 1081SOL     OW14875   2.720   1.510  12.348  0.1897 -0.5648 -0.4427
 1081SOL    HW114876   2.694   1.602  12.352  0.8850 -0.3708 -0.4228
 1081SOL    HW214877   2.653   1.471  12.405 -0.3968 -1.8468 -2.0150
 1082SOL     OW14878   0.818   4.591   9.221  0.5856 -0.5671  1.0006
 1082SOL    HW114879   0.823   4.544   9.304  0.1204  0.2467  1.4914
 1082SOL    HW214880   0.802   4.675   9.263 -0.8273 -0.3781  0.0874
 1083SOL     OW14881   2.966   1.866   6.449 -0.2728  0.2771 -0.2098
 1083SOL    HW114882   2.875   1.866   6.480 -0.8192 -1.9139 -1.8007
 1083SOL    HW214883   3.002   1.923   6.517 -0.3492 -0.4402  0.4202
 1084SOL     OW14884   2.636   1.262   1.499 -0.0714  0.1236  0.1511
 1084SOL    HW114885   2.544   1.284   1.517 -0.0643 -0.3980  0.8288
 1084SOL    HW214886   2.658   1.324   1.430  0.5561 -0.6485 -0.3444
 1085SOL     OW14887   2.137   1.012   7.242 -1.1891  0.3018  0.3538
 1085SOL    HW114888   2.153   0.998   7.336 -1.3898 -1.5664  0.0985
 1085SOL    HW214889   2.228   1.032   7.217 -0.6813 -1.5490  0.7394
 1086SOL     OW14890   2.240   3.591   6.571 -0.1449 -0.0499  0.4993
 1086SOL    HW114891   2.171   3.562   6.512 -0.8806 -0.0149  1.3420
 1086SOL    HW214892   2.180   3.634   6.632  1.5587  0.7661  1.6265
 1087SOL     OW14893   4.336   3.800   3.350 -0.5961  0.0824 -0.1397
 1087SOL    HW114894   4.418   3.830   3.389  0.7412 -2.2547 -1.0636
 1087SOL    HW214895   4.277   3.873   3.365 -0.3456  0.2370  0.0827
 1088SOL     OW14896   4.408   3.430   6.291  0.3338 -0.8612 -0.1156
 1088SOL    HW114897   4.445   3.343   6.276 -1.3906 -1.6365  0.1152
 1088SOL    HW214898   4.382   3.453   6.201  0.6455 -1.0625 -0.2569
 1089SOL     OW14899   2.454   2.941  15.550 -0.1029  0.2844 -0.0176
 1089SOL    HW114900   2.402   2.947  15.470 -0.3385 -0.0343  0.1096
 1089SOL    HW214901   2.531   2.891  15.522 -1.2445 -1.5279  0.0405
 1090SOL     OW14902   3.780   2.465   6.334  0.1235 -0.0886 -0.5174
 1090SOL    HW114903   3.771   2.466   6.238  0.8030 -3.1668 -0.6353
 1090SOL    HW214904   3.735   2.548   6.350  2.0072  1.2521 -2.1036
 1091SOL     OW14905   3.482   3.640   7.202  0.1222 -0.5000 -0.5374
 1091SOL    HW114906   3.397   3.595   7.198  0.3494 -1.0132  0.2731
 1091SOL    HW214907   3.489   3.698   7.126 -1.9937  1.2374  0.6006
 1092SOL     OW14908   2.050   2.132   1.237  0.0542  0.3103 -0.4273
 1092SOL    HW114909   2.047   2.178   1.153  1.4261 -1.7729 -1.6401
 1092SOL    HW214910   2.074   2.043   1.208 -0.2518  0.1488 -0.1796
 1093SOL     OW14911   1.083   2.204   5.489  0.1274  0.2896  0.3983
 1093SOL    HW114912   1.054   2.210   5.398 -0.6822  0.4093  0.6606
 1093SOL    HW214913   1.050   2.288   5.520 -0.9039  1.0840 -2.8296
 1094SOL     OW14914   2.572   2.696   6.046 -0.2075  0.0655  0.2361
 1094SOL    HW114915   2.617   2.670   6.126 -0.4041  0.1372  0.3712
 1094SOL    HW214916   2.641   2.743   6.000 -1.6202  1.5817 -0.3240
 1095SOL     OW14917   0.348   2.516  17.643  0.0033  0.1372  0.2478
 1095SOL    HW114918   0.443   2.518  17.629 -0.0317  0.4285  0.0588
 1095SOL    HW214919   0.342   2.434  17.692 -0.7328 -0.4684 -0.8426
 1096SOL     OW14920   3.442   1.498   7.399 -0.5070  0.8107  0.4912
 1096SOL    HW114921   3.524   1.507   7.447  0.1788  0.2322 -0.5845
 1096SOL    HW214922   3.437   1.590   7.373  2.0167  0.5588 -0.9105
 1097SOL     OW14923   1.885   3.385   5.618  0.0977  0.5216  0.2851
 1097SOL    HW114924   1.851   3.300   5.645  2.9981 -1.1083 -1.2216
 1097SOL    HW214925   1.861   3.444   5.689 -3.3608  0.7341 -1.0590
 1098SOL     OW14926   3.268   0.660  10.652  0.5890  0.2109  0.3288
 1098SOL    HW114927   3.347   0.612  10.678  0.2264 -1.1552 -1.0177
 1098SOL    HW214928   3.213   0.649  10.730 -0.7404  0.0068 -0.6239
 1099SOL     OW14929   0.106   2.893   6.256 -0.2211 -0.4758 -0.4758
 1099SOL    HW114930   0.157   2.951   6.313 -2.6223 -0.8251  2.0260
 1099SOL    HW214931   0.179   2.880   6.195  0.0171 -1.0642 -0.0714
 1100SOL     OW14932   4.706   1.817   9.082  0.0891  0.1273  0.1442
 1100SOL    HW114933   4.620   1.831   9.041  0.5813  0.3106 -0.8439
 1100SOL    HW214934   0.000   1.908   9.078  0.9770 -0.1960 -0.6690
 1101SOL     OW14935   3.951   1.511   5.557 -0.6619 -0.4505 -0.3386
 1101SOL    HW114936   4.032   1.504   5.505  0.5351  0.8547  1.3518
 1101SOL    HW214937   3.959   1.430   5.608 -1.2624 -0.7610 -0.7308
 1102SOL     OW14938   1.815   2.753   6.248 -0.1085  0.3340 -0.0956
 1102SOL    HW114939   1.783   2.750   6.338  0.2434 -0.2026  0.0082
 1102SOL    HW214940   1.904   2.719   6.260  0.0689 -0.2077 -2.8788
 1103SOL     OW14941   2.600   2.781   1.752 -0.0514  0.3288  0.9757
 1103SOL    HW114942   2.634   2.782   1.842  0.9069  5.3575  0.5377
 1103SOL    HW214943   2.554   2.696   1.753 -0.5991  0.6242  1.0071
 1104SOL     OW14944   2.578   2.908  17.267 -0.1693  0.0334  0.0714
 1104SOL    HW114945   2.619   2.880  17.350 -0.4661 -0.1496  0.1572
 1104SOL    HW214946   2.565   2.825  17.220 -0.4116  0.4015 -0.5040
 1105SOL     OW14947   0.491   4.369   3.883 -0.3120 -0.1565 -0.3636
 1105SOL    HW114948   0.524   4.417   3.960  2.0875 -1.6449 -0.4887
 1105SOL    HW214949   0.450   4.435   3.826  3.0353  1.6866 -0.6598
 1106SOL     OW14950   1.668   3.792   2.244 -0.0930  0.0232 -0.0556
 1106SOL    HW114951   1.667   3.887   2.252 -0.5942 -0.1881  2.1838
 1106SOL    HW214952   1.585   3.770   2.202  1.4210 -0.5767 -2.8163
 1107SOL     OW14953   2.984   4.512   3.729  0.3853 -0.6439  0.1258
 1107SOL    HW114954   2.927   4.444   3.767  1.8981 -1.4060  1.0408
 1107SOL    HW214955   3.019   4.556   3.807 -3.1280 -0.4836  1.6114
 1108SOL     OW14956   3.975   0.380   6.995  0.2556 -0.4275 -0.2073
 1108SOL    HW114957   3.944   0.295   7.027 -0.0053 -0.5430 -0.7734
 1108SOL    HW214958   3.955   0.444   7.063 -0.9038 -1.2482  0.2199
 1109SOL     OW14959   2.886   4.552   8.685  0.9430  0.4155 -0.1946
 1109SOL    HW114960   2.896   4.574   8.592 -2.9468 -2.2152 -1.2666
 1109SOL    HW214961   2.947   4.479   8.696  0.6545  0.0886 -0.7518
 1110SOL     OW14962   3.335   2.720   2.284 -0.3348  0.4332 -0.7197
 1110SOL    HW114963   3.355   2.764   2.367  1.2777 -2.4592  0.4199
 1110SOL    HW214964   3.267   2.663   2.318  0.4811 -1.0343 -1.5311
 1111SOL     OW14965   2.810   2.351   5.044  0.0238 -0.7871  0.2253
 1111SOL    HW114966   2.718   2.330   5.060  0.3018 -2.7659 -0.7423
 1111SOL    HW214967   2.820   2.442   5.072 -0.3758 -0.8221  0.4849
 1112SOL     OW14968   1.373   0.416   5.651  0.7160 -0.3295  0.0750
 1112SOL    HW114969   1.449   0.391   5.599  0.9517 -1.0582  0.7689
 1112SOL    HW214970   1.328   0.473   5.589 -0.1766  0.2093  1.2162
 1113SOL     OW14971   1.442   4.095   4.182  0.0626  0.4824  0.5778
 1113SOL    HW114972   1.421   4.091   4.089  1.1697 -1.2658  0.4018
 1113SOL    HW214973   1.504   4.168   4.180  2.0144 -1.2401 -1.2343
 1114SOL     OW14974   4.462   4.476  10.165 -0.3409 -0.1229  0.0268
 1114SOL    HW114975   4.418   4.548  10.211  2.4106  0.3392  1.9626
 1114SOL    HW214976   4.523   4.518  10.104 -0.8801  1.2034  0.3873
 1115SOL     OW14977   0.877   4.543   1.824 -0.2995  0.1157 -0.3474
 1115SOL    HW114978   0.923   4.470   1.783  2.0434 -0.0132  2.4956
 1115SOL    HW214979   0.887   4.616   1.763 -2.6002 -0.6782 -1.6899
 1116SOL     OW14980   1.978   4.614  17.075 -0.0701 -0.0278 -0.7801
 1116SOL    HW114981   1.929   4.649  17.001 -2.1448  0.7274  0.9252
 1116SOL    HW214982   2.005   4.525  17.053  0.7518  0.4211 -1.5695
 1117SOL     OW14983   2.090   2.690   9.051  0.0422  0.7742  0.1281
 1117SOL    HW114984   2.140   2.680   9.132 -0.7088  2.4523  0.7953
 1117SOL    HW214985   2.087   2.785   9.044  0.3454  0.9441  2.2498
 1118SOL     OW14986   3.756   1.171  13.262  0.1518 -0.0042  0.0195
 1118SOL    HW114987   3.794   1.254  13.233  0.5133  0.0029  0.5308
 1118SOL    HW214988   3.694   1.149  13.191 -0.8556  0.3228  0.7994
 1119SOL     OW14989   1.297   2.427   5.268 -0.0665 -0.3846  0.5872
 1119SOL    HW114990   1.240   2.357   5.239 -0.0189  0.1799 -0.8600
 1119SOL    HW214991   1.326   2.404   5.356 -0.4241 -0.2142  0.7480
 1120SOL     OW14992   2.982   1.411  12.916 -0.4864 -0.1282  0.1377
 1120SOL    HW114993   3.065   1.440  12.954  0.1508 -3.2062  1.1597
 1120SOL    HW214994   2.949   1.355  12.986  0.9686  0.3625  1.2108
 1121SOL     OW14995   4.144   3.111   5.019 -0.5510  0.3409  0.1626
 1121SOL    HW114996   4.215   3.047   5.029 -1.0603 -0.2906 -0.2875
 1121SOL    HW214997   4.111   3.102   5.108  2.0676 -0.1223  1.0983
 1122SOL     OW14998   4.374   0.399  15.094 -0.2584  0.4347 -0.0642
 1122SOL    HW114999   4.422   0.321  15.064 -0.2182  0.8111 -0.9599
 1122SOL    HW215000   4.336   0.357  15.172  0.0148  0.4929  0.1015
 1123SOL     OW15001   0.148   0.025  10.479  0.0814  0.5772  0.1923
 1123SOL    HW115002   0.126   0.099  10.535 -2.6823 -0.5611  0.6076
 1123SOL    HW215003   0.105   4.686  10.521 -0.4125  0.7557 -0.0048
 1124SOL     OW15004   1.660   1.007   8.307 -0.3165  0.5879 -0.4021
 1124SOL    HW115005   1.609   1.012   8.226 -2.7703 -1.0455  1.0368
 1124SOL    HW215006   1.588   0.995   8.368 -1.2702  1.0766 -1.4116
 1125SOL     OW15007   1.189   3.188   4.178 -0.0389  0.0314 -0.4869
 1125SOL    HW115008   1.158   3.104   4.211 -0.7281  0.7098  0.5992
 1125SOL    HW215009   1.133   3.197   4.101 -1.7285 -0.1175  0.7118
 1126SOL     OW15010   2.314   1.601   5.821  0.0653  0.0680 -0.3934
 1126SOL    HW115011   2.230   1.565   5.793  0.4991 -0.9376 -0.4025
 1126SOL    HW215012   2.308   1.568   5.910 -0.8483 -2.1194 -1.2625
 1127SOL     OW15013   3.385   2.771   6.319  0.1599  0.4708 -0.4792
 1127SOL    HW115014   3.397   2.849   6.265 -0.8582  0.1879 -1.1224
 1127SOL    HW215015   3.407   2.700   6.259  2.3422  0.4867  0.3333
 1128SOL     OW15016   2.615   1.422   3.620 -0.6462  0.0420 -0.1106
 1128SOL    HW115017   2.526   1.390   3.605 -0.7429  0.6021 -0.7444
 1128SOL    HW215018   2.647   1.380   3.539  0.5199 -0.5255  0.6428
 1129SOL     OW15019   2.445   3.570   8.018 -0.5279  0.1404 -0.0524
 1129SOL    HW115020   2.450   3.651   8.067  1.3384 -0.7052  1.1429
 1129SOL    HW215021   2.517   3.581   7.956 -1.7297 -0.3251 -1.5633
 1130SOL     OW15022   2.652   1.778   8.526 -0.8371 -0.6921  0.0614
 1130SOL    HW115023   2.612   1.737   8.602 -0.2377  0.7179  1.1316
 1130SOL    HW215024   2.746   1.779   8.545 -0.5453 -2.4566 -1.2155
 1131SOL     OW15025   4.574   4.366   8.119  0.5322  0.3368  0.1841
 1131SOL    HW115026   4.536   4.438   8.169 -0.2079 -1.1155  1.7518
 1131SOL    HW215027   4.496   4.313   8.101  1.8913 -0.8711 -2.0838
 1132SOL     OW15028   0.541   0.856   2.644  0.0317  0.2601  0.4502
 1132SOL    HW115029   0.622   0.875   2.596  0.7283  0.5973  1.7513
 1132SOL    HW215030   0.478   0.863   2.573 -0.2119  0.4028  0.6784
 1133SOL     OW15031   0.343   4.325  10.710 -0.2020  0.1066 -0.6623
 1133SOL    HW115032   0.256   4.292  10.686 -0.4252  2.0031 -2.3936
 1133SOL    HW215033   0.313   4.407  10.749 -0.3668 -1.2840  2.1205
 1134SOL     OW15034   1.702   1.998   2.223 -0.5101  0.2323  0.6422
 1134SOL    HW115035   1.616   2.011   2.264 -0.6854  0.1073  0.3148
 1134SOL    HW215036   1.758   1.989   2.300  3.8281  1.9774 -2.2772
 1135SOL     OW15037   3.362   3.149   4.633 -0.3172  0.1681  0.1107
 1135SOL    HW115038   3.329   3.083   4.694 -0.3429  0.8494  0.8330
 1135SOL    HW215039   3.363   3.089   4.559 -0.1406 -1.7582  1.6699
 1136SOL     OW15040   2.398   1.663   0.660 -0.2057  0.8625 -0.6685
 1136SOL    HW115041   2.416   1.666   0.566  0.5821  0.1156 -0.5391
 1136SOL    HW215042   2.332   1.732   0.660  2.7452  3.6766  0.2088
 1137SOL     OW15043   2.370   2.988   3.088  0.0925 -0.0092 -0.3566
 1137SOL    HW115044   2.418   2.905   3.085  0.0401 -0.0888  0.8719
 1137SOL    HW215045   2.281   2.971   3.059 -0.6638  0.1715  1.7987
 1138SOL     OW15046   0.099   2.899   4.862 -0.0473  0.1469  0.3254
 1138SOL    HW115047   0.008   2.893   4.833  0.6918 -0.8278 -1.7897
 1138SOL    HW215048   0.158   2.905   4.787 -0.8816 -1.7257 -0.4751
 1139SOL     OW15049   3.390   3.781   8.238  0.0736 -0.0908 -0.8474
 1139SOL    HW115050   3.435   3.707   8.280  1.4942  0.8317 -0.7267
 1139SOL    HW215051   3.442   3.798   8.159 -0.0544 -1.9821 -1.3431
 1140SOL     OW15052   2.730   3.047   3.147  0.7490  0.0371  0.3657
 1140SOL    HW115053   2.763   3.003   3.069 -1.7791  1.0534 -1.2609
 1140SOL    HW215054   2.661   3.101   3.108 -0.3653 -0.3326  1.7950
 1141SOL     OW15055   2.393   3.084   6.433  0.0785  0.1136 -0.2684
 1141SOL    HW115056   2.324   3.023   6.457 -0.1770  1.0999  1.5394
 1141SOL    HW215057   2.387   3.153   6.500 -1.3404 -0.5423  0.2681
 1142SOL     OW15058   0.088   1.905   4.083 -0.4163 -0.7966 -0.6528
 1142SOL    HW115059   0.147   1.923   4.009  1.8827 -1.8475  0.9294
 1142SOL    HW215060   0.123   1.818   4.098 -0.6503 -1.2179 -2.5721
 1143SOL     OW15061   4.367   3.379   7.203 -0.5662 -0.0422  0.2718
 1143SOL    HW115062   4.327   3.299   7.170 -0.3190 -0.2630  0.5110
 1143SOL    HW215063   4.441   3.338   7.248 -0.6151  0.6543  0.9872
 1144SOL     OW15064   1.617   1.996  12.333  0.7204  0.2006 -0.1652
 1144SOL    HW115065   1.676   2.070  12.316 -0.9878  1.9314  1.5689
 1144SOL    HW215066   1.546   2.013  12.271  0.6318  0.9733  0.1595
 1145SOL     OW15067   3.445   0.783   9.529  0.5852 -0.7571 -0.1096
 1145SOL    HW115068   3.474   0.707   9.479  0.0164  0.2833 -2.0243
 1145SOL    HW215069   3.496   0.775   9.609 -0.1653 -1.9898  0.2379
 1146SOL     OW15070   3.640   2.373   7.129  0.0093 -0.0132 -0.2009
 1146SOL    HW115071   3.638   2.468   7.143 -0.0143  0.3429 -2.5875
 1146SOL    HW215072   3.546   2.362   7.119  0.1062 -0.8883 -0.1369
 1147SOL     OW15073   0.017   1.832   5.028 -0.3572  0.8982  0.3866
 1147SOL    HW115074   4.692   1.759   5.013  2.6661 -1.3457 -0.8995
 1147SOL    HW215075   0.074   1.817   4.952  0.7294  1.5305  1.0764
 1148SOL     OW15076   3.880   0.235   3.626 -0.0934  0.1524 -0.1477
 1148SOL    HW115077   3.967   0.263   3.598  0.4968 -0.0386  1.4798
 1148SOL    HW215078   3.830   0.240   3.545  0.1805  0.4476 -0.2949
 1149SOL     OW15079   3.806   1.493   9.380 -0.0603 -0.3958  0.6061
 1149SOL    HW115080   3.714   1.517   9.377  0.3175  0.8785 -0.3564
 1149SOL    HW215081   3.849   1.570   9.343  0.4780 -0.6331  0.7251
 1150SOL     OW15082   4.420   0.130   8.452 -0.1104 -0.1918 -0.3222
 1150SOL    HW115083   4.405   0.194   8.521  0.0214 -0.1760 -0.3079
 1150SOL    HW215084   4.373   0.170   8.379 -0.4164 -0.6611 -0.3877
 1151SOL     OW15085   0.716   0.564   2.498 -0.6515 -0.4053  0.0467
 1151SOL    HW115086   0.632   0.556   2.543 -1.7550  2.1175 -1.5487
 1151SOL    HW215087   0.710   0.480   2.452 -0.1225 -0.1998 -0.4068
 1152SOL     OW15088   1.512   4.198   4.718  0.6470  0.4410 -0.2523
 1152SOL    HW115089   1.522   4.147   4.798 -1.4746  0.9388  0.3126
 1152SOL    HW215090   1.561   4.276   4.744 -1.5278  1.7284  0.0199
 1153SOL     OW15091   2.004   4.371   4.053  0.1344 -1.0989  0.3243
 1153SOL    HW115092   1.996   4.467   4.058  1.0739 -0.9070 -1.5299
 1153SOL    HW215093   1.983   4.354   3.961  0.4860  1.7376 -0.2928
 1154SOL     OW15094   4.203   3.728   6.073  0.0232  0.1418 -0.0029
 1154SOL    HW115095   4.232   3.745   6.162  1.2071 -0.3459 -0.2964
 1154SOL    HW215096   4.215   3.811   6.027 -1.5219 -0.1593 -0.9468
 1155SOL     OW15097   2.934   3.925  14.691  0.0036  0.2459 -0.0788
 1155SOL    HW115098   3.002   3.909  14.625 -1.2428 -1.7809 -0.8984
 1155SOL    HW215099   2.871   3.863  14.655  0.4739  0.4193 -1.2073
 1156SOL     OW15100   3.323   4.680  12.941  0.5793 -0.6676  0.4684
 1156SOL    HW115101   3.395   4.719  12.990 -0.8999  1.0216  1.2920
 1156SOL    HW215102   3.314   0.001  12.864  2.6335  0.7542  1.2722
 1157SOL     OW15103   3.158   2.084   4.337  0.6009 -0.8471 -0.0302
 1157SOL    HW115104   3.113   2.017   4.389  1.1300 -1.3554 -0.2287
 1157SOL    HW215105   3.100   2.159   4.349  0.3144 -1.0763 -0.0004
 1158SOL     OW15106   1.092   1.291  10.178 -0.1927 -0.0754 -0.2943
 1158SOL    HW115107   1.157   1.238  10.224  0.3586  1.2173  0.3907
 1158SOL    HW215108   1.043   1.332  10.249  0.6700 -0.9552  0.8162
 1159SOL     OW15109   2.846   0.262   3.186 -0.7550  0.1309 -0.0450
 1159SOL    HW115110   2.870   0.285   3.276  3.0306  3.1562 -1.8655
 1159SOL    HW215111   2.931   0.266   3.143 -1.1000 -0.5486 -0.8127
 1160SOL     OW15112   1.369   4.688   3.239 -0.2453 -0.3367 -0.1465
 1160SOL    HW115113   1.457   4.727   3.234 -1.3034  1.8740 -1.5826
 1160SOL    HW215114   1.333   4.706   3.152  0.2457  0.9557 -0.0866
 1161SOL     OW15115   3.021   0.144   0.451 -0.0227 -0.0494 -0.3342
 1161SOL    HW115116   2.939   0.095   0.453 -0.0889  0.1682  1.5530
 1161SOL    HW215117   3.019   0.165   0.357  0.4295 -2.6063 -0.9204
 1162SOL     OW15118   0.158   3.411   5.542 -0.2619 -0.5875  0.4754
 1162SOL    HW115119   0.152   3.422   5.447  0.6263  0.2945  0.5301
 1162SOL    HW215120   0.076   3.448   5.574  0.0805  0.6561 -0.0788
 1163SOL     OW15121   2.030   1.281   7.382 -0.4771  0.2009  0.7756
 1163SOL    HW115122   2.057   1.358   7.333 -0.5266 -0.7520 -0.7353
 1163SOL    HW215123   2.064   1.218   7.319 -1.6586 -0.7729  1.0928
 1164SOL     OW15124   2.216   3.224   3.564  0.1885  0.0943 -0.0390
 1164SOL    HW115125   2.260   3.301   3.527 -0.9371  0.5816 -0.3746
 1164SOL    HW215126   2.261   3.157   3.513  0.9564 -0.4230  1.3124
 1165SOL     OW15127   2.842   2.061   3.280 -0.1348  0.4461 -0.3025
 1165SOL    HW115128   2.858   2.132   3.342  3.0727 -0.7026  0.1818
 1165SOL    HW215129   2.871   1.984   3.330  0.3091  1.7549  1.4381
 1166SOL     OW15130   2.370   2.900   4.306  0.2609  0.2887  0.0668
 1166SOL    HW115131   2.374   2.812   4.346  0.2297 -0.0244 -0.6257
 1166SOL    HW215132   2.451   2.902   4.255  0.6898  1.8463  0.7990
 1167SOL     OW15133   0.964   1.076   4.962 -0.0274  0.0815 -0.1039
 1167SOL    HW115134   0.904   1.033   5.022 -0.4651 -0.1194 -0.6808
 1167SOL    HW215135   0.919   1.056   4.880 -1.7311 -3.3956  1.6972
 1168SOL     OW15136   0.643   2.906   4.506 -0.4598 -0.2485 -0.1386
 1168SOL    HW115137   0.560   2.950   4.519 -0.2879  0.6049 -1.9588
 1168SOL    HW215138   0.710   2.964   4.542 -0.6423 -0.7226  0.9782
 1169SOL     OW15139   0.722   1.073   4.791  0.4053 -0.0391  0.0253
 1169SOL    HW115140   0.694   1.031   4.872  0.4078  0.8305  0.4763
 1169SOL    HW215141   0.662   1.148   4.787  2.6404  1.6677 -1.8183
 1170SOL     OW15142   3.741   4.198   3.161  0.7741 -0.3433  0.9030
 1170SOL    HW115143   3.717   4.108   3.185  0.0142 -0.3924 -0.0144
 1170SOL    HW215144   3.731   4.190   3.066  0.2574 -0.1130  0.9390
 1171SOL     OW15145   1.827   1.256   9.274  0.0367 -0.0765 -0.5099
 1171SOL    HW115146   1.898   1.232   9.214  0.6797 -0.0139  0.2232
 1171SOL    HW215147   1.807   1.340   9.233  0.5844  1.4281  2.2908
 1172SOL     OW15148   3.608   0.086   8.011  0.1777  0.0207  0.6376
 1172SOL    HW115149   3.557   0.132   8.078 -1.2129  0.9277 -1.0542
 1172SOL    HW215150   3.545   0.040   7.955  0.0017  3.1076 -1.6830
 1173SOL     OW15151   0.346   4.518   1.706 -0.4002  0.0946  0.2756
 1173SOL    HW115152   0.272   4.536   1.648  0.2319 -0.7201 -0.7610
 1173SOL    HW215153   0.362   4.424   1.701  0.3379  0.2809 -0.8337
 1174SOL     OW15154   1.834   4.478   7.124  0.3061  0.7528 -1.1691
 1174SOL    HW115155   1.885   4.435   7.193 -2.3118 -0.9566 -0.3026
 1174SOL    HW215156   1.874   4.565   7.123 -0.3157  1.0372 -0.2703
 1175SOL     OW15157   0.950   4.205   2.493  0.0081  0.2151  0.5756
 1175SOL    HW115158   0.896   4.167   2.423  1.6873 -0.7944 -0.1581
 1175SOL    HW215159   0.941   4.297   2.469 -1.8103  0.0628  0.6452
 1176SOL     OW15160   1.724   3.016   7.417  0.2171 -0.0859 -0.5374
 1176SOL    HW115161   1.739   3.105   7.385  0.9476  0.5754  1.6813
 1176SOL    HW215162   1.681   3.030   7.501  1.9487  0.3240  0.2693
 1177SOL     OW15163   1.529   1.903   3.267 -0.1179 -0.0675  0.4937
 1177SOL    HW115164   1.536   1.927   3.360  2.1958 -1.8829  0.8123
 1177SOL    HW215165   1.535   1.808   3.284  1.4606 -0.4433 -2.1315
 1178SOL     OW15166   2.292   0.909  14.781 -0.0314  0.1180  0.1142
 1178SOL    HW115167   2.291   0.822  14.820  1.9258 -0.1129 -0.3171
 1178SOL    HW215168   2.198   0.922  14.769 -0.2879 -0.1706  1.7594
 1179SOL     OW15169   0.782   4.554   6.265  0.2025  0.3510 -0.3154
 1179SOL    HW115170   0.709   4.509   6.307  0.6591  1.7090  1.9445
 1179SOL    HW215171   0.802   4.490   6.196  0.1954  0.1846 -0.1617
 1180SOL     OW15172   1.967   2.242   2.479 -0.1258  0.0305  0.0090
 1180SOL    HW115173   1.997   2.242   2.570 -0.6995  0.7831  0.1894
 1180SOL    HW215174   1.986   2.334   2.466  0.9517 -0.2894 -0.7053
 1181SOL     OW15175   3.111   3.592   8.277 -0.0566  0.3478 -0.6977
 1181SOL    HW115176   3.124   3.658   8.208  0.3609  0.3717 -0.6013
 1181SOL    HW215177   3.077   3.518   8.227  1.4112 -0.6296 -0.2628
 1182SOL     OW15178   4.623   0.461   5.953  0.0892 -0.9793 -0.0664
 1182SOL    HW115179   4.638   0.408   5.875  0.7003  0.4544 -0.9327
 1182SOL    HW215180   4.680   0.408   6.009  1.4745 -0.6407 -1.1631
 1183SOL     OW15181   4.318   1.276   8.837 -0.9630 -0.7152  0.5595
 1183SOL    HW115182   4.359   1.322   8.910 -1.6523  0.3509  0.2598
 1183SOL    HW215183   4.276   1.351   8.796 -0.1253 -0.7609 -0.3970
 1184SOL     OW15184   1.119   0.454   2.233 -0.1177 -0.1445  0.2800
 1184SOL    HW115185   1.150   0.488   2.317  2.1700 -0.1008 -0.5819
 1184SOL    HW215186   1.044   0.406   2.270 -1.6391  1.9216 -0.1283
 1185SOL     OW15187   1.605   0.053   2.190  0.2809 -0.4659 -0.4362
 1185SOL    HW115188   1.625   0.103   2.269 -1.0241 -0.1802 -0.2738
 1185SOL    HW215189   1.634   4.705   2.227  1.4547  0.8274  1.5565
 1186SOL     OW15190   2.634   1.189  16.254  0.4145  0.0900 -0.3549
 1186SOL    HW115191   2.705   1.249  16.275  1.1938 -1.6424  2.0566
 1186SOL    HW215192   2.614   1.227  16.169 -1.6089 -3.5288 -1.5051
 1187SOL     OW15193   0.145   1.817   2.193 -0.0953  0.2048  0.0485
 1187SOL    HW115194   0.099   1.880   2.248 -2.2874  0.6308 -2.2655
 1187SOL    HW215195   0.237   1.845   2.204 -0.8704  2.4609  0.8274
 1188SOL     OW15196   3.435   0.644   7.692 -0.3345 -0.3220  0.0435
 1188SOL    HW115197   3.519   0.667   7.730 -1.9328  0.7243  2.9310
 1188SOL    HW215198   3.460   0.560   7.654 -0.1017  0.3202 -1.2240
 1189SOL     OW15199   2.679   2.000   6.604 -0.4722 -0.7269  0.2618
 1189SOL    HW115200   2.622   2.068   6.640  0.9429  1.5662 -1.8125
 1189SOL    HW215201   2.659   2.025   6.514  0.0579 -2.0843 -0.2365
 1190SOL     OW15202   0.305   1.088  15.503 -1.0035  0.4242  0.4318
 1190SOL    HW115203   0.255   1.013  15.471  2.4017 -2.1520  1.0819
 1190SOL    HW215204   0.397   1.066  15.489 -0.3908  2.5888  1.0273
 1191SOL     OW15205   0.285   1.506   7.708  0.1456 -0.3278  0.2304
 1191SOL    HW115206   0.219   1.553   7.658  0.2794 -1.6102 -1.1413
 1191SOL    HW215207   0.306   1.567   7.779 -2.9182  0.9103  0.0621
 1192SOL     OW15208   1.399   2.011   7.269  0.4137  0.2034  0.6453
 1192SOL    HW115209   1.426   2.099   7.242 -2.3993  0.3254 -1.7676
 1192SOL    HW215210   1.486   1.973   7.282  0.6568 -0.4651 -2.7208
 1193SOL     OW15211   0.733   3.183  14.775  0.2130  0.4245  0.1446
 1193SOL    HW115212   0.709   3.203  14.865 -0.4684 -1.9915  0.4861
 1193SOL    HW215213   0.824   3.212  14.768 -0.4109  2.6516  1.0917
 1194SOL     OW15214   3.974   3.165   4.474 -0.5288 -0.1182 -0.3087
 1194SOL    HW115215   3.899   3.224   4.464 -0.3224 -0.1464 -2.0888
 1194SOL    HW215216   4.045   3.223   4.446 -0.3891  0.0013  0.3041
 1195SOL     OW15217   4.074   0.592   3.359  0.0897  0.6507  0.5268
 1195SOL    HW115218   4.164   0.607   3.328  0.1438 -0.0410  0.3531
 1195SOL    HW215219   4.056   0.517   3.302  2.3918 -1.4303  2.5293
 1196SOL     OW15220   1.061   2.387   1.626 -0.4730  0.1257  0.0654
 1196SOL    HW115221   1.131   2.325   1.647  0.5205  0.5535 -1.9589
 1196SOL    HW215222   1.111   2.467   1.606  0.4107 -0.4721 -0.1122
 1197SOL     OW15223   1.323   3.390  17.272 -0.1605 -0.4111  0.5329
 1197SOL    HW115224   1.262   3.420  17.205 -0.7815 -2.4694  0.1966
 1197SOL    HW215225   1.386   3.331  17.231 -0.8802 -0.1263 -0.9846
 1198SOL     OW15226   2.966   2.390  11.460  1.0103  0.1540  0.5817
 1198SOL    HW115227   2.916   2.416  11.537 -0.7446  1.7046 -1.1084
 1198SOL    HW215228   2.902   2.393  11.390  0.3553  2.0183  1.2729
 1199SOL     OW15229   3.500   0.262   6.446 -0.3007  0.2313 -0.4568
 1199SOL    HW115230   3.505   0.198   6.374 -1.8330 -0.0826 -0.2882
 1199SOL    HW215231   3.447   0.327   6.401 -0.8936  1.9100  2.6704
 1200SOL     OW15232   0.528   3.393   5.934 -0.0415 -0.1648 -0.0642
 1200SOL    HW115233   0.445   3.423   5.971  0.4428  1.7865 -0.5884
 1200SOL    HW215234   0.521   3.297   5.937  0.0670 -0.2290 -1.5552
 1201SOL     OW15235   1.868   0.524  15.020 -0.4102  0.2700  0.8738
 1201SOL    HW115236   1.793   0.475  14.985  0.7382  0.2035 -1.4606
 1201SOL    HW215237   1.824   0.592  15.071 -2.0249  0.5456 -0.8769
 1202SOL     OW15238   1.802   3.277  12.076 -0.7369  0.1440  0.0968
 1202SOL    HW115239   1.849   3.357  12.051  0.9019 -0.5765  0.9239
 1202SOL    HW215240   1.730   3.287  12.014 -0.9118 -0.3266  0.2276
 1203SOL     OW15241   2.544   0.452   5.368  0.2939 -0.5455  0.3566
 1203SOL    HW115242   2.591   0.514   5.311 -1.7347 -1.3284 -2.1398
 1203SOL    HW215243   2.453   0.455   5.341 -0.7313 -1.0295  3.7063
 1204SOL     OW15244   0.455   1.571   4.302 -0.1052  0.1221  0.4990
 1204SOL    HW115245   0.373   1.613   4.328  0.5849  2.2456 -0.7154
 1204SOL    HW215246   0.469   1.520   4.382  1.3810 -0.0001  0.1637
 1205SOL     OW15247   2.451   0.983  15.270 -0.6956 -0.4662 -0.3585
 1205SOL    HW115248   2.380   0.935  15.313 -0.8877 -1.5955 -1.9512
 1205SOL    HW215249   2.494   0.904  15.236 -0.9194  0.0072 -1.7160
 1206SOL     OW15250   0.767   1.030   0.567  0.0841  0.2469  0.5708
 1206SOL    HW115251   0.761   1.064   0.656 -0.0877  2.3869 -0.2571
 1206SOL    HW215252   0.713   0.950   0.567 -0.2150  0.4492 -1.4318
 1207SOL     OW15253   2.598   1.320  15.994  0.3687  0.9629  0.7307
 1207SOL    HW115254   2.526   1.274  15.950  0.3003  3.0280 -1.3340
 1207SOL    HW215255   2.659   1.345  15.924 -1.0629  1.9340 -0.1778
 1208SOL     OW15256   4.493   0.869   5.115  0.4562 -0.5671 -0.1330
 1208SOL    HW115257   4.415   0.823   5.083 -1.5834  2.0752  1.1131
 1208SOL    HW215258   4.549   0.877   5.038  0.2827  0.7636 -0.1117
 1209SOL     OW15259   4.511   4.096   1.507  0.0204  0.3295  0.1001
 1209SOL    HW115260   4.570   4.168   1.484 -0.3275  1.2800  2.1691
 1209SOL    HW215261   4.533   4.033   1.439 -0.9701 -1.6247  1.5840
 1210SOL     OW15262   4.506   4.271  11.019  0.2896  0.2783  0.0717
 1210SOL    HW115263   4.501   4.273  11.115  0.0680  1.1389  0.0375
 1210SOL    HW215264   4.599   4.290  11.003  0.0291  1.3786 -0.1383
 1211SOL     OW15265   3.146   2.641   3.740  0.8698  0.2397 -0.3195
 1211SOL    HW115266   3.196   2.642   3.822  2.1281 -1.0314 -1.0733
 1211SOL    HW215267   3.127   2.547   3.733  2.4733  0.0173 -1.7266
 1212SOL     OW15268   3.027   0.158   8.615  0.5880 -0.3222  0.0799
 1212SOL    HW115269   2.987   0.091   8.559 -1.2347  0.3701  0.5588
 1212SOL    HW215270   3.107   0.117   8.648  0.8703  0.3928  0.2833
 1213SOL     OW15271   2.946   1.384   8.026  0.0210  0.3268 -0.0563
 1213SOL    HW115272   2.893   1.306   8.035 -2.6627  2.1984  0.4230
 1213SOL    HW215273   2.924   1.413   7.937  3.0556 -1.9598 -1.5530
 1214SOL     OW15274   1.536   2.691   5.399 -0.2868 -0.0372 -0.4384
 1214SOL    HW115275   1.597   2.673   5.327 -0.1953 -1.3522 -0.0485
 1214SOL    HW215276   1.451   2.688   5.356 -0.1808 -2.3426 -0.5370
 1215SOL     OW15277   4.694   2.303  11.308  0.0021  0.0612 -0.2332
 1215SOL    HW115278   0.019   2.326  11.236 -1.4932 -1.7377 -2.0452
 1215SOL    HW215279   4.659   2.391  11.325 -0.3143  0.0549 -0.8653
 1216SOL     OW15280   0.895   3.083   6.476  0.2039  0.1437 -0.2206
 1216SOL    HW115281   0.962   3.148   6.455  1.3268 -0.4999  1.3124
 1216SOL    HW215282   0.933   3.009   6.430  0.6288 -0.4148  1.0141
 1217SOL     OW15283   3.045   3.075   5.768 -0.3812  0.3084 -0.3339
 1217SOL    HW115284   2.963   3.068   5.719 -1.3426  1.0666  1.1667
 1217SOL    HW215285   3.020   3.122   5.848 -0.3111  1.6233 -1.0816
 1218SOL     OW15286   3.514   3.352   6.327 -0.8852  0.4062 -0.3518
 1218SOL    HW115287   3.583   3.415   6.348 -0.2189  0.2503 -2.1612
 1218SOL    HW215288   3.448   3.388   6.387  0.2739 -1.2369  1.9149
 1219SOL     OW15289   4.556   1.275   4.846  0.0764  0.2106  0.2675
 1219SOL    HW115290   4.648   1.300   4.857  0.4168 -1.0973  0.5059
 1219SOL    HW215291   4.531   1.270   4.938 -1.4787 -0.0602 -0.1809
 1220SOL     OW15292   2.651   0.894   0.580 -0.2052 -0.0369  0.5423
 1220SOL    HW115293   2.632   0.965   0.641  0.1577  0.1980  0.3805
 1220SOL    HW215294   2.745   0.908   0.581 -0.0533 -1.0067 -0.6326
 1221SOL     OW15295   0.272   3.110  15.339 -0.0598 -0.4300 -0.6568
 1221SOL    HW115296   0.276   3.206  15.347 -2.3401 -0.5516  1.9750
 1221SOL    HW215297   0.185   3.092  15.305 -0.9161  0.9525  0.7826
 1222SOL     OW15298   1.726   3.702   6.831  0.3991  0.1167 -0.3634
 1222SOL    HW115299   1.721   3.729   6.923 -2.8947  0.2484 -0.5850
 1222SOL    HW215300   1.713   3.787   6.789 -0.6292  0.1028 -0.0823
 1223SOL     OW15301   4.464   4.248   9.593 -0.0012 -0.8343 -0.1614
 1223SOL    HW115302   4.527   4.215   9.529  0.6569 -3.4442  1.8222
 1223SOL    HW215303   4.514   4.218   9.670 -1.3779  0.9668  1.4029
 1224SOL     OW15304   3.277   4.697  15.489 -0.5018  0.8935 -0.3553
 1224SOL    HW115305   3.286   4.680  15.395 -1.3929 -0.5272 -0.1862
 1224SOL    HW215306   3.315   4.612  15.513 -0.1725  0.9922 -0.5251
 1225SOL     OW15307   0.319   3.731   0.195  0.2658 -0.2656 -0.1984
 1225SOL    HW115308   0.278   3.685   0.269  0.0738  0.5694  0.2166
 1225SOL    HW215309   0.336   3.817   0.234  0.9199 -0.1540 -0.7419
 1226SOL     OW15310   3.350   4.432   4.413  0.5930 -0.1283  0.0681
 1226SOL    HW115311   3.443   4.422   4.433  1.2222  3.5929 -1.0452
 1226SOL    HW215312   3.339   4.518   4.452  3.1409  1.3771 -2.5161
 1227SOL     OW15313   0.872   4.148   5.914  0.0451  0.5726 -0.0928
 1227SOL    HW115314   0.948   4.155   5.856 -0.8707 -0.4144 -1.4300
 1227SOL    HW215315   0.873   4.052   5.914  1.2040  0.6002  1.6169
 1228SOL     OW15316   3.641   4.311   6.384  0.0124 -0.0328  0.1989
 1228SOL    HW115317   3.728   4.286   6.417 -0.4314 -2.2433 -0.3472
 1228SOL    HW215318   3.665   4.374   6.316  1.9109 -2.0521 -0.9945
 1229SOL     OW15319   2.014   2.583  13.587  0.0810  0.4314 -0.1902
 1229SOL    HW115320   2.046   2.652  13.529  0.2134 -0.6568 -1.4203
 1229SOL    HW215321   1.961   2.525  13.532 -0.5956 -0.6529  1.6110
 1230SOL     OW15322   2.749   2.952   8.817 -0.3874 -0.0330  0.8179
 1230SOL    HW115323   2.734   2.909   8.733  0.4790  2.1040 -0.4169
 1230SOL    HW215324   2.782   3.037   8.788  1.7234 -2.2665 -3.3154
 1231SOL     OW15325   3.641   1.134   0.422  0.0170  0.5210 -0.0647
 1231SOL    HW115326   3.592   1.087   0.489  0.7113  0.2424  0.2487
 1231SOL    HW215327   3.575   1.141   0.353  0.8176 -0.3346 -0.9104
 1232SOL     OW15328   4.106   4.428   1.743  0.6057  0.1024 -0.2073
 1232SOL    HW115329   4.019   4.391   1.732  0.5677  0.3420 -0.7180
 1232SOL    HW215330   4.124   4.461   1.655 -0.4815  0.6657 -0.2194
 1233SOL     OW15331   4.211   3.063   3.670  0.1376 -0.2616  0.4053
 1233SOL    HW115332   4.117   3.058   3.653  0.3322 -2.2088 -0.1369
 1233SOL    HW215333   4.244   3.110   3.593 -0.0078 -2.2291 -0.8635
 1234SOL     OW15334   2.234   2.319   0.738  0.5895  0.4180  0.2844
 1234SOL    HW115335   2.250   2.283   0.650 -2.3791 -0.6639  0.1860
 1234SOL    HW215336   2.139   2.316   0.750  0.4816 -3.6332 -1.3385
 1235SOL     OW15337   2.193   4.412   5.515 -0.0982 -0.4261  0.5070
 1235SOL    HW115338   2.284   4.385   5.504 -0.4098 -0.9388 -0.8256
 1235SOL    HW215339   2.171   4.368   5.598  0.6808 -1.0319  0.3883
 1236SOL     OW15340   2.251   2.199   6.467  0.4920 -0.1873 -0.2465
 1236SOL    HW115341   2.251   2.294   6.480 -1.7396 -0.4415  1.4957
 1236SOL    HW215342   2.210   2.192   6.381 -1.2453 -0.0687  0.5773
 1237SOL     OW15343   2.327   0.388   1.251 -0.6610  0.8283 -0.4065
 1237SOL    HW115344   2.234   0.382   1.275 -1.1260 -0.0807 -2.4625
 1237SOL    HW215345   2.335   0.300   1.215 -2.6890  0.2928  0.4036
 1238SOL     OW15346   2.347   2.723   6.994  0.0349  0.4406  0.2276
 1238SOL    HW115347   2.252   2.719   6.978 -0.1357 -1.8324  1.6709
 1238SOL    HW215348   2.348   2.706   7.088  1.5070  0.1668  0.1613
 1239SOL     OW15349   3.273   4.158   2.792 -0.1240  0.1239 -0.0832
 1239SOL    HW115350   3.294   4.218   2.864  0.4969 -0.0319 -0.1343
 1239SOL    HW215351   3.351   4.162   2.737  0.2060  1.5863  0.5106
 1240SOL     OW15352   0.611   4.025  15.236  0.0386 -0.3457 -0.3856
 1240SOL    HW115353   0.691   4.026  15.288 -0.7112  0.0838  0.7652
 1240SOL    HW215354   0.544   4.027  15.304  0.2389 -0.5725 -0.1819
 1241SOL     OW15355   1.634   1.695   3.791  0.1717 -0.5892  0.5399
 1241SOL    HW115356   1.671   1.663   3.709  1.0929  2.2464 -0.1665
 1241SOL    HW215357   1.710   1.696   3.849  1.1371 -2.2450 -0.7083
 1242SOL     OW15358   4.184   0.876   6.914 -0.3058 -0.4312  0.4987
 1242SOL    HW115359   4.180   0.786   6.883 -0.4193 -1.1950  2.7408
 1242SOL    HW215360   4.231   0.922   6.844 -0.4299 -0.6741  0.2573
 1243SOL     OW15361   3.720   3.844  12.973  0.3508  0.4878 -0.4280
 1243SOL    HW115362   3.764   3.794  12.905 -2.5548 -2.1420 -0.3979
 1243SOL    HW215363   3.693   3.927  12.934  0.8151  1.6683  1.7504
 1244SOL     OW15364   0.223   2.777   8.821  0.8293  0.5296 -0.4315
 1244SOL    HW115365   0.256   2.775   8.911 -0.2513 -0.3110 -0.0551
 1244SOL    HW215366   0.170   2.698   8.811  0.8707  0.5355 -0.6833
 1245SOL     OW15367   4.285   1.637   5.122 -0.2486  0.1425  0.5609
 1245SOL    HW115368   4.249   1.572   5.062 -1.3786  1.5067 -0.2263
 1245SOL    HW215369   4.252   1.722   5.093  0.7291  0.4447  0.3574
 1246SOL     OW15370   3.860   3.363   1.899 -0.5662  0.2501 -0.9580
 1246SOL    HW115371   3.845   3.283   1.949 -1.4529  0.4635 -0.8776
 1246SOL    HW215372   3.952   3.386   1.912 -0.9416  0.0434  2.0531
 1247SOL     OW15373   0.860   3.746   8.540 -0.1310  0.0594  0.7653
 1247SOL    HW115374   0.852   3.734   8.635 -0.9558 -0.2543  0.6555
 1247SOL    HW215375   0.953   3.730   8.529  0.2793  2.1631  1.1615
 1248SOL     OW15376   1.250   2.963   4.579 -0.2176 -0.0211  0.4191
 1248SOL    HW115377   1.285   2.888   4.627 -1.8355 -1.1193 -0.1212
 1248SOL    HW215378   1.318   3.027   4.601  2.4500 -2.2818 -1.2687
 1249SOL     OW15379   0.352   2.871   0.337  0.5861 -0.3882 -0.6702
 1249SOL    HW115380   0.281   2.819   0.373  0.5105  0.8259  0.9597
 1249SOL    HW215381   0.319   2.895   0.251  0.4298  1.7178 -0.0235
 1250SOL     OW15382   1.821   2.429  11.292 -0.6649 -0.2943 -0.2650
 1250SOL    HW115383   1.802   2.415  11.200 -0.6611 -0.7200 -0.2025
 1250SOL    HW215384   1.861   2.516  11.296 -2.1856  0.3857  0.2205
 1251SOL     OW15385   2.815   1.570   7.569 -0.1030  0.6604  0.5034
 1251SOL    HW115386   2.801   1.624   7.646  0.8639  1.1364  0.3457
 1251SOL    HW215387   2.724   1.543   7.557 -0.3545  0.8113  2.0972
 1252SOL     OW15388   2.782   4.506   6.512 -1.0712 -0.1001  0.1410
 1252SOL    HW115389   2.835   4.525   6.435 -0.0720  2.0359  1.3593
 1252SOL    HW215390   2.748   4.419   6.491 -2.5468 -0.1711  2.7984
 1253SOL     OW15391   3.194   3.822   9.476 -0.3415 -0.7538 -0.3925
 1253SOL    HW115392   3.288   3.814   9.459  0.1132  0.3543  1.6009
 1253SOL    HW215393   3.155   3.741   9.441  1.0424 -2.7776  2.7044
 1254SOL     OW15394   1.048   0.558   8.389  0.5588 -0.1727 -0.0602
 1254SOL    HW115395   1.132   0.604   8.388  0.3915  0.1763  1.7646
 1254SOL    HW215396   0.989   0.628   8.362  2.0488  0.8801 -0.5681
 1255SOL     OW15397   2.133   2.919   6.359  0.7712  0.7776 -0.4321
 1255SOL    HW115398   2.082   2.845   6.392  1.2003 -0.0581 -1.6362
 1255SOL    HW215399   2.216   2.878   6.336  0.1011 -0.1007 -1.3326
 1256SOL     OW15400   2.680   0.261   7.683 -0.1885 -0.0485 -0.6164
 1256SOL    HW115401   2.763   0.213   7.690 -0.2257 -0.1146 -0.6270
 1256SOL    HW215402   2.703   0.350   7.709 -2.1315 -0.5257  2.8424
 1257SOL     OW15403   2.577   0.155   5.257  0.7342 -0.0510  0.3528
 1257SOL    HW115404   2.570   0.242   5.298 -3.4796 -0.8355  1.2786
 1257SOL    HW215405   2.582   0.098   5.334  0.6969 -2.6149 -1.5629
 1258SOL     OW15406   0.415   2.352   6.500  0.0173  0.3131 -0.1271
 1258SOL    HW115407   0.436   2.426   6.556  0.1816 -0.3789  0.7212
 1258SOL    HW215408   0.452   2.285   6.558 -2.5187  0.0863  1.2219
 1259SOL     OW15409   2.504   2.553   3.535  0.3074 -0.3421  0.0196
 1259SOL    HW115410   2.590   2.591   3.554  1.2464 -1.5140 -1.8483
 1259SOL    HW215411   2.510   2.584   3.444 -1.3562 -1.0909 -0.3403
 1260SOL     OW15412   3.552   2.186   1.055 -0.0113 -0.1740  0.2869
 1260SOL    HW115413   3.520   2.137   0.979  1.5907 -3.8503  2.0234
 1260SOL    HW215414   3.473   2.173   1.108 -0.4958  1.3464 -0.0599
 1261SOL     OW15415   1.506   2.657   1.439  0.1663  0.4046 -0.3274
 1261SOL    HW115416   1.563   2.581   1.443 -1.7355 -1.0304 -0.6621
 1261SOL    HW215417   1.555   2.715   1.381  2.2622 -1.3907 -0.3287
 1262SOL     OW15418   3.527   4.476   1.322  0.4933  0.2794  0.2377
 1262SOL    HW115419   3.564   4.490   1.235  0.3910  0.2463  0.1898
 1262SOL    HW215420   3.438   4.507   1.307  0.8777  2.2374  2.0143
 1263SOL     OW15421   1.772   4.450   4.938  0.3339  0.2004  0.0324
 1263SOL    HW115422   1.841   4.493   4.988 -0.5026  1.7937 -0.1767
 1263SOL    HW215423   1.819   4.424   4.858 -0.3540 -2.8248  0.6060
 1264SOL     OW15424   2.038   0.947   2.820  0.5674  0.4315 -0.5219
 1264SOL    HW115425   1.978   0.898   2.764  1.1122 -0.6824 -0.1514
 1264SOL    HW215426   1.984   0.950   2.899  0.0915 -2.1293 -0.7339
 1265SOL     OW15427   3.607   0.377  10.576  0.5283 -0.0680 -0.9363
 1265SOL    HW115428   3.576   0.351  10.663  0.0543  0.3978 -0.9621
 1265SOL    HW215429   3.607   0.472  10.584 -2.4673  0.0664 -2.2598
 1266SOL     OW15430   0.700   3.615   2.300  0.4018  0.6141  0.3873
 1266SOL    HW115431   0.752   3.535   2.313  2.0183  1.2080 -2.4412
 1266SOL    HW215432   0.662   3.639   2.384 -1.0133  1.1928 -0.4247
 1267SOL     OW15433   1.517   2.617  15.662  0.1756  0.3409  0.2769
 1267SOL    HW115434   1.546   2.689  15.605  0.4907  0.2486  0.3210
 1267SOL    HW215435   1.558   2.639  15.746 -0.3216 -0.4549  0.7246
 1268SOL     OW15436   2.324   0.682   4.553 -0.2736  0.1801  0.3345
 1268SOL    HW115437   2.407   0.722   4.524 -0.6530  0.6869 -0.0528
 1268SOL    HW215438   2.338   0.588   4.545  0.2479  0.2358  0.5860
 1269SOL     OW15439   0.089   2.596  12.580 -0.6449  0.1839  0.4326
 1269SOL    HW115440   0.116   2.555  12.662 -1.6559  2.5985  1.9694
 1269SOL    HW215441   0.092   2.517  12.526 -0.4376 -0.2021  1.0045
 1270SOL     OW15442   1.286   1.204   3.595 -0.4528  0.1183  0.3652
 1270SOL    HW115443   1.278   1.179   3.687 -2.3459  0.7401  0.3755
 1270SOL    HW215444   1.196   1.215   3.564 -1.0444 -0.2315  1.9882
 1271SOL     OW15445   2.957   2.439   6.604 -0.0044  0.6850 -0.4605
 1271SOL    HW115446   2.973   2.487   6.523 -0.7439  1.6456 -0.0335
 1271SOL    HW215447   3.037   2.454   6.655  0.0222  0.2631 -0.3778
 1272SOL     OW15448   3.186   4.111   4.620  0.4376 -0.2354 -0.1141
 1272SOL    HW115449   3.166   4.201   4.647 -2.3772 -1.7505  2.8478
 1272SOL    HW215450   3.193   4.122   4.525 -1.6513  1.6079 -0.0514
 1273SOL     OW15451   0.220   2.682   5.199 -0.4484  0.1609  0.0395
 1273SOL    HW115452   0.177   2.671   5.114 -2.2655  0.5870  0.8956
 1273SOL    HW215453   0.181   2.614   5.253  0.6759 -0.1056  0.4942
 1274SOL     OW15454   1.360   1.127   2.189  0.7121 -0.3092 -0.0954
 1274SOL    HW115455   1.304   1.102   2.116 -0.5925  0.0200  0.7885
 1274SOL    HW215456   1.439   1.154   2.143  0.5066 -1.0175 -0.8604
 1275SOL     OW15457   1.774   3.782   3.470 -0.1423  0.1693  0.0123
 1275SOL    HW115458   1.771   3.805   3.377 -3.0405 -1.3292 -0.2624
 1275SOL    HW215459   1.863   3.746   3.481 -0.4925 -0.7744 -0.1941
 1276SOL     OW15460   0.033   0.270   5.026  0.1680  0.1913  0.0868
 1276SOL    HW115461   0.002   0.257   4.936 -0.2513 -1.8781  0.5343
 1276SOL    HW215462   0.128   0.259   5.012 -0.4545 -2.8463 -1.8199
 1277SOL     OW15463   0.459   2.837   6.729  0.0290  0.3980  0.0053
 1277SOL    HW115464   0.546   2.818   6.764  0.5502 -1.4344 -2.2305
 1277SOL    HW215465   0.403   2.881   6.793  0.1727 -1.0434  1.1324
 1278SOL     OW15466   4.098   4.493   2.461 -0.0730  0.0953  0.0484
 1278SOL    HW115467   4.029   4.427   2.462  0.0631 -0.0430  0.1589
 1278SOL    HW215468   4.136   4.470   2.377  1.4230  0.3475  0.6554
 1279SOL     OW15469   0.240   0.869   3.162 -0.5475  0.1461  0.0028
 1279SOL    HW115470   0.213   0.879   3.071 -0.8388 -2.2336 -0.1847
 1279SOL    HW215471   0.181   0.794   3.174  0.3962 -0.7108 -0.6006
 1280SOL     OW15472   4.463   3.749   3.888  0.2153  0.0380  0.3487
 1280SOL    HW115473   4.538   3.809   3.879 -1.6956  2.2491 -0.8671
 1280SOL    HW215474   4.386   3.806   3.890 -2.1121 -3.0912 -1.3594
 1281SOL     OW15475   1.882   4.043   9.127 -0.6547  0.0948 -0.3539
 1281SOL    HW115476   1.900   4.133   9.155 -1.8652 -0.0373  0.8322
 1281SOL    HW215477   1.948   3.995   9.177 -1.9775 -0.8240  0.5031
 1282SOL     OW15478   0.530   4.088   7.029  0.3898  0.3220 -0.5537
 1282SOL    HW115479   0.554   4.082   7.121 -0.7706 -3.0139 -0.4639
 1282SOL    HW215480   0.587   4.025   6.985 -2.3001 -3.1940  0.9920
 1283SOL     OW15481   4.694   1.669   1.854  0.5283  0.1981 -0.3064
 1283SOL    HW115482   4.677   1.629   1.940 -0.1618  1.0549 -0.0465
 1283SOL    HW215483   4.701   1.588   1.804  0.8825 -0.6475  1.0909
 1284SOL     OW15484   3.670   2.696   6.363 -0.1908 -0.1240  0.3573
 1284SOL    HW115485   3.587   2.735   6.336  0.7066  1.8977  0.5461
 1284SOL    HW215486   3.723   2.774   6.349 -0.6761 -0.3202 -2.4898
 1285SOL     OW15487   2.629   1.939  17.042  0.3950 -0.6151  0.0698
 1285SOL    HW115488   2.669   1.951  17.128  2.8535 -1.1726 -1.0031
 1285SOL    HW215489   2.665   1.855  17.016  1.2300 -0.1286 -0.3529
 1286SOL     OW15490   2.020   0.816  17.224 -0.0919 -0.1633 -0.2421
 1286SOL    HW115491   1.963   0.880  17.266 -2.0780 -2.0357 -0.0748
 1286SOL    HW215492   1.989   0.819  17.133  0.2912 -0.2265 -0.3759
 1287SOL     OW15493   1.726   1.842   4.300  0.1001 -0.5523 -0.3094
 1287SOL    HW115494   1.710   1.832   4.394  2.3387 -1.2607  0.0072
 1287SOL    HW215495   1.805   1.790   4.283 -0.2630 -1.4910  0.8694
 1288SOL     OW15496   1.285   1.731   2.994  0.0593 -0.1595  0.0248
 1288SOL    HW115497   1.338   1.811   3.004  0.8792 -0.4978 -1.5693
 1288SOL    HW215498   1.342   1.690   2.929 -0.3474 -0.0650 -0.3865
 1289SOL     OW15499   0.961   4.547   8.632  0.3166  0.2960  0.2792
 1289SOL    HW115500   0.979   4.571   8.541 -1.2185  0.2659 -0.0239
 1289SOL    HW215501   1.030   4.582   8.689  0.8130  1.9444 -1.3361
 1290SOL     OW15502   2.607   0.637   4.256 -0.7799 -0.0781  0.1343
 1290SOL    HW115503   2.687   0.674   4.291 -1.2167  0.7830  0.2149
 1290SOL    HW215504   2.602   0.555   4.306  1.5348  0.4863  1.2546
 1291SOL     OW15505   2.841   4.233  10.810 -0.1243  0.3539  0.5278
 1291SOL    HW115506   2.749   4.259  10.814 -0.2898 -0.5353  2.6194
 1291SOL    HW215507   2.881   4.307  10.857  2.5986 -0.8438  0.0858
 1292SOL     OW15508   0.730   2.661   6.450 -0.0928 -0.1708  0.4140
 1292SOL    HW115509   0.760   2.734   6.504  0.4799  0.7962 -1.1929
 1292SOL    HW215510   0.805   2.602   6.452 -0.2414 -0.2730  3.2697
 1293SOL     OW15511   2.879   2.331   8.216 -0.0550  0.5862 -0.2964
 1293SOL    HW115512   2.944   2.271   8.181 -2.7244 -1.9577 -0.8298
 1293SOL    HW215513   2.831   2.269   8.271  1.2548  0.7420  1.0330
 1294SOL     OW15514   0.087   3.699   5.816  0.7224 -0.3408 -1.0689
 1294SOL    HW115515   0.055   3.769   5.759  0.6623  0.7934  0.3484
 1294SOL    HW215516   0.175   3.688   5.781  2.5127  2.0908  2.6935
 1295SOL     OW15517   0.393   0.115  10.382  0.0774 -0.2643  0.1752
 1295SOL    HW115518   0.386   0.098  10.288  0.0963 -1.0335  0.3103
 1295SOL    HW215519   0.305   0.087  10.408 -0.2312  1.1319  0.6117
 1296SOL     OW15520   2.811   1.041   3.467  1.0782 -0.4611  0.0737
 1296SOL    HW115521   2.804   0.954   3.427 -0.2358 -0.7876  1.0148
 1296SOL    HW215522   2.893   1.019   3.510  1.1238 -1.0633 -0.3277
 1297SOL     OW15523   1.770   1.040   0.491  0.2594 -0.1298  0.0864
 1297SOL    HW115524   1.766   1.098   0.567 -1.7809 -1.7945  1.2507
 1297SOL    HW215525   1.774   1.108   0.424  2.3500 -0.0480  0.2977
 1298SOL     OW15526   0.678   1.935   7.202  0.2815  0.5069 -0.5969
 1298SOL    HW115527   0.731   2.014   7.214  3.0759 -1.5807  0.7107
 1298SOL    HW215528   0.670   1.907   7.293  1.6446 -1.8197 -1.2089
 1299SOL     OW15529   2.994   3.562   7.298 -0.2061 -0.3446 -0.1541
 1299SOL    HW115530   2.928   3.605   7.244  0.4813  0.5341 -0.3005
 1299SOL    HW215531   3.058   3.537   7.232 -2.1003  1.0789 -2.5410
 1300SOL     OW15532   4.382   2.934  10.712  0.1838  0.1812  0.0924
 1300SOL    HW115533   4.397   2.962  10.802 -3.9685 -1.0251  1.1565
 1300SOL    HW215534   4.345   3.012  10.670 -1.0931  0.0071  0.8910
 1301SOL     OW15535   0.248   2.608   9.812 -0.0485 -0.2735  0.8303
 1301SOL    HW115536   0.234   2.556   9.733  1.7751 -0.6349  0.7590
 1301SOL    HW215537   0.342   2.613   9.828  0.3512 -0.9724 -1.3142
 1302SOL     OW15538   3.431   4.732   7.814  0.6114  0.1094 -0.0203
 1302SOL    HW115539   3.429   4.639   7.835  1.3254  0.2582  0.6843
 1302SOL    HW215540   3.377   4.725   7.735  0.6508 -1.0275  0.0561
 1303SOL     OW15541   2.526   0.109  15.882  0.4728  0.0467  0.2193
 1303SOL    HW115542   2.490   0.142  15.964 -1.3883 -2.7173  0.5401
 1303SOL    HW215543   2.618   0.091  15.898  0.7507  0.2458 -1.1126
 1304SOL     OW15544   4.688   0.766  11.640 -0.1011 -0.2671  0.3211
 1304SOL    HW115545   4.699   0.855  11.675 -0.0186  0.0292 -0.4682
 1304SOL    HW215546   4.593   0.769  11.628  0.0107  1.9132 -0.0968
 1305SOL     OW15547   2.973   1.556   9.234  0.0165  0.7554  0.0458
 1305SOL    HW115548   3.037   1.512   9.291 -0.6546 -1.3996 -0.8742
 1305SOL    HW215549   2.930   1.623   9.287 -1.1832 -0.1082  0.1672
 1306SOL     OW15550   1.340   1.327   7.964  0.3540  0.1289  0.4859
 1306SOL    HW115551   1.394   1.389   8.012 -0.2731  0.6153  0.5603
 1306SOL    HW215552   1.341   1.372   7.879  0.0205  2.4573  1.7233
 1307SOL     OW15553   0.084   2.658   2.942  0.9405  0.3702  0.0500
 1307SOL    HW115554   0.099   2.627   2.852  0.5410  1.8908 -0.5364
 1307SOL    HW215555   0.153   2.722   2.959  0.6955  0.9333 -1.0440
 1308SOL     OW15556   3.846   3.641   2.001  0.2818 -0.1106 -0.3177
 1308SOL    HW115557   3.765   3.591   1.989 -0.3762  1.0910 -0.8369
 1308SOL    HW215558   3.906   3.567   1.998 -0.4642 -0.7795  1.0780
 1309SOL     OW15559   3.413   3.021   2.967 -0.1406  0.1274  0.5710
 1309SOL    HW115560   3.409   3.117   2.975  0.1258  0.4139 -2.7648
 1309SOL    HW215561   3.478   2.996   3.032  0.1484  0.0550  0.2584
 1310SOL     OW15562   3.442   0.511  11.011 -0.0539  0.5708 -0.2490
 1310SOL    HW115563   3.534   0.510  11.038  0.7189  4.6876 -2.6528
 1310SOL    HW215564   3.450   0.440  10.948 -1.9405 -1.7766  2.1746
 1311SOL     OW15565   2.718   0.219   5.027  0.8678 -0.4917 -0.1552
 1311SOL    HW115566   2.668   0.181   5.100  2.2147 -1.0719  0.4694
 1311SOL    HW215567   2.787   0.153   5.027  3.2223  2.0327 -2.2731
 1312SOL     OW15568   4.576   3.571   1.398 -0.0330  0.0709 -0.0573
 1312SOL    HW115569   4.511   3.640   1.414  2.1520  2.4448 -1.3424
 1312SOL    HW215570   4.614   3.610   1.320  0.0503  0.7875  0.3356
 1313SOL     OW15571   0.495   4.571   1.032 -0.4806 -0.0596  0.0069
 1313SOL    HW115572   0.403   4.547   1.045 -0.2388 -1.3914 -0.6885
 1313SOL    HW215573   0.539   4.486   1.030 -0.7435 -0.1624 -1.2525
 1314SOL     OW15574   4.157   4.057   4.939 -0.5144  0.0997  0.1183
 1314SOL    HW115575   4.229   4.098   4.893  0.0079  0.5799  1.3701
 1314SOL    HW215576   4.155   4.119   5.013 -1.1873  0.6089 -0.3294
 1315SOL     OW15577   2.895   1.409  16.030  0.1175  0.6657 -0.5815
 1315SOL    HW115578   2.879   1.318  16.006 -2.3298  0.6878  0.8850
 1315SOL    HW215579   2.895   1.464  15.951  1.7050  1.0731 -0.2982
 1316SOL     OW15580   4.477   3.304   8.912 -0.4021  0.0981 -0.0956
 1316SOL    HW115581   4.533   3.331   8.985  0.1737 -0.3892 -0.3598
 1316SOL    HW215582   4.532   3.229   8.888  0.9586  0.9892  0.2679
 1317SOL     OW15583   4.379   4.440   6.270  0.3068  0.0652  0.4755
 1317SOL    HW115584   4.432   4.512   6.302  0.4707  0.0388  0.2662
 1317SOL    HW215585   4.412   4.368   6.324  0.2317 -0.1091  0.2898
 1318SOL     OW15586   2.690   0.429   2.636 -0.3246 -0.1810 -0.3257
 1318SOL    HW115587   2.616   0.452   2.580 -0.8092 -2.2138 -0.4908
 1318SOL    HW215588   2.659   0.369   2.703  1.4134  1.4331  1.9200
 1319SOL     OW15589   0.035   2.329   8.878  0.5091  0.6003  0.1616
 1319SOL    HW115590   4.731   2.330   8.965  1.9926  2.6012  0.8122
 1319SOL    HW215591   0.098   2.258   8.891 -1.3403 -1.2380 -0.8316
 1320SOL     OW15592   3.042   3.537  14.441 -0.1201  0.1608 -0.1251
 1320SOL    HW115593   3.029   3.526  14.347  1.8895 -2.0599 -0.1163
 1320SOL    HW215594   3.009   3.453  14.473 -0.6593 -0.0376 -1.1933
 1321SOL     OW15595   3.255   4.375   5.531 -0.3600 -0.4977 -0.2505
 1321SOL    HW115596   3.229   4.392   5.621  0.3416 -2.5727  0.3554
 1321SOL    HW215597   3.193   4.430   5.483 -0.5834  0.1198  0.7575
 1322SOL     OW15598   2.590   2.243   8.090 -0.1869  0.2229  0.0400
 1322SOL    HW115599   2.658   2.203   8.143 -0.2376  1.2745  0.9089
 1322SOL    HW215600   2.589   2.328   8.134 -2.6583  0.1084  0.2123
 1323SOL     OW15601   0.124   4.584   1.512 -0.5764 -0.4239 -0.1358
 1323SOL    HW115602   0.046   4.531   1.526 -0.9243  0.2478  0.4579
 1323SOL    HW215603   0.107   4.655   1.574 -2.3872 -0.8588 -0.1237
 1324SOL     OW15604   1.858   0.555   4.605  0.1851  0.1665  0.5287
 1324SOL    HW115605   1.837   0.569   4.513  0.5202 -0.9274  0.2806
 1324SOL    HW215606   1.926   0.621   4.618  0.7737 -0.9900  3.3236
 1325SOL     OW15607   2.401   0.290   8.565  0.6345  0.2070 -0.0720
 1325SOL    HW115608   2.483   0.339   8.565 -1.3891  3.6665  1.3145
 1325SOL    HW215609   2.412   0.220   8.629 -0.4876 -0.4550 -0.5874
 1326SOL     OW15610   0.466   2.894   7.653  0.1815 -0.4825  0.0960
 1326SOL    HW115611   0.517   2.836   7.709  1.0569 -1.2523 -1.5062
 1326SOL    HW215612   0.520   2.969   7.678 -0.2259  0.2103 -1.0957
 1327SOL     OW15613   1.274   2.611   4.319  0.4374 -0.5388  0.2336
 1327SOL    HW115614   1.259   2.615   4.414  1.9570 -0.5746  0.4661
 1327SOL    HW215615   1.184   2.604   4.286  1.0278 -1.6278 -1.0987
 1328SOL     OW15616   2.142   1.497   4.365  0.1511 -0.4678  0.5597
 1328SOL    HW115617   2.153   1.542   4.448 -1.7286  2.3687 -0.6898
 1328SOL    HW215618   2.233   1.477   4.343 -0.3828 -0.7785 -1.3954
 1329SOL     OW15619   2.481   2.607   7.451 -0.1471  0.2391  0.0824
 1329SOL    HW115620   2.516   2.648   7.530 -0.5388  0.9262 -0.1008
 1329SOL    HW215621   2.443   2.683   7.407 -0.5796 -0.9365 -1.6188
 1330SOL     OW15622   1.997   2.661  14.216  0.3241 -0.4539  0.0519
 1330SOL    HW115623   1.930   2.676  14.149 -0.3185  0.7930  0.9780
 1330SOL    HW215624   2.001   2.565  14.209  0.5251 -0.7043  3.5767
 1331SOL     OW15625   3.837   4.141   8.412 -0.2283  0.3148 -0.1047
 1331SOL    HW115626   3.924   4.114   8.441 -0.9508 -1.7917  0.0700
 1331SOL    HW215627   3.845   4.236   8.412 -0.2710  0.3186  0.0127
 1332SOL     OW15628   3.936   0.738   9.164  0.0628  0.7855  0.0478
 1332SOL    HW115629   3.987   0.658   9.147 -1.7651 -0.3938  0.1091
 1332SOL    HW215630   3.980   0.771   9.243 -0.5019  0.6961  0.4008
 1333SOL     OW15631   3.778   2.403   1.912 -0.1885 -0.6537  0.2006
 1333SOL    HW115632   3.866   2.398   1.876  0.3718 -0.7281  1.5679
 1333SOL    HW215633   3.767   2.495   1.889  0.1383 -1.6256 -3.7230
 1334SOL     OW15634   3.915   2.297  11.435  0.1063  0.0541 -1.1241
 1334SOL    HW115635   3.848   2.289  11.368  1.4280 -0.9451 -2.3244
 1334SOL    HW215636   3.938   2.205  11.447 -0.4172  0.1110  0.3509
 1335SOL     OW15637   2.370   1.498  17.040  0.2761  0.1295  0.4228
 1335SOL    HW115638   2.441   1.556  17.011 -1.1153  1.7787  0.3446
 1335SOL    HW215639   2.331   1.544  17.114  3.3819  2.9767  0.2808
 1336SOL     OW15640   2.168   3.602   0.863 -0.2601 -0.7333 -0.3713
 1336SOL    HW115641   2.156   3.587   0.769 -2.3218 -0.5352 -0.1522
 1336SOL    HW215642   2.224   3.680   0.867  0.0337 -0.9341 -0.5677
 1337SOL     OW15643   1.759   3.689   5.479 -0.3259  0.0160 -0.1874
 1337SOL    HW115644   1.752   3.650   5.391 -1.6262 -2.1540  0.8838
 1337SOL    HW215645   1.696   3.760   5.471 -1.9855 -1.4095 -0.0006
 1338SOL     OW15646   2.717   1.037   1.898 -0.2948  0.0519 -0.1608
 1338SOL    HW115647   2.731   1.037   1.803 -1.7921 -0.9129 -0.3741
 1338SOL    HW215648   2.699   0.944   1.913  0.2676 -0.2886 -1.5859
 1339SOL     OW15649   2.800   4.366   2.919  0.2046  0.1110 -0.3029
 1339SOL    HW115650   2.849   4.302   2.866  0.1597  1.0782 -1.5073
 1339SOL    HW215651   2.857   4.441   2.900  0.3178  0.3357  0.9158
 1340SOL     OW15652   4.658   3.263  12.665 -0.0465 -0.3165 -0.3663
 1340SOL    HW115653   4.612   3.205  12.725  1.9871  0.2500  1.7401
 1340SOL    HW215654   4.681   3.333  12.726 -0.5208  0.8196 -1.4653
 1341SOL     OW15655   1.740   3.799   2.658  0.5734  0.1257  0.3114
 1341SOL    HW115656   1.675   3.847   2.710 -1.8576 -0.2946 -2.3368
 1341SOL    HW215657   1.694   3.754   2.587  0.1616  0.7082  0.2128
 1342SOL     OW15658   0.723   2.357   9.527 -0.5330 -0.4883 -0.5253
 1342SOL    HW115659   0.760   2.293   9.466  1.6924 -0.8587  1.2434
 1342SOL    HW215660   0.800   2.414   9.534  0.4457 -1.9410  0.4230
 1343SOL     OW15661   1.081   1.328   4.904  0.0847  0.0029 -0.4042
 1343SOL    HW115662   1.066   1.247   4.953 -1.3945 -1.1998 -2.8365
 1343SOL    HW215663   0.991   1.348   4.879 -0.0115 -1.7090 -1.4192
 1344SOL     OW15664   0.785   1.046   5.622 -0.4763 -0.2511 -0.2446
 1344SOL    HW115665   0.791   0.953   5.644 -0.3770 -0.2460 -0.2534
 1344SOL    HW215666   0.744   1.074   5.704  0.7121 -1.6940  0.8326
 1345SOL     OW15667   2.581   0.183   4.801  0.3584 -0.3185  0.4570
 1345SOL    HW115668   2.622   0.170   4.887  1.3194  1.7602  0.3318
 1345SOL    HW215669   2.648   0.133   4.754 -0.2595 -1.3816  0.7253
 1346SOL     OW15670   2.729   4.664   9.385 -0.5087 -0.0874 -0.4959
 1346SOL    HW115671   2.655   4.615   9.422 -1.0987  0.6003 -0.7409
 1346SOL    HW215672   2.703   0.022   9.389 -2.4599 -0.5975 -1.1433
 1347SOL     OW15673   1.912   1.134  15.169  0.3221  0.2223  0.7855
 1347SOL    HW115674   1.875   1.169  15.088  1.1403 -0.3922  0.1333
 1347SOL    HW215675   1.958   1.055  15.138  1.8224  0.6907  1.8276
 1348SOL     OW15676   2.592   2.702  15.398  0.1755  0.2028  0.1227
 1348SOL    HW115677   2.592   2.607  15.405 -2.4108  0.1199 -1.0189
 1348SOL    HW215678   2.545   2.728  15.319 -0.0118 -1.0651 -0.1806
 1349SOL     OW15679   2.297   1.275   2.895 -0.2300  0.3492 -0.0062
 1349SOL    HW115680   2.382   1.234   2.905  0.5858  1.4899 -2.2656
 1349SOL    HW215681   2.304   1.327   2.975 -0.1219  0.0447  0.1836
 1350SOL     OW15682   3.205   0.767   8.746  1.0905  0.4535  0.3289
 1350SOL    HW115683   3.137   0.701   8.736 -0.1935  1.9723 -0.8585
 1350SOL    HW215684   3.269   0.735   8.682 -1.1858 -1.0750 -1.1659
 1351SOL     OW15685   4.132   1.165  10.921 -0.3869 -0.2800  0.3326
 1351SOL    HW115686   4.204   1.119  10.963  1.7335  2.5496 -0.1728
 1351SOL    HW215687   4.130   1.238  10.984  0.2246 -0.2432  0.3056
 1352SOL     OW15688   2.217   0.401   0.026 -0.0807 -0.2870  0.0235
 1352SOL    HW115689   2.274   0.392  17.689  0.8055 -1.8459  0.8858
 1352SOL    HW215690   2.138   0.365  17.723 -0.4594  0.6446 -0.0720
 1353SOL     OW15691   0.073   3.200   0.939 -0.6405  0.1996 -0.0453
 1353SOL    HW115692   0.028   3.262   0.996 -1.3612 -0.0919 -0.3062
 1353SOL    HW215693   0.163   3.232   0.926 -0.9663  1.1047 -0.0604
 1354SOL     OW15694   4.594   4.284   2.014 -0.1930 -0.0414 -0.0159
 1354SOL    HW115695   4.680   4.252   2.043 -0.0692 -1.4243 -1.8974
 1354SOL    HW215696   4.553   4.198   2.016  1.2332 -0.7076  0.4570
 1355SOL     OW15697   1.222   0.104   4.923 -0.0300 -0.4659 -0.1797
 1355SOL    HW115698   1.297   0.154   4.891  1.0298 -1.1435  1.2231
 1355SOL    HW215699   1.189   0.159   4.994  0.9870  0.5902 -0.5328
 1356SOL     OW15700   2.893   0.312   2.416  0.1699 -0.3462 -0.0033
 1356SOL    HW115701   2.867   0.238   2.471 -1.6917 -0.4329 -0.9769
 1356SOL    HW215702   2.833   0.311   2.342 -1.7320  2.6192  1.4747
 1357SOL     OW15703   2.640   0.656   3.765  0.4112 -0.1947 -0.8896
 1357SOL    HW115704   2.627   0.729   3.825 -0.3811 -1.5632  0.5866
 1357SOL    HW215705   2.735   0.640   3.768  0.3773  0.1181  1.6049
 1358SOL     OW15706   4.612   3.250   7.919 -0.1312  0.0228 -0.1108
 1358SOL    HW115707   4.627   3.235   8.013 -0.6531 -1.8024 -0.3113
 1358SOL    HW215708   4.525   3.289   7.927 -0.3544 -0.6892  1.0487
 1359SOL     OW15709   3.667   1.423   8.999  0.4870 -0.2243  0.0771
 1359SOL    HW115710   3.729   1.495   9.015  0.0190  0.1224  0.3334
 1359SOL    HW215711   3.729   1.351   9.011  1.5265  0.5165 -0.8584
 1360SOL     OW15712   4.159   3.673   8.314 -0.7003 -0.4354  0.4316
 1360SOL    HW115713   4.198   3.654   8.229 -1.3493  0.4421 -0.0660
 1360SOL    HW215714   4.065   3.657   8.307 -0.9627  1.3869 -0.1930
 1361SOL     OW15715   2.427   1.212   6.758 -0.1580 -0.2616  0.6353
 1361SOL    HW115716   2.486   1.156   6.707  0.9075  2.5017 -1.1844
 1361SOL    HW215717   2.483   1.237   6.831  0.9337 -1.0876  0.0798
 1362SOL     OW15718   4.320   0.720   3.883  0.0993 -0.0086 -0.3565
 1362SOL    HW115719   4.262   0.774   3.936 -0.8737  0.5686 -2.0148
 1362SOL    HW215720   4.318   0.640   3.935  1.3202 -1.3833 -2.4544
 1363SOL     OW15721   1.418   0.494  15.585 -0.3295 -0.1059 -0.1387
 1363SOL    HW115722   1.322   0.489  15.589 -0.1178 -1.2498  3.0064
 1363SOL    HW215723   1.435   0.531  15.498 -1.2689  2.6235  0.8459
 1364SOL     OW15724   4.167   0.609   7.778 -0.3237 -0.2988 -0.0787
 1364SOL    HW115725   4.172   0.513   7.776 -1.8314 -0.3609 -1.2209
 1364SOL    HW215726   4.107   0.619   7.704 -0.1262  1.1683 -0.0392
 1365SOL     OW15727   3.694   2.192   9.280 -0.5653  0.1405  0.1417
 1365SOL    HW115728   3.670   2.112   9.233 -0.2508  1.1831 -1.7923
 1365SOL    HW215729   3.615   2.235   9.314  0.6920  0.8084  2.2393
 1366SOL     OW15730   3.759   2.678   1.582 -0.0759  0.2826  0.0670
 1366SOL    HW115731   3.815   2.638   1.515 -0.5268  1.9965 -1.3498
 1366SOL    HW215732   3.740   2.763   1.541 -1.6174  0.3903  1.0012
 1367SOL     OW15733   4.051   3.260   7.717 -1.0834 -0.1770  0.3900
 1367SOL    HW115734   4.098   3.242   7.635 -1.6745 -2.2411  0.4943
 1367SOL    HW215735   4.077   3.190   7.777 -3.4315 -0.4571  1.0813
 1368SOL     OW15736   3.144   1.979   8.450 -0.2527 -0.0504  0.5708
 1368SOL    HW115737   3.073   2.005   8.508 -1.4524 -1.3593 -0.3147
 1368SOL    HW215738   3.150   1.883   8.446  1.6504  0.1626 -1.7665
 1369SOL     OW15739   0.444   4.001   8.865  0.0497  0.0724 -0.1526
 1369SOL    HW115740   0.444   3.909   8.890 -0.1429  0.6230  1.8133
 1369SOL    HW215741   0.488   3.998   8.780 -1.2500  2.0614 -0.9032
 1370SOL     OW15742   0.389   4.443  12.559 -0.2354 -0.4216 -0.2532
 1370SOL    HW115743   0.401   4.538  12.556  2.1867 -0.6987  1.1810
 1370SOL    HW215744   0.294   4.435  12.553 -0.5343  1.1849  2.3760
 1371SOL     OW15745   0.255   0.775   1.312 -0.1873 -0.0948 -0.2852
 1371SOL    HW115746   0.323   0.760   1.246  3.1397  1.1986  2.8957
 1371SOL    HW215747   0.216   0.858   1.286 -2.5642 -0.2825  2.6249
 1372SOL     OW15748   1.592   2.007  11.299  0.7367 -0.4526  0.1571
 1372SOL    HW115749   1.631   2.048  11.377  1.5394 -0.7406 -0.1000
 1372SOL    HW215750   1.638   2.068  11.242  1.3291 -1.6803 -0.6577
 1373SOL     OW15751   3.998   1.274   3.448 -0.3258 -0.2518 -0.2707
 1373SOL    HW115752   4.053   1.307   3.377 -0.4626 -2.0872 -1.2303
 1373SOL    HW215753   4.063   1.254   3.515  0.3479  1.7016 -0.3379
 1374SOL     OW15754   3.934   0.949  14.755 -0.0356 -0.0481  0.4181
 1374SOL    HW115755   4.002   0.882  14.759 -0.5044 -0.5200  0.5722
 1374SOL    HW215756   3.909   0.959  14.663 -3.3910  1.6635  1.5178
 1375SOL     OW15757   2.344   0.136   3.693  0.4188  0.4546 -0.1515
 1375SOL    HW115758   2.338   0.054   3.742  0.2255  0.3841 -0.2916
 1375SOL    HW215759   2.340   0.197   3.767 -0.2426 -0.9940  1.0176
 1376SOL     OW15760   2.127   4.636  10.610 -0.2888  0.0717  0.0688
 1376SOL    HW115761   2.200   4.661  10.554  0.2187 -2.9210 -0.6098
 1376SOL    HW215762   2.052   4.651  10.552  0.4684 -2.0777 -1.4638
 1377SOL     OW15763   2.664   3.591   7.343  0.2884 -0.7832 -0.4358
 1377SOL    HW115764   2.631   3.518   7.289  0.6731  1.4896 -3.7481
 1377SOL    HW215765   2.614   3.660   7.300 -0.9205 -0.3841  1.6009
 1378SOL     OW15766   0.830   0.685  13.372 -0.1608  0.0735  0.1906
 1378SOL    HW115767   0.843   0.669  13.466  0.6004 -2.2109 -0.2986
 1378SOL    HW215768   0.834   0.598  13.331 -1.1790  0.0106  0.2031
 1379SOL     OW15769   4.116   0.070   7.315  0.2211  0.5466  0.7483
 1379SOL    HW115770   4.023   0.090   7.300  0.7587  0.0081 -3.1202
 1379SOL    HW215771   4.161   0.153   7.302 -0.1360  0.3387 -1.7800
 1380SOL     OW15772   1.308   0.241   7.772  1.0683  0.0640 -0.4746
 1380SOL    HW115773   1.274   0.181   7.706 -0.7079  1.3093 -0.6676
 1380SOL    HW215774   1.383   0.282   7.730 -0.4323  0.6726 -2.5216
 1381SOL     OW15775   3.299   3.482  11.129  0.0682  0.0929  0.1797
 1381SOL    HW115776   3.283   3.540  11.054 -0.6553  1.0750  1.1027
 1381SOL    HW215777   3.388   3.510  11.149  0.1047  0.3005 -0.2710
 1382SOL     OW15778   4.628   1.783  16.352  0.1781 -0.0930 -0.2729
 1382SOL    HW115779   4.681   1.773  16.431  0.2572 -0.7309 -0.4050
 1382SOL    HW215780   4.569   1.841  16.400 -0.8749 -1.2977 -0.1195
 1383SOL     OW15781   1.723   0.958   9.214 -0.5427 -0.2108  0.3994
 1383SOL    HW115782   1.661   0.944   9.286 -0.7417  1.7338  0.6219
 1383SOL    HW215783   1.659   0.989   9.151  0.6071 -0.1775 -0.7606
 1384SOL     OW15784   1.925   1.812   3.647 -0.4245 -0.2909 -0.3238
 1384SOL    HW115785   1.963   1.733   3.687  0.0721  1.3110  2.3593
 1384SOL    HW215786   1.979   1.814   3.568  2.1350 -2.0297  1.3603
 1385SOL     OW15787   4.439   2.655   3.376  0.8169  0.6934  0.2205
 1385SOL    HW115788   4.455   2.749   3.384  1.1014  0.4938  2.0662
 1385SOL    HW215789   4.429   2.634   3.469  0.3362 -0.1550 -0.0212
 1386SOL     OW15790   4.452   0.229  15.446  0.3022  0.6136  0.2424
 1386SOL    HW115791   4.388   0.218  15.376 -0.8803 -1.0782  1.5694
 1386SOL    HW215792   4.517   0.159  15.439 -1.7485 -0.9954 -2.7254
 1387SOL     OW15793   0.059   4.205  10.319  0.2116  0.2257 -0.1233
 1387SOL    HW115794   0.148   4.175  10.337  0.0725 -0.2816 -0.2727
 1387SOL    HW215795   0.032   4.124  10.276 -0.2479 -0.1400  0.8499
 1388SOL     OW15796   0.872   1.375   2.952  0.2290  0.2713  0.3142
 1388SOL    HW115797   0.885   1.317   2.876  4.0486 -1.2519  2.1433
 1388SOL    HW215798   0.938   1.443   2.937  0.8091 -0.6217 -1.2212
 1389SOL     OW15799   0.313   3.762  16.951 -0.4754  0.1142 -0.4052
 1389SOL    HW115800   0.297   3.738  17.042 -1.8659 -4.4694 -1.8551
 1389SOL    HW215801   0.406   3.744  16.944 -0.4330  0.4533 -0.7508
 1390SOL     OW15802   0.943   0.021   2.676  0.1376 -0.4604  0.0131
 1390SOL    HW115803   0.998   0.027   2.597  0.0625 -2.1955 -0.1776
 1390SOL    HW215804   0.982   0.077   2.742 -0.6157 -1.1453  1.0391
 1391SOL     OW15805   4.265   0.550   4.104  0.6414 -0.4262  0.3069
 1391SOL    HW115806   4.287   0.457   4.102  2.7382  0.0510  0.9561
 1391SOL    HW215807   4.171   0.546   4.085  0.3783  1.2491  1.2215
 1392SOL     OW15808   0.489   0.511   0.454  0.5641 -0.0308  0.2545
 1392SOL    HW115809   0.549   0.533   0.525  0.4218  3.3358 -0.6401
 1392SOL    HW215810   0.548   0.476   0.388 -0.0217 -0.6882  0.0832
 1393SOL     OW15811   1.247   4.330  11.010 -0.4442  0.5055  0.2399
 1393SOL    HW115812   1.288   4.311  10.926  0.0843 -2.1334  1.0981
 1393SOL    HW215813   1.313   4.387  11.050 -2.5984  0.9847  3.1165
 1394SOL     OW15814   2.345   1.938   3.451  0.7169  0.5777 -0.4846
 1394SOL    HW115815   2.313   1.956   3.363 -0.0715  0.1692 -0.2815
 1394SOL    HW215816   2.434   1.910   3.429  0.8074 -0.2586  0.9382
 1395SOL     OW15817   1.925   2.829  12.057 -0.3826 -0.3777  0.4336
 1395SOL    HW115818   1.834   2.843  12.083 -0.3001 -0.3124  0.6955
 1395SOL    HW215819   1.972   2.907  12.087  1.1878 -1.0847 -0.1991
 1396SOL     OW15820   2.131   0.665   2.553  0.2011  0.1953  0.1266
 1396SOL    HW115821   2.155   0.739   2.497 -0.2702 -0.6022 -1.1340
 1396SOL    HW215822   2.210   0.642   2.602  0.2959 -2.0400 -1.0633
 1397SOL     OW15823   2.093   3.364   5.272  0.3014 -0.2011  0.3349
 1397SOL    HW115824   2.069   3.431   5.208  2.9220 -1.1170 -1.6287
 1397SOL    HW215825   2.098   3.403   5.359  2.1756 -0.7106  0.4555
 1398SOL     OW15826   1.344   1.912   8.023 -0.2819  0.0192  0.1171
 1398SOL    HW115827   1.369   1.934   8.113  2.0372 -1.1706 -0.2534
 1398SOL    HW215828   1.362   1.818   8.023  0.2601  0.1285 -2.3710
 1399SOL     OW15829   2.586   3.302   8.041  0.2246  0.4960 -0.0420
 1399SOL    HW115830   2.601   3.214   8.006 -0.9856 -0.6972  2.3909
 1399SOL    HW215831   2.639   3.351   7.979 -1.7543  0.6862 -1.5862
 1400SOL     OW15832   2.624   0.010   7.867 -0.1128 -0.8905 -0.0722
 1400SOL    HW115833   2.607   0.056   7.949 -1.0496 -0.3076 -0.5879
 1400SOL    HW215834   2.572   0.063   7.806  0.7702  0.5849  0.4501
 1401SOL     OW15835   4.713   1.258  14.136  0.0370 -0.1626  0.3970
 1401SOL    HW115836   4.657   1.209  14.195  1.2742 -0.5134  1.2677
 1401SOL    HW215837   4.648   1.310  14.088  0.4016  0.8349  0.9709
 1402SOL     OW15838   2.950   1.202  12.165  0.2746  0.2031 -0.1530
 1402SOL    HW115839   3.028   1.235  12.121 -0.5559  3.8612  1.0968
 1402SOL    HW215840   2.889   1.275  12.150 -2.9188 -2.5608 -0.5567
 1403SOL     OW15841   2.160   1.811   4.580 -0.1241 -0.4922 -0.2891
 1403SOL    HW115842   2.237   1.832   4.633  0.5655  1.3005 -2.0306
 1403SOL    HW215843   2.149   1.881   4.516  0.5452 -0.3792 -0.2797
 1404SOL     OW15844   0.199   2.252   2.774  0.0438 -0.1695 -0.6040
 1404SOL    HW115845   0.230   2.301   2.698 -1.2785 -0.9646 -1.6584
 1404SOL    HW215846   0.116   2.292   2.801  1.0910  0.9482  0.9768
 1405SOL     OW15847   1.998   0.595   4.029  0.1068 -0.3081 -0.0663
 1405SOL    HW115848   1.932   0.647   3.984  0.7482  1.1035  0.6318
 1405SOL    HW215849   1.973   0.588   4.121 -1.3225 -1.8275 -0.5771
 1406SOL     OW15850   2.239   1.964   8.011  0.3057 -0.0597 -0.0224
 1406SOL    HW115851   2.240   1.970   8.106  1.4527  0.8098 -0.0996
 1406SOL    HW215852   2.276   1.876   8.005 -2.4537 -1.1369 -1.3834
 1407SOL     OW15853   0.097   0.016   2.431  0.4344  0.3112 -0.0408
 1407SOL    HW115854   0.132   0.065   2.357  0.8014  0.7658  0.4305
 1407SOL    HW215855   0.022   0.070   2.457 -1.9606 -2.6809 -0.7159
 1408SOL     OW15856   1.081   0.378   0.811  0.0085 -0.2091 -0.1662
 1408SOL    HW115857   1.153   0.317   0.801  0.6680  0.4420  0.6179
 1408SOL    HW215858   1.025   0.339   0.878  0.8744 -1.1796 -0.0162
 1409SOL     OW15859   2.735   1.881   3.051  0.5496  0.0324  0.3237
 1409SOL    HW115860   2.779   1.956   3.009 -1.3851  1.3366  0.6016
 1409SOL    HW215861   2.810   1.870   3.109  1.7691  1.0084 -1.0824
 1410SOL     OW15862   2.184   3.453   4.713 -0.4589  0.3404 -0.0401
 1410SOL    HW115863   2.132   3.404   4.649 -1.0490  0.4015  0.3926
 1410SOL    HW215864   2.182   3.528   4.654 -1.2150  0.6862  0.4216
 1411SOL     OW15865   3.229   1.214   7.945  0.0160 -0.0842  0.1345
 1411SOL    HW115866   3.176   1.292   7.929  1.1275  0.8423  0.9852
 1411SOL    HW215867   3.255   1.185   7.857 -0.4173 -0.2790  0.0697
 1412SOL     OW15868   2.738   4.588  13.649 -0.0021 -0.1223  0.1903
 1412SOL    HW115869   2.768   4.660  13.704 -1.7430 -0.6926  1.8686
 1412SOL    HW215870   2.646   4.610  13.659 -0.3591 -0.8083 -1.4652
 1413SOL     OW15871   3.588   2.909  10.413 -0.0850 -0.5993 -0.3084
 1413SOL    HW115872   3.523   2.969  10.376  2.3805  1.8989 -0.5936
 1413SOL    HW215873   3.536   2.830  10.402 -1.0658 -0.1637  1.1311
 1414SOL     OW15874   3.211   0.338   6.279  0.6428 -0.1176  0.0550
 1414SOL    HW115875   3.158   0.397   6.332 -2.2563 -3.2119  0.5868
 1414SOL    HW215876   3.281   0.403   6.272 -1.2550  1.7435 -1.1289
 1415SOL     OW15877   0.231   0.731   3.549  0.3177 -0.2382 -0.4174
 1415SOL    HW115878   0.234   0.811   3.496  2.1954 -0.4911 -0.6968
 1415SOL    HW215879   0.163   0.755   3.612  0.2983 -1.0673 -0.1223
 1416SOL     OW15880   1.149   4.562  12.422 -0.0318  0.5293 -0.6204
 1416SOL    HW115881   1.064   4.599  12.400 -0.9150 -1.8684 -1.2532
 1416SOL    HW215882   1.205   4.586  12.347 -0.1743  0.1866 -0.8360
 1417SOL     OW15883   3.459   2.347   4.968  0.1278  0.2668  0.0553
 1417SOL    HW115884   3.529   2.311   4.913  0.0449  1.7399 -1.0070
 1417SOL    HW215885   3.473   2.300   5.050  1.1526  0.4615 -0.0012
 1418SOL     OW15886   2.712   4.357   3.461 -0.0726  0.1686  0.0083
 1418SOL    HW115887   2.744   4.366   3.371  0.1611  0.8167  0.1529
 1418SOL    HW215888   2.628   4.403   3.462 -0.1052  0.1004  1.2254
 1419SOL     OW15889   1.279   2.692   6.051  0.2393  0.6949 -0.3903
 1419SOL    HW115890   1.294   2.751   6.125  0.6455 -0.5514  0.5270
 1419SOL    HW215891   1.322   2.613   6.083 -1.3819  0.0642  0.2371
 1420SOL     OW15892   1.308   2.558   9.016 -0.1466 -0.1888  0.2311
 1420SOL    HW115893   1.298   2.601   8.931  2.0893  1.3137  0.7374
 1420SOL    HW215894   1.253   2.618   9.066  1.9782  0.9452  1.1876
 1421SOL     OW15895   2.667   4.230   5.170  0.5536  0.6390  0.2183
 1421SOL    HW115896   2.680   4.180   5.251 -0.1581 -0.4663 -0.3608
 1421SOL    HW215897   2.695   4.318   5.196  1.1461  0.2558  0.8721
 1422SOL     OW15898   0.042   2.361  12.436  0.0055 -0.3379 -0.4800
 1422SOL    HW115899   0.074   2.273  12.454 -0.8263 -0.2437  1.4212
 1422SOL    HW215900   0.009   2.355  12.346  0.9135  1.3511 -0.9365
 1423SOL     OW15901   1.842   2.643   2.706 -0.2614 -0.4867 -0.2745
 1423SOL    HW115902   1.914   2.689   2.662 -1.0591  1.9423  0.9906
 1423SOL    HW215903   1.787   2.717   2.734 -1.0207 -1.8787  1.8622
 1424SOL     OW15904   0.592   1.842   3.166  0.7817 -0.5909  0.2103
 1424SOL    HW115905   0.594   1.921   3.111  0.7121 -1.6408 -1.3000
 1424SOL    HW215906   0.680   1.842   3.204  0.1732 -1.1777  1.6261
 1425SOL     OW15907   0.262   3.555   3.300  0.4633 -0.1591 -0.1109
 1425SOL    HW115908   0.222   3.472   3.273  0.9714 -0.3297 -0.3305
 1425SOL    HW215909   0.191   3.591   3.354 -0.1811  0.7432 -1.5565
 1426SOL     OW15910   3.526   1.929  13.993  0.7126 -0.6142  0.2982
 1426SOL    HW115911   3.476   1.984  14.054  0.5228 -0.9686  0.4560
 1426SOL    HW215912   3.464   1.859  13.977 -2.2222  2.2222 -0.8329
 1427SOL     OW15913   3.480   4.330   8.121  0.3081 -0.6419  0.0297
 1427SOL    HW115914   3.499   4.239   8.146 -0.8655 -1.6970 -2.8464
 1427SOL    HW215915   3.564   4.370   8.102 -1.0647  1.8563 -0.7882
 1428SOL     OW15916   2.665   1.378  15.700  0.1858  0.4245  0.1123
 1428SOL    HW115917   2.639   1.370  15.608 -1.1628  2.4060  0.3272
 1428SOL    HW215918   2.734   1.443  15.689  0.6838  0.4210  3.0424
 1429SOL     OW15919   0.446   1.859   9.056 -0.2791 -0.0205  0.4090
 1429SOL    HW115920   0.419   1.831   8.968 -1.0362  2.3359 -0.0987
 1429SOL    HW215921   0.443   1.776   9.103  2.7032  0.3299  1.2176
 1430SOL     OW15922   0.813   3.483  13.682 -0.1761 -0.0521 -0.3151
 1430SOL    HW115923   0.815   3.558  13.622  0.8751 -0.8020 -1.2094
 1430SOL    HW215924   0.840   3.419  13.617  0.8374 -0.3540  0.3916
 1431SOL     OW15925   0.825   1.069   3.963  0.0318 -0.4087  0.6778
 1431SOL    HW115926   0.799   1.141   4.021  2.4336  0.2917  0.8801
 1431SOL    HW215927   0.898   1.113   3.919  0.6016 -4.3479 -2.3494
 1432SOL     OW15928   2.411   2.437   2.337  0.3704 -0.4667  0.1436
 1432SOL    HW115929   2.447   2.452   2.424 -1.7334 -2.4622  1.3509
 1432SOL    HW215930   2.336   2.496   2.332  0.1470 -0.8610 -1.2975
 1433SOL     OW15931   1.913   3.643   9.383  0.3286  0.1078 -0.2253
 1433SOL    HW115932   1.917   3.552   9.413  0.6165 -0.0497 -0.7418
 1433SOL    HW215933   1.937   3.701   9.455 -0.9203  1.7332 -1.1154
 1434SOL     OW15934   0.312   2.238   4.424 -0.2725  0.0521 -0.0504
 1434SOL    HW115935   0.332   2.320   4.378  0.7239  0.0455  0.3663
 1434SOL    HW215936   0.288   2.178   4.354 -0.1378 -1.6741  1.3749
 1435SOL     OW15937   2.902   0.410   4.985  0.2281  0.0790 -0.4797
 1435SOL    HW115938   2.923   0.443   5.073 -0.7404 -0.4876 -0.0354
 1435SOL    HW215939   2.828   0.353   5.006 -0.4230  0.8347 -0.6979
 1436SOL     OW15940   0.336   3.935  16.282  0.2341 -0.1783 -0.2866
 1436SOL    HW115941   0.321   3.877  16.207  0.7785 -3.0762  1.8356
 1436SOL    HW215942   0.262   3.995  16.274 -0.6226 -1.2196 -0.1501
 1437SOL     OW15943   1.518   3.895   6.699  0.2618  0.1296  0.1778
 1437SOL    HW115944   1.496   3.966   6.639 -1.0739  0.5049  1.1112
 1437SOL    HW215945   1.557   3.833   6.638 -1.3216 -2.7263  2.0723
 1438SOL     OW15946   2.302   2.038  16.176  0.1339 -0.0507  0.0796
 1438SOL    HW115947   2.208   2.023  16.189  0.2284 -1.1339 -0.4755
 1438SOL    HW215948   2.339   1.985  16.247 -0.2716 -0.3409  0.0804
 1439SOL     OW15949   1.235   3.342   5.354 -0.6751 -0.1687 -0.0158
 1439SOL    HW115950   1.317   3.342   5.404  0.0042  1.4758 -1.1264
 1439SOL    HW215951   1.229   3.250   5.327 -2.1737 -0.2951  0.7479
 1440SOL     OW15952   2.216   2.160   2.907  0.1769 -0.7164  0.2506
 1440SOL    HW115953   2.275   2.212   2.962 -0.2207  0.2710 -0.2522
 1440SOL    HW215954   2.240   2.070   2.930 -0.2690 -0.8824  0.0650
 1441SOL     OW15955   1.955   1.322   3.365 -0.4473 -0.6483  0.1769
 1441SOL    HW115956   2.008   1.347   3.440 -0.5887  2.1912 -0.6717
 1441SOL    HW215957   1.889   1.390   3.373  1.5966  1.5441 -1.6954
 1442SOL     OW15958   3.362   0.219   5.340 -0.0370  0.0226 -0.3005
 1442SOL    HW115959   3.273   0.251   5.358  0.3652  1.5398 -0.9466
 1442SOL    HW215960   3.379   0.177   5.424 -0.5942 -2.8420 -1.6219
 1443SOL     OW15961   4.431   3.763   8.028  0.2740  0.3117 -0.4031
 1443SOL    HW115962   4.521   3.765   8.061  0.5082 -1.1907 -0.9315
 1443SOL    HW215963   4.438   3.760   7.932 -0.6865  0.4241 -0.4731
 1444SOL     OW15964   0.110   0.758   0.500 -0.5387 -0.3067 -0.1763
 1444SOL    HW115965   0.051   0.806   0.558 -0.9720 -1.4246  0.3021
 1444SOL    HW215966   0.103   0.806   0.416 -1.6590 -3.1288 -1.6913
 1445SOL     OW15967   4.708   3.884   3.932  0.0704 -0.4635  0.2466
 1445SOL    HW115968   4.702   3.953   3.998  0.9258  0.2681 -0.4339
 1445SOL    HW215969   0.055   3.904   3.887 -0.4406 -2.7587 -1.7026
 1446SOL     OW15970   4.141   1.748   3.590  0.0106 -0.1907  0.1415
 1446SOL    HW115971   4.222   1.778   3.548  1.5980 -1.1220  2.5256
 1446SOL    HW215972   4.106   1.697   3.517  1.5100 -0.3985 -0.4450
 1447SOL     OW15973   0.900   1.535   6.161 -0.0026 -0.1417  0.0924
 1447SOL    HW115974   0.989   1.542   6.127  0.2671 -0.5072  0.7285
 1447SOL    HW215975   0.842   1.493   6.097 -1.2558  1.7177  0.0278
 1448SOL     OW15976   1.269   0.313   4.629  0.1862  0.3611 -0.4713
 1448SOL    HW115977   1.283   0.327   4.535  1.1016  1.4124 -0.1758
 1448SOL    HW215978   1.203   0.376   4.657 -1.6302  0.0933 -4.1082
 1449SOL     OW15979   4.123   2.607  10.358  0.2984  0.7947  0.2827
 1449SOL    HW115980   4.044   2.645  10.395  0.3913  0.8397  0.4349
 1449SOL    HW215981   4.099   2.596  10.266 -0.1303 -1.8479  0.7205
 1450SOL     OW15982   0.493   2.381   5.248  0.2364 -0.0450 -0.2609
 1450SOL    HW115983   0.544   2.361   5.327  0.7974  0.8596 -0.3930
 1450SOL    HW215984   0.509   2.306   5.190  0.1584 -0.7131  0.5689
 1451SOL     OW15985   3.507   0.131   4.332  0.7873 -0.1239 -0.2720
 1451SOL    HW115986   3.525   0.089   4.416 -1.0085  0.3793  0.3702
 1451SOL    HW215987   3.535   0.059   4.276  0.4795  0.4930 -1.2147
 1452SOL     OW15988   3.075   2.779   2.650  0.7243  0.0831  0.6388
 1452SOL    HW115989   3.104   2.830   2.726  1.1112 -0.5193  0.8957
 1452SOL    HW215990   3.064   2.851   2.589  0.7843  0.2123  0.7808
 1453SOL     OW15991   1.823   2.657  13.754  0.1652 -1.1768 -0.1302
 1453SOL    HW115992   1.827   2.562  13.765  0.9112 -1.2282 -0.7983
 1453SOL    HW215993   1.904   2.666  13.702  1.7268 -0.0114  2.4863
 1454SOL     OW15994   2.749   2.105   5.236  0.0362  0.4977  0.0371
 1454SOL    HW115995   2.745   2.154   5.319 -0.9391 -0.5778  0.6203
 1454SOL    HW215996   2.842   2.113   5.216 -0.0171 -2.4353 -1.4001
 1455SOL     OW15997   1.127   4.588  11.147  0.1841  0.2086 -0.2854
 1455SOL    HW115998   1.192   4.522  11.123 -0.9021  0.0174 -2.6755
 1455SOL    HW215999   1.170   4.672  11.130  0.6058 -0.3803 -2.1275
 1456SOL     OW16000   3.792   3.104  15.096 -0.2405  0.3215  0.3972
 1456SOL    HW116001   3.811   3.021  15.053  0.9517 -0.1633  1.8550
 1456SOL    HW216002   3.788   3.163  15.020  0.2053  1.0184  0.9205
 1457SOL     OW16003   0.585   1.412   3.005 -0.2804 -0.4285 -0.0342
 1457SOL    HW116004   0.546   1.430   2.919 -0.4145  1.6647  0.4855
 1457SOL    HW216005   0.667   1.459   2.997 -0.4487  0.2263  2.2835
 1458SOL     OW16006   0.900   1.797   4.448  0.4897  0.1378  0.9715
 1458SOL    HW116007   0.892   1.856   4.524  1.0169  1.0322  0.3423
 1458SOL    HW216008   0.838   1.727   4.469  0.9127 -0.1522  1.2551
 1459SOL     OW16009   3.823   2.334  11.113 -0.7305 -0.1150 -0.7242
 1459SOL    HW116010   3.869   2.283  11.047 -1.3474  1.0146 -2.0376
 1459SOL    HW216011   3.735   2.314  11.081 -1.3529  2.4930 -0.6545
 1460SOL     OW16012   0.248   1.255   9.520 -0.0971  0.7400 -0.2888
 1460SOL    HW116013   0.269   1.274   9.611 -1.5382 -1.3021  0.4682
 1460SOL    HW216014   0.158   1.224   9.533  0.5328 -0.1474  1.9223
 1461SOL     OW16015   1.734   3.553   7.866  0.1141 -0.6049 -0.2389
 1461SOL    HW116016   1.766   3.642   7.851 -1.9965  0.4919  1.6946
 1461SOL    HW216017   1.682   3.540   7.787 -1.3280  0.8606  0.4940
 1462SOL     OW16018   2.818   2.334   2.837 -0.0895  0.0861  0.2161
 1462SOL    HW116019   2.813   2.387   2.758  2.2147 -1.5333 -1.0299
 1462SOL    HW216020   2.793   2.397   2.904  0.0169 -0.3063  0.6240
 1463SOL     OW16021   2.536   1.442   8.434 -0.7814  0.6069 -0.0228
 1463SOL    HW116022   2.446   1.425   8.405 -0.4557  1.3366 -1.4706
 1463SOL    HW216023   2.587   1.419   8.357  1.1421 -0.0985  1.4773
 1464SOL     OW16024   0.277   3.005   6.876  0.1901 -0.5430 -0.4509
 1464SOL    HW116025   0.194   2.998   6.923  1.1103 -0.3928  1.1946
 1464SOL    HW216026   0.329   3.063   6.931 -3.2149  1.5572  0.5944
 1465SOL     OW16027   1.811   2.392   3.227 -0.4038  0.2565  0.3082
 1465SOL    HW116028   1.786   2.325   3.164  2.7841 -0.2583 -0.4102
 1465SOL    HW216029   1.776   2.473   3.190 -0.7228 -1.1622 -2.5072
 1466SOL     OW16030   0.225   3.780   4.723 -0.2191 -0.0985  0.3326
 1466SOL    HW116031   0.167   3.712   4.758 -0.5162  0.9160  1.8326
 1466SOL    HW216032   0.210   3.858   4.777 -0.3679  0.3709 -0.3880
 1467SOL     OW16033   1.388   0.540   1.047  0.3103 -0.7511 -0.0555
 1467SOL    HW116034   1.402   0.620   0.997  0.2733  0.0574  1.2248
 1467SOL    HW216035   1.478   0.506   1.046  0.2982 -0.7960  0.4026
 1468SOL     OW16036   3.930   3.609   7.056  0.1107  0.2245 -0.5624
 1468SOL    HW116037   4.024   3.608   7.038  0.2246 -0.1764  0.0424
 1468SOL    HW216038   3.932   3.515   7.074 -0.1828 -0.2099 -2.8681
 1469SOL     OW16039   0.241   2.175  11.391 -0.2917  0.0410  0.7073
 1469SOL    HW116040   0.168   2.169  11.453  0.8999 -0.7236  2.0370
 1469SOL    HW216041   0.199   2.211  11.313  0.6028  2.3278  1.2722
 1470SOL     OW16042   3.447   3.117  13.192  0.4940 -0.1666 -0.7164
 1470SOL    HW116043   3.511   3.184  13.170 -1.1107  1.9676  1.2218
 1470SOL    HW216044   3.369   3.161  13.225  0.4922 -0.5563 -0.2038
 1471SOL     OW16045   2.553   1.211   4.445 -0.0431  0.0555 -0.4123
 1471SOL    HW116046   2.632   1.177   4.488 -0.1958 -0.1818 -0.3181
 1471SOL    HW216047   2.489   1.191   4.513  0.1956  3.1793  0.7377
 1472SOL     OW16048   0.615   2.236   3.548 -0.0432 -0.6345  0.1781
 1472SOL    HW116049   0.604   2.142   3.564  1.3622 -0.6166  1.2649
 1472SOL    HW216050   0.536   2.283   3.575 -0.2482 -0.4530 -0.7375
 1473SOL     OW16051   3.418   3.392  11.545 -0.3842  0.3916  0.1374
 1473SOL    HW116052   3.364   3.340  11.486  2.9999 -1.0265 -1.7085
 1473SOL    HW216053   3.356   3.394  11.618 -3.2706  0.0332 -2.3141
 1474SOL     OW16054   2.325   0.023   4.677 -0.7132 -0.3887 -0.4208
 1474SOL    HW116055   2.286   0.052   4.594 -0.3239  0.4500 -0.3112
 1474SOL    HW216056   2.385   0.098   4.681 -2.1206  0.6317  1.1476
 1475SOL     OW16057   3.028   4.645   8.129  0.6188 -0.2275 -0.3333
 1475SOL    HW116058   2.945   4.610   8.096  1.0498 -2.6603  1.1956
 1475SOL    HW216059   3.083   4.567   8.126  0.5549 -0.2576 -0.6921
 1476SOL     OW16060   3.646   3.103   6.799 -0.5996 -0.5899 -0.1187
 1476SOL    HW116061   3.598   3.021   6.794 -0.8679 -0.4584  0.3164
 1476SOL    HW216062   3.686   3.103   6.712  0.5265 -0.1921  0.3975
 1477SOL     OW16063   1.223   3.717   3.819 -0.3545 -0.4742  0.3009
 1477SOL    HW116064   1.261   3.690   3.736  0.2891 -0.3411  0.5564
 1477SOL    HW216065   1.293   3.685   3.874  0.1505 -0.8112 -0.5372
 1478SOL     OW16066   2.315   1.349  15.243 -0.1612 -0.8055  0.1669
 1478SOL    HW116067   2.253   1.291  15.287  1.3932 -2.1839  0.5447
 1478SOL    HW216068   2.358   1.293  15.179 -2.7286 -3.0581  0.4237
 1479SOL     OW16069   4.699   1.803   8.234 -0.6698  0.3296 -0.3244
 1479SOL    HW116070   4.673   1.887   8.198 -1.3289  0.7880  1.2446
 1479SOL    HW216071   4.617   1.774   8.274  0.8036 -1.0180  1.7306
 1480SOL     OW16072   3.660   3.004  10.109 -0.5443  0.3655 -0.4340
 1480SOL    HW116073   3.692   3.067  10.044  0.3747  0.4463  0.0988
 1480SOL    HW216074   3.604   3.056  10.167  0.7086 -1.5178  2.4190
 1481SOL     OW16075   3.008   1.186   9.579  0.3713  0.1217  0.0930
 1481SOL    HW116076   3.081   1.244   9.556 -2.0144  3.0736  0.0695
 1481SOL    HW216077   2.938   1.231   9.533 -0.6134 -1.3345  0.1694
 1482SOL     OW16078   3.541   2.914   7.734  0.1034 -0.3883 -0.0096
 1482SOL    HW116079   3.579   2.846   7.678  0.4181  0.6790 -1.0854
 1482SOL    HW216080   3.556   2.879   7.822 -1.2028 -1.4878 -0.2256
 1483SOL     OW16081   3.723   2.412   2.192  0.4239 -0.2552  0.1772
 1483SOL    HW116082   3.736   2.409   2.098  0.5329 -3.1232  0.3026
 1483SOL    HW216083   3.786   2.343   2.211  1.0091  0.5017  0.9958
 1484SOL     OW16084   4.627   1.500   8.822 -0.2167 -0.0643  0.0810
 1484SOL    HW116085   4.636   1.586   8.781  1.4166  0.8328  2.3377
 1484SOL    HW216086   4.628   1.437   8.749  3.5392  2.3755 -1.9573
 1485SOL     OW16087   1.776   1.442  10.985 -0.5252 -0.8280  0.0956
 1485SOL    HW116088   1.817   1.470  10.903  0.1856  0.6857  0.9774
 1485SOL    HW216089   1.695   1.493  10.982  0.5747  1.0210  1.9174
 1486SOL     OW16090   0.286   0.624   6.749  0.3638 -0.2229  0.6944
 1486SOL    HW116091   0.352   0.579   6.802  1.0538  1.7412  1.5252
 1486SOL    HW216092   0.283   0.569   6.671  1.3437 -0.6310  0.9420
 1487SOL     OW16093   3.759   3.056  10.522 -1.0005 -0.3504  0.3986
 1487SOL    HW116094   3.701   2.997  10.473  1.6322 -2.0631 -0.6635
 1487SOL    HW216095   3.832   3.064  10.461 -0.3458  1.2662  1.4186
 1488SOL     OW16096   2.665   0.415   4.661  0.2044 -0.0910 -0.0706
 1488SOL    HW116097   2.626   0.332   4.687 -1.1547  0.1872 -1.2162
 1488SOL    HW216098   2.708   0.462   4.732  2.1037  2.1633 -2.7043
 1489SOL     OW16099   1.481   0.269  14.660  0.4714  0.1780  0.3851
 1489SOL    HW116100   1.554   0.218  14.694  0.3222  0.7614  1.5643
 1489SOL    HW216101   1.519   0.356  14.653  0.2214  0.3271  0.8914
 1490SOL     OW16102   0.850   1.445   8.117 -0.2907 -0.4299 -0.2808
 1490SOL    HW116103   0.909   1.516   8.093 -3.4319  2.1371 -0.3877
 1490SOL    HW216104   0.776   1.497   8.148 -0.2247  0.1473 -1.0996
 1491SOL     OW16105   1.799   2.077   1.569 -0.4068  0.6054 -0.1593
 1491SOL    HW116106   1.751   2.127   1.504  3.4157 -0.2259 -3.6532
 1491SOL    HW216107   1.813   1.996   1.520  1.0881  0.1441  1.0270
 1492SOL     OW16108   0.838   1.802   5.691 -0.6035 -0.1065  0.3750
 1492SOL    HW116109   0.891   1.727   5.662  2.3918  2.0193  0.3419
 1492SOL    HW216110   0.756   1.766   5.658 -0.5650 -0.9424  1.1861
 1493SOL     OW16111   2.976   0.925  16.204 -0.6471 -0.2381 -0.1704
 1493SOL    HW116112   2.919   0.918  16.281 -0.0420 -1.0936  0.2071
 1493SOL    HW216113   3.025   1.006  16.214 -1.1640 -0.0213  0.5798
 1494SOL     OW16114   4.116   0.664   2.003 -0.0375  0.2166 -0.2722
 1494SOL    HW116115   4.113   0.705   2.090 -0.8166  1.8658 -1.0796
 1494SOL    HW216116   4.075   0.737   1.957 -0.7760  1.4119  2.2469
 1495SOL     OW16117   3.828   0.868  15.219 -0.1250  0.2406  0.1248
 1495SOL    HW116118   3.785   0.934  15.273  1.5466 -0.1867  2.0036
 1495SOL    HW216119   3.826   0.908  15.133  0.5402  0.4598  0.2125
 1496SOL     OW16120   0.247   2.408   6.055  0.0523 -0.2565  0.6830
 1496SOL    HW116121   0.284   2.482   6.103  1.4292  0.2953 -1.2275
 1496SOL    HW216122   0.193   2.456   5.993 -1.9910 -2.1939  0.9995
 1497SOL     OW16123   0.714   2.054  16.243 -0.4027  0.5064  0.0602
 1497SOL    HW116124   0.709   1.958  16.236 -3.4201  0.6466 -0.0821
 1497SOL    HW216125   0.673   2.084  16.162  0.0132  3.0878  0.8170
 1498SOL     OW16126   0.724   4.474   1.249 -0.1961 -0.0814 -0.1225
 1498SOL    HW116127   0.695   4.454   1.338 -0.4685 -2.0921 -0.6682
 1498SOL    HW216128   0.642   4.511   1.217 -0.4837 -0.1199  0.5750
 1499SOL     OW16129   3.270   3.713  11.004  0.1218  0.1301  0.1330
 1499SOL    HW116130   3.335   3.778  10.980 -0.4652  1.1829  1.3885
 1499SOL    HW216131   3.270   3.730  11.098 -1.5113 -0.5331  0.2725
 1500SOL     OW16132   0.137   4.690   2.793 -0.5179  0.0054 -0.0129
 1500SOL    HW116133   0.226   4.668   2.820 -0.9986 -1.8731  0.0450
 1500SOL    HW216134   0.111   0.014   2.864  0.1630  0.0883  0.1638
 1501SOL     OW16135   1.701   3.490   2.927  0.0795 -0.6657 -0.7540
 1501SOL    HW116136   1.747   3.480   2.843  0.7226 -0.0655 -0.4773
 1501SOL    HW216137   1.760   3.541   2.982  0.7579 -1.9999 -0.2475
 1502SOL     OW16138   0.605   1.386  15.505 -0.0078 -0.2707 -0.2625
 1502SOL    HW116139   0.567   1.418  15.424  2.3807  1.5813 -0.6408
 1502SOL    HW216140   0.545   1.424  15.570  0.0378 -1.6073  0.5576
 1503SOL     OW16141   1.571   3.497   9.093  0.2562 -0.3358 -0.1017
 1503SOL    HW116142   1.663   3.520   9.080  0.2891 -0.3453  0.1162
 1503SOL    HW216143   1.562   3.475   9.186  0.0250  1.0044  0.1924
 1504SOL     OW16144   2.148   3.394   3.824 -0.2990 -0.0254  0.1193
 1504SOL    HW116145   2.212   3.461   3.799  0.0547  0.2368  1.7588
 1504SOL    HW216146   2.100   3.450   3.885  0.4673  1.1957 -0.4015
 1505SOL     OW16147   4.029   1.782   8.824 -0.0247 -0.1938  0.8423
 1505SOL    HW116148   4.067   1.843   8.887  0.9908 -0.6095  0.6262
 1505SOL    HW216149   3.961   1.832   8.779  2.9431  0.5005 -2.8792
 1506SOL     OW16150   3.700   2.829  13.736 -0.2302  0.4386  0.2172
 1506SOL    HW116151   3.625   2.771  13.726  1.0771 -1.1081 -0.6174
 1506SOL    HW216152   3.768   2.790  13.681 -1.5563  0.7834 -1.6537
 1507SOL     OW16153   2.344   2.076   5.866  0.6066 -0.0558  0.1916
 1507SOL    HW116154   2.312   2.008   5.926  0.2049  0.6087  0.7267
 1507SOL    HW216155   2.329   2.034   5.781 -0.7857  1.1865 -0.1716
 1508SOL     OW16156   1.195   4.486   2.009 -0.1004 -0.0873 -0.2628
 1508SOL    HW116157   1.229   4.570   2.039 -0.9145  0.5593 -1.1287
 1508SOL    HW216158   1.261   4.457   1.946  2.0753  1.8653  1.1336
 1509SOL     OW16159   2.642   0.842   5.907 -0.2566 -0.1669 -0.1026
 1509SOL    HW116160   2.557   0.861   5.948  0.1928 -0.3940  0.9397
 1509SOL    HW216161   2.643   0.910   5.839  0.0425 -0.9359 -0.8705
 1510SOL     OW16162   4.095   3.602   9.941  0.0024  0.0942 -0.1978
 1510SOL    HW116163   4.152   3.678   9.940  0.7221 -0.4613 -1.6077
 1510SOL    HW216164   4.011   3.648   9.932  0.6891  0.5699 -4.1739
 1511SOL     OW16165   3.190   1.961  14.029  0.0758 -1.0472  0.1711
 1511SOL    HW116166   3.130   1.909  13.975 -1.2371  0.5369  0.0974
 1511SOL    HW216167   3.218   1.895  14.092  0.0795 -2.9381 -1.8239
 1512SOL     OW16168   4.448   0.417   4.770  0.6284  0.1585 -0.1730
 1512SOL    HW116169   4.365   0.380   4.739  1.1197 -1.6641  0.6814
 1512SOL    HW216170   4.419   0.498   4.812  0.8232  1.0677 -1.7887
 1513SOL     OW16171   0.035   0.072  10.192 -0.2374 -0.4920 -0.1367
 1513SOL    HW116172   0.069   0.012  10.258  2.2094 -1.1521 -1.9727
 1513SOL    HW216173   0.022   0.009  10.120 -0.1125  2.4224 -2.7037
 1514SOL     OW16174   0.971   4.025  11.249  0.3626  0.7200 -0.1398
 1514SOL    HW116175   0.902   4.077  11.291 -0.8967 -0.2992 -0.9459
 1514SOL    HW216176   0.967   4.055  11.158 -1.4015 -1.6325 -0.8447
 1515SOL     OW16177   2.993   3.070   8.356  0.1348 -0.3755  0.2751
 1515SOL    HW116178   2.897   3.070   8.360  0.0407  0.5824 -1.9158
 1515SOL    HW216179   3.020   3.037   8.442  2.5911 -0.6199 -0.5832
 1516SOL     OW16180   0.546   1.197   6.267 -0.3126  0.2897  0.1825
 1516SOL    HW116181   0.489   1.197   6.344 -0.7534  2.4530 -0.1584
 1516SOL    HW216182   0.507   1.124   6.218  0.5861  0.0692 -0.2099
 1517SOL     OW16183   1.061   0.363  10.010  0.4854 -0.1186 -0.4260
 1517SOL    HW116184   1.099   0.439   9.967 -0.4691 -0.5095 -1.9702
 1517SOL    HW216185   1.076   0.397  10.098  1.7578  0.2821 -0.7959
 1518SOL     OW16186   2.745   4.321   2.185 -0.3210 -0.3551 -0.2265
 1518SOL    HW116187   2.720   4.241   2.231 -0.3634  0.4080  1.0631
 1518SOL    HW216188   2.686   4.306   2.111  0.8752  0.6295 -1.3764
 1519SOL     OW16189   0.637   2.116  10.142  0.8887  0.4361 -0.5015
 1519SOL    HW116190   0.550   2.151  10.122 -1.1263 -3.1109  2.2686
 1519SOL    HW216191   0.614   2.065  10.219 -1.7323  1.9716 -0.2496
 1520SOL     OW16192   0.213   2.543   6.647 -0.2826 -0.4871 -0.2302
 1520SOL    HW116193   0.303   2.520   6.623 -0.3477 -1.1417  0.1333
 1520SOL    HW216194   0.162   2.473   6.606 -2.1572  0.8985 -0.2788
 1521SOL     OW16195   0.419   0.854   5.807  0.0010 -0.1923 -0.2938
 1521SOL    HW116196   0.355   0.917   5.776 -1.2988 -1.9245 -1.1202
 1521SOL    HW216197   0.382   0.776   5.766  0.6204 -0.4103 -0.4497
 1522SOL     OW16198   0.732   0.218  10.082 -0.0050  0.1512  0.4035
 1522SOL    HW116199   0.790   0.229  10.157  0.4519 -0.3234  0.1225
 1522SOL    HW216200   0.783   0.150  10.038  1.9080  0.8524  1.5481
 1523SOL     OW16201   4.434   4.148   4.773 -0.2076  0.0985 -0.6984
 1523SOL    HW116202   4.515   4.117   4.813  0.6370  2.0462 -0.8727
 1523SOL    HW216203   4.452   4.234   4.735  0.9311 -0.4476 -1.3675
 1524SOL     OW16204   2.045   0.504   8.004 -0.1880 -0.0374  0.2265
 1524SOL    HW116205   2.007   0.488   7.917 -0.9537  1.6274  0.2429
 1524SOL    HW216206   2.034   0.599   8.002  3.3142  0.3554  0.7910
 1525SOL     OW16207   2.020   0.214  15.915 -0.0274 -0.3147 -0.5207
 1525SOL    HW116208   2.004   0.288  15.973  1.8152  0.1097 -0.5599
 1525SOL    HW216209   2.109   0.230  15.883 -0.2590 -0.4920 -1.2641
 1526SOL     OW16210   1.585   1.490   2.681 -0.0962  0.2720 -0.3831
 1526SOL    HW116211   1.527   1.548   2.730 -1.0751 -0.0568 -1.1584
 1526SOL    HW216212   1.664   1.544   2.686  1.1179 -1.6757  1.6966
 1527SOL     OW16213   2.892   3.506   2.839  0.6751  0.5717 -0.3375
 1527SOL    HW116214   2.907   3.532   2.748  1.0598 -2.4678 -1.1270
 1527SOL    HW216215   2.977   3.530   2.876  2.6111 -2.3996 -2.8352
 1528SOL     OW16216   4.500   4.112   3.718 -0.3419 -0.6863 -0.1361
 1528SOL    HW116217   4.520   4.197   3.679 -0.8104  0.2812  1.7002
 1528SOL    HW216218   4.581   4.091   3.765  0.2457 -0.3361 -1.0041
 1529SOL     OW16219   4.442   1.913   2.077 -0.0516  0.0473 -0.1805
 1529SOL    HW116220   4.415   1.821   2.085 -0.3349  0.1295 -0.2062
 1529SOL    HW216221   4.466   1.937   2.167 -0.2245 -0.6281  0.0491
 1530SOL     OW16222   0.113   2.219   0.735  0.8630 -0.2509 -0.6291
 1530SOL    HW116223   0.048   2.243   0.670 -0.1793 -1.8274 -0.1672
 1530SOL    HW216224   0.067   2.144   0.773  1.2197  0.0362  0.3620
 1531SOL     OW16225   2.169   2.255   3.682 -0.5924  0.8871  0.3316
 1531SOL    HW116226   2.231   2.328   3.692 -1.1645  1.1938  1.6843
 1531SOL    HW216227   2.142   2.260   3.590 -0.3007  1.0188  0.2521
 1532SOL     OW16228   4.423   3.460   6.599  0.3308  0.1815  0.0236
 1532SOL    HW116229   4.460   3.418   6.677  1.2704 -2.3210 -1.7709
 1532SOL    HW216230   4.410   3.388   6.537  0.4395  0.5806 -0.4667
 1533SOL     OW16231   1.837   4.167   8.364 -0.4271 -0.3915  0.5431
 1533SOL    HW116232   1.746   4.193   8.367 -0.8393 -1.6305 -0.7307
 1533SOL    HW216233   1.880   4.239   8.410 -1.0915  0.6210 -0.4136
 1534SOL     OW16234   4.371   2.614   5.879  0.0441  0.2539 -0.1279
 1534SOL    HW116235   4.440   2.587   5.939 -0.5281 -2.2925 -0.6162
 1534SOL    HW216236   4.416   2.647   5.801  1.9441 -0.2082  0.7956
 1535SOL     OW16237   4.344   0.411   9.123 -0.5746 -0.1417  0.7679
 1535SOL    HW116238   4.434   0.444   9.128 -1.0888  1.2867  0.3479
 1535SOL    HW216239   4.345   0.322   9.160  0.3449 -0.3676  0.2179
 1536SOL     OW16240   3.505   3.928   6.395  0.2461  0.4249 -0.1119
 1536SOL    HW116241   3.524   3.920   6.302  0.6890 -2.2501  0.2211
 1536SOL    HW216242   3.411   3.913   6.408  1.0169 -2.6810  1.8660
 1537SOL     OW16243   3.298   2.593   8.472  0.0805 -0.2962 -0.4566
 1537SOL    HW116244   3.212   2.551   8.464  1.2433 -2.4945 -1.6288
 1537SOL    HW216245   3.304   2.629   8.384 -0.6799  0.1658 -0.3210
 1538SOL     OW16246   3.456   2.590   7.162 -0.0575 -0.2574  0.3422
 1538SOL    HW116247   3.383   2.619   7.107  0.2239  0.7837  0.5083
 1538SOL    HW216248   3.410   2.558   7.240  1.9417  1.6002  2.2650
 1539SOL     OW16249   4.049   4.141   2.940  0.2196  0.0197 -0.3816
 1539SOL    HW116250   3.992   4.173   2.871  0.6493 -2.0410 -1.7044
 1539SOL    HW216251   4.119   4.206   2.950 -0.8303  1.1558 -0.5135
 1540SOL     OW16252   3.161   3.219  11.586 -0.5259 -0.2424  0.0465
 1540SOL    HW116253   3.150   3.247  11.495  2.3372  1.5082  0.2210
 1540SOL    HW216254   3.088   3.267  11.626  0.6219  1.4493  0.1390
 1541SOL     OW16255   2.405   3.889   2.814 -0.0188 -0.1806  0.2749
 1541SOL    HW116256   2.444   3.823   2.870  1.0438  0.5289  0.3767
 1541SOL    HW216257   2.347   3.837   2.758  0.5712  0.4031 -0.8935
 1542SOL     OW16258   4.724   4.295   1.077 -0.1177 -0.2355 -0.2443
 1542SOL    HW116259   4.668   4.217   1.083 -0.8648  0.3128 -0.1599
 1542SOL    HW216260   4.668   4.357   1.123 -1.2077 -0.3562 -1.3986
 1543SOL     OW16261   3.995   4.048   9.705  0.0398 -0.0172 -0.1980
 1543SOL    HW116262   4.030   4.044   9.794 -1.3251  2.2488  0.4658
 1543SOL    HW216263   4.072   4.033   9.651 -0.0516 -0.6923 -0.1425
 1544SOL     OW16264   4.698   3.969   9.427 -0.0254  0.1845  0.1890
 1544SOL    HW116265   4.710   4.017   9.509  0.0105  1.3770 -0.5117
 1544SOL    HW216266   4.635   4.029   9.388  0.1043 -0.3478 -0.8479
 1545SOL     OW16267   4.485   3.838   0.959 -0.2726 -0.4529  0.4655
 1545SOL    HW116268   4.435   3.905   0.913 -1.7823 -1.3796  0.7582
 1545SOL    HW216269   4.560   3.834   0.900 -0.6749  0.9281 -0.1496
 1546SOL     OW16270   4.526   0.018   7.463  0.3683 -0.0403  0.6264
 1546SOL    HW116271   4.431   0.010   7.471  0.4600 -0.8226  0.9722
 1546SOL    HW216272   4.557   4.693   7.530  0.4324  0.9389  1.4610
 1547SOL     OW16273   0.166   0.779   9.612  0.0940 -0.3565 -0.0947
 1547SOL    HW116274   0.184   0.869   9.638 -0.8790 -0.7226  1.8002
 1547SOL    HW216275   0.215   0.778   9.530 -0.4135  1.3001 -0.4220
 1548SOL     OW16276   0.204   2.465   0.868  0.4146 -0.4199 -0.0963
 1548SOL    HW116277   0.131   2.503   0.917  0.8952 -0.2850  0.5249
 1548SOL    HW216278   0.170   2.386   0.825 -1.7772  0.3283  0.2737
 1549SOL     OW16279   1.561   1.156  17.390  0.3312 -0.3696  0.3855
 1549SOL    HW116280   1.552   1.067  17.355 -3.5581  0.5233 -0.9407
 1549SOL    HW216281   1.606   1.127  17.469  0.7439 -2.0345 -0.4531
 1550SOL     OW16282   2.620   2.713   4.604 -0.3002 -0.5555  0.1092
 1550SOL    HW116283   2.574   2.679   4.680 -0.1596 -1.2125 -0.0960
 1550SOL    HW216284   2.674   2.785   4.638 -0.4009  0.1080 -1.1253
 1551SOL     OW16285   4.663   4.081  12.407  0.3887 -0.1990  0.4014
 1551SOL    HW116286   4.602   4.023  12.360  1.1939 -1.0168  0.3754
 1551SOL    HW216287   4.596   4.142  12.436 -0.8191 -1.0241 -0.6145
 1552SOL     OW16288   1.123   3.987   7.105  0.1979  0.0698 -0.1420
 1552SOL    HW116289   1.134   4.014   7.196  0.6410 -1.6530  0.3116
 1552SOL    HW216290   1.142   3.893   7.106 -0.8006 -0.1097  0.9747
 1553SOL     OW16291   3.699   3.482   3.276  0.0768  0.6530  0.0042
 1553SOL    HW116292   3.604   3.497   3.276 -0.1424 -0.6155 -2.9449
 1553SOL    HW216293   3.722   3.516   3.362 -1.9428 -0.5003  1.0010
 1554SOL     OW16294   3.597   3.608   6.734  0.3151  0.7981 -0.2665
 1554SOL    HW116295   3.610   3.648   6.648  1.6531  1.8274  0.4205
 1554SOL    HW216296   3.676   3.637   6.780  0.9214 -0.5798 -0.4210
 1555SOL     OW16297   2.030   2.014   5.314  0.2663  0.2175  0.5602
 1555SOL    HW116298   1.949   1.991   5.359  1.2995  0.1188  2.3873
 1555SOL    HW216299   1.999   2.057   5.234 -1.4484  2.1499  2.2498
 1556SOL     OW16300   3.903   2.896   4.466  0.4093  0.1642  0.2116
 1556SOL    HW116301   3.832   2.908   4.530 -1.8270  1.0724 -2.4219
 1556SOL    HW216302   3.934   2.987   4.463 -2.3452  1.1268  0.5903
 1557SOL     OW16303   1.553   1.528   6.504 -0.3193 -0.2139  0.4470
 1557SOL    HW116304   1.485   1.463   6.521 -1.3567  0.5697 -0.7511
 1557SOL    HW216305   1.503   1.606   6.529  1.3319  0.6100  1.1718
 1558SOL     OW16306   3.530   3.522   4.044  0.3488  0.4446 -0.0576
 1558SOL    HW116307   3.553   3.445   4.096  0.9571  0.5045 -0.2330
 1558SOL    HW216308   3.437   3.527   4.063  0.1377 -0.7190 -0.7832
 1559SOL     OW16309   0.202   1.209   5.143  0.5299 -0.7443 -0.5425
 1559SOL    HW116310   0.281   1.258   5.166  0.2089 -0.3128 -0.3573
 1559SOL    HW216311   0.160   1.259   5.074  1.2593 -0.7728 -1.0101
 1560SOL     OW16312   4.480   4.265  12.413  0.5292 -0.4987  0.4163
 1560SOL    HW116313   4.480   4.279  12.318  1.4382  0.0118  0.4923
 1560SOL    HW216314   4.432   4.340  12.447  0.6748  0.1340 -0.7629
 1561SOL     OW16315   2.271   0.835  17.316  0.4442  0.0915 -0.2626
 1561SOL    HW116316   2.181   0.830  17.283  1.0256  0.4136 -1.9098
 1561SOL    HW216317   2.303   0.873  17.234  0.7603  0.2228 -0.0734
 1562SOL     OW16318   4.535   2.073  14.403 -0.0074 -0.2968  0.0694
 1562SOL    HW116319   4.486   2.017  14.463  1.9916  0.0912  2.0623
 1562SOL    HW216320   4.621   2.056  14.442 -0.1458 -0.2201  0.4047
 1563SOL     OW16321   0.626   4.708   5.305 -0.5511 -0.1699  0.1879
 1563SOL    HW116322   0.549   4.710   5.248  0.2305 -0.8112 -0.8587
 1563SOL    HW216323   0.601   0.039   5.371 -1.2739 -0.4587  0.2015
 1564SOL     OW16324   0.269   0.363   5.768  0.1038 -0.2107  0.3805
 1564SOL    HW116325   0.360   0.338   5.752  0.1017 -0.2884  0.4891
 1564SOL    HW216326   0.228   0.281   5.796  1.4818 -1.2674 -0.7071
 1565SOL     OW16327   0.277   4.212   3.895 -0.3949  0.0598  0.1299
 1565SOL    HW116328   0.350   4.263   3.929  0.6141 -1.6801  0.6266
 1565SOL    HW216329   0.292   4.139   3.956  1.5027 -0.7405 -1.3034
 1566SOL     OW16330   1.617   0.836   4.243 -0.1109  0.2200 -0.2950
 1566SOL    HW116331   1.669   0.866   4.318 -1.1917  1.5942 -0.0977
 1566SOL    HW216332   1.530   0.871   4.266  0.3059  1.4465 -0.5683
 1567SOL     OW16333   1.971   1.613  13.699 -0.0851  0.0614 -0.2036
 1567SOL    HW116334   1.878   1.597  13.680  0.3577 -2.8591  0.0745
 1567SOL    HW216335   1.998   1.670  13.627 -0.9380  1.0773  0.2806
 1568SOL     OW16336   1.330   0.282   2.325  0.2637  0.4769 -0.3186
 1568SOL    HW116337   1.354   0.350   2.261  0.4533 -0.6493 -1.4389
 1568SOL    HW216338   1.270   0.231   2.271  2.1121 -2.5535  0.5390
 1569SOL     OW16339   2.485   0.428   7.504 -0.2155  0.1465 -0.1119
 1569SOL    HW116340   2.435   0.486   7.561 -2.5782 -0.9517 -1.0685
 1569SOL    HW216341   2.574   0.432   7.539 -0.4435 -0.5687  0.5603
 1570SOL     OW16342   4.061   2.614  10.116  0.2998  0.7098 -0.1308
 1570SOL    HW116343   4.007   2.558  10.060 -0.8252  1.2094  0.4793
 1570SOL    HW216344   3.994   2.681  10.128  0.2887  0.4817  1.0273
 1571SOL     OW16345   4.628   3.691  17.289  0.5947  0.0988 -0.0889
 1571SOL    HW116346   4.630   3.747  17.367  3.6760  1.7714 -1.4169
 1571SOL    HW216347   4.585   3.748  17.225 -0.0278 -1.0459 -0.7066
 1572SOL     OW16348   2.818   1.710   0.283  0.0263  0.3777 -0.0482
 1572SOL    HW116349   2.866   1.772   0.338  0.5357  1.6001 -1.8343
 1572SOL    HW216350   2.861   1.630   0.314 -1.6313 -0.2028  0.7372
 1573SOL     OW16351   1.901   3.800   8.143 -0.1469 -0.0410  0.2581
 1573SOL    HW116352   1.934   3.887   8.167 -0.3081  0.7501 -2.4005
 1573SOL    HW216353   1.962   3.741   8.186 -0.1665 -0.1906  0.0791
 1574SOL     OW16354   3.561   2.229   1.840 -0.1492 -1.4002 -0.2059
 1574SOL    HW116355   3.633   2.290   1.856 -1.5477 -0.4936  2.5708
 1574SOL    HW216356   3.498   2.284   1.792  1.3073  0.3776 -0.0899
 1575SOL     OW16357   3.368   1.697   6.682  0.2869 -0.0706  1.0147
 1575SOL    HW116358   3.362   1.710   6.587 -1.2191  1.3734  1.3076
 1575SOL    HW216359   3.381   1.786   6.716 -0.0143  0.7531 -1.0011
 1576SOL     OW16360   2.081   3.682  12.162  0.3556 -0.2704  0.8560
 1576SOL    HW116361   2.052   3.615  12.225  0.2866  1.0413  2.2266
 1576SOL    HW216362   2.123   3.623  12.099 -1.1767  0.8922 -1.2404
 1577SOL     OW16363   3.328   2.409   6.140 -0.0792 -0.0460 -0.3300
 1577SOL    HW116364   3.283   2.338   6.094  0.1756 -1.4903  1.6896
 1577SOL    HW216365   3.259   2.434   6.202  0.1433  1.2955 -0.6115
 1578SOL     OW16366   2.782   4.060  11.035  0.2547 -0.0195  0.0260
 1578SOL    HW116367   2.850   3.992  11.033  1.1546  0.8758  0.1587
 1578SOL    HW216368   2.777   4.083  10.943  1.0936 -2.6058 -0.6656
 1579SOL     OW16369   3.564   4.564   3.217  0.1237 -0.7172  0.0408
 1579SOL    HW116370   3.491   4.502   3.222 -0.1704 -0.3188  0.7220
 1579SOL    HW216371   3.574   4.596   3.307  1.8990  0.6309 -0.6374
 1580SOL     OW16372   3.444   0.033   1.783  0.0288  0.0717 -0.8564
 1580SOL    HW116373   3.401   0.059   1.865 -1.0766 -0.1758 -1.3612
 1580SOL    HW216374   3.528   0.078   1.779  0.2907 -0.1569  1.9952
 1581SOL     OW16375   0.757   0.993  11.925 -0.4202  0.4127  0.0552
 1581SOL    HW116376   0.751   1.087  11.908 -1.3359  0.5453  1.1388
 1581SOL    HW216377   0.695   0.963  11.858 -0.2601 -0.3448  0.2450
 1582SOL     OW16378   4.099   0.511   3.862  0.0067  0.2365  0.0995
 1582SOL    HW116379   4.071   0.512   3.771  1.5909 -1.4213 -0.4156
 1582SOL    HW216380   4.020   0.547   3.902 -1.2066  1.0856 -3.0487
 1583SOL     OW16381   4.169   4.261   6.839  0.0968 -0.3850 -0.0452
 1583SOL    HW116382   4.162   4.355   6.826 -1.0701 -0.0776  2.7564
 1583SOL    HW216383   4.090   4.242   6.890 -0.6907  0.7282 -0.8424
 1584SOL     OW16384   0.118   2.874  10.278  0.0843 -0.8782  0.3962
 1584SOL    HW116385   0.040   2.836  10.320 -0.5743  1.6081  1.4641
 1584SOL    HW216386   0.115   2.820  10.199  0.7287 -0.7873  0.3165
 1585SOL     OW16387   0.952   0.622  13.610  0.3552 -0.2290 -0.2760
 1585SOL    HW116388   1.015   0.550  13.610 -0.6711 -1.1371 -3.3203
 1585SOL    HW216389   0.873   0.584  13.649  0.8156  0.6060  1.4664
 1586SOL     OW16390   2.166   4.508   4.560  0.3223 -0.0847  0.0900
 1586SOL    HW116391   2.218   4.587   4.548  2.6058 -1.3751  1.7072
 1586SOL    HW216392   2.113   4.508   4.480  0.0800 -0.5585  0.2522
 1587SOL     OW16393   2.448   1.682   1.736 -0.4689  0.2149  0.1808
 1587SOL    HW116394   2.405   1.736   1.802  2.2634  3.1675 -0.4293
 1587SOL    HW216395   2.487   1.610   1.786  0.1435  0.3813 -0.0469
 1588SOL     OW16396   4.174   0.441  14.379 -0.0648  0.0780  0.3498
 1588SOL    HW116397   4.108   0.374  14.362  1.2653 -1.5673  1.6197
 1588SOL    HW216398   4.127   0.525  14.377 -0.6562 -0.3115 -1.2260
 1589SOL     OW16399   2.192   2.798   8.434  0.7526 -0.3387 -0.4404
 1589SOL    HW116400   2.191   2.783   8.528 -2.1956  1.4314 -0.1715
 1589SOL    HW216401   2.281   2.831   8.422  0.0082  1.2871 -1.4948
 1590SOL     OW16402   0.831   2.877   2.042 -0.5242  0.4035  0.0269
 1590SOL    HW116403   0.737   2.877   2.063 -0.2627  0.9531  1.1785
 1590SOL    HW216404   0.835   2.785   2.017 -1.7381 -0.1562  1.8590
 1591SOL     OW16405   3.569   2.035   7.241 -0.5388  0.4700  0.3187
 1591SOL    HW116406   3.523   2.089   7.177 -1.6704 -0.4648  0.3512
 1591SOL    HW216407   3.495   1.975   7.254  0.4141 -0.9874 -0.9088
 1592SOL     OW16408   3.803   4.664   7.089 -0.7284  0.2091 -0.1820
 1592SOL    HW116409   3.729   4.608   7.115  0.8433 -1.0979  1.4758
 1592SOL    HW216410   3.817   4.639   6.998  0.7050 -0.6340  0.2804
 1593SOL     OW16411   3.407   0.840   4.170 -0.0692  0.3049 -0.6193
 1593SOL    HW116412   3.469   0.770   4.193  0.0240  1.1579  1.7167
 1593SOL    HW216413   3.383   0.857   4.261 -0.9464  2.5864 -1.2812
 1594SOL     OW16414   1.982   2.249   0.462 -0.4284 -0.2433  0.1515
 1594SOL    HW116415   1.945   2.188   0.398  1.2021 -1.5264  0.4331
 1594SOL    HW216416   2.057   2.284   0.413  0.7946  0.2648  2.4130
 1595SOL     OW16417   0.464   4.352   7.000 -0.0426 -0.0238 -0.5486
 1595SOL    HW116418   0.491   4.262   7.020  2.7452  0.9728  0.1296
 1595SOL    HW216419   0.485   4.385   7.087  0.0097 -1.0662 -0.1609
 1596SOL     OW16420   4.571   2.633  14.054  0.1589  0.0560 -0.3094
 1596SOL    HW116421   4.663   2.637  14.029  0.5972 -0.0519  1.3086
 1596SOL    HW216422   4.565   2.541  14.082  0.4050 -0.0759 -0.6900
 1597SOL     OW16423   0.083   0.441   4.669 -0.4597  0.3232 -0.3953
 1597SOL    HW116424   0.069   0.508   4.736  2.2902  0.7976 -0.2931
 1597SOL    HW216425   0.065   0.492   4.590 -3.3777 -0.1822 -0.0589
 1598SOL     OW16426   3.044   2.883   4.459 -0.0439 -0.2333  0.4251
 1598SOL    HW116427   2.953   2.889   4.487  0.4329  1.0309  1.6767
 1598SOL    HW216428   3.078   2.817   4.520 -0.4590 -0.6639  0.1879
 1599SOL     OW16429   1.024   0.697   0.541 -0.0300 -0.2972 -0.1864
 1599SOL    HW116430   1.086   0.671   0.608 -0.2868  1.0622  0.5828
 1599SOL    HW216431   1.063   0.785   0.537 -0.3675 -0.0793  1.2630
 1600SOL     OW16432   3.304   1.486   5.704 -0.2873 -0.1934 -0.3137
 1600SOL    HW116433   3.291   1.492   5.609  0.7740  0.1788 -0.4365
 1600SOL    HW216434   3.238   1.544   5.741  0.2643 -1.6647  3.0327
 1601SOL     OW16435   0.578   0.977  11.712  0.2799  0.3205  0.5988
 1601SOL    HW116436   0.616   0.947  11.630  0.0905 -1.4264  1.1506
 1601SOL    HW216437   0.503   1.022  11.673  0.6175 -1.0108 -1.6079
 1602SOL     OW16438   2.762   4.243   8.739 -0.6329  0.4203 -0.0350
 1602SOL    HW116439   2.722   4.265   8.823  0.1872  0.0609  0.4545
 1602SOL    HW216440   2.849   4.283   8.738 -0.6276  0.3990 -0.5507
 1603SOL     OW16441   1.850   1.119  13.262  0.0921 -0.3216  0.9069
 1603SOL    HW116442   1.911   1.157  13.324 -1.1623  2.1683  0.6128
 1603SOL    HW216443   1.884   1.033  13.237  2.6776  1.1495 -0.5786
 1604SOL     OW16444   4.103   2.191   6.354  0.2514  0.1700  0.0543
 1604SOL    HW116445   4.108   2.150   6.267 -2.1666  1.0818 -0.4940
 1604SOL    HW216446   4.193   2.216   6.375 -0.6060  2.2958  1.1717
 1605SOL     OW16447   2.102   3.031  17.518  0.1996 -0.0443 -0.0934
 1605SOL    HW116448   2.153   3.044  17.598  0.3978  0.1117 -0.2444
 1605SOL    HW216449   2.167   2.987  17.463 -0.1636 -1.5583  0.6896
 1606SOL     OW16450   2.684   3.863   7.980  0.0817 -0.0634  0.5726
 1606SOL    HW116451   2.623   3.936   7.973 -2.2799 -1.8311  2.5426
 1606SOL    HW216452   2.738   3.898   8.050  2.8655 -3.2836  0.0472
 1607SOL     OW16453   4.414   3.550   3.505 -0.3289  0.1551 -0.0033
 1607SOL    HW116454   4.422   3.616   3.436 -0.7258  1.4865  1.2314
 1607SOL    HW216455   4.328   3.556   3.546  0.7817 -1.4107  2.5329
 1608SOL     OW16456   3.396   0.709   3.585  0.0707 -0.4019 -0.4844
 1608SOL    HW116457   3.351   0.625   3.570 -1.9896  0.3663  1.3672
 1608SOL    HW216458   3.387   0.711   3.680  1.9624  0.7592 -0.3500
 1609SOL     OW16459   4.704   4.087   7.053 -0.2252  0.1247  0.2086
 1609SOL    HW116460   4.688   4.050   6.966  1.9641 -0.0613 -0.1114
 1609SOL    HW216461   0.054   4.045   7.063 -0.8425 -1.1518  0.0984
 1610SOL     OW16462   0.044   0.961   6.527 -0.1614 -0.3211 -0.0627
 1610SOL    HW116463   0.139   0.960   6.529 -0.1752 -0.9774  0.4708
 1610SOL    HW216464   0.021   0.996   6.441 -2.7327 -0.0936  0.7022
 1611SOL     OW16465   1.645   0.954  13.356  0.2356 -0.1006 -0.3325
 1611SOL    HW116466   1.719   0.925  13.409  0.6047 -1.1000 -1.3913
 1611SOL    HW216467   1.691   1.030  13.322 -0.7430  0.1973 -0.9994
 1612SOL     OW16468   2.247   1.479   0.964  0.5496  0.0697  0.1550
 1612SOL    HW116469   2.153   1.498   0.972  0.5362 -0.5461  1.5572
 1612SOL    HW216470   2.262   1.513   0.876 -2.7717  0.3734 -0.2853
 1613SOL     OW16471   4.082   4.079   6.420 -0.6810 -0.4001  0.1239
 1613SOL    HW116472   4.117   4.079   6.331  1.3004 -0.5520  0.9056
 1613SOL    HW216473   4.139   4.016   6.463  2.8774  3.2728  0.7515
 1614SOL     OW16474   1.864   0.484   6.317  0.4667  0.3881  0.4069
 1614SOL    HW116475   1.770   0.499   6.318  0.2117 -1.2102  2.1134
 1614SOL    HW216476   1.862   0.426   6.393  0.8753  1.6176  1.3638
 1615SOL     OW16477   2.433   4.263   3.536 -0.1623 -0.0307 -0.4520
 1615SOL    HW116478   2.430   4.313   3.454 -0.5400 -0.1491 -0.5103
 1615SOL    HW216479   2.345   4.229   3.521 -0.0465 -0.9460  0.9605
 1616SOL     OW16480   4.038   0.098   9.448  0.7471 -0.2465  0.0274
 1616SOL    HW116481   4.036   0.148   9.530  2.0179  1.3145 -0.9049
 1616SOL    HW216482   4.117   0.045   9.456 -0.0047 -1.3430  0.3085
 1617SOL     OW16483   4.345   1.380  16.780 -0.6018 -0.1489 -0.1038
 1617SOL    HW116484   4.417   1.355  16.838 -0.1001 -1.3083 -1.2220
 1617SOL    HW216485   4.384   1.459  16.743 -0.9938 -0.5874 -1.4430
 1618SOL     OW16486   1.745   4.432   8.846 -0.8143  0.4311  0.1740
 1618SOL    HW116487   1.691   4.476   8.780 -3.6747 -0.1304  2.1475
 1618SOL    HW216488   1.708   4.345   8.861 -0.3833  0.2902  0.4202
 1619SOL     OW16489   3.198   3.823   4.242 -0.3866 -0.3045  0.6336
 1619SOL    HW116490   3.186   3.845   4.150 -1.7085  0.2628  0.9423
 1619SOL    HW216491   3.118   3.776   4.267 -1.6955  0.9050 -1.3531
 1620SOL     OW16492   3.366   0.019   7.080 -0.1964  0.4281 -0.1127
 1620SOL    HW116493   3.282   0.063   7.091 -0.0827 -0.1157  2.7807
 1620SOL    HW216494   3.406   0.082   7.019  2.3226 -0.7263  0.3567
 1621SOL     OW16495   3.890   4.334   2.411  0.0087  0.0676  0.3459
 1621SOL    HW116496   3.926   4.280   2.340  1.7617  1.6638  0.0328
 1621SOL    HW216497   3.834   4.397   2.366 -0.2962 -1.2876 -1.1985
 1622SOL     OW16498   1.339   1.626   4.904 -0.0112  0.4890 -0.8208
 1622SOL    HW116499   1.261   1.640   4.957  0.5947 -1.1253  0.4991
 1622SOL    HW216500   1.294   1.614   4.821  0.8012 -0.2796 -1.1466
 1623SOL     OW16501   3.128   2.915   5.369  0.1265 -0.6388 -0.1783
 1623SOL    HW116502   3.124   3.000   5.413 -2.6472 -0.1432 -1.4282
 1623SOL    HW216503   3.223   2.903   5.375  0.5698  3.1778  0.1789
 1624SOL     OW16504   3.685   3.512  13.718  0.2386  0.2490 -0.1987
 1624SOL    HW116505   3.660   3.588  13.771 -1.8847 -1.3448  1.0898
 1624SOL    HW216506   3.739   3.560  13.655 -0.9708  1.3595 -0.3832
 1625SOL     OW16507   1.681   3.290  14.007 -0.2519 -0.1846 -0.4592
 1625SOL    HW116508   1.645   3.315  13.922  0.9295 -1.6592 -1.4066
 1625SOL    HW216509   1.605   3.238  14.034  1.2911  0.0890  4.4266
 1626SOL     OW16510   1.346   0.127  17.151  0.6703  0.6948 -0.3008
 1626SOL    HW116511   1.355   0.180  17.230  0.3766  2.3344 -1.3618
 1626SOL    HW216512   1.344   0.192  17.080  1.2076  1.6403  0.5546
 1627SOL     OW16513   3.660   3.391   5.454 -0.2148 -0.3764 -0.1088
 1627SOL    HW116514   3.603   3.456   5.413  0.7099  1.1307  0.9887
 1627SOL    HW216515   3.746   3.422   5.426 -1.1506  3.1770  0.8728
 1628SOL     OW16516   0.641   1.401   2.676  0.2041 -0.2324 -0.2559
 1628SOL    HW116517   0.555   1.359   2.682 -0.2986  0.8835  0.2451
 1628SOL    HW216518   0.634   1.423   2.583  1.1757  1.6990  0.1486
 1629SOL     OW16519   4.328   4.537  11.320 -0.4014  0.1635 -0.0292
 1629SOL    HW116520   4.420   4.539  11.296  0.3170 -1.8709  2.5331
 1629SOL    HW216521   4.302   4.537  11.228  1.0798  1.1927 -0.4549
 1630SOL     OW16522   1.233   0.841   8.897  0.0295 -0.8064  0.5113
 1630SOL    HW116523   1.244   0.905   8.826  1.5169 -2.1642 -0.4696
 1630SOL    HW216524   1.234   0.757   8.853 -0.2295 -0.8935  0.6703
 1631SOL     OW16525   2.277   2.293   7.218 -0.1214  0.0339  0.3105
 1631SOL    HW116526   2.369   2.312   7.235  0.2895  0.2292 -2.1481
 1631SOL    HW216527   2.253   2.237   7.292  0.7963  0.1576  0.6939
 1632SOL     OW16528   1.975   3.514  11.157 -0.3588 -0.4180  0.3141
 1632SOL    HW116529   2.012   3.581  11.214 -0.3789  0.0322 -0.2043
 1632SOL    HW216530   1.906   3.563  11.113 -0.0726 -1.0661 -0.8366
 1633SOL     OW16531   3.143   1.739  12.369 -0.1813 -0.3076  0.3484
 1633SOL    HW116532   3.225   1.735  12.320 -1.0182 -2.3980 -0.8577
 1633SOL    HW216533   3.097   1.670  12.321 -1.5974  1.0969 -0.2877
 1634SOL     OW16534   1.723   4.136   6.202 -0.1313 -0.1228  0.0475
 1634SOL    HW116535   1.704   4.191   6.278 -0.4959  0.1985 -0.2817
 1634SOL    HW216536   1.819   4.136   6.196 -0.3422  2.6633 -2.6799
 1635SOL     OW16537   2.335   0.045  13.386  0.2055  0.6014  0.5895
 1635SOL    HW116538   2.339   0.052  13.290 -1.8711 -0.0549  0.4590
 1635SOL    HW216539   2.251   0.090  13.392 -0.6758 -0.8133 -1.0636
 1636SOL     OW16540   1.683   2.186   0.684 -0.0520  0.5509 -0.0328
 1636SOL    HW116541   1.686   2.091   0.680  0.4603  0.4475  2.6625
 1636SOL    HW216542   1.695   2.195   0.779  0.8866  1.7900 -0.2743
 1637SOL     OW16543   1.886   1.671  16.817 -0.4122 -0.3315  0.1302
 1637SOL    HW116544   1.931   1.742  16.771 -0.3385 -0.6773 -0.3279
 1637SOL    HW216545   1.949   1.642  16.883 -0.6365  0.3595  0.6494
 1638SOL     OW16546   3.208   1.182   2.021  0.7966  0.3094 -0.1094
 1638SOL    HW116547   3.240   1.162   2.109 -0.3039  0.5973  0.3641
 1638SOL    HW216548   3.283   1.230   1.985  1.6013  0.2418  1.4687
 1639SOL     OW16549   4.667   2.195  10.498  0.0186 -0.1193 -0.0798
 1639SOL    HW116550   4.575   2.222  10.504 -0.0266 -0.4517  0.8153
 1639SOL    HW216551   4.662   2.100  10.495 -1.7280  0.0396 -2.4208
 1640SOL     OW16552   2.022   1.016   1.450 -0.0487 -0.3113  1.2641
 1640SOL    HW116553   1.973   1.068   1.387  3.1661 -1.2084 -1.9769
 1640SOL    HW216554   2.112   1.045   1.434 -0.4133  1.2149  2.0151
 1641SOL     OW16555   3.796   2.264   6.949 -0.3571  0.9041 -0.1995
 1641SOL    HW116556   3.748   2.327   7.002 -1.2387  1.2415 -1.3944
 1641SOL    HW216557   3.851   2.314   6.888  1.3297  2.0241  2.2666
 1642SOL     OW16558   3.806   4.080  11.661 -0.2233 -0.4576  0.2508
 1642SOL    HW116559   3.813   4.045  11.572 -0.0218  0.8832 -0.2618
 1642SOL    HW216560   3.731   4.027  11.688  0.4259 -0.6137  1.7723
 1643SOL     OW16561   0.708   1.461  16.485  0.3008 -0.1272 -0.2257
 1643SOL    HW116562   0.787   1.443  16.433  0.8721  5.1596 -1.2329
 1643SOL    HW216563   0.737   1.543  16.526 -1.0294  0.7853 -1.1116
 1644SOL     OW16564   0.062   3.550   7.028  0.3496  0.1988  0.3376
 1644SOL    HW116565   0.018   3.483   7.080  0.5184  0.0967  0.3505
 1644SOL    HW216566   0.131   3.568   7.092  1.2369  0.0554 -0.5671
 1645SOL     OW16567   4.340   2.000  12.757 -0.1366 -0.1850 -0.0479
 1645SOL    HW116568   4.334   2.042  12.671  1.9085  0.2725  0.0282
 1645SOL    HW216569   4.381   1.918  12.728  1.2965 -0.1305  1.8186
 1646SOL     OW16570   2.314   2.235   6.940 -0.0019 -0.0099  0.3416
 1646SOL    HW116571   2.316   2.144   6.969  0.9593  0.7223  2.5841
 1646SOL    HW216572   2.292   2.283   7.020  0.1459 -0.7024  0.8019
 1647SOL     OW16573   2.372   0.215   6.084  0.2191  0.1794  0.0024
 1647SOL    HW116574   2.441   0.251   6.028  0.0404 -0.7024 -0.7803
 1647SOL    HW216575   2.304   0.279   6.061 -0.5657 -1.4234 -2.1626
 1648SOL     OW16576   1.321   2.569   6.456  0.3719  0.7563 -0.6808
 1648SOL    HW116577   1.361   2.653   6.478  0.2758  0.4428  0.6678
 1648SOL    HW216578   1.397   2.515   6.476  0.1877  0.4682 -0.7580
 1649SOL     OW16579   0.340   2.755   4.400 -0.4002  0.4605  0.4208
 1649SOL    HW116580   0.311   2.816   4.331 -0.0606 -0.5825 -0.6499
 1649SOL    HW216581   0.266   2.738   4.457 -0.5770  0.6531  0.2519
 1650SOL     OW16582   0.209   0.068   6.186 -0.3510  0.3310 -0.4274
 1650SOL    HW116583   0.173   0.029   6.266  1.7424 -1.1420 -0.2055
 1650SOL    HW216584   0.290   0.107   6.217 -1.2757  0.8407  1.3710
 1651SOL     OW16585   2.291   1.654   1.203  1.1509 -0.5484  0.6199
 1651SOL    HW116586   2.328   1.686   1.285  0.3147  0.4062  0.6187
 1651SOL    HW216587   2.358   1.603   1.157 -0.1055 -1.8813  0.2458
 1652SOL     OW16588   4.557   1.136  17.514 -0.5305  0.9138  0.2075
 1652SOL    HW116589   4.506   1.187  17.452  0.6326  3.1273  1.0545
 1652SOL    HW216590   4.492   1.075  17.548 -2.0893  2.4438 -0.0392
 1653SOL     OW16591   2.707   4.164   6.882  0.5324  0.2442 -0.5027
 1653SOL    HW116592   2.743   4.252   6.871 -1.8664  1.2993  0.1829
 1653SOL    HW216593   2.727   4.147   6.974 -0.2918  1.3362 -0.1329
 1654SOL     OW16594   3.669   1.745   4.712 -0.0905 -0.4218  0.5691
 1654SOL    HW116595   3.688   1.652   4.711  1.6807 -0.0625  0.1804
 1654SOL    HW216596   3.573   1.748   4.709 -0.0705 -2.5044 -2.1001
 1655SOL     OW16597   2.508   4.725  14.090 -0.0056 -0.0737  0.4902
 1655SOL    HW116598   2.415   4.704  14.074  0.6874 -2.9357  0.2590
 1655SOL    HW216599   2.559   4.645  14.078 -1.8329 -1.4041  1.6323
 1656SOL     OW16600   4.607   1.222   3.098  0.1234 -0.0322  0.0815
 1656SOL    HW116601   4.628   1.136   3.063  0.1315  0.4885 -1.2001
 1656SOL    HW216602   4.559   1.262   3.026  0.7190  0.6486  0.0554
 1657SOL     OW16603   2.210   2.686   5.915  0.4258 -0.1324  0.0587
 1657SOL    HW116604   2.239   2.646   5.997 -0.5966  0.8217  0.8858
 1657SOL    HW216605   2.118   2.703   5.931 -0.0518 -0.3646 -2.4117
 1658SOL     OW16606   0.534   2.239   9.701 -0.0366  0.3122 -0.1704
 1658SOL    HW116607   0.592   2.301   9.656  1.6913 -0.8441  0.4366
 1658SOL    HW216608   0.552   2.155   9.660  1.7231  0.2413  0.7422
 1659SOL     OW16609   4.437   3.472   8.390  0.1383  0.6254  0.5136
 1659SOL    HW116610   4.449   3.428   8.306 -0.2214 -1.3697  1.5017
 1659SOL    HW216611   4.352   3.513   8.374 -0.4971 -0.2473  1.5813
 1660SOL     OW16612   0.003   4.019   5.438  0.7549 -0.0052 -0.1196
 1660SOL    HW116613   4.652   4.049   5.412  0.6164  0.4712  0.8748
 1660SOL    HW216614   0.010   3.931   5.400  0.2930  0.4545 -1.2569
 1661SOL     OW16615   1.446   2.048  16.805  0.3548  0.2129  0.3171
 1661SOL    HW116616   1.401   2.126  16.838  0.6070  0.6827 -0.4356
 1661SOL    HW216617   1.461   2.074  16.714 -0.0631 -1.1780 -0.1378
 1662SOL     OW16618   4.058   3.177  15.156 -0.0425  0.1473 -0.2320
 1662SOL    HW116619   3.966   3.161  15.177  0.3671 -1.7356  0.1190
 1662SOL    HW216620   4.063   3.228  15.075  0.3129  0.4324 -0.0327
 1663SOL     OW16621   0.786   3.410   2.886  0.4819  0.3900 -0.1769
 1663SOL    HW116622   0.797   3.498   2.849  1.9096  0.3829  0.2108
 1663SOL    HW216623   0.699   3.413   2.924  0.6785 -1.2944  0.4047
 1664SOL     OW16624   4.322   3.224  12.252  0.2234 -0.1402  0.5290
 1664SOL    HW116625   4.293   3.257  12.338  0.3609 -1.4429  1.0813
 1664SOL    HW216626   4.398   3.281  12.243 -0.7921  0.2908 -4.7703
 1665SOL     OW16627   4.104   2.570   1.717  0.2633  0.5818 -0.0212
 1665SOL    HW116628   4.071   2.488   1.752 -0.5346  0.5759 -0.7706
 1665SOL    HW216629   4.070   2.569   1.627  1.1259 -0.2341 -0.3291
 1666SOL     OW16630   1.081   1.236   0.588  0.2935  0.5109  0.2461
 1666SOL    HW116631   1.007   1.250   0.647  1.2608 -0.8757  1.7523
 1666SOL    HW216632   1.118   1.323   0.570 -0.7864  0.8832 -0.1988
 1667SOL     OW16633   2.927   2.335   6.939 -0.1601 -0.3856  0.3716
 1667SOL    HW116634   2.851   2.312   6.887  0.0404 -0.1660 -0.0180
 1667SOL    HW216635   2.894   2.353   7.027  1.4340  2.6563  0.3430
 1668SOL     OW16636   4.048   1.098  16.063  0.1114 -0.2570 -0.6014
 1668SOL    HW116637   4.020   1.041  16.135  1.5618  1.8522  1.5989
 1668SOL    HW216638   4.133   1.056  16.050 -0.6485 -2.6379  2.0595
 1669SOL     OW16639   2.231   2.676   2.349  0.3947 -0.3792 -0.2216
 1669SOL    HW116640   2.268   2.718   2.426 -0.8561 -1.1511  0.8101
 1669SOL    HW216641   2.224   2.740   2.278 -0.6361  0.2613  0.4577
 1670SOL     OW16642   1.160   2.293   2.442 -0.5089  0.3251 -0.5052
 1670SOL    HW116643   1.148   2.207   2.480 -2.1733  0.4205 -0.7815
 1670SOL    HW216644   1.069   2.320   2.453 -0.1094  1.7600 -0.6930
 1671SOL     OW16645   0.736   0.073   9.635  0.3780  0.3961  0.2814
 1671SOL    HW116646   0.756   0.112   9.720  2.0123 -0.1048  0.1332
 1671SOL    HW216647   0.815   0.089   9.583  0.0059 -0.5576 -0.5783
 1672SOL     OW16648   0.595   1.344   4.739  1.1693  0.0647  0.4883
 1672SOL    HW116649   0.605   1.375   4.649  2.3751  0.8334  0.8934
 1672SOL    HW216650   0.499   1.340   4.741  1.1970 -0.9271 -0.2622
 1673SOL     OW16651   0.307   0.064   0.801  0.1045 -0.6735  0.1883
 1673SOL    HW116652   0.253   0.023   0.868  2.3729 -2.3364  0.9508
 1673SOL    HW216653   0.280   0.154   0.820 -1.1077 -0.7298 -1.1756
 1674SOL     OW16654   3.233   0.824   3.388 -0.1960  0.7467  0.0890
 1674SOL    HW116655   3.290   0.806   3.463 -0.3219 -0.2338 -0.0494
 1674SOL    HW216656   3.185   0.740   3.389 -1.7124  1.6173  2.0873
 1675SOL     OW16657   4.408   2.556   2.645  0.1293 -0.4002 -0.0646
 1675SOL    HW116658   4.326   2.508   2.631 -0.1491  0.4356 -1.3090
 1675SOL    HW216659   4.377   2.638   2.608  0.8970  0.8895  2.1955
 1676SOL     OW16660   2.295   0.592  15.587 -0.1318  0.7417 -0.0028
 1676SOL    HW116661   2.324   0.627  15.671  2.7053  0.2814 -0.7542
 1676SOL    HW216662   2.269   0.664  15.530  0.7233 -0.8801 -2.4547
 1677SOL     OW16663   2.622   1.823   3.978 -0.3266  0.1003 -0.7918
 1677SOL    HW116664   2.675   1.902   3.978  0.2562 -0.2930  0.4821
 1677SOL    HW216665   2.536   1.858   4.003  0.7530  1.6454  0.7258
 1678SOL     OW16666   0.180   1.092   5.461  0.3981  0.2263 -0.3369
 1678SOL    HW116667   0.177   1.069   5.368  0.5609 -1.4093  0.0630
 1678SOL    HW216668   0.262   1.141   5.459 -0.2671  1.3928  0.6073
 1679SOL     OW16669   3.097   4.034   6.590  0.0811  0.1146  0.2662
 1679SOL    HW116670   3.018   4.019   6.643 -1.2475 -0.3189 -1.8390
 1679SOL    HW216671   3.081   4.099   6.522  0.0454 -0.2096 -0.0340
 1680SOL     OW16672   2.009   4.228   2.908 -0.8205  1.1585  0.0032
 1680SOL    HW116673   2.090   4.179   2.898 -1.4549  0.3135 -1.0197
 1680SOL    HW216674   2.051   4.309   2.881 -1.1224  0.7402 -1.7014
 1681SOL     OW16675   3.149   4.154   8.198  0.2031 -0.9208  0.2448
 1681SOL    HW116676   3.056   4.131   8.201  0.3598 -1.2627  2.8509
 1681SOL    HW216677   3.187   4.132   8.283  0.6139 -1.3463 -0.0509
 1682SOL     OW16678   4.724   3.370  14.891 -0.1292 -0.4266 -0.4969
 1682SOL    HW116679   4.692   3.317  14.818  0.0942 -2.5582  0.9629
 1682SOL    HW216680   4.656   3.357  14.958 -0.3611 -0.7280 -0.7896
 1683SOL     OW16681   4.545   3.365   6.036 -0.2234  0.1464 -0.2770
 1683SOL    HW116682   4.457   3.398   6.053  0.1360  0.3509  1.2046
 1683SOL    HW216683   4.531   3.271   6.049 -2.0123  0.5300  0.5325
 1684SOL     OW16684   2.611   0.160   3.516 -0.0114  0.7174 -0.0345
 1684SOL    HW116685   2.668   0.109   3.458 -1.2387  0.0995 -0.6856
 1684SOL    HW216686   2.525   0.123   3.498  0.2671  0.8054 -1.5816
 1685SOL     OW16687   0.709   3.857  15.053  0.6112  0.0870 -0.0942
 1685SOL    HW116688   0.661   3.914  15.113  0.0105  0.0011 -0.4964
 1685SOL    HW216689   0.682   3.776  15.096  0.5654  0.9039  1.4383
 1686SOL     OW16690   4.199   0.417   8.848 -0.1403 -0.3585  0.4399
 1686SOL    HW116691   4.241   0.392   8.930  2.5017 -0.3899 -0.9307
 1686SOL    HW216692   4.215   0.511   8.843  0.8506 -0.4017  2.5489
 1687SOL     OW16693   0.168   2.579   6.907  0.0515 -0.5334  0.0594
 1687SOL    HW116694   0.254   2.557   6.942 -1.0631 -1.0911  2.4434
 1687SOL    HW216695   0.186   2.555   6.816  2.0279 -0.1466  0.3591
 1688SOL     OW16696   3.299   1.092   3.572  0.4662 -0.2098 -0.1367
 1688SOL    HW116697   3.303   1.067   3.480 -2.0929 -0.2979 -0.2386
 1688SOL    HW216698   3.357   1.167   3.572  0.5609 -0.2844 -0.8307
 1689SOL     OW16699   1.666   0.136   6.296  0.0477  0.5843  0.3188
 1689SOL    HW116700   1.698   0.048   6.315  0.0527  1.0907  2.5733
 1689SOL    HW216701   1.711   0.168   6.218 -1.3532  2.1938  0.1546
 1690SOL     OW16702   2.766   4.028  17.688  0.1523  0.2435  0.1016
 1690SOL    HW116703   2.744   4.018  17.595 -0.5932  0.0506  0.2988
 1690SOL    HW216704   2.856   3.995  17.685  0.6784  1.8180 -1.5136
 1691SOL     OW16705   0.518   2.020  16.893 -0.3792  0.1255 -0.0656
 1691SOL    HW116706   0.478   2.047  16.975 -0.7981 -0.2464 -0.1481
 1691SOL    HW216707   0.605   2.010  16.932 -0.4878 -0.1582  0.0958
 1692SOL     OW16708   4.397   1.706  17.736  0.2349  0.0488  0.3792
 1692SOL    HW116709   4.302   1.702  17.722 -0.0008  0.8102  1.6572
 1692SOL    HW216710   4.406   1.672   0.087 -1.3895  0.5195  0.7310
 1693SOL     OW16711   1.344   3.414   5.092  0.5394 -0.1135  0.4114
 1693SOL    HW116712   1.391   3.486   5.135  0.0849  0.8438 -0.6950
 1693SOL    HW216713   1.310   3.367   5.168 -0.8800  0.5340  0.1654
 1694SOL     OW16714   0.304   3.288   9.784  0.1456 -0.3361 -0.1474
 1694SOL    HW116715   0.220   3.282   9.739 -1.0371  0.9542  1.8647
 1694SOL    HW216716   0.317   3.201   9.821  0.1318  1.1278  3.3052
 1695SOL     OW16717   3.210   2.791   7.190 -0.1843 -0.5296 -0.2902
 1695SOL    HW116718   3.148   2.856   7.155  1.3167  0.8250 -0.4401
 1695SOL    HW216719   3.283   2.842   7.225  0.4862 -2.5972  1.2852
 1696SOL     OW16720   3.003   2.655   6.107  0.3436  0.4509  0.3671
 1696SOL    HW116721   3.058   2.726   6.075  0.4654 -0.2830 -1.0454
 1696SOL    HW216722   2.979   2.602   6.031 -2.5283  1.5541  0.5090
 1697SOL     OW16723   0.838   0.830  12.130  0.3107  0.5993  0.5356
 1697SOL    HW116724   0.926   0.868  12.135  0.5472  0.5785 -3.4506
 1697SOL    HW216725   0.796   0.879  12.060 -0.0465  1.9882  1.7290
 1698SOL     OW16726   2.470   3.198   7.579 -0.6228  0.1102  0.7291
 1698SOL    HW116727   2.476   3.175   7.486  0.9587  0.6506  0.7055
 1698SOL    HW216728   2.539   3.264   7.583 -1.7759  1.4230 -0.7963
 1699SOL     OW16729   3.583   4.144   6.822 -0.5264  0.4126  0.4664
 1699SOL    HW116730   3.587   4.236   6.845 -2.3239  0.8049 -0.8999
 1699SOL    HW216731   3.534   4.109   6.897 -0.6071 -0.8597 -0.1706
 1700SOL     OW16732   1.538   0.374  16.199 -0.4287 -0.1377  0.3629
 1700SOL    HW116733   1.538   0.300  16.137  0.0447  0.4549 -0.3502
 1700SOL    HW216734   1.614   0.354  16.254  0.4687  3.1720  0.2897
 1701SOL     OW16735   0.155   3.908   4.299  0.7550  0.4316  0.1231
 1701SOL    HW116736   0.189   3.928   4.386  0.3224  1.1263  0.1315
 1701SOL    HW216737   0.077   3.864   4.333 -1.6706  2.0322 -3.4165
 1702SOL     OW16738   2.267   3.309   4.936  0.3876 -0.2340 -0.5192
 1702SOL    HW116739   2.244   3.362   4.860 -1.2928 -1.4229 -0.8372
 1702SOL    HW216740   2.353   3.347   4.954  0.5895 -0.5883 -0.7486
 1703SOL     OW16741   0.558   2.611   5.066  0.0220 -0.8819 -0.0521
 1703SOL    HW116742   0.512   2.579   5.143  1.1649  2.5372  2.0486
 1703SOL    HW216743   0.612   2.535   5.046 -1.2937 -1.7210 -0.3760
 1704SOL     OW16744   1.857   4.004   3.859  0.1300  0.2733  0.2406
 1704SOL    HW116745   1.824   4.092   3.878  3.4599  2.0265 -2.1439
 1704SOL    HW216746   1.778   3.952   3.871  0.8266 -0.7672  0.3362
 1705SOL     OW16747   3.074   0.409  11.295  0.1361  0.0593  0.1132
 1705SOL    HW116748   3.089   0.448  11.381  1.5291 -1.3949  0.5322
 1705SOL    HW216749   3.131   0.461  11.239 -0.5866  0.5149 -0.1927
 1706SOL     OW16750   3.915   0.852  12.819  0.7401  0.2864 -0.6317
 1706SOL    HW116751   3.828   0.829  12.849  1.1664  0.2501  0.5732
 1706SOL    HW216752   3.898   0.944  12.799 -2.1318 -0.5639 -2.1590
 1707SOL     OW16753   4.425   1.446   7.590 -0.4499  0.3581 -0.4831
 1707SOL    HW116754   4.504   1.393   7.599  0.0175  1.2040  0.4728
 1707SOL    HW216755   4.372   1.410   7.661 -1.1101  2.9730  0.3570
 1708SOL     OW16756   4.323   2.322  12.579  0.5357 -0.1038  0.1420
 1708SOL    HW116757   4.320   2.347  12.671 -0.6008 -0.6837  0.2682
 1708SOL    HW216758   4.400   2.370  12.549 -0.4759  0.1582 -2.1015
 1709SOL     OW16759   3.204   2.274   8.441 -0.6463  0.0822 -0.0163
 1709SOL    HW116760   3.178   2.215   8.370  0.0556 -0.1748 -0.0565
 1709SOL    HW216761   3.225   2.352   8.389  1.1929 -0.0458  0.5370
 1710SOL     OW16762   4.508   0.848  10.782  0.1386  0.0378 -0.1081
 1710SOL    HW116763   4.490   0.842  10.876 -3.0229 -2.4387 -0.8921
 1710SOL    HW216764   4.524   0.755  10.769 -1.3095 -0.1822 -0.3023
 1711SOL     OW16765   4.541   0.160   6.372 -0.4829  0.1174 -0.3206
 1711SOL    HW116766   4.525   0.075   6.330  0.3271 -0.5176  0.6480
 1711SOL    HW216767   4.522   0.139   6.463 -2.5069 -1.6348 -1.1548
 1712SOL     OW16768   1.514   1.290  14.514  0.2130  0.0722  0.4946
 1712SOL    HW116769   1.565   1.236  14.574  0.3501  2.0678  2.1596
 1712SOL    HW216770   1.474   1.234  14.447 -0.3353 -0.6805  1.4351
 1713SOL     OW16771   4.049   3.660   0.491 -0.3142  0.4174  0.2702
 1713SOL    HW116772   4.092   3.608   0.559  0.6746  1.7620  0.6706
 1713SOL    HW216773   3.962   3.636   0.523  0.2406  0.3529  1.7264
 1714SOL     OW16774   4.550   3.094  12.832  0.2272 -0.6975  0.4544
 1714SOL    HW116775   4.569   3.004  12.808 -1.6102 -0.9690 -0.0082
 1714SOL    HW216776   4.488   3.093  12.905 -0.6726  0.7883 -0.2707
 1715SOL     OW16777   2.175   0.815   2.038  0.3535  0.1078 -0.3301
 1715SOL    HW116778   2.184   0.736   2.091 -1.7543 -0.4590 -0.7984
 1715SOL    HW216779   2.105   0.787   1.979 -0.7561 -1.3957  1.6675
 1716SOL     OW16780   2.083   4.414   8.712  0.6438  0.6766  0.2465
 1716SOL    HW116781   2.089   4.399   8.806 -0.1781 -3.0304 -0.2675
 1716SOL    HW216782   2.091   4.509   8.707  0.8719  0.5938 -1.0458
 1717SOL     OW16783   3.364   4.047  11.635  0.0835  0.2693 -0.6300
 1717SOL    HW116784   3.424   4.108  11.679  0.0041 -0.9346  1.1398
 1717SOL    HW216785   3.430   3.999  11.584 -2.0283 -1.5693 -1.6142
 1718SOL     OW16786   0.991   1.508  11.685 -0.2227 -0.0608 -0.2777
 1718SOL    HW116787   1.024   1.438  11.628  2.1615 -0.5599  1.6569
 1718SOL    HW216788   1.016   1.469  11.769 -0.0012 -0.2420 -0.4260
 1719SOL     OW16789   3.912   0.234   2.878 -0.4385  0.2405 -0.4963
 1719SOL    HW116790   3.888   0.141   2.873  0.2733  0.0141  0.2910
 1719SOL    HW216791   3.847   0.265   2.815 -0.8838  1.2872  0.4774
 1720SOL     OW16792   2.990   0.723   5.978  0.6747 -0.1126  0.0863
 1720SOL    HW116793   2.946   0.772   6.048 -2.1513 -0.2147 -1.6094
 1720SOL    HW216794   3.013   0.792   5.917 -2.1904  1.5834  0.9046
 1721SOL     OW16795   2.265   0.089   6.794 -0.0293  0.7099 -0.0181
 1721SOL    HW116796   2.298   0.178   6.792 -0.8738  1.0045 -1.3507
 1721SOL    HW216797   2.201   0.087   6.722 -0.0021 -1.1350 -0.0067
 1722SOL     OW16798   4.533   4.534   9.099  0.6258  0.0339  0.2976
 1722SOL    HW116799   4.586   4.465   9.057 -0.6241 -1.3558  1.0293
 1722SOL    HW216800   4.570   4.610   9.053  0.3492  1.0555  1.7908
 1723SOL     OW16801   0.260   3.225   8.321 -0.0729  1.1957 -0.0611
 1723SOL    HW116802   0.303   3.264   8.397  0.5855  0.1460  0.0975
 1723SOL    HW216803   0.206   3.164   8.370  0.3522  0.5050 -0.4518
 1724SOL     OW16804   0.073   3.474   7.813 -0.2434 -0.2006  0.6537
 1724SOL    HW116805   0.074   3.406   7.746  0.5153 -1.2404  1.7206
 1724SOL    HW216806   0.051   3.426   7.893 -0.8613 -1.1364 -0.0792
 1725SOL     OW16807   0.448   1.388   4.486  0.2273  0.7208 -0.3327
 1725SOL    HW116808   0.353   1.399   4.492  0.1828 -0.3421  0.8179
 1725SOL    HW216809   0.458   1.300   4.449 -1.2736  0.8460 -1.0554
 1726SOL     OW16810   3.828   4.650   5.310  0.0463 -0.0037 -0.1375
 1726SOL    HW116811   3.910   4.659   5.357  1.2285 -1.5639 -1.9143
 1726SOL    HW216812   3.847   4.581   5.246  0.2123 -0.9869  0.9748
 1727SOL     OW16813   2.982   2.345  15.383 -0.1717 -0.0082 -0.4405
 1727SOL    HW116814   2.962   2.274  15.445 -1.1771 -1.3302 -2.2876
 1727SOL    HW216815   3.008   2.419  15.438 -0.5232  1.5393 -2.3721
 1728SOL     OW16816   1.050   2.078  17.092  0.5172 -0.0845 -0.0763
 1728SOL    HW116817   1.020   2.148  17.150 -1.0960 -0.8914  0.0627
 1728SOL    HW216818   1.034   2.123  17.009 -0.5088 -0.5681 -0.1471
 1729SOL     OW16819   2.868   3.840   5.145  0.4394  0.7515 -0.3411
 1729SOL    HW116820   2.958   3.873   5.141  0.4769  0.5869 -0.8172
 1729SOL    HW216821   2.857   3.831   5.051 -0.3256 -1.3990 -0.0341
 1730SOL     OW16822   4.268   3.525   9.442  0.4211 -0.6750  0.1522
 1730SOL    HW116823   4.186   3.491   9.406  0.8663  1.6135 -2.9839
 1730SOL    HW216824   4.258   3.538   9.537  0.3460  1.0899 -0.1134
 1731SOL     OW16825   1.824   3.684   0.317  0.2812  0.3768  0.0056
 1731SOL    HW116826   1.748   3.663   0.371 -1.0012  0.9217 -1.5878
 1731SOL    HW216827   1.875   3.746   0.370  1.2574 -0.3051 -0.1447
 1732SOL     OW16828   3.885   4.635   9.313 -0.3500 -0.2096 -0.3090
 1732SOL    HW116829   3.892   4.559   9.371  0.8940  0.5209  0.5014
 1732SOL    HW216830   3.898   4.703   9.379  1.7060 -1.0486  0.1620
 1733SOL     OW16831   3.388   1.808  10.489  0.3850  0.1188 -0.5055
 1733SOL    HW116832   3.385   1.837  10.580 -1.5372  0.3646 -0.6486
 1733SOL    HW216833   3.321   1.866  10.454  1.5479  1.0141 -1.2506
 1734SOL     OW16834   0.471   2.160  11.861 -0.4291  0.5732  0.0269
 1734SOL    HW116835   0.550   2.211  11.842 -0.8827  0.8744 -1.0535
 1734SOL    HW216836   0.446   2.126  11.776 -0.7719 -0.0755  0.3891
 1735SOL     OW16837   0.549   1.003   9.168  0.6662 -0.1504 -0.0476
 1735SOL    HW116838   0.505   0.925   9.136  0.9152  0.5697 -2.1692
 1735SOL    HW216839   0.479   1.050   9.213  0.7724 -0.1674  0.1366
 1736SOL     OW16840   0.248   2.285   7.131 -0.8746 -0.3568  0.1199
 1736SOL    HW116841   0.298   2.287   7.213 -1.4745  0.5910  0.4492
 1736SOL    HW216842   0.219   2.194   7.127 -1.3808 -0.0538 -3.1816
 1737SOL     OW16843   4.065   3.555   5.820 -0.3364  0.7985  0.0869
 1737SOL    HW116844   4.045   3.615   5.892 -0.5030  1.0127 -0.1394
 1737SOL    HW216845   3.996   3.579   5.758  1.7296  1.6318 -1.9057
 1738SOL     OW16846   4.313   2.709  13.931  0.0125 -0.4421 -0.6072
 1738SOL    HW116847   4.303   2.804  13.938  1.4084 -0.1848 -2.0016
 1738SOL    HW216848   4.400   2.686  13.962 -0.5858 -1.0977  0.5850
 1739SOL     OW16849   0.731   2.649   8.642 -0.3226  0.0460  0.6203
 1739SOL    HW116850   0.660   2.595   8.607  0.9009 -1.2980  0.2080
 1739SOL    HW216851   0.696   2.688   8.722  0.8347  2.4273 -0.0163
 1740SOL     OW16852   4.553   2.889   4.934  0.3833 -0.2585  0.4222
 1740SOL    HW116853   4.521   2.934   4.856  1.0491  1.3923  1.1028
 1740SOL    HW216854   4.547   2.967   4.990 -1.0567 -0.1496  0.1146
 1741SOL     OW16855   2.470   2.342   2.071 -0.1097  0.0429 -0.0786
 1741SOL    HW116856   2.379   2.351   2.046  0.0054  1.8496  0.1411
 1741SOL    HW216857   2.466   2.372   2.162  0.6250  0.7492 -0.2821
 1742SOL     OW16858   1.873   3.191  16.937 -0.1323  0.2809 -0.4428
 1742SOL    HW116859   1.911   3.141  17.010  0.5353  0.9379 -0.3484
 1742SOL    HW216860   1.918   3.275  16.935  3.1834 -1.4825 -0.0199
 1743SOL     OW16861   1.764   0.355   3.751 -0.4529  0.9475  0.7154
 1743SOL    HW116862   1.766   0.326   3.660  0.0506  2.0851  0.3668
 1743SOL    HW216863   1.700   0.295   3.789  0.1606 -1.1393 -1.5571
 1744SOL     OW16864   0.710   1.847   4.925  0.0499 -0.4155  0.7468
 1744SOL    HW116865   0.789   1.819   4.879 -0.4535 -0.6989  0.0539
 1744SOL    HW216866   0.734   1.938   4.944 -0.3978  0.0743 -1.0518
 1745SOL     OW16867   3.671   3.410   8.525  0.6261  0.2007  0.0732
 1745SOL    HW116868   3.647   3.447   8.440 -1.3686  1.1056  1.0271
 1745SOL    HW216869   3.629   3.324   8.520 -0.5289  0.6293  2.2403
 1746SOL     OW16870   1.718   1.824  10.523  0.0885  0.6258 -0.0704
 1746SOL    HW116871   1.784   1.891  10.503  2.0122 -1.1812  0.1457
 1746SOL    HW216872   1.714   1.836  10.618 -0.3291  1.9519 -0.2665
 1747SOL     OW16873   2.677   4.340  13.448  0.2342  0.5204  0.1097
 1747SOL    HW116874   2.678   4.433  13.471 -0.2705  0.4697  0.3499
 1747SOL    HW216875   2.591   4.319  13.486  1.2127 -2.2733  0.7189
 1748SOL     OW16876   2.123   2.463   8.836 -0.3297 -0.2478  0.6781
 1748SOL    HW116877   2.148   2.544   8.793 -0.6338  0.8300  2.5243
 1748SOL    HW216878   2.125   2.489   8.928 -1.9785 -0.0281  0.6528
 1749SOL     OW16879   1.190   1.258   9.142  0.3334 -0.0902  0.5473
 1749SOL    HW116880   1.215   1.278   9.232 -0.2370 -0.8569  0.8835
 1749SOL    HW216881   1.173   1.164   9.152  0.0592 -0.1036  0.0186
 1750SOL     OW16882   0.229   3.540   6.448 -0.0473  0.0182 -0.6054
 1750SOL    HW116883   0.149   3.531   6.499  0.5976 -0.4520  0.3192
 1750SOL    HW216884   0.202   3.495   6.369  0.7645  0.5098 -1.1667
 1751SOL     OW16885   3.411   0.009   3.075  0.4108 -0.2271  0.3382
 1751SOL    HW116886   3.443   0.048   2.994 -3.8567  0.6813 -0.9353
 1751SOL    HW216887   3.481   4.689   3.111  0.7202 -0.9285 -1.3156
 1752SOL     OW16888   0.071   2.514  13.723  0.0076  0.0307  0.4499
 1752SOL    HW116889   0.138   2.452  13.695 -1.2245 -1.1627  0.1622
 1752SOL    HW216890   0.006   2.448  13.747 -0.5737  0.6319  0.5089
 1753SOL     OW16891   2.187   1.197   1.008 -0.3823  0.1018  0.2986
 1753SOL    HW116892   2.186   1.289   0.982 -0.2092 -0.3467 -1.3228
 1753SOL    HW216893   2.232   1.204   1.092  1.3376  1.5348 -0.7499
 1754SOL     OW16894   4.063   4.570   1.986  0.4477 -0.3143 -0.4988
 1754SOL    HW116895   4.095   4.661   1.989  0.1767 -0.2880  1.8412
 1754SOL    HW216896   4.079   4.549   1.894  0.0143  0.5415 -0.7710
 1755SOL     OW16897   0.539   4.040   8.363  0.1487 -0.3730  0.2769
 1755SOL    HW116898   0.595   3.992   8.302 -0.2068 -3.6580  2.5236
 1755SOL    HW216899   0.452   4.014   8.335 -1.0052  0.6229  2.9332
 1756SOL     OW16900   3.783   0.175   7.210 -0.4029 -0.5500  0.3959
 1756SOL    HW116901   3.786   0.090   7.165  1.8681 -0.7146  0.8424
 1756SOL    HW216902   3.698   0.162   7.253 -0.9449 -0.9173 -0.7790
 1757SOL     OW16903   4.392   2.091   4.575  0.4019 -0.8144  0.3048
 1757SOL    HW116904   4.357   2.089   4.664  0.2134 -1.2630  0.2173
 1757SOL    HW216905   4.464   2.154   4.582 -0.4941  0.4375 -1.7116
 1758SOL     OW16906   2.621   2.736  12.238 -0.4465 -0.3272  0.0270
 1758SOL    HW116907   2.717   2.734  12.245 -0.4774 -2.0103 -0.1689
 1758SOL    HW216908   2.618   2.808  12.176 -0.6723  0.3163  0.7823
 1759SOL     OW16909   2.739   3.265   9.441  0.0533  0.3614  0.0271
 1759SOL    HW116910   2.657   3.232   9.406  0.1946 -0.6878  0.6958
 1759SOL    HW216911   2.745   3.352   9.401  0.6794  0.5704  0.5734
 1760SOL     OW16912   2.442   2.892   8.351 -0.1823 -0.3121 -0.5873
 1760SOL    HW116913   2.440   2.928   8.263  2.6791  0.3333 -0.4154
 1760SOL    HW216914   2.524   2.843   8.348  0.9809  1.5962 -0.4230
 1761SOL     OW16915   4.450   0.785   1.525  0.5022  0.4219 -0.0103
 1761SOL    HW116916   4.388   0.815   1.591 -1.0644 -2.6431 -0.0954
 1761SOL    HW216917   4.399   0.796   1.444 -1.3646  0.7613  1.1955
 1762SOL     OW16918   2.064   2.945  10.483 -0.0947 -0.0691 -0.2873
 1762SOL    HW116919   1.980   2.903  10.502 -0.1985  0.4967  0.4964
 1762SOL    HW216920   2.112   2.933  10.565 -0.7431 -1.1472 -0.0726
 1763SOL     OW16921   4.135   2.552   3.432 -0.4084 -0.3040 -0.1058
 1763SOL    HW116922   4.193   2.545   3.508  0.6723  0.4219 -0.8588
 1763SOL    HW216923   4.198   2.580   3.366  0.4736 -1.5274  0.2206
 1764SOL     OW16924   0.495   0.655   0.757 -0.1235  0.0005 -0.0483
 1764SOL    HW116925   0.452   0.573   0.731 -0.8923  0.2186  0.5287
 1764SOL    HW216926   0.432   0.678   0.825 -0.3756  0.6862 -0.5126
 1765SOL     OW16927   1.462   4.611  16.697  0.0950 -0.4516 -0.2864
 1765SOL    HW116928   1.515   4.669  16.642  1.2582 -0.4331  0.8536
 1765SOL    HW216929   1.415   4.562  16.629  1.2584  1.2042 -2.3026
 1766SOL     OW16930   1.769   2.026   6.136 -0.2024  0.0262 -0.3749
 1766SOL    HW116931   1.843   1.970   6.112  0.9988  1.1441  0.6854
 1766SOL    HW216932   1.717   2.017   6.057  0.5980  1.8041 -1.1029
 1767SOL     OW16933   4.597   1.262   5.131  0.1829  0.0342 -0.5022
 1767SOL    HW116934   4.597   1.216   5.214  0.0265  0.2398 -0.3884
 1767SOL    HW216935   4.600   1.353   5.161 -0.3280 -0.1020 -0.0506
 1768SOL     OW16936   1.959   3.287   3.635  0.4442 -0.1001 -0.0077
 1768SOL    HW116937   2.016   3.351   3.678 -1.6360  2.6614 -1.4857
 1768SOL    HW216938   2.018   3.254   3.567  1.3822 -0.8091  1.1275
 1769SOL     OW16939   3.554   2.490   4.079 -0.1839  0.5187 -0.1515
 1769SOL    HW116940   3.595   2.422   4.026  0.8878  0.3742  0.8509
 1769SOL    HW216941   3.513   2.444   4.153 -0.6944 -3.2057 -2.7705
 1770SOL     OW16942   3.323   1.825   2.299  0.1468  0.3759  0.2098
 1770SOL    HW116943   3.274   1.792   2.224  2.0501 -2.2003  0.0963
 1770SOL    HW216944   3.259   1.839   2.368 -1.9768 -0.5279 -1.5714
 1771SOL     OW16945   3.782   3.351   4.408 -0.0452  0.5065 -0.2323
 1771SOL    HW116946   3.797   3.438   4.443 -2.0514  0.1330  1.5231
 1771SOL    HW216947   3.706   3.326   4.460  1.0521 -1.5161  0.4505
 1772SOL     OW16948   0.675   3.881   5.592 -0.6051 -0.3710 -0.4856
 1772SOL    HW116949   0.681   3.921   5.505 -0.3779  3.0495  1.1075
 1772SOL    HW216950   0.762   3.846   5.608 -0.8158 -0.9269 -0.5493
 1773SOL     OW16951   4.233   0.091   2.532 -0.1134  0.2852 -0.1536
 1773SOL    HW116952   4.181   0.014   2.554  2.6082 -1.0957  1.3989
 1773SOL    HW216953   4.218   0.135   2.616  1.9713 -1.1728  0.9806
 1774SOL     OW16954   0.902   0.594   7.157  0.1116  0.2550  0.4645
 1774SOL    HW116955   0.976   0.602   7.217  0.0508 -0.4518  0.6330
 1774SOL    HW216956   0.835   0.590   7.224  2.0687 -0.3824  2.3937
 1775SOL     OW16957   3.856   3.711   6.815 -0.2629 -0.2346 -0.7226
 1775SOL    HW116958   3.864   3.803   6.837 -0.0842  0.0127 -1.7972
 1775SOL    HW216959   3.882   3.670   6.898  0.3998  2.3190  0.3169
 1776SOL     OW16960   3.619   3.051  14.109  0.1547 -0.0564 -0.3675
 1776SOL    HW116961   3.620   3.056  14.205  1.8802 -1.5236 -0.2921
 1776SOL    HW216962   3.690   2.988  14.094 -0.5366 -1.6988  3.1803
 1777SOL     OW16963   2.898   2.729   9.268  0.7088  0.7184  0.0580
 1777SOL    HW116964   2.987   2.699   9.289  1.0730  1.8945  0.2188
 1777SOL    HW216965   2.893   2.815   9.310 -2.7570  0.2693  0.5261
 1778SOL     OW16966   0.103   4.693   9.944 -0.1269 -0.7022  0.0291
 1778SOL    HW116967   0.120   0.037   9.893  2.6089 -0.4496  1.3286
 1778SOL    HW216968   0.192   4.657   9.939 -0.3542 -1.1374 -0.8859
 1779SOL     OW16969   4.348   3.769  13.127 -0.1169 -0.3230 -0.2718
 1779SOL    HW116970   4.432   3.814  13.123 -0.0363 -0.6197 -1.7188
 1779SOL    HW216971   4.351   3.759  13.223 -0.1367  2.1363 -0.0075
 1780SOL     OW16972   0.028   0.714   4.805  0.0128 -0.1847  0.7631
 1780SOL    HW116973   4.725   0.802   4.816 -0.8907 -0.5535  0.5911
 1780SOL    HW216974   4.714   0.669   4.874 -0.2282  0.4116  0.9824
 1781SOL     OW16975   2.665   0.736  13.118 -0.0531  0.1846  0.2969
 1781SOL    HW116976   2.643   0.717  13.027 -0.0773 -0.9083  0.5327
 1781SOL    HW216977   2.654   0.654  13.165 -4.1390  0.4039 -0.3485
 1782SOL     OW16978   4.589   0.146   3.558  0.6592  0.4662 -0.4211
 1782SOL    HW116979   4.648   0.116   3.488  1.4950 -0.1707  0.5584
 1782SOL    HW216980   4.639   0.225   3.577  1.2795 -0.9025  3.5932
 1783SOL     OW16981   2.436   2.381   1.486 -0.0141  0.0768  0.2653
 1783SOL    HW116982   2.460   2.290   1.469 -0.2459  0.1278 -0.3460
 1783SOL    HW216983   2.346   2.382   1.452  1.3420 -0.3301 -3.3609
 1784SOL     OW16984   4.442   0.505  11.716  0.3533  0.2119  0.3898
 1784SOL    HW116985   4.457   0.591  11.678  0.7359 -0.8233 -1.8106
 1784SOL    HW216986   4.527   0.462  11.704  1.1377  1.8434  0.1853
 1785SOL     OW16987   1.453   3.894   9.084  0.3369 -0.2466 -0.0519
 1785SOL    HW116988   1.372   3.846   9.103 -0.9839  1.8389 -0.3731
 1785SOL    HW216989   1.514   3.840   9.134 -0.2194  0.4293  1.3638
 1786SOL     OW16990   0.326   4.104   7.743 -0.3253  0.3370  0.1784
 1786SOL    HW116991   0.319   4.037   7.811 -0.6223 -0.5127 -0.6918
 1786SOL    HW216992   0.359   4.047   7.674 -1.9001 -1.8707  1.2514
 1787SOL     OW16993   0.631   2.052   6.556 -0.1541  0.1094 -0.3095
 1787SOL    HW116994   0.593   1.993   6.492 -2.1139  1.7266 -0.6340
 1787SOL    HW216995   0.710   2.005   6.581  0.0554  1.3276  1.3244
 1788SOL     OW16996   2.342   1.819  16.015  0.0427 -0.1002 -0.5573
 1788SOL    HW116997   2.351   1.886  16.083  1.9114 -1.8630  0.9427
 1788SOL    HW216998   2.431   1.812  15.982  0.7591 -0.4107  1.4216
 1789SOL     OW16999   2.379   1.249   1.311 -0.2682  0.5566  0.3053
 1789SOL    HW117000   2.366   1.343   1.314 -1.2419  0.4764 -1.1360
 1789SOL    HW217001   2.471   1.255   1.285 -0.1881  1.0031  0.6938
 1790SOL     OW17002   0.901   2.811   7.654  0.4427  0.0295 -0.0839
 1790SOL    HW117003   0.886   2.731   7.604 -0.1238 -1.0364  1.8130
 1790SOL    HW217004   0.883   2.795   7.747 -0.9929  1.1152 -0.1779
 1791SOL     OW17005   0.416   0.190   0.044  0.4924 -0.4349  0.2082
 1791SOL    HW117006   0.428   0.255  17.714 -1.1161 -0.9798 -0.5823
 1791SOL    HW217007   0.365   0.237   0.110  1.8656  0.6160  0.5251
 1792SOL     OW17008   2.381   1.513   6.330 -0.0283  0.2250  0.2701
 1792SOL    HW117009   2.372   1.491   6.423  0.3496 -1.1402 -0.0164
 1792SOL    HW217010   2.416   1.600   6.346  0.7759 -0.4134  2.0451
 1793SOL     OW17011   3.791   0.964   8.595  0.5995 -0.7539  0.1147
 1793SOL    HW117012   3.731   0.912   8.649  0.6607 -0.6950  0.2417
 1793SOL    HW217013   3.879   0.936   8.620  1.1741  0.1571 -0.9234
 1794SOL     OW17014   1.783   4.309   3.498  0.5474  0.1327 -0.5275
 1794SOL    HW117015   1.744   4.361   3.428 -0.5553 -0.3824 -0.2933
 1794SOL    HW217016   1.718   4.242   3.520 -1.1553  1.4786 -1.4732
 1795SOL     OW17017   3.195   0.602  11.106 -0.1679 -0.0496  0.0155
 1795SOL    HW117018   3.275   0.578  11.061 -0.5319 -2.8109  0.8826
 1795SOL    HW217019   3.159   0.671  11.050 -0.4681 -0.6447 -0.5186
 1796SOL     OW17020   2.127   2.484   5.128 -0.2699 -0.1468 -0.8260
 1796SOL    HW117021   2.146   2.445   5.043 -0.0889 -3.2152  0.6322
 1796SOL    HW217022   2.044   2.439   5.144 -1.4594  1.5546 -2.1744
 1797SOL     OW17023   4.130   1.091   5.935 -1.1334 -0.4506 -0.3249
 1797SOL    HW117024   4.136   1.137   6.019  0.5469 -1.2457  0.0007
 1797SOL    HW217025   4.045   1.052   5.953 -0.6077 -0.9183  1.1519
 1798SOL     OW17026   0.238   3.924   4.961  0.1871 -0.0526 -0.3012
 1798SOL    HW117027   0.236   3.925   5.057  0.8095 -0.4420 -0.2902
 1798SOL    HW217028   0.328   3.950   4.944  0.3435 -0.7028 -0.4661
 1799SOL     OW17029   4.226   1.152   7.349 -0.0275 -0.0607  0.0510
 1799SOL    HW117030   4.318   1.176   7.344 -0.2376  0.5598 -0.8480
 1799SOL    HW217031   4.225   1.088   7.278 -0.0106  0.3205 -0.2951
 1800SOL     OW17032   1.600   0.045   7.810 -0.2960  0.3617  0.0615
 1800SOL    HW117033   1.636   4.701   7.769 -0.6730  0.0550  0.3278
 1800SOL    HW217034   1.658   0.063   7.884  0.4660 -2.1186  0.0900
 1801SOL     OW17035   1.534   0.376   1.477 -0.0804  0.2434 -0.7469
 1801SOL    HW117036   1.608   0.437   1.476 -1.0829  1.4761  0.5947
 1801SOL    HW217037   1.525   0.343   1.566  2.7554  1.6856  0.0821
 1802SOL     OW17038   0.983   2.646   8.440 -0.2479  0.2982 -0.6080
 1802SOL    HW117039   0.962   2.714   8.504 -1.5820 -0.7973  0.1252
 1802SOL    HW217040   0.966   2.562   8.482 -0.5607  0.6282 -0.0723
 1803SOL     OW17041   3.407   2.426   5.842  0.7867  0.0486 -0.4824
 1803SOL    HW117042   3.399   2.456   5.933 -2.1402 -1.2945 -0.3093
 1803SOL    HW217043   3.330   2.374   5.819  0.8291 -0.4604  0.5114
 1804SOL     OW17044   3.664   3.003   5.762  0.6663  0.2724  0.3179
 1804SOL    HW117045   3.731   3.045   5.708  0.1943 -0.1917 -0.6324
 1804SOL    HW217046   3.598   2.965   5.704  0.8497 -0.5537  0.6512
 1805SOL     OW17047   1.278   2.437  11.093  0.0093 -0.4778  0.3582
 1805SOL    HW117048   1.358   2.453  11.142  2.0536  0.9008 -3.4040
 1805SOL    HW217049   1.235   2.376  11.153 -1.0899  0.3562  0.4056
 1806SOL     OW17050   0.881   3.583   8.184 -0.2012 -0.3209 -0.0736
 1806SOL    HW117051   0.967   3.556   8.150  1.0546 -0.0462  2.7936
 1806SOL    HW217052   0.844   3.617   8.103 -0.5095  0.9988  0.6206
 1807SOL     OW17053   3.604   2.902   8.389  0.4337  0.1201  0.7731
 1807SOL    HW117054   3.582   2.850   8.466  0.8458 -0.0979  0.7458
 1807SOL    HW217055   3.551   2.864   8.320 -2.2053  1.4524  2.0487
 1808SOL     OW17056   1.084   1.922   7.581 -0.2850  0.3329 -0.6428
 1808SOL    HW117057   1.090   1.854   7.514  0.7520 -0.5142  0.3048
 1808SOL    HW217058   0.990   1.928   7.595 -0.0344 -0.9085  1.6869
 1809SOL     OW17059   0.619   1.540   2.092  0.2268  0.3401 -0.4908
 1809SOL    HW117060   0.544   1.584   2.052  0.4059 -0.0732 -1.2975
 1809SOL    HW217061   0.627   1.465   2.033  2.2088 -1.4174  2.0185
 1810SOL     OW17062   2.926   4.043   4.793  0.1953 -0.2936  0.0054
 1810SOL    HW117063   2.932   4.132   4.759 -0.1456  0.0635  0.8934
 1810SOL    HW217064   2.834   4.025   4.772  0.2103  2.0691 -2.0623
 1811SOL     OW17065   2.574   2.823   6.919 -0.4540 -0.2320 -0.0255
 1811SOL    HW117066   2.636   2.790   6.985  0.0926 -1.3499 -1.0940
 1811SOL    HW217067   2.495   2.776   6.946  0.0523 -0.5669  0.8893
 1812SOL     OW17068   4.095   2.420   5.958  0.4218 -0.2830  0.3366
 1812SOL    HW117069   4.024   2.391   5.901  0.2255  0.5484  0.1559
 1812SOL    HW217070   4.137   2.484   5.901  0.5074 -0.2210  0.4701
 1813SOL     OW17071   4.332   2.483  13.765 -0.1605 -0.5734  0.3057
 1813SOL    HW117072   4.327   2.490  13.669  1.3235 -0.1326  0.2620
 1813SOL    HW217073   4.303   2.570  13.794  1.4310  0.6732 -1.7586
 1814SOL     OW17074   0.442   0.370   3.919 -0.5453  0.5882  0.2983
 1814SOL    HW117075   0.507   0.441   3.919  0.9642 -0.8156 -1.3964
 1814SOL    HW217076   0.438   0.354   3.825 -1.7286  1.6051  0.1823
 1815SOL     OW17077   1.325   1.932   7.725 -0.1506  0.0257 -0.3458
 1815SOL    HW117078   1.232   1.923   7.704 -0.1250  2.8541 -1.6973
 1815SOL    HW217079   1.330   1.926   7.820 -2.2155  1.7998 -0.1259
 1816SOL     OW17080   1.493   4.648   4.947 -0.2252  0.1645 -0.3720
 1816SOL    HW117081   1.564   4.619   4.890 -0.5773 -0.0323 -0.7120
 1816SOL    HW217082   1.446   4.700   4.882 -0.7705 -1.4073 -1.2482
 1817SOL     OW17083   1.053   0.657   4.546  0.2950 -0.2789  0.2438
 1817SOL    HW117084   1.066   0.609   4.628  0.9708  1.4166  1.1313
 1817SOL    HW217085   1.141   0.690   4.527  0.5773 -1.2692 -0.1423
 1818SOL     OW17086   0.998   1.152   2.366 -0.3765 -0.6020 -0.1199
 1818SOL    HW117087   1.054   1.084   2.328  1.1766  0.7826 -0.3160
 1818SOL    HW217088   1.022   1.137   2.457 -0.1435 -0.9488 -0.2355
 1819SOL     OW17089   2.370   1.738   9.456  0.1561 -0.0807  0.1558
 1819SOL    HW117090   2.282   1.708   9.432  0.1019  0.3521 -0.1828
 1819SOL    HW217091   2.419   1.685   9.392 -1.2852  0.1475 -1.1354
 1820SOL     OW17092   2.054   1.131   1.733  0.0066  0.2902  0.3011
 1820SOL    HW117093   1.989   1.197   1.709  0.0419  1.2674  2.8781
 1820SOL    HW217094   2.052   1.081   1.651  0.2030 -1.8974  1.6123
 1821SOL     OW17095   0.173   1.308   3.051 -0.5731  0.4020 -0.3208
 1821SOL    HW117096   0.230   1.366   2.999 -0.2483  0.9478  0.6424
 1821SOL    HW217097   0.188   1.223   3.010  0.9507 -0.1678  1.4092
 1822SOL     OW17098   1.927   1.147   9.517 -0.1184  0.8425  0.1897
 1822SOL    HW117099   1.876   1.101   9.584  1.8828 -0.1189  1.0431
 1822SOL    HW217100   1.873   1.157   9.439  1.3946 -0.3361 -0.9970
 1823SOL     OW17101   1.251   4.580   8.655 -0.1112 -0.1269  0.1485
 1823SOL    HW117102   1.305   4.633   8.598 -0.8377  0.5062  0.0455
 1823SOL    HW217103   1.267   4.621   8.740 -0.5134  0.4608 -0.0567
 1824SOL     OW17104   3.453   0.634  14.983  0.3914  0.3747 -0.3789
 1824SOL    HW117105   3.493   0.669  15.063 -0.0773  0.8645 -0.3547
 1824SOL    HW217106   3.383   0.582  15.022 -0.0448 -0.6271 -2.5287
 1825SOL     OW17107   1.093   1.139   9.656  0.0086  0.0000  0.1001
 1825SOL    HW117108   1.149   1.075   9.613 -0.5521  0.6466 -1.6299
 1825SOL    HW217109   1.021   1.156   9.595 -0.5426 -1.3041  0.4016
 1826SOL     OW17110   0.905   2.405   5.392 -0.3302  0.4491  0.3896
 1826SOL    HW117111   0.841   2.334   5.387 -0.9662  1.2665 -2.6770
 1826SOL    HW217112   0.889   2.450   5.475  1.5220  0.6061  0.6772
 1827SOL     OW17113   0.993   0.117   9.977  0.2081 -0.3680  1.0197
 1827SOL    HW117114   1.053   0.094   9.906  0.6791  0.3797  1.1644
 1827SOL    HW217115   1.035   0.201   9.996  0.0395  0.1979 -1.1056
 1828SOL     OW17116   3.588   1.717   6.870 -0.5451  0.3819  0.1091
 1828SOL    HW117117   3.676   1.696   6.838 -1.0437  1.8867 -2.2549
 1828SOL    HW217118   3.540   1.693   6.791  1.0063 -0.4330 -0.6003
 1829SOL     OW17119   1.122   2.541   4.852 -0.4637 -0.4170 -0.1421
 1829SOL    HW117120   1.074   2.576   4.927 -2.6648  1.5375 -2.4740
 1829SOL    HW217121   1.176   2.479   4.901  0.0381 -1.3466 -1.8741
 1830SOL     OW17122   0.900   3.458  14.901 -0.0490 -0.0942  0.4956
 1830SOL    HW117123   0.808   3.476  14.881 -1.1222 -1.0479  4.7117
 1830SOL    HW217124   0.927   3.410  14.822 -1.0378  0.6019 -0.2746
 1831SOL     OW17125   4.626   0.793  17.629 -0.1182  0.4406 -0.1318
 1831SOL    HW117126   4.715   0.794  17.666 -1.3397 -1.8240  2.8840
 1831SOL    HW217127   4.648   0.809  17.538  1.5978  0.2206  0.2455
 1832SOL     OW17128   1.755   1.660   4.863  0.2843 -1.0357 -0.7115
 1832SOL    HW117129   1.816   1.694   4.929 -0.0322 -2.3511  0.2655
 1832SOL    HW217130   1.808   1.671   4.785  1.5693  0.8200  0.4176
 1833SOL     OW17131   1.862   1.268   0.191 -0.5798 -0.1670 -0.1158
 1833SOL    HW117132   1.781   1.259   0.140 -0.3745 -0.2598 -0.4204
 1833SOL    HW217133   1.920   1.273   0.116 -0.1370  1.2568  0.3400
 1834SOL     OW17134   2.652   1.386   5.629  0.3018 -0.2202  0.0242
 1834SOL    HW117135   2.625   1.439   5.555  1.2731 -0.0548 -0.2037
 1834SOL    HW217136   2.596   1.309   5.618  0.2042  0.0374 -1.3189
 1835SOL     OW17137   4.246   0.750  16.751  0.3705  0.0755  0.5275
 1835SOL    HW117138   4.196   0.673  16.778 -3.1318  2.3401  0.4740
 1835SOL    HW217139   4.181   0.817  16.734 -0.6492 -0.3379  2.7528
 1836SOL     OW17140   0.371   4.697  12.429  0.3663  0.1791 -1.1544
 1836SOL    HW117141   0.372   4.722  12.336  0.2426  0.6371 -1.0290
 1836SOL    HW217142   0.278   4.711  12.442  0.6919  2.0746 -0.9728
 1837SOL     OW17143   0.360   2.873   7.326  0.5356  0.3318 -0.0374
 1837SOL    HW117144   0.274   2.884   7.367 -0.9285  1.3850 -3.4387
 1837SOL    HW217145   0.402   2.952   7.360 -0.5016  1.1887 -0.7342
 1838SOL     OW17146   0.471   0.607   3.633  0.4555  0.2321  0.0298
 1838SOL    HW117147   0.470   0.637   3.724  2.1991 -2.7709  1.0583
 1838SOL    HW217148   0.387   0.647   3.610  0.2105 -0.8592 -0.9613
 1839SOL     OW17149   1.760   0.185   8.547  0.2526  0.2032 -0.3702
 1839SOL    HW117150   1.739   0.162   8.457  0.0593  1.8986 -0.7654
 1839SOL    HW217151   1.777   0.098   8.583  0.5358  0.4893  0.1822
 1840SOL     OW17152   2.102   3.976   4.353  0.1641  0.1721  0.9450
 1840SOL    HW117153   2.040   3.931   4.296  0.1412 -1.4518  2.2585
 1840SOL    HW217154   2.081   4.067   4.333 -1.6900 -0.8471 -1.7258
 1841SOL     OW17155   2.825   3.914  12.079 -0.8308  0.1816  0.2938
 1841SOL    HW117156   2.914   3.940  12.052 -0.6426 -2.7577 -1.8304
 1841SOL    HW217157   2.765   3.934  12.007 -1.6895 -2.5278  0.2486
 1842SOL     OW17158   4.714   1.003  15.594  0.2289 -0.1781 -0.1639
 1842SOL    HW117159   4.692   0.917  15.556  0.0422 -1.0234  1.8585
 1842SOL    HW217160   4.684   1.058  15.522  0.1982 -0.0925 -0.0862
 1843SOL     OW17161   1.315   4.404  12.082  0.0222  0.0865  0.2958
 1843SOL    HW117162   1.271   4.488  12.067  0.1922  0.0112 -0.6470
 1843SOL    HW217163   1.402   4.441  12.096  0.4753 -1.6091  2.0042
 1844SOL     OW17164   0.423   0.670   6.052  0.2243 -0.1632 -0.3648
 1844SOL    HW117165   0.350   0.712   6.098 -0.0586 -0.9832 -0.0702
 1844SOL    HW217166   0.434   0.719   5.971 -3.9053 -0.3839 -1.0578
 1845SOL     OW17167   2.256   2.605   1.913  0.4855  0.6248 -0.5641
 1845SOL    HW117168   2.232   2.514   1.932  2.4927 -0.4244 -3.0788
 1845SOL    HW217169   2.310   2.593   1.836  0.9983 -0.1263 -0.0838
 1846SOL     OW17170   2.499   3.981   8.684  0.1327 -0.5545  0.1338
 1846SOL    HW117171   2.507   4.029   8.766  2.4510 -0.6586 -0.0479
 1846SOL    HW217172   2.591   3.974   8.658 -0.4423  0.6957 -2.3315
 1847SOL     OW17173   0.864   4.180   2.856 -0.1350 -0.6264 -0.1742
 1847SOL    HW117174   0.953   4.172   2.890 -0.2861 -1.5144  0.0075
 1847SOL    HW217175   0.838   4.259   2.904  0.9843  0.8677 -2.0398
 1848SOL     OW17176   4.112   4.721   6.643 -0.2577 -0.2912 -0.1094
 1848SOL    HW117177   4.081   0.069   6.609  1.9364  1.3632  1.9295
 1848SOL    HW217178   4.150   4.683   6.564 -0.6215  0.0463 -0.4447
 1849SOL     OW17179   1.053   1.708   7.844  0.3864  0.1125  0.3426
 1849SOL    HW117180   1.067   1.750   7.929  0.6077 -0.7766  0.7489
 1849SOL    HW217181   1.121   1.642   7.830  1.0808  1.2712 -1.8044
 1850SOL     OW17182   3.333   3.596   6.934  0.3482  0.5037  0.1664
 1850SOL    HW117183   3.284   3.641   6.865 -3.1032 -0.4793  1.9651
 1850SOL    HW217184   3.423   3.609   6.905  1.1128 -2.6940  1.0271
 1851SOL     OW17185   0.766   4.441   2.958 -0.2507  0.1486 -0.0274
 1851SOL    HW117186   0.793   4.532   2.945 -1.4727  0.5935  0.4885
 1851SOL    HW217187   0.734   4.435   3.048  1.2659  0.5553  0.5341
 1852SOL     OW17188   3.955   1.340  17.549 -0.3672  0.1737  0.4331
 1852SOL    HW117189   3.866   1.314  17.527 -0.6562  0.4982  1.2144
 1852SOL    HW217190   3.937   1.357  17.642  0.0333  0.3719  0.4769
 1853SOL     OW17191   4.413   4.225   7.462  0.2889  0.2061 -0.7298
 1853SOL    HW117192   4.330   4.202   7.418  0.4255 -1.0963 -0.3086
 1853SOL    HW217193   4.476   4.219   7.390  1.3479  1.8941  0.0825
 1854SOL     OW17194   3.435   1.031   5.928  0.0888  0.3727 -0.0774
 1854SOL    HW117195   3.367   1.096   5.907 -0.2681  0.6686  1.9542
 1854SOL    HW217196   3.437   1.046   6.023  1.7181  0.1476 -0.0874
 1855SOL     OW17197   1.794   2.401   1.088 -0.4069 -0.0571 -0.4151
 1855SOL    HW117198   1.762   2.347   1.016 -2.9301  0.6840  0.1339
 1855SOL    HW217199   1.804   2.337   1.159  0.8023 -0.6625 -1.1364
 1856SOL     OW17200   2.550   1.045  14.742  0.3771  0.4192  0.1579
 1856SOL    HW117201   2.603   1.009  14.813  1.2791 -1.7882 -1.6180
 1856SOL    HW217202   2.468   0.999  14.760  0.8847  0.1280  1.7476
 1857SOL     OW17203   2.262   1.897  15.389 -0.2519  0.1049  0.1317
 1857SOL    HW117204   2.284   1.949  15.466 -0.3860 -1.8104  1.4544
 1857SOL    HW217205   2.320   1.941  15.326  0.2453 -0.9059 -0.1054
 1858SOL     OW17206   1.587   4.083  11.942 -0.2609 -0.1124 -0.0007
 1858SOL    HW117207   1.624   4.095  12.029  1.6917  1.2242 -1.0144
 1858SOL    HW217208   1.529   4.158  11.935 -1.8659 -1.3053  0.4762
 1859SOL     OW17209   0.111   3.350  13.164 -0.4099  0.1694 -0.0193
 1859SOL    HW117210   0.100   3.356  13.259 -0.5567  0.4635 -0.0547
 1859SOL    HW217211   0.093   3.258  13.148 -0.4163  0.1402  0.1499
 1860SOL     OW17212   1.235   4.172   4.587 -0.0320 -0.0522 -0.1813
 1860SOL    HW117213   1.321   4.136   4.604 -0.0603 -1.5267 -2.9893
 1860SOL    HW217214   1.175   4.111   4.630  1.1658 -2.3337 -1.7590
 1861SOL     OW17215   3.619   4.432   2.138  0.3254 -0.4619 -0.8577
 1861SOL    HW117216   3.713   4.449   2.142  0.1800  0.2606 -0.4791
 1861SOL    HW217217   3.611   4.380   2.058  0.2558  0.7797 -1.6537
 1862SOL     OW17218   4.365   2.453  12.837 -0.2908 -0.0493 -0.5566
 1862SOL    HW117219   4.270   2.462  12.850 -0.2694  0.1373 -0.5348
 1862SOL    HW217220   4.394   2.414  12.920  0.0380  2.5497  0.5551
 1863SOL     OW17221   1.260   4.641   4.191 -0.1491 -0.0520  0.1095
 1863SOL    HW117222   1.242   4.548   4.203 -1.6089  0.7640  4.0717
 1863SOL    HW217223   1.238   4.670   4.279 -1.2916  0.1453 -0.2349
 1864SOL     OW17224   4.030   1.585   4.661 -0.6207  0.0849  0.1845
 1864SOL    HW117225   3.974   1.627   4.596  1.9618  1.0148 -1.4225
 1864SOL    HW217226   4.073   1.655   4.710 -0.2347  0.5571 -0.8413
 1865SOL     OW17227   2.521   2.103  14.458  0.0693 -0.2452 -0.4115
 1865SOL    HW117228   2.611   2.114  14.427 -0.1251  0.0113 -0.8882
 1865SOL    HW217229   2.498   2.194  14.478  1.2725  0.5948 -2.7310
 1866SOL     OW17230   0.928   0.675   2.666  0.4592 -0.0294 -0.2590
 1866SOL    HW117231   0.851   0.623   2.643 -0.1069  0.0899  1.3698
 1866SOL    HW217232   0.889   0.741   2.724  0.7441 -1.9054  2.0440
 1867SOL     OW17233   0.592   2.706   0.336  0.6803 -0.1002  0.0315
 1867SOL    HW117234   0.518   2.767   0.339 -1.6627 -2.9620  0.6989
 1867SOL    HW217235   0.651   2.780   0.349 -1.0599  1.0645  1.3354
 1868SOL     OW17236   0.845   2.860  11.947  0.9252  0.0660  0.0758
 1868SOL    HW117237   0.936   2.832  11.934 -0.9064 -4.9225 -1.7876
 1868SOL    HW217238   0.822   2.875  11.855  2.3580  0.8498 -0.1554
 1869SOL     OW17239   2.027   2.735  12.830 -0.2063  0.1311 -0.6928
 1869SOL    HW117240   2.110   2.776  12.807  0.6776  0.6931  3.4716
 1869SOL    HW217241   2.054   2.644  12.844 -0.3537  0.1655 -0.1736
 1870SOL     OW17242   4.058   0.419   4.434  0.2692 -0.0624  0.3359
 1870SOL    HW117243   4.112   0.392   4.360 -1.3290  2.5957 -1.8332
 1870SOL    HW217244   4.025   0.334   4.462 -1.1152  1.7833  4.3282
 1871SOL     OW17245   0.980   2.474   6.832  0.2115  0.6128  0.6253
 1871SOL    HW117246   1.041   2.401   6.823 -0.7714  0.0114 -1.2143
 1871SOL    HW217247   0.999   2.515   6.917  2.0704  0.8822  0.0816
 1872SOL     OW17248   2.023   3.047   2.333 -0.5276 -0.2857 -0.7724
 1872SOL    HW117249   2.081   3.122   2.351 -1.0080  0.1572 -1.0956
 1872SOL    HW217250   1.959   3.092   2.278 -2.4646  2.4259  3.7061
 1873SOL     OW17251   2.631   1.961   2.268 -0.4790 -0.3261  0.2402
 1873SOL    HW117252   2.581   2.034   2.305  0.3717  0.8984 -1.0000
 1873SOL    HW217253   2.718   1.965   2.309 -2.4775 -0.6720  4.4536
 1874SOL     OW17254   1.695   1.689   9.468 -0.5213 -0.0078 -0.2692
 1874SOL    HW117255   1.738   1.722   9.389 -0.0112 -2.2622 -0.9323
 1874SOL    HW217256   1.734   1.727   9.546  0.8359  0.6405 -1.2791
 1875SOL     OW17257   0.130   2.794   6.572 -0.1411  0.3382 -0.5617
 1875SOL    HW117258   0.156   2.702   6.572 -2.8419 -0.4332 -0.9067
 1875SOL    HW217259   0.208   2.840   6.603 -1.5425  1.4102  1.4129
 1876SOL     OW17260   4.122   0.513   9.549 -0.4190 -0.3029  0.8731
 1876SOL    HW117261   4.134   0.419   9.567  2.9887  0.1597  0.8634
 1876SOL    HW217262   4.036   0.519   9.507 -0.3335 -0.2797  0.7027
 1877SOL     OW17263   3.900   4.436  12.479  0.1715  0.2696  0.0909
 1877SOL    HW117264   3.905   4.374  12.552 -0.3723 -1.3088 -1.2352
 1877SOL    HW217265   3.810   4.419  12.451  0.1702  0.7869 -0.2311
 1878SOL     OW17266   0.468   2.874   8.885 -0.1814 -0.1440  0.3708
 1878SOL    HW117267   0.484   2.963   8.854  3.1092 -0.5846  0.7373
 1878SOL    HW217268   0.419   2.837   8.812  0.5445  0.9466 -0.6608
 1879SOL     OW17269   1.277   3.438  11.992 -0.2198  0.0962  0.4430
 1879SOL    HW117270   1.268   3.447  11.897  0.6819 -2.1428  0.1568
 1879SOL    HW217271   1.195   3.394  12.015 -0.4048  0.4024  0.3673
 1880SOL     OW17272   4.112   0.084   2.009  0.1591 -0.5529  0.5739
 1880SOL    HW117273   4.170   0.110   2.081  2.1455 -1.1771 -0.8092
 1880SOL    HW217274   4.061   0.164   1.994  0.7679 -0.3393 -0.3506
 1881SOL     OW17275   0.645   4.002   9.436 -0.3366 -0.4507  0.2402
 1881SOL    HW117276   0.614   4.050   9.359  3.6218  3.5551  1.1224
 1881SOL    HW217277   0.738   3.988   9.414 -0.9106  0.4830 -2.7339
 1882SOL     OW17278   3.681   0.619   7.783 -0.1245 -0.3925 -0.0042
 1882SOL    HW117279   3.738   0.606   7.859  0.5121 -1.8259 -0.7252
 1882SOL    HW217280   3.725   0.691   7.737  2.0923 -2.8828 -1.7953
 1883SOL     OW17281   0.972   2.814   8.711  0.2372  0.1856 -0.2251
 1883SOL    HW117282   0.947   2.898   8.750  0.6328  0.7748 -1.2544
 1883SOL    HW217283   0.913   2.747   8.746  1.0790 -0.8151 -0.7144
 1884SOL     OW17284   1.696   0.291   9.570 -0.5001 -0.0354  0.2821
 1884SOL    HW117285   1.780   0.248   9.586 -0.1114  0.5026 -0.2862
 1884SOL    HW217286   1.737   0.363   9.522 -0.1087  0.4916  1.4242
 1885SOL     OW17287   3.077   3.864   7.311  0.2846 -0.1744 -0.2249
 1885SOL    HW117288   3.090   3.770   7.324  3.0928 -0.0480 -2.1364
 1885SOL    HW217289   2.989   3.873   7.349  0.1480 -2.2100 -0.0503
 1886SOL     OW17290   1.981   1.445   9.493 -0.4932  0.3849 -0.6176
 1886SOL    HW117291   1.916   1.481   9.554  0.5969  2.1643 -0.5181
 1886SOL    HW217292   1.936   1.366   9.463 -1.3102  0.4547  0.4221
 1887SOL     OW17293   3.752   2.343  10.185 -0.0311 -0.0951  0.3765
 1887SOL    HW117294   3.784   2.266  10.232  1.0655  0.9580  1.3431
 1887SOL    HW217295   3.673   2.368  10.234 -0.9527  1.1759 -1.7509
 1888SOL     OW17296   3.224   0.293   1.584  0.0089 -0.0325  0.2179
 1888SOL    HW117297   3.174   0.367   1.550  0.3636  0.2107  0.2294
 1888SOL    HW217298   3.145   0.247   1.613  0.1069 -0.9551 -0.9728
 1889SOL     OW17299   0.092   0.021   8.397  0.2877 -0.2445 -0.6235
 1889SOL    HW117300   0.076   0.024   8.492  0.8597 -1.5876 -0.4811
 1889SOL    HW217301   0.161   0.087   8.387 -0.1903 -0.0819 -2.7559
 1890SOL     OW17302   1.150   3.792   7.931  0.1315 -0.6429 -0.0494
 1890SOL    HW117303   1.152   3.857   8.002  1.1457  1.2986 -1.8560
 1890SOL    HW217304   1.236   3.753   7.947  0.0529  0.6261  3.6228
 1891SOL     OW17305   2.527   0.227   3.095 -0.4304 -0.4531 -0.7177
 1891SOL    HW117306   2.511   0.182   3.178 -0.9671  1.3516  0.1561
 1891SOL    HW217307   2.571   0.302   3.135  1.1418 -1.8635  0.2041
 1892SOL     OW17308   2.772   1.037   8.217 -0.3016 -0.4859  0.1463
 1892SOL    HW117309   2.811   1.041   8.130  0.6995 -1.6644  0.5428
 1892SOL    HW217310   2.852   1.027   8.269 -0.5884  1.4287  0.9378
 1893SOL     OW17311   1.399   4.110   6.519  0.0739  0.1728  0.8605
 1893SOL    HW117312   1.369   4.199   6.500  0.0397 -0.6097 -2.7711
 1893SOL    HW217313   1.330   4.065   6.471  1.4795 -0.0808 -0.9090
 1894SOL     OW17314   0.261   0.255   9.567  0.2823  0.0298 -0.1867
 1894SOL    HW117315   0.342   0.229   9.524  3.0040  2.2604  3.5868
 1894SOL    HW217316   0.277   0.349   9.575 -0.9695  0.4802 -2.9014
 1895SOL     OW17317   2.134   3.111   6.171 -0.6806 -0.4088 -0.1714
 1895SOL    HW117318   2.045   3.117   6.136 -1.6400 -2.6273  1.8344
 1895SOL    HW217319   2.116   3.054   6.247 -1.3527 -0.1342 -0.1254
 1896SOL     OW17320   3.559   0.459   3.775 -0.4567  0.2394  0.6730
 1896SOL    HW117321   3.495   0.417   3.718  0.6898  1.1179 -1.2884
 1896SOL    HW217322   3.502   0.525   3.815  4.3697  3.6804  1.9428
 1897SOL     OW17323   1.058   2.680  17.574  0.0461  0.2478  0.0566
 1897SOL    HW117324   1.119   2.655  17.643 -0.2736 -0.9951 -0.1114
 1897SOL    HW217325   1.086   2.771  17.569 -0.9265  0.4481 -1.6355
 1898SOL     OW17326   2.853   2.168  17.459  0.3885 -0.2308 -0.2359
 1898SOL    HW117327   2.798   2.218  17.518  1.5570  2.6657 -1.5702
 1898SOL    HW217328   2.865   2.084  17.504 -0.2687 -0.9390 -1.3840
 1899SOL     OW17329   0.137   0.603  12.583 -0.1527  0.9068  0.3327
 1899SOL    HW117330   0.134   0.697  12.600  1.4234  0.6581  2.0096
 1899SOL    HW217331   0.206   0.600  12.516 -0.2421 -0.3964  0.2943
 1900SOL     OW17332   0.485   1.987  11.077  0.0757 -0.0685 -0.5475
 1900SOL    HW117333   0.569   1.983  11.030 -0.3477 -3.1411 -1.0122
 1900SOL    HW217334   0.438   1.905  11.063 -2.7706  1.7250 -1.3699
 1901SOL     OW17335   2.248   2.563   5.375 -0.0405 -0.3682  0.1382
 1901SOL    HW117336   2.205   2.507   5.440  0.2378 -1.2731 -0.4450
 1901SOL    HW217337   2.192   2.548   5.298 -1.8306  1.9473  1.0119
 1902SOL     OW17338   2.389   2.335  11.579 -0.1539 -0.1606  0.6719
 1902SOL    HW117339   2.310   2.282  11.578  0.0819 -0.5606  3.1221
 1902SOL    HW217340   2.452   2.282  11.529  2.3059  2.4123  1.0043
 1903SOL     OW17341   2.341   0.579   8.643 -0.2576  0.1822  0.5729
 1903SOL    HW117342   2.297   0.638   8.582 -1.2054 -0.6227  0.4608
 1903SOL    HW217343   2.310   0.494   8.610 -0.9233  0.0733  1.4617
 1904SOL     OW17344   2.450   1.330   1.735  0.2533 -0.5124  0.2650
 1904SOL    HW117345   2.370   1.378   1.755  2.2320  2.4408  1.1962
 1904SOL    HW217346   2.514   1.368   1.795  0.2054  0.4954 -0.3126
 1905SOL     OW17347   1.515   1.465   0.060 -0.1296  1.0138 -0.7389
 1905SOL    HW117348   1.422   1.461   0.039 -0.2627  0.2282  0.0196
 1905SOL    HW217349   1.542   1.375   0.076  2.1023  1.8122  0.0377
 1906SOL     OW17350   1.487   1.269   6.539 -0.4885 -0.5309 -0.3889
 1906SOL    HW117351   1.518   1.248   6.451  4.2823 -1.5649  1.5217
 1906SOL    HW217352   1.564   1.247   6.591 -0.4505 -0.2100 -0.3112
 1907SOL     OW17353   3.337   4.054   3.395  0.4245  0.6458 -0.3371
 1907SOL    HW117354   3.276   4.126   3.377 -1.6984 -1.1348 -0.1322
 1907SOL    HW217355   3.420   4.100   3.412  2.5083 -2.7647 -1.3976
 1908SOL     OW17356   3.488   0.409   7.273  0.2595 -0.3038 -0.4588
 1908SOL    HW117357   3.449   0.441   7.355  1.3730 -0.7321  0.2387
 1908SOL    HW217358   3.495   0.314   7.282 -2.3396 -0.2457  2.1835
 1909SOL     OW17359   2.393   3.577  13.027 -0.4388 -0.4080  0.2648
 1909SOL    HW117360   2.404   3.579  13.122  0.6790 -1.6443  0.1673
 1909SOL    HW217361   2.445   3.656  13.015 -0.9904 -0.2921 -1.3372
 1910SOL     OW17362   1.841   1.952   7.985 -0.1022  0.2893 -0.2034
 1910SOL    HW117363   1.823   2.032   7.936 -1.3667  0.2965  0.2790
 1910SOL    HW217364   1.779   1.891   7.946 -0.7576 -0.4910  2.0697
 1911SOL     OW17365   1.397   2.769  17.372  0.0999  0.4544  0.1509
 1911SOL    HW117366   1.468   2.721  17.414 -1.7164 -0.7159  1.9055
 1911SOL    HW217367   1.349   2.798  17.449 -0.2781  0.6262 -0.1465
 1912SOL     OW17368   0.329   4.651   6.621  0.3596  0.1387 -0.2031
 1912SOL    HW117369   0.269   4.635   6.694 -1.0987  0.2075 -1.3827
 1912SOL    HW217370   0.388   4.577   6.627  0.3091  0.0457 -0.8518
 1913SOL     OW17371   4.685   1.693   3.689 -0.4351 -0.0276  0.4451
 1913SOL    HW117372   0.029   1.660   3.731 -0.3162  0.3894  0.5511
 1913SOL    HW217373   4.658   1.757   3.754  1.1449  1.1103 -0.0071
 1914SOL     OW17374   2.484   3.219   3.129  0.0214 -0.5532  0.5516
 1914SOL    HW117375   2.489   3.221   3.033  0.3475  1.8360  0.6154
 1914SOL    HW217376   2.432   3.139   3.131  1.5629 -1.5098  1.9996
 1915SOL     OW17377   0.911   2.277   6.225  0.5398 -0.1601  0.6398
 1915SOL    HW117378   0.890   2.365   6.195 -1.7143 -1.3760 -1.3330
 1915SOL    HW217379   0.869   2.274   6.311 -0.7867 -1.7651 -0.0463
 1916SOL     OW17380   0.687   0.695   0.196 -0.1578 -0.2199 -0.1091
 1916SOL    HW117381   0.753   0.652   0.143 -1.0941 -3.1881  1.1405
 1916SOL    HW217382   0.713   0.671   0.285 -2.7646  3.5792  1.7062
 1917SOL     OW17383   1.320   1.712   3.745 -0.5223 -0.1615 -0.4457
 1917SOL    HW117384   1.398   1.690   3.695  0.0394 -0.5833  0.5983
 1917SOL    HW217385   1.278   1.765   3.678 -2.1901 -1.4694 -0.4243
 1918SOL     OW17386   1.760   3.411   6.397  0.4850 -0.6766 -0.5712
 1918SOL    HW117387   1.670   3.414   6.366  0.1242  0.8105  0.6438
 1918SOL    HW217388   1.752   3.422   6.492  1.2813 -0.1346 -0.5618
 1919SOL     OW17389   3.318   2.486   7.399 -0.4166 -0.1806 -0.1111
 1919SOL    HW117390   3.252   2.421   7.422 -0.3082 -0.4119 -0.4484
 1919SOL    HW217391   3.305   2.555   7.464  0.4411  0.5741 -0.7241
 1920SOL     OW17392   0.579   2.378  14.852 -0.0216 -0.6059  0.6936
 1920SOL    HW117393   0.627   2.326  14.788 -0.1137  0.5640 -0.3232
 1920SOL    HW217394   0.642   2.380  14.924  0.7862  1.1955 -0.0778
 1921SOL     OW17395   1.652   1.929   9.096  0.2853  0.1789 -0.1068
 1921SOL    HW117396   1.650   2.006   9.153 -0.7801 -1.3552  1.8805
 1921SOL    HW217397   1.574   1.885   9.129  0.2001  0.2093 -0.2667
 1922SOL     OW17398   1.884   4.315  15.924 -0.0690 -0.3267  0.3543
 1922SOL    HW117399   1.851   4.398  15.959  0.8089 -0.3788  1.2905
 1922SOL    HW217400   1.882   4.255  15.998  0.7219  0.3921  0.9572
 1923SOL     OW17401   1.310   1.702   4.029  0.2986  0.3757 -0.4135
 1923SOL    HW117402   1.301   1.742   3.942  1.4674 -0.7233 -1.0350
 1923SOL    HW217403   1.222   1.729   4.058  0.1405  0.2577 -0.7846
 1924SOL     OW17404   2.042   2.862   2.653 -0.1992  0.5170 -0.5993
 1924SOL    HW117405   2.003   2.936   2.699 -1.6582  0.6029 -1.9644
 1924SOL    HW217406   1.990   2.864   2.573 -1.2584 -0.7954  0.0763
 1925SOL     OW17407   2.072   3.385   3.323 -0.1631  0.1583 -0.2751
 1925SOL    HW117408   2.025   3.461   3.356  2.8388  0.6024  2.9080
 1925SOL    HW217409   2.160   3.400   3.357 -0.5197  1.1206  0.2282
 1926SOL     OW17410   2.642   0.600   9.673  0.8262  0.5194  0.4514
 1926SOL    HW117411   2.645   0.512   9.711  0.0941 -0.1099 -0.9634
 1926SOL    HW217412   2.731   0.634   9.683  0.7812  0.7972 -0.0765
 1927SOL     OW17413   2.343   1.687   3.964 -0.5599  0.8511 -0.2413
 1927SOL    HW117414   2.406   1.627   3.925  0.8096  1.2160  1.4022
 1927SOL    HW217415   2.275   1.629   3.997 -0.2287  0.5059 -0.1691
 1928SOL     OW17416   1.637   1.361   1.517 -0.0197 -0.1652  0.5235
 1928SOL    HW117417   1.663   1.335   1.428 -0.6205  1.4623 -0.1239
 1928SOL    HW217418   1.618   1.454   1.504  0.3398  0.0094  1.3076
 1929SOL     OW17419   1.409   0.722   1.321 -0.1343 -0.1162  0.3245
 1929SOL    HW117420   1.398   0.728   1.226  2.1952  1.5048  0.1466
 1929SOL    HW217421   1.487   0.776   1.335 -2.1005  2.2054  2.5933
 1930SOL     OW17422   0.828   0.714  10.790  0.7924 -0.2011 -0.0089
 1930SOL    HW117423   0.763   0.749  10.729  0.4055 -2.4529 -0.8913
 1930SOL    HW217424   0.823   0.620  10.773  0.7553 -0.0821 -0.6789
 1931SOL     OW17425   4.192   0.548  13.455  0.2124  0.1889 -0.5298
 1931SOL    HW117426   4.262   0.539  13.520  0.6593 -0.4765 -1.1097
 1931SOL    HW217427   4.211   0.621  13.396  2.0536 -0.1974 -0.3903
 1932SOL     OW17428   3.751   1.791   3.250 -0.1953 -0.5093  0.4082
 1932SOL    HW117429   3.796   1.708   3.268  0.0776 -0.1849  1.2222
 1932SOL    HW217430   3.829   1.834   3.214  1.4357 -1.5312  2.6545
 1933SOL     OW17431   0.312   1.948   3.270  0.7767  0.3635 -0.6832
 1933SOL    HW117432   0.219   1.931   3.262  0.8075  0.2958 -0.8902
 1933SOL    HW217433   0.348   1.863   3.247 -0.7485 -0.8209  1.2665
 1934SOL     OW17434   2.476   3.292   6.252 -0.3553 -0.1854  0.1631
 1934SOL    HW117435   2.398   3.315   6.203  0.1880 -0.2330 -0.7258
 1934SOL    HW217436   2.444   3.211   6.292  1.6649 -1.9147 -1.7178
 1935SOL     OW17437   1.488   0.072   6.009 -0.3569 -0.2654 -0.3019
 1935SOL    HW117438   1.505   0.010   5.938 -1.9074  0.9429 -1.7254
 1935SOL    HW217439   1.401   0.041   6.034  0.3121 -1.1738  0.9114
 1936SOL     OW17440   0.520   0.118   2.349  0.0301 -0.0668  0.0735
 1936SOL    HW117441   0.430   0.112   2.317  0.1610  2.3094 -0.7279
 1936SOL    HW217442   0.565   0.042   2.312  1.9391  0.8876  0.4466
 1937SOL     OW17443   1.885   0.828   2.622  0.6919 -0.3514  0.3564
 1937SOL    HW117444   1.939   0.749   2.619  1.0890 -0.2422  4.0443
 1937SOL    HW217445   1.860   0.842   2.531  2.1649  0.2139  0.0396
 1938SOL     OW17446   0.758   4.502   4.863  0.3922  0.4260 -0.6170
 1938SOL    HW117447   0.773   4.543   4.949  1.7597  2.1970 -1.7019
 1938SOL    HW217448   0.836   4.447   4.868  0.5781  0.8538  1.1268
 1939SOL     OW17449   1.129   0.710  16.434 -0.0096 -0.0691  0.6588
 1939SOL    HW117450   1.046   0.724  16.388 -0.1319  0.9845  1.1973
 1939SOL    HW217451   1.197   0.724  16.367 -0.3730  2.5654  0.8510
 1940SOL     OW17452   4.539   4.625   1.091 -0.6496 -0.1327  0.3587
 1940SOL    HW117453   4.483   4.551   1.114  1.8343 -2.1001  0.1459
 1940SOL    HW217454   4.620   4.617   1.141 -1.4310  0.0924  1.6652
 1941SOL     OW17455   0.125   1.032   4.586  0.7224 -0.0284 -0.1492
 1941SOL    HW117456   0.142   0.969   4.516 -0.6250  0.5605 -1.0030
 1941SOL    HW217457   0.199   1.018   4.645 -0.7467  1.4203  2.0765
 1942SOL     OW17458   0.522   0.785   7.613  0.2361 -0.1261  0.0940
 1942SOL    HW117459   0.492   0.876   7.606  0.1135 -0.2047 -0.4245
 1942SOL    HW217460   0.612   0.801   7.643 -0.0182 -0.5018  1.0448
 1943SOL     OW17461   1.831   2.640   4.371 -0.0206 -0.5838 -0.1838
 1943SOL    HW117462   1.790   2.603   4.449 -1.1547  0.6270 -0.1964
 1943SOL    HW217463   1.875   2.560   4.342 -2.8397 -1.6470 -1.4806
 1944SOL     OW17464   0.167   4.166   3.487  0.3814 -0.1443 -0.0908
 1944SOL    HW117465   0.240   4.112   3.518 -1.7458 -1.6010  2.2839
 1944SOL    HW217466   0.198   4.256   3.500 -0.8540  0.5231 -1.8572
 1945SOL     OW17467   0.394   1.641   2.502  0.0913 -0.4488  0.7168
 1945SOL    HW117468   0.310   1.596   2.489 -1.3546  2.3789  0.2229
 1945SOL    HW217469   0.449   1.590   2.442  0.4577  0.6015  0.1716
 1946SOL     OW17470   3.437   3.373   0.318  0.4259  0.3907  0.2142
 1946SOL    HW117471   3.511   3.401   0.264  2.4436  0.7904  3.2009
 1946SOL    HW217472   3.397   3.306   0.263 -0.6211  0.7077  0.5976
 1947SOL     OW17473   1.865   4.545   2.082 -0.1982 -0.0959  0.3050
 1947SOL    HW117474   1.904   4.482   2.142  2.6135  1.0846 -0.2992
 1947SOL    HW217475   1.902   4.619   2.129 -2.8783  0.7418  1.1258
 1948SOL     OW17476   0.921   0.982   7.509  0.1641  0.1855 -0.0914
 1948SOL    HW117477   0.844   0.955   7.458  0.9662 -0.0739 -1.1549
 1948SOL    HW217478   0.870   1.032   7.573 -0.2393 -0.4472  0.0840
 1949SOL     OW17479   2.278   4.144   2.879  0.1710 -0.1735  0.4664
 1949SOL    HW117480   2.356   4.089   2.891  0.0039 -0.9813 -2.3065
 1949SOL    HW217481   2.325   4.223   2.852  0.4652 -0.1202  1.1280
 1950SOL     OW17482   3.225   4.197   4.360 -0.5784  0.0770 -0.4900
 1950SOL    HW117483   3.297   4.170   4.303  0.2144 -1.1632  1.0901
 1950SOL    HW217484   3.256   4.284   4.383  1.2591 -0.9336  0.8773
 1951SOL     OW17485   1.279   4.439   4.634  0.3839  0.7526  0.0410
 1951SOL    HW117486   1.221   4.463   4.705  1.3615  0.1788  1.0298
 1951SOL    HW217487   1.255   4.347   4.621 -1.4943  1.2386  0.1114
 1952SOL     OW17488   2.134   2.101   0.124  0.0552 -0.2557 -0.6948
 1952SOL    HW117489   2.137   2.178   0.181 -0.7554 -1.6097  1.1847
 1952SOL    HW217490   2.054   2.113   0.074 -1.6070 -2.6960  1.3457
 1953SOL     OW17491   1.660   2.652   2.276 -0.0597  0.5440 -0.8436
 1953SOL    HW117492   1.716   2.578   2.299  0.4390  1.3484  0.5390
 1953SOL    HW217493   1.590   2.620   2.218  1.0905 -0.4220 -1.7007
 1954SOL     OW17494   2.947   2.187   3.477 -0.1005  0.2690  0.0115
 1954SOL    HW117495   2.888   2.222   3.544 -1.1293  1.0405 -1.2804
 1954SOL    HW217496   2.948   2.104   3.524  0.4054  0.5887  0.5677
 1955SOL     OW17497   1.542   0.307  13.987  0.1686 -0.3666  0.0119
 1955SOL    HW117498   1.489   0.379  13.952 -1.0003 -0.2510  2.0501
 1955SOL    HW217499   1.613   0.316  13.923  2.5788 -3.2660  2.2921
 1956SOL     OW17500   1.705   3.027   1.817 -0.4497  0.3667 -0.0607
 1956SOL    HW117501   1.720   2.993   1.729 -0.1230  3.1677 -1.0856
 1956SOL    HW217502   1.721   3.121   1.806 -0.0839  0.1758 -1.1978
 1957SOL     OW17503   4.637   3.077   8.963 -0.4997 -0.5202 -0.2596
 1957SOL    HW117504   4.662   3.131   9.038  2.5519  0.3007 -1.8615
 1957SOL    HW217505   4.724   3.069   8.924  0.5465  1.8174  1.5740
 1958SOL     OW17506   1.199   2.332  11.899  0.0251  0.2199  0.3439
 1958SOL    HW117507   1.286   2.294  11.905 -0.5680 -1.2416 -0.3566
 1958SOL    HW217508   1.216   2.393  11.971 -2.3794 -0.3920  1.4461
 1959SOL     OW17509   4.555   3.389   4.263  0.0873 -0.4607  0.2384
 1959SOL    HW117510   4.555   3.454   4.193 -0.2412 -1.8035 -1.0241
 1959SOL    HW217511   4.463   3.365   4.249 -0.2878  0.7267  0.7092
 1960SOL     OW17512   3.827   2.029   6.326  0.0230 -0.1873  0.1104
 1960SOL    HW117513   3.864   2.004   6.241 -1.1229  0.2198 -0.5147
 1960SOL    HW217514   3.734   2.021   6.303 -0.5433 -2.1402  3.1019
 1961SOL     OW17515   3.852   2.186   9.857 -0.2447 -0.2814  0.7031
 1961SOL    HW117516   3.757   2.196   9.854 -0.2590 -0.8196 -0.3888
 1961SOL    HW217517   3.873   2.166   9.766  0.2317  1.4750  0.4226
 1962SOL     OW17518   2.223   4.465   6.628  0.0296 -0.2078  0.2185
 1962SOL    HW117519   2.149   4.524   6.637  0.6335  0.7482 -0.9888
 1962SOL    HW217520   2.290   4.526   6.596 -0.4308  0.0104 -0.3295
 1963SOL     OW17521   1.013   1.241   3.826  0.2204 -0.4321  0.1824
 1963SOL    HW117522   1.076   1.310   3.847 -0.3868  0.6344 -1.5541
 1963SOL    HW217523   1.002   1.250   3.732  2.9410 -0.9064 -0.1643
 1964SOL     OW17524   1.761   4.581   8.142 -0.2106  0.1447  0.1134
 1964SOL    HW117525   1.802   4.497   8.164 -0.2560 -0.7705 -3.4287
 1964SOL    HW217526   1.839   4.628   8.112 -0.4359 -0.5548 -1.5641
 1965SOL     OW17527   3.735   0.162  15.264  0.1509 -0.0121  0.2703
 1965SOL    HW117528   3.700   0.247  15.290 -1.3935 -0.5716  0.0546
 1965SOL    HW217529   3.652   0.116  15.248  0.5473 -0.4630 -0.4863
 1966SOL     OW17530   4.381   3.255   0.512 -0.0780  0.4994 -0.3627
 1966SOL    HW117531   4.350   3.233   0.600  2.1621 -0.3999  0.1992
 1966SOL    HW217532   4.439   3.181   0.496  2.2594  2.6501 -1.8291
 1967SOL     OW17533   3.589   0.574   8.138  0.2490  0.2285  0.4132
 1967SOL    HW117534   3.535   0.614   8.069  0.7391  1.9944  1.0543
 1967SOL    HW217535   3.537   0.592   8.216 -0.5789  0.7548 -0.2472
 1968SOL     OW17536   3.398   1.272   6.853  0.5253  0.1810 -0.1770
 1968SOL    HW117537   3.368   1.186   6.825 -0.8378  0.2069  1.2219
 1968SOL    HW217538   3.342   1.285   6.929 -2.2327  0.5217 -2.2553
 1969SOL     OW17539   0.611   1.741   2.786  0.3192  0.0024  0.0419
 1969SOL    HW117540   0.620   1.779   2.874 -1.3195 -1.4279  0.8092
 1969SOL    HW217541   0.516   1.741   2.783  0.3681 -0.5326 -1.2222
 1970SOL     OW17542   2.025   2.726   1.955  0.3134  0.0807 -0.3060
 1970SOL    HW117543   2.109   2.682   1.946 -0.3779 -1.7313  2.2342
 1970SOL    HW217544   2.032   2.810   2.001 -0.1808  0.9711 -1.8390
 1971SOL     OW17545   0.448   4.670   7.031 -0.9235  0.2244 -0.0497
 1971SOL    HW117546   0.458   4.577   7.050 -1.6839  0.4952  1.6522
 1971SOL    HW217547   0.374   4.669   6.970 -1.3498  3.4139  0.4099
 1972SOL     OW17548   2.301   4.022   9.323 -0.3025  0.1062  0.6066
 1972SOL    HW117549   2.315   4.096   9.265 -0.6915  0.1929  0.6240
 1972SOL    HW217550   2.349   3.957   9.272  1.2002 -0.8474  3.2203
 1973SOL     OW17551   1.474   3.854   6.959 -0.6460  0.1156 -0.3577
 1973SOL    HW117552   1.499   3.871   6.868 -2.2867  0.3611 -0.7640
 1973SOL    HW217553   1.385   3.820   6.955 -0.6731  0.1385  0.1466
 1974SOL     OW17554   2.027   0.006   0.973  0.1735 -0.1181 -0.2272
 1974SOL    HW117555   2.051   0.098   0.963  1.6234 -0.4187  0.5980
 1974SOL    HW217556   2.103   4.697   0.936  1.4572  1.9615 -0.0041
 1975SOL     OW17557   3.860   2.056   2.341 -0.1280  0.2076 -0.3524
 1975SOL    HW117558   3.791   2.108   2.383 -0.5823 -0.3501 -0.4015
 1975SOL    HW217559   3.916   2.133   2.334  1.8101 -1.4335 -2.6818
 1976SOL     OW17560   2.386   4.305  16.070  0.5176 -0.1297  0.0220
 1976SOL    HW117561   2.302   4.351  16.069  1.3984  1.4677 -0.3071
 1976SOL    HW217562   2.397   4.272  15.981 -0.3587  0.5553 -0.3361
 1977SOL     OW17563   4.652   0.879   1.751  0.4947 -0.2320  0.1765
 1977SOL    HW117564   4.558   0.893   1.745  0.2703 -0.6663  2.7155
 1977SOL    HW217565   4.680   0.911   1.665 -1.6388  1.0259 -0.0411
 1978SOL     OW17566   4.020   1.091   2.135  0.1514  0.0324 -0.3061
 1978SOL    HW117567   3.938   1.134   2.111 -1.6319 -2.2925  1.5781
 1978SOL    HW217568   3.993   1.001   2.156  2.4956 -0.6469 -0.1271
 1979SOL     OW17569   2.267   4.690   7.695 -0.4379 -0.1671 -0.1926
 1979SOL    HW117570   2.307   4.626   7.636  1.5029 -1.0367  2.0601
 1979SOL    HW217571   2.327   0.029   7.698  2.4573 -2.4749 -1.3666
 1980SOL     OW17572   4.687   3.226   3.773 -0.1057 -1.1412  0.0179
 1980SOL    HW117573   4.655   3.312   3.799  0.7907 -0.6215 -0.5558
 1980SOL    HW217574   4.626   3.182   3.830  0.3972 -1.1287  0.5659
 1981SOL     OW17575   4.304   0.324   4.298 -0.4688 -0.3015 -0.1683
 1981SOL    HW117576   4.331   0.249   4.350  1.3597  0.1554 -0.4535
 1981SOL    HW217577   4.310   0.283   4.212 -0.4278  2.1837 -1.3635
 1982SOL     OW17578   1.016   3.367   7.483  0.1006  0.1140  0.2799
 1982SOL    HW117579   1.001   3.316   7.404 -0.7336 -0.0496  0.5450
 1982SOL    HW217580   0.985   3.457   7.471  0.1304 -0.0550 -0.9840
 1983SOL     OW17581   2.586   0.453   3.310 -0.2135  0.0276  0.4314
 1983SOL    HW117582   2.536   0.387   3.358 -1.7220  0.5313 -0.4123
 1983SOL    HW217583   2.591   0.514   3.383 -1.0685 -0.5344  0.9600
 1984SOL     OW17584   3.527   1.272   5.380 -0.5305 -0.1785  0.4855
 1984SOL    HW117585   3.537   1.287   5.474  1.5519 -0.2676  0.2891
 1984SOL    HW217586   3.570   1.349   5.344 -0.5535  0.0884  1.0383
 1985SOL     OW17587   4.488   2.651   4.764  0.3191  0.1804  0.6566
 1985SOL    HW117588   4.517   2.713   4.831 -1.9487 -0.4295  2.1715
 1985SOL    HW217589   4.472   2.578   4.824 -0.9984  0.3997  0.5675
 1986SOL     OW17590   1.840   3.137   4.739 -0.1608 -0.2236  0.7133
 1986SOL    HW117591   1.774   3.102   4.799 -1.8259  1.1641 -0.3260
 1986SOL    HW217592   1.838   3.077   4.665 -0.8302 -0.4545  0.9230
 1987SOL     OW17593   1.017   3.143   8.399 -0.3459  0.2106  1.0543
 1987SOL    HW117594   1.053   3.227   8.371 -0.1675 -0.8346 -1.8542
 1987SOL    HW217595   1.094   3.100   8.436 -1.3395 -0.5949  2.2164
 1988SOL     OW17596   3.328   0.794   4.809  0.1311  0.1345  0.0967
 1988SOL    HW117597   3.411   0.815   4.767 -0.6591 -1.1302 -2.0714
 1988SOL    HW217598   3.357   0.818   4.897 -1.2583  0.5406  0.4495
 1989SOL     OW17599   4.301   4.686   4.822 -0.0300  0.1349  0.8481
 1989SOL    HW117600   4.270   4.619   4.760 -0.3233  1.9183 -0.9226
 1989SOL    HW217601   4.249   4.667   4.900  2.1474  0.0455  2.2768
 1990SOL     OW17602   0.311   3.888   3.174  0.4775 -0.1527  0.3056
 1990SOL    HW117603   0.232   3.863   3.221 -1.2169  0.4535 -2.2089
 1990SOL    HW217604   0.277   3.884   3.085  1.7182 -2.8764 -0.0354
 1991SOL     OW17605   0.264   0.747   5.194 -0.4467 -0.1936  0.4179
 1991SOL    HW117606   0.218   0.664   5.179  1.8031 -1.6614  1.4782
 1991SOL    HW217607   0.216   0.808   5.138 -1.9023 -1.7511 -0.0418
 1992SOL     OW17608   1.444   1.806   5.233 -0.5955 -1.0279 -0.4564
 1992SOL    HW117609   1.472   1.853   5.311 -1.2153 -1.1412 -0.1634
 1992SOL    HW217610   1.413   1.724   5.271 -2.8251 -0.1578 -0.3482
 1993SOL     OW17611   3.811   1.250   4.641 -0.0994 -0.2325 -0.4301
 1993SOL    HW117612   3.795   1.234   4.734 -1.1905  1.8659 -0.2655
 1993SOL    HW217613   3.744   1.188   4.614 -3.1312  2.6859  0.4672
 1994SOL     OW17614   2.250   0.216   7.296  0.2274  0.5159  0.2913
 1994SOL    HW117615   2.335   0.251   7.269  0.6404  1.9120  3.3614
 1994SOL    HW217616   2.261   0.258   7.382  2.2364  1.1214 -0.2616
 1995SOL     OW17617   0.231   3.771  16.102  0.2549  0.2848  0.4392
 1995SOL    HW117618   0.136   3.780  16.096  0.1700 -0.4915  0.5947
 1995SOL    HW217619   0.258   3.784  16.011 -0.3622 -2.0397 -0.0742
 1996SOL     OW17620   0.350   1.836   8.321 -0.6952 -0.2117 -0.4643
 1996SOL    HW117621   0.380   1.923   8.293 -2.5129  0.3965 -0.5231
 1996SOL    HW217622   0.414   1.825   8.391  0.7299  1.3581 -1.5180
 1997SOL     OW17623   1.569   2.228   1.798 -0.2781  0.1600  0.4089
 1997SOL    HW117624   1.632   2.211   1.727 -1.6460  1.9669 -1.2571
 1997SOL    HW217625   1.631   2.272   1.856  1.5414  0.3033 -1.6372
 1998SOL     OW17626   3.225   2.598   3.409 -0.5508 -0.1440  0.3181
 1998SOL    HW117627   3.190   2.516   3.442  2.1110 -1.4828 -0.1990
 1998SOL    HW217628   3.290   2.575   3.342 -0.7639 -0.1031  0.0951
 1999SOL     OW17629   3.264   2.451   6.960  0.3900  0.1485 -0.5075
 1999SOL    HW117630   3.303   2.426   7.044 -1.4497 -1.3398 -0.0840
 1999SOL    HW217631   3.342   2.487   6.917 -0.1430  1.5489 -0.3099
 2000SOL     OW17632   4.423   0.702  15.076  0.2701 -0.0723  0.1782
 2000SOL    HW117633   4.371   0.655  15.010  0.6846 -0.7136  0.3105
 2000SOL    HW217634   4.469   0.771  15.028 -0.8176  0.9000  0.5483
 2001SOL     OW17635   0.718   4.218   4.578 -0.5155  0.7248 -0.2722
 2001SOL    HW117636   0.764   4.219   4.661 -0.1605 -1.5641 -0.4650
 2001SOL    HW217637   0.788   4.215   4.513 -0.4510  0.2333 -0.1746
 2002SOL     OW17638   0.055   4.383   7.306 -0.0213  0.1294  0.1037
 2002SOL    HW117639   4.728   4.312   7.287 -0.1151  0.3527 -0.4273
 2002SOL    HW217640   0.005   4.432   7.372  1.8864  0.8972  0.9752
 2003SOL     OW17641   2.636   3.928   4.246  0.3853 -0.2875 -0.5387
 2003SOL    HW117642   2.550   3.969   4.236 -0.2752 -1.4338  0.4160
 2003SOL    HW217643   2.643   3.907   4.339 -2.7221 -1.6262 -0.6016
 2004SOL     OW17644   2.525   4.061   8.958  0.2385  0.2636  0.5286
 2004SOL    HW117645   2.483   4.053   9.044  4.6369 -1.2868  2.5350
 2004SOL    HW217646   2.581   4.138   8.965  1.7419 -0.7846  0.0958
 2005SOL     OW17647   1.210   4.187   8.282 -0.0575  0.4250 -0.5396
 2005SOL    HW117648   1.160   4.108   8.301 -0.4941  1.0388  0.8357
 2005SOL    HW217649   1.227   4.225   8.368  0.4222  0.5296 -0.6843
 2006SOL     OW17650   2.212   4.483  16.242  0.3212 -0.2663 -0.2418
 2006SOL    HW117651   2.249   4.516  16.324  3.0865 -1.4804 -1.0066
 2006SOL    HW217652   2.170   4.403  16.274  0.0983  0.1534  0.5425
 2007SOL     OW17653   2.003   1.317  10.314 -0.1429  0.0803 -0.3276
 2007SOL    HW117654   1.944   1.243  10.299 -0.5282  0.5063 -0.9356
 2007SOL    HW217655   2.076   1.274  10.358 -1.8544 -0.9695  1.5191
 2008SOL     OW17656   4.324   2.756   6.134  0.4003  0.1560 -0.1864
 2008SOL    HW117657   4.251   2.696   6.152 -0.0685  1.5499  2.4890
 2008SOL    HW217658   4.369   2.701   6.070  0.4506  0.3052 -0.2803
 2009SOL     OW17659   2.145   4.497   2.864  0.1361 -0.1409 -0.9125
 2009SOL    HW117660   2.162   4.496   2.958 -0.0036 -2.2337 -0.9142
 2009SOL    HW217661   2.076   4.562   2.859 -0.7619 -0.9985  0.4488
 2010SOL     OW17662   4.036   4.110   8.683 -0.2803 -0.6236  0.2653
 2010SOL    HW117663   3.991   4.026   8.692 -0.6841 -0.4903 -0.4703
 2010SOL    HW217664   4.097   4.098   8.755  1.8075  0.9293 -1.2591
 2011SOL     OW17665   0.641   1.803  13.845 -0.1814 -0.4081  0.2333
 2011SOL    HW117666   0.554   1.776  13.816 -0.3412 -0.3785  0.6789
 2011SOL    HW217667   0.640   1.765  13.933  2.4434  1.9492  1.2889
 2012SOL     OW17668   0.163   4.018  13.924  0.7494 -0.3080 -0.0371
 2012SOL    HW117669   0.215   4.093  13.951  0.4023 -0.3138  0.6459
 2012SOL    HW217670   0.079   4.064  13.919  0.9803  0.2432  1.2599
 2013SOL     OW17671   3.416   2.610   8.068 -0.2013  0.0097 -0.4535
 2013SOL    HW117672   3.463   2.549   8.125 -1.7383  1.3849  2.3307
 2013SOL    HW217673   3.389   2.552   7.997  1.1795  0.0857 -1.0250
 2014SOL     OW17674   4.051   2.344   1.848  0.7107  0.1819 -0.0886
 2014SOL    HW117675   4.066   2.251   1.831 -1.0040  0.0954 -1.1591
 2014SOL    HW217676   4.099   2.352   1.930  0.0510  1.5625  0.1599
 2015SOL     OW17677   2.351   3.550   7.547  0.0745 -0.2381 -0.1815
 2015SOL    HW117678   2.424   3.538   7.607  1.8298 -0.3629 -2.3388
 2015SOL    HW217679   2.284   3.565   7.613 -0.6151 -0.1654 -0.9020
 2016SOL     OW17680   2.504   2.349  13.682  0.0713 -0.4688 -0.0610
 2016SOL    HW117681   2.432   2.400  13.720  0.8291  1.6330 -1.4297
 2016SOL    HW217682   2.519   2.389  13.596 -0.7863 -1.9336 -0.8970
 2017SOL     OW17683   0.072   2.389   7.816  0.5127 -0.0091  0.1131
 2017SOL    HW117684   4.726   2.406   7.769 -0.0626 -0.0045  1.1019
 2017SOL    HW217685   0.047   2.394   7.908  0.0499  1.0751 -0.0764
 2018SOL     OW17686   0.243   1.710  13.919  0.2644  0.2795 -0.0581
 2018SOL    HW117687   0.267   1.720  13.827 -1.5589  0.5139 -0.5011
 2018SOL    HW217688   0.273   1.792  13.958 -2.1999  0.8240  0.6972
 2019SOL     OW17689   0.502   1.814   6.481  0.0728  0.1087 -0.0089
 2019SOL    HW117690   0.415   1.800   6.519  0.2875  2.8797  1.5443
 2019SOL    HW217691   0.557   1.794   6.557  0.4655  4.7799  0.9236
 2020SOL     OW17692   0.265   4.401   2.938  0.1904 -0.0239 -0.4501
 2020SOL    HW117693   0.209   4.386   3.013 -0.5801 -2.2371 -1.4742
 2020SOL    HW217694   0.267   4.310   2.909 -0.1893  0.3584 -1.6805
 2021SOL     OW17695   3.965   0.091   6.918 -0.5841 -0.3065  0.2125
 2021SOL    HW117696   4.060   0.087   6.918 -0.5677  0.0127  1.1277
 2021SOL    HW217697   3.937   0.066   7.007 -2.0643 -0.5774 -0.3185
 2022SOL     OW17698   0.146   1.171  17.361 -0.0469 -0.0467 -0.2363
 2022SOL    HW117699   0.076   1.236  17.349  0.2929  0.2924 -0.3778
 2022SOL    HW217700   0.137   1.132  17.448 -0.9713  1.8429  0.5098
 2023SOL     OW17701   1.490   4.673   1.408  0.4992  0.4224  0.1876
 2023SOL    HW117702   1.487   0.020   1.358  1.7905  1.2201  1.4301
 2023SOL    HW217703   1.531   4.614   1.345  2.2634 -0.4623  2.1859
 2024SOL     OW17704   1.364   4.694   7.959 -0.3839 -0.5846  0.1439
 2024SOL    HW117705   1.373   4.671   7.866  1.3140 -2.4993  0.7813
 2024SOL    HW217706   1.409   0.043   7.956 -1.5675  0.0091 -1.3058
 2025SOL     OW17707   4.651   3.419   2.966 -0.0400 -0.2285  0.4735
 2025SOL    HW117708   4.732   3.435   2.917 -1.4538  1.5227 -1.3149
 2025SOL    HW217709   4.606   3.371   2.896  0.0290 -0.9859  0.9636
 2026SOL     OW17710   2.356   0.276   1.858 -0.1926 -0.3705 -0.4811
 2026SOL    HW117711   2.298   0.289   1.933 -0.8132 -0.7045 -0.9039
 2026SOL    HW217712   2.393   0.188   1.859 -0.8559 -0.6121  2.6454
 2027SOL     OW17713   4.400   0.222  13.867 -0.3518  0.5192 -0.2121
 2027SOL    HW117714   4.421   0.305  13.824  0.5698  0.3239 -0.1272
 2027SOL    HW217715   4.384   0.162  13.794 -0.2157 -1.7031  1.6047
 2028SOL     OW17716   0.258   4.283  14.168 -0.7175 -0.0266 -0.4549
 2028SOL    HW117717   0.307   4.345  14.115  0.7395 -0.8213 -0.0375
 2028SOL    HW217718   0.312   4.273  14.247 -1.8683 -0.6893  0.2515
 2029SOL     OW17719   0.102   2.716  11.088  0.7414  0.7868  0.2948
 2029SOL    HW117720   0.196   2.708  11.072  0.7584 -0.2556  0.9274
 2029SOL    HW217721   0.090   2.714  11.183 -0.2328 -1.7621  0.1123
 2030SOL     OW17722   1.498   0.644  11.808 -0.2774 -0.1231 -0.5121
 2030SOL    HW117723   1.414   0.665  11.767 -0.1804 -0.1866 -0.7432
 2030SOL    HW217724   1.521   0.724  11.855  1.9440 -1.6780  1.0302
 2031SOL     OW17725   3.217   4.426   8.093 -0.0421  0.1374  0.5593
 2031SOL    HW117726   3.308   4.401   8.074 -0.7768 -0.3452 -2.2792
 2031SOL    HW217727   3.172   4.345   8.115 -2.5671  1.4104  0.1054
 2032SOL     OW17728   3.884   3.906   6.326  0.6513 -0.3290  0.7448
 2032SOL    HW117729   3.947   3.967   6.365  2.4372 -1.4100 -0.4129
 2032SOL    HW217730   3.825   3.897   6.401 -0.2143  1.3660  0.2607
 2033SOL     OW17731   2.763   3.879   8.916  0.3445  0.4547 -0.2176
 2033SOL    HW117732   2.784   3.898   8.824 -1.9290  3.2604 -0.1588
 2033SOL    HW217733   2.691   3.940   8.929 -1.4682 -1.9596  1.0305
 2034SOL     OW17734   0.554   3.620  16.733 -0.4415 -0.4985  0.4428
 2034SOL    HW117735   0.596   3.705  16.718 -0.6647 -0.6193 -0.9101
 2034SOL    HW217736   0.487   3.622  16.664  1.4378  0.2275 -1.3472
 2035SOL     OW17737   1.624   4.026   3.281  0.1983  0.3354 -0.3246
 2035SOL    HW117738   1.670   4.035   3.197  0.5408  0.1005 -0.1615
 2035SOL    HW217739   1.616   4.113   3.319 -0.7010  0.3298 -0.4906
 2036SOL     OW17740   3.980   0.578  12.471  0.4976  0.3315  0.1658
 2036SOL    HW117741   4.043   0.644  12.501  0.3113 -0.2536  1.8720
 2036SOL    HW217742   3.895   0.619  12.461 -0.9546 -2.1824  2.1649
 2037SOL     OW17743   2.878   4.024   1.352  0.3967  0.0264 -0.6113
 2037SOL    HW117744   2.921   3.948   1.313 -1.2358 -0.1496 -2.1058
 2037SOL    HW217745   2.791   3.995   1.379  0.3723  1.4615  0.8884
 2038SOL     OW17746   2.719   4.261   6.394  0.5410 -0.9108  0.2586
 2038SOL    HW117747   2.664   4.269   6.316  0.2235  1.7525  0.7680
 2038SOL    HW217748   2.796   4.217   6.359 -0.1471 -0.0964 -2.3140
 2039SOL     OW17749   0.838   3.052   7.876  0.7016 -0.6998 -0.6369
 2039SOL    HW117750   0.854   3.077   7.967 -1.4389  1.0870 -0.7310
 2039SOL    HW217751   0.848   2.957   7.886  0.5190 -0.7385 -0.8167
 2040SOL     OW17752   1.740   0.563  13.419 -0.2487  0.2491 -0.1107
 2040SOL    HW117753   1.715   0.512  13.496  1.7635 -1.6157 -0.7039
 2040SOL    HW217754   1.734   0.652  13.454 -1.2503 -0.3512  1.2504
 2041SOL     OW17755   2.873   1.616   1.739  0.3720  0.1582 -0.2254
 2041SOL    HW117756   2.857   1.527   1.769 -0.1723  0.3998  0.2036
 2041SOL    HW217757   2.868   1.671   1.817  0.3699  0.3658 -0.3691
 2042SOL     OW17758   0.551   0.621   5.565 -0.4411 -0.3203  0.0422
 2042SOL    HW117759   0.526   0.699   5.516 -1.3879 -1.3071 -1.0433
 2042SOL    HW217760   0.470   0.600   5.612  0.3315  3.5724  3.1299
 2043SOL     OW17761   0.550   3.802   6.675  0.1343  0.0514 -0.3053
 2043SOL    HW117762   0.599   3.731   6.633  0.6927 -0.3503  1.0168
 2043SOL    HW217763   0.488   3.808   6.602 -0.7452 -1.5436  0.2903
 2044SOL     OW17764   3.075   4.076   7.610 -0.2418  0.6894  0.2665
 2044SOL    HW117765   3.014   4.003   7.622  0.2938  0.2745  0.4785
 2044SOL    HW217766   3.022   4.147   7.645  1.1985  0.3893  3.0484
 2045SOL     OW17767   0.257   3.131   5.606  0.2671 -0.0363 -0.0714
 2045SOL    HW117768   0.274   3.208   5.552 -3.0344  0.2941 -0.6103
 2045SOL    HW217769   0.320   3.070   5.567  0.5167 -0.6731  1.3182
 2046SOL     OW17770   2.850   0.417   1.853  0.4342  0.2213 -0.0578
 2046SOL    HW117771   2.802   0.497   1.873  0.2311 -0.3653  1.8438
 2046SOL    HW217772   2.898   0.409   1.936  1.0222 -1.3528 -0.5452
 2047SOL     OW17773   1.739   2.948   6.728 -0.0347  0.4858  0.0943
 2047SOL    HW117774   1.771   2.858   6.726 -0.9020  0.1408  1.8927
 2047SOL    HW217775   1.801   2.978   6.661 -1.7837  2.5019 -0.6081
 2048SOL     OW17776   1.503   4.660   9.009 -0.1090  0.4718  0.5391
 2048SOL    HW117777   1.523   4.577   9.052 -0.5621  0.4023  0.6139
 2048SOL    HW217778   1.512   4.722   9.081  1.7824 -1.1000  1.6308
 2049SOL     OW17779   0.211   0.837  15.342  0.1831 -0.2577  0.0185
 2049SOL    HW117780   0.155   0.760  15.357 -2.3879  1.9199  1.4816
 2049SOL    HW217781   0.279   0.800  15.285  0.9212  1.9075 -0.5173
 2050SOL     OW17782   4.623   3.473  12.426  0.5446 -0.3932 -0.1091
 2050SOL    HW117783   4.618   3.428  12.510  1.0310  1.0886  0.7208
 2050SOL    HW217784   4.608   3.414  12.352 -0.6134  0.7106 -0.7584
 2051SOL     OW17785   0.531   2.753  13.995 -0.2878 -0.1055  0.0837
 2051SOL    HW117786   0.493   2.824  14.048  2.1709 -1.0387  3.1200
 2051SOL    HW217787   0.528   2.684  14.061 -2.4757 -1.0233 -0.9756
 2052SOL     OW17788   4.596   1.715   3.435  0.2578  0.0542 -0.4438
 2052SOL    HW117789   4.573   1.636   3.387  0.1724 -1.1869  1.6662
 2052SOL    HW217790   4.635   1.685   3.517  0.6453 -1.8152 -1.3261
 2053SOL     OW17791   1.152   1.669   4.688 -0.0038 -0.7060  0.0893
 2053SOL    HW117792   1.144   1.648   4.595  0.2926  1.6363 -0.4737
 2053SOL    HW217793   1.064   1.665   4.725 -1.2564  0.0690 -2.7737
 2054SOL     OW17794   3.666   1.514  12.267 -0.3941  0.1209  0.7335
 2054SOL    HW117795   3.594   1.453  12.282  1.7312 -2.1404  1.7418
 2054SOL    HW217796   3.627   1.599  12.284 -0.2237  0.0373  1.5665
 2055SOL     OW17797   4.252   0.069   2.264 -0.5690  0.1085 -0.0262
 2055SOL    HW117798   4.338   0.028   2.252  1.1553  4.7218 -3.5023
 2055SOL    HW217799   4.258   0.075   2.359  1.6900 -2.7941  0.0378
 2056SOL     OW17800   3.538   1.775   1.739  0.2550  0.0282  0.1471
 2056SOL    HW117801   3.516   1.852   1.792 -0.3842 -0.1824  0.1860
 2056SOL    HW217802   3.590   1.817   1.672  1.1224 -2.7513 -0.9325
 2057SOL     OW17803   3.579   4.676   3.446  0.2541  0.2484 -0.8739
 2057SOL    HW117804   3.570   4.721   3.529 -1.7674  0.8588 -1.4066
 2057SOL    HW217805   3.634   0.007   3.403 -0.8308  0.6666 -1.6541
 2058SOL     OW17806   4.380   2.644  10.159 -0.1728  0.6767  0.7894
 2058SOL    HW117807   4.374   2.739  10.142 -0.4138  1.1866  3.8025
 2058SOL    HW217808   4.303   2.630  10.214  0.2328 -1.5043  0.7915
 2059SOL     OW17809   0.427   1.020   6.126 -0.1058  0.4655  0.1095
 2059SOL    HW117810   0.337   1.024   6.094 -0.3024  2.0581  0.8320
 2059SOL    HW217811   0.399   0.966   6.201 -2.2793  0.9996 -0.3110
 2060SOL     OW17812   1.685   1.647  13.130 -0.3447 -0.9000 -0.8572
 2060SOL    HW117813   1.619   1.585  13.098 -0.4008 -1.6991  0.8349
 2060SOL    HW217814   1.759   1.645  13.070 -1.0525  1.2717 -1.7933
 2061SOL     OW17815   3.835   1.196   9.264 -0.4059 -0.1687  0.1988
 2061SOL    HW117816   3.849   1.291   9.264 -0.2679 -0.1886  0.2103
 2061SOL    HW217817   3.916   1.163   9.225 -0.0976  1.7630 -0.8253
 2062SOL     OW17818   1.007   3.969   9.398 -0.2714  0.3923  0.5720
 2062SOL    HW117819   1.076   4.021   9.439  1.1640 -1.5696  0.6227
 2062SOL    HW217820   1.004   3.890   9.451 -5.1255 -0.0943 -0.4563
 2063SOL     OW17821   4.673   2.709   7.000 -0.1872 -0.2071  0.2377
 2063SOL    HW117822   0.029   2.697   6.972 -0.3799 -1.9102  0.3600
 2063SOL    HW217823   4.658   2.630   7.051 -0.6022  0.1887  0.7255
 2064SOL     OW17824   0.263   3.501   9.178 -0.5322 -0.0340 -0.2257
 2064SOL    HW117825   0.220   3.437   9.235 -0.9505  0.8453  0.4399
 2064SOL    HW217826   0.224   3.580   9.216  0.1313  1.3283 -2.3819
 2065SOL     OW17827   3.756   1.355  13.904  0.1537  0.0186  0.0274
 2065SOL    HW117828   3.721   1.301  13.974  0.6310 -0.1562  0.1274
 2065SOL    HW217829   3.724   1.311  13.825  2.4404  0.0602 -0.9140
 2066SOL     OW17830   0.240   1.130   2.150  0.2487 -0.3369  0.2814
 2066SOL    HW117831   0.205   1.121   2.062  2.2756  3.7791 -0.9230
 2066SOL    HW217832   0.169   1.108   2.211  0.6473 -1.4768  0.3488
 2067SOL     OW17833   4.585   1.273  15.792  0.1547 -0.3531  0.1953
 2067SOL    HW117834   4.523   1.274  15.865 -1.3368  1.1630 -1.0833
 2067SOL    HW217835   4.673   1.273  15.829 -0.3054 -1.7257  1.2660
 2068SOL     OW17836   1.185   2.930  13.187 -0.1739  0.6682  0.0401
 2068SOL    HW117837   1.092   2.949  13.173 -0.1611 -0.0376 -0.9479
 2068SOL    HW217838   1.187   2.835  13.191  1.0147  0.6950 -0.0958
 2069SOL     OW17839   1.927   2.737  17.719 -0.1097  0.0317 -0.0014
 2069SOL    HW117840   1.940   2.820   0.027  0.1697 -0.7750  1.3630
 2069SOL    HW217841   1.926   2.678   0.056 -1.1034 -1.0164 -0.8336
 2070SOL     OW17842   1.492   2.267   7.210 -0.1785 -0.0599 -0.4171
 2070SOL    HW117843   1.433   2.272   7.135 -1.6874 -2.3439  0.6410
 2070SOL    HW217844   1.490   2.355   7.248  4.7567  0.0591 -0.3726
 2071SOL     OW17845   3.867   3.151   3.351 -0.2606 -0.4519  1.0049
 2071SOL    HW117846   3.934   3.199   3.399 -0.8918  0.3902  1.0444
 2071SOL    HW217847   3.797   3.180   3.409 -0.4220  0.7054  0.2253
 2072SOL     OW17848   0.093   3.495   4.454  0.0750  0.6565 -0.0024
 2072SOL    HW117849   0.051   3.577   4.428  0.0694  0.9439  0.9182
 2072SOL    HW217850   0.169   3.536   4.496  1.2176 -0.1174 -1.3029
 2073SOL     OW17851   4.148   3.894  10.192  0.2391 -0.3152 -0.0654
 2073SOL    HW117852   4.185   3.978  10.218  0.1597 -0.1884 -0.3568
 2073SOL    HW217853   4.173   3.847  10.271 -0.5962  1.6656  1.3772
 2074SOL     OW17854   2.821   3.626  12.099  0.2044 -0.7378 -0.5888
 2074SOL    HW117855   2.863   3.709  12.077  0.0109 -0.4712  0.0427
 2074SOL    HW217856   2.735   3.660  12.124  0.0067 -1.7149  0.0821
 2075SOL     OW17857   3.517   2.911   9.259 -0.2984  0.0290 -0.2837
 2075SOL    HW117858   3.427   2.942   9.272 -0.3923  0.5325 -2.1136
 2075SOL    HW217859   3.541   2.896   9.350 -0.9828  0.9748  0.0591
 2076SOL     OW17860   1.622   0.473  17.130  0.5180 -0.4871  0.2829
 2076SOL    HW117861   1.704   0.449  17.174  0.9734 -0.6732 -0.6502
 2076SOL    HW217862   1.598   0.384  17.103  2.3267 -1.4574  1.9132
 2077SOL     OW17863   3.123   1.039  16.793  1.2468  0.2458  0.0788
 2077SOL    HW117864   3.169   0.964  16.754 -0.1816  0.5243 -2.1296
 2077SOL    HW217865   3.117   1.007  16.883 -0.5492  0.1601 -0.0716
 2078SOL     OW17866   1.899   0.174   0.740  0.1687  0.2790 -0.1469
 2078SOL    HW117867   1.919   0.080   0.741  1.7465  0.6179 -1.1126
 2078SOL    HW217868   1.827   0.179   0.677  1.2766  3.3148 -1.1285
 2079SOL     OW17869   3.451   2.767   8.576 -0.0086 -0.4742  0.5038
 2079SOL    HW117870   3.387   2.705   8.541  0.8359 -1.1674  0.1956
 2079SOL    HW217871   3.438   2.756   8.670 -0.5051 -0.5343  0.4273
 2080SOL     OW17872   2.825   3.677   5.477 -0.1798 -1.0685  0.1537
 2080SOL    HW117873   2.846   3.606   5.537  2.7038  0.4905  1.0039
 2080SOL    HW217874   2.775   3.638   5.405 -1.0660  0.7453 -0.1950
 2081SOL     OW17875   0.628   4.721   4.745  0.1099  0.3086  0.1179
 2081SOL    HW117876   0.643   0.043   4.820 -0.5373  0.8642 -0.1820
 2081SOL    HW217877   0.704   4.663   4.750 -0.3677 -0.4380 -1.4293
 2082SOL     OW17878   1.071   0.757   4.222 -0.2315  0.4431  0.2112
 2082SOL    HW117879   1.015   0.832   4.241  0.4238  0.9124  0.3057
 2082SOL    HW217880   1.019   0.716   4.153 -1.2112  0.8039  0.7452
 2083SOL     OW17881   4.358   4.445   9.396  0.1883 -0.1357  0.0624
 2083SOL    HW117882   4.374   4.418   9.486 -0.9258  1.4290  0.7234
 2083SOL    HW217883   4.397   4.371   9.350 -0.3899  0.3361 -1.1933
 2084SOL     OW17884   4.078   1.297   2.907 -0.3376 -0.6263  0.7699
 2084SOL    HW117885   3.984   1.283   2.897 -0.4798  0.3012  0.8240
 2084SOL    HW217886   4.093   1.386   2.877 -0.1095 -0.7391  0.5519
 2085SOL     OW17887   2.119   4.381   5.219 -0.1809 -0.2375 -1.1219
 2085SOL    HW117888   2.123   4.421   5.306  0.2526  2.6235 -2.4545
 2085SOL    HW217889   2.194   4.324   5.233 -2.1646 -2.6052 -0.1057
 2086SOL     OW17890   1.250   4.727   6.108  0.5924 -0.3963 -0.2565
 2086SOL    HW117891   1.182   0.002   6.175  1.2533 -1.4435  0.5638
 2086SOL    HW217892   1.253   4.631   6.104  0.3356 -0.4711  1.6037
 2087SOL     OW17893   4.611   2.625   4.456  0.2316  0.4492 -0.2988
 2087SOL    HW117894   4.527   2.663   4.481 -0.1214  0.2037 -1.1433
 2087SOL    HW217895   4.618   2.542   4.505  0.2250 -1.1191 -2.9673
 2088SOL     OW17896   2.214   3.435  14.913 -0.0140  0.3554 -0.8033
 2088SOL    HW117897   2.302   3.458  14.885 -0.1026 -1.2881 -2.3986
 2088SOL    HW217898   2.191   3.522  14.947  1.0202  0.1380  0.4442
 2089SOL     OW17899   3.156   1.679   2.098  0.3045 -0.0441 -0.8826
 2089SOL    HW117900   3.174   1.592   2.134 -3.2500 -0.5851 -0.4607
 2089SOL    HW217901   3.182   1.678   2.006 -0.5361 -2.5520 -1.0813
 2090SOL     OW17902   3.116   3.911   5.764 -0.9185  0.3183  0.1480
 2090SOL    HW117903   3.047   3.914   5.698 -0.0003  2.0754 -0.7280
 2090SOL    HW217904   3.185   3.958   5.717  0.3680 -0.4154  1.2920
 2091SOL     OW17905   1.634   1.430   8.686 -0.1545  0.6011  0.0154
 2091SOL    HW117906   1.542   1.441   8.663  0.4059  1.7679 -1.6383
 2091SOL    HW217907   1.623   1.436   8.781  0.2217  0.8756  0.0430
 2092SOL     OW17908   3.235   1.094   4.431 -0.5727 -0.4318  0.4249
 2092SOL    HW117909   3.153   1.125   4.392 -0.0482 -0.0104 -0.3424
 2092SOL    HW217910   3.292   1.166   4.457 -0.9097  0.7131 -2.0111
 2093SOL     OW17911   2.847   1.488   2.483  0.0489 -0.5336 -0.5830
 2093SOL    HW117912   2.804   1.542   2.417 -0.1850 -1.2015 -0.9798
 2093SOL    HW217913   2.910   1.447   2.423  1.4568  1.2950 -0.3409
 2094SOL     OW17914   4.343   3.327   7.903  0.4713  0.2437 -0.0675
 2094SOL    HW117915   4.284   3.264   7.946  1.0185  0.8458  1.5660
 2094SOL    HW217916   4.282   3.396   7.878  0.2888  0.6789  1.6142
 2095SOL     OW17917   0.905   4.689  10.187  0.0853 -0.3068 -0.1918
 2095SOL    HW117918   0.821   4.657  10.153 -0.9057  1.1580  0.8977
 2095SOL    HW217919   0.940   4.725  10.106  1.8720  0.4861  0.9492
 2096SOL     OW17920   0.231   3.673   7.198  0.5350 -0.4004 -0.0261
 2096SOL    HW117921   0.182   3.747   7.162  0.2715  1.2218  3.5742
 2096SOL    HW217922   0.288   3.708   7.267  0.5529 -1.2825  0.4164
 2097SOL     OW17923   3.517   3.360  12.373  0.2858  0.5938  0.3669
 2097SOL    HW117924   3.602   3.355  12.329 -0.1003 -0.8035 -0.2265
 2097SOL    HW217925   3.512   3.266  12.393 -1.5989  0.5043 -0.5643
 2098SOL     OW17926   0.237   2.250   5.790  0.3469  1.2512  0.5546
 2098SOL    HW117927   0.330   2.261   5.810  0.1146  0.2550  2.1948
 2098SOL    HW217928   0.212   2.335   5.825  0.0276  1.4279 -0.1036
 2099SOL     OW17929   1.184   3.415  17.047 -0.0456  0.4048  0.1948
 2099SOL    HW117930   1.111   3.476  17.037  0.8850  1.9216  2.7367
 2099SOL    HW217931   1.201   3.383  16.958  0.6222 -0.6198  0.6813
 2100SOL     OW17932   0.277   4.696   4.130 -0.4907 -0.4648  0.0716
 2100SOL    HW117933   0.373   4.702   4.132 -0.6428  1.4888  1.7728
 2100SOL    HW217934   0.268   0.003   4.045 -0.1446 -0.1440  0.1931
 2101SOL     OW17935   3.750   4.125  14.117 -0.6344  0.3220  0.3405
 2101SOL    HW117936   3.700   4.068  14.175 -0.8642 -0.5289 -0.6746
 2101SOL    HW217937   3.765   4.202  14.171  0.8635  1.3950 -1.5971
 2102SOL     OW17938   0.454   0.707   7.344 -0.4584 -0.0509  0.4039
 2102SOL    HW117939   0.423   0.794   7.320  1.0259  0.3799  0.0092
 2102SOL    HW217940   0.523   0.723   7.408  0.2955 -2.2559  0.1438
 2103SOL     OW17941   2.659   4.026   4.779  0.3146 -0.6901 -0.1345
 2103SOL    HW117942   2.637   4.111   4.741  0.8566 -0.6334 -0.3240
 2103SOL    HW217943   2.614   4.035   4.863  2.4368 -2.6530  1.1991
 2104SOL     OW17944   3.160   0.073   6.237 -0.0278  0.7016  0.2864
 2104SOL    HW117945   3.080   0.022   6.252  1.3063 -1.9984 -1.8724
 2104SOL    HW217946   3.142   0.163   6.264 -2.6142  0.6654 -1.2317
 2105SOL     OW17947   0.788   4.145   6.462  0.0443 -0.0593 -0.4170
 2105SOL    HW117948   0.852   4.214   6.476 -0.4055  0.2752  0.0074
 2105SOL    HW217949   0.811   4.088   6.536 -1.1793 -0.4267 -0.3065
 2106SOL     OW17950   0.907   0.436  16.396  0.6486 -0.4327  0.0578
 2106SOL    HW117951   0.984   0.400  16.353 -1.2716 -0.9021 -2.9621
 2106SOL    HW217952   0.935   0.527  16.406 -1.1420  0.2920 -1.6925
 2107SOL     OW17953   4.305   1.499   6.199 -0.2912  0.1089  0.1063
 2107SOL    HW117954   4.283   1.577   6.148  0.7552  0.9806  1.0024
 2107SOL    HW217955   4.377   1.458   6.152 -0.1248  0.3397  0.1635
 2108SOL     OW17956   2.036   1.732   2.918 -0.3076  0.2488  0.1724
 2108SOL    HW117957   2.008   1.817   2.883 -2.1064 -0.4961 -0.1979
 2108SOL    HW217958   2.128   1.757   2.923 -0.2359  0.2608 -1.2797
 2109SOL     OW17959   3.612   4.378   4.544  0.0525  0.2248 -0.1400
 2109SOL    HW117960   3.597   4.292   4.584  1.9739  2.2185  4.8139
 2109SOL    HW217961   3.673   4.373   4.470  0.4576 -3.6255  0.4235
 2110SOL     OW17962   2.980   1.849  13.892 -0.4849 -0.1027  0.6296
 2110SOL    HW117963   2.992   1.817  13.803 -3.2198  0.6453  0.0230
 2110SOL    HW217964   2.950   1.939  13.884  0.1768 -0.3515 -4.5758
 2111SOL     OW17965   4.186   1.715  10.973 -0.1340 -0.2859  0.1795
 2111SOL    HW117966   4.194   1.654  10.900 -1.6413 -0.1676 -0.0874
 2111SOL    HW217967   4.232   1.667  11.042  0.7406 -0.2290 -0.3563
 2112SOL     OW17968   3.817   3.382   6.070  0.0706  0.3138  0.1494
 2112SOL    HW117969   3.884   3.317   6.091 -1.8186 -0.5443  3.5225
 2112SOL    HW217970   3.743   3.324   6.049  0.3244 -0.4668  1.4119
 2113SOL     OW17971   3.724   1.960   5.001 -0.5190  0.4438 -0.3470
 2113SOL    HW117972   3.630   1.969   4.990 -0.7140 -0.8854  0.1413
 2113SOL    HW217973   3.729   1.869   5.031  1.3398 -0.3305 -2.9872
 2114SOL     OW17974   2.438   1.240  17.694 -0.5266 -0.7434 -0.0293
 2114SOL    HW117975   2.450   1.163  17.638 -1.3971 -0.6455 -0.3487
 2114SOL    HW217976   2.391   1.210   0.034  0.4203 -0.2322  0.7322
 2115SOL     OW17977   3.641   3.767   4.581 -0.4249 -0.1185  0.5952
 2115SOL    HW117978   3.668   3.812   4.662 -1.3220  0.3371  0.6386
 2115SOL    HW217979   3.547   3.783   4.590 -0.7721 -2.2398  0.7978
 2116SOL     OW17980   1.687   0.484   5.678  0.2897  0.1401 -0.5130
 2116SOL    HW117981   1.688   0.425   5.754 -0.3513  1.1894  0.3138
 2116SOL    HW217982   1.640   0.430   5.614 -1.2340 -0.7153  1.3203
 2117SOL     OW17983   0.930   1.409   8.433  0.4040 -0.2147  0.0791
 2117SOL    HW117984   0.910   1.331   8.485  0.0560  0.2528  0.6569
 2117SOL    HW217985   0.839   1.412   8.402  0.3030 -2.0021  0.1856
 2118SOL     OW17986   3.407   2.396   8.756  0.1761 -0.0691  0.1595
 2118SOL    HW117987   3.484   2.446   8.728 -0.3781  0.6801 -0.0388
 2118SOL    HW217988   3.408   2.334   8.683  0.0944 -0.1053  0.1899
 2119SOL     OW17989   0.878   0.072   6.071  1.0043  0.2017 -0.1847
 2119SOL    HW117990   0.921   0.038   5.992  1.0970 -0.8151  0.2967
 2119SOL    HW217991   0.948   0.054   6.134 -0.9222 -2.9280  1.0639
 2120SOL     OW17992   3.524   0.246   7.572 -0.0241  0.5005 -0.5440
 2120SOL    HW117993   3.530   0.261   7.666 -0.8261  0.9719 -0.5663
 2120SOL    HW217994   3.443   0.293   7.553 -0.4768 -0.3103 -0.6234
 2121SOL     OW17995   3.546   3.989   2.932  0.5308  0.1353  0.1048
 2121SOL    HW117996   3.473   3.936   2.901  0.4141 -0.8379  1.9961
 2121SOL    HW217997   3.612   3.953   2.873 -0.7883 -0.0513 -1.2623
 2122SOL     OW17998   1.519   3.145   8.078  0.1359 -0.4278 -0.0350
 2122SOL    HW117999   1.557   3.086   8.012  0.1002  0.0551 -0.4812
 2122SOL    HW218000   1.588   3.212   8.076 -1.5089  1.2298 -0.3957
 2123SOL     OW18001   0.990   0.844   0.144 -0.1428 -0.3376 -0.4218
 2123SOL    HW118002   1.009   0.845   0.237 -0.1299 -0.6375 -0.4205
 2123SOL    HW218003   0.895   0.847   0.145 -0.2133 -2.6798 -0.2960
 2124SOL     OW18004   4.233   3.051   2.026  0.3378 -0.4493  0.2823
 2124SOL    HW118005   4.218   3.123   2.087 -1.4095 -2.0969  1.7813
 2124SOL    HW218006   4.237   2.969   2.076  1.6949  0.2970  1.3804
 2125SOL     OW18007   4.096   0.373   3.526  0.2438 -0.2406  0.1976
 2125SOL    HW118008   4.117   0.445   3.467 -3.4418  0.3521 -0.4037
 2125SOL    HW218009   4.185   0.338   3.522  0.5282  0.5052  0.1821
 2126SOL     OW18010   3.597   3.697  14.844 -0.4764 -0.6555 -0.3891
 2126SOL    HW118011   3.514   3.737  14.819 -1.2089 -1.5901  0.5181
 2126SOL    HW218012   3.640   3.767  14.893 -0.1275 -2.5611  2.0766
 2127SOL     OW18013   0.487   0.309   9.905 -0.1109  0.2695  0.2080
 2127SOL    HW118014   0.472   0.349   9.991  1.1312 -1.5400  1.2613
 2127SOL    HW218015   0.532   0.379   9.858 -1.7206 -0.6358 -2.6820
 2128SOL     OW18016   3.728   0.362  14.312  0.3123  0.6596 -0.9138
 2128SOL    HW118017   3.693   0.421  14.379 -0.3005  1.7976 -2.2376
 2128SOL    HW218018   3.692   0.401  14.232  1.3797  2.4116 -0.5245
 2129SOL     OW18019   0.579   1.575   7.877  0.5348  0.3134 -0.3272
 2129SOL    HW118020   0.543   1.539   7.958 -2.4729  2.2322 -0.8020
 2129SOL    HW218021   0.519   1.649   7.863 -1.0600 -0.6577  1.3056
 2130SOL     OW18022   3.368   0.897   3.794  0.3992  0.3490 -0.2517
 2130SOL    HW118023   3.423   0.932   3.864 -0.3994 -0.0815  0.5960
 2130SOL    HW218024   3.350   0.981   3.753  0.8240  2.4934  3.9744
 2131SOL     OW18025   4.696   0.833   5.779 -0.1055  0.8629  0.4310
 2131SOL    HW118026   4.614   0.872   5.748 -0.7696 -0.3818  0.6526
 2131SOL    HW218027   4.724   0.786   5.700  2.2106  0.2111  1.6537
 2132SOL     OW18028   1.708   1.319  12.031 -0.0623  0.2396  0.4826
 2132SOL    HW118029   1.688   1.353  11.944 -0.6393 -0.3061  0.4090
 2132SOL    HW218030   1.638   1.259  12.057 -0.0980 -0.1342 -0.4718
 2133SOL     OW18031   1.267   3.360   7.899 -0.3785  0.0263  0.1024
 2133SOL    HW118032   1.218   3.414   7.961 -0.6102  0.4781 -0.4763
 2133SOL    HW218033   1.349   3.409   7.891  0.8129 -2.0680 -0.4456
 2134SOL     OW18034   1.629   1.771  17.189  0.3598  0.1809 -0.3428
 2134SOL    HW118035   1.639   1.679  17.166 -0.2336 -0.2953  1.3562
 2134SOL    HW218036   1.619   1.813  17.103 -0.7105  0.1167 -0.2402
 2135SOL     OW18037   2.571   1.270   5.239  0.0559  0.3857 -0.5689
 2135SOL    HW118038   2.554   1.179   5.214 -0.9695 -0.0327  1.6165
 2135SOL    HW218039   2.643   1.293   5.180 -0.3493  0.7849 -0.9030
 2136SOL     OW18040   3.391   4.575   7.329  0.4095 -0.0030  0.0400
 2136SOL    HW118041   3.340   4.627   7.267  0.7054  1.6983  1.1923
 2136SOL    HW218042   3.338   4.495   7.329  0.2451  0.1044  0.2586
 2137SOL     OW18043   4.036   4.008   4.062 -0.0583 -0.1992  0.4433
 2137SOL    HW118044   3.968   4.063   4.022 -0.7600  0.1450  2.1270
 2137SOL    HW218045   3.982   3.934   4.087 -1.3792  1.5873  2.9323
 2138SOL     OW18046   1.546   1.285   3.722 -0.1923 -0.4919 -0.1666
 2138SOL    HW118047   1.492   1.306   3.646  0.4058 -0.2747 -0.5255
 2138SOL    HW218048   1.525   1.357   3.782 -1.1140 -2.9396  2.4419
 2139SOL     OW18049   2.855   3.235  17.196 -0.2291  0.2726  0.3355
 2139SOL    HW118050   2.888   3.174  17.130 -0.2990  0.9874 -0.3664
 2139SOL    HW218051   2.761   3.231  17.177  0.4694  0.8861 -3.1986
 2140SOL     OW18052   0.082   3.431   8.110  1.1385  0.1574 -0.0807
 2140SOL    HW118053   0.027   3.363   8.149 -0.3955  2.0977  1.1207
 2140SOL    HW218054   0.168   3.402   8.142  1.0483 -2.5375 -2.2236
 2141SOL     OW18055   0.712   4.024   2.445  0.2565 -0.1869  0.3017
 2141SOL    HW118056   0.705   4.092   2.512  0.8563  0.8793 -0.7242
 2141SOL    HW218057   0.667   4.060   2.368  1.0802 -1.3861 -0.7547
 2142SOL     OW18058   2.318   1.398   2.598 -0.9806  0.3656  0.4268
 2142SOL    HW118059   2.367   1.358   2.526  0.3085  0.5975  1.1761
 2142SOL    HW218060   2.382   1.432   2.660 -2.5558  1.2512  1.5521
 2143SOL     OW18061   1.155   1.186   7.087  0.9229  0.5543  0.0216
 2143SOL    HW118062   1.224   1.190   7.153  0.4623 -1.6536  0.6362
 2143SOL    HW218063   1.091   1.245   7.127 -0.4406 -0.3470 -0.8205
 2144SOL     OW18064   0.471   1.845  15.752 -0.5358 -0.3483 -0.0828
 2144SOL    HW118065   0.454   1.845  15.658  0.8966 -0.8070 -0.3392
 2144SOL    HW218066   0.390   1.891  15.775 -1.3885 -2.4373  1.1399
 2145SOL     OW18067   2.027   0.905  15.765  0.2431 -0.3982  0.2324
 2145SOL    HW118068   2.090   0.920  15.836 -0.6198  0.9441  0.7133
 2145SOL    HW218069   2.051   0.813  15.753  1.4503 -0.2807  1.7554
 2146SOL     OW18070   4.637   4.732   8.864 -0.1874  0.0426  0.4237
 2146SOL    HW118071   4.554   4.688   8.848  0.6152 -1.0531 -0.6470
 2146SOL    HW218072   4.608   0.088   8.856  0.6614  0.4140  1.5615
 2147SOL     OW18073   3.520   2.138   5.806  0.3585  0.2024  0.9282
 2147SOL    HW118074   3.526   2.087   5.887  1.6480 -0.0445  0.6769
 2147SOL    HW218075   3.580   2.209   5.826 -0.6565  1.7027 -1.4105
 2148SOL     OW18076   0.842   3.097   8.977  0.3311  0.3870 -0.5592
 2148SOL    HW118077   0.829   3.185   9.012 -1.9766 -0.5621  1.0084
 2148SOL    HW218078   0.842   3.037   9.051 -0.1040 -0.7480 -1.4865
 2149SOL     OW18079   0.413   1.153   4.316 -0.7360 -0.3957 -0.3784
 2149SOL    HW118080   0.419   1.104   4.235 -1.1293  0.1532 -0.7418
 2149SOL    HW218081   0.321   1.179   4.308 -0.6186  0.5481  1.2848
 2150SOL     OW18082   3.500   3.840  11.442 -0.5458  0.1027  0.2942
 2150SOL    HW118083   3.551   3.909  11.398  1.2953 -0.3390  1.7572
 2150SOL    HW218084   3.543   3.767  11.396 -1.1855 -0.7480  1.0650
 2151SOL     OW18085   2.050   1.950   7.713 -0.4254  0.4803 -0.2476
 2151SOL    HW118086   1.969   1.955   7.764  0.3207 -1.7433  1.1634
 2151SOL    HW218087   2.108   1.960   7.789 -0.8920 -0.4628  0.2292
 2152SOL     OW18088   2.105   0.954   6.084  0.1840  0.4008  0.2289
 2152SOL    HW118089   2.080   1.036   6.126  0.6936 -1.2040  3.6871
 2152SOL    HW218090   2.066   0.973   5.999  3.0597  0.0933 -1.1855
 2153SOL     OW18091   0.513   0.791   5.104 -0.0534  0.0093 -0.6183
 2153SOL    HW118092   0.421   0.800   5.130 -0.0568 -0.3553 -0.5017
 2153SOL    HW218093   0.508   0.767   5.012 -0.5060 -0.4451 -0.4751
 2154SOL     OW18094   0.323   3.200   7.055  0.0591 -0.2090  0.2559
 2154SOL    HW118095   0.385   3.198   7.127  0.3112  2.3747  0.0853
 2154SOL    HW218096   0.346   3.274   7.000 -3.3653 -1.1932 -2.5208
 2155SOL     OW18097   0.479   2.197   6.735  0.3620  0.3353  0.2624
 2155SOL    HW118098   0.552   2.147   6.700  0.9028  1.3589 -0.0797
 2155SOL    HW218099   0.417   2.127   6.754 -0.1398  0.8480  0.5018
 2156SOL     OW18100   2.810   0.616   8.289 -0.4568 -0.0555 -0.4318
 2156SOL    HW118101   2.796   0.710   8.283 -0.3203  0.0114  0.3867
 2156SOL    HW218102   2.879   0.619   8.355  0.9057 -2.7024 -1.7398
 2157SOL     OW18103   0.213   0.693   8.135 -0.3004  0.4883  0.0369
 2157SOL    HW118104   0.297   0.735   8.152  0.6026 -0.8643 -1.0759
 2157SOL    HW218105   0.225   0.645   8.053 -1.3468 -0.1894  0.2751
 2158SOL     OW18106   1.340   0.683   6.040  0.7722  0.4282  0.4639
 2158SOL    HW118107   1.431   0.702   6.018  0.2819  3.0195  0.7433
 2158SOL    HW218108   1.302   0.699   5.954  1.0390  0.4188  0.3430
 2159SOL     OW18109   2.262   4.343   0.868  0.3157  0.4910 -0.3095
 2159SOL    HW118110   2.261   4.438   0.873  0.3558  0.7256 -4.4701
 2159SOL    HW218111   2.357   4.341   0.871  0.2824 -1.1605 -0.1024
 2160SOL     OW18112   1.315   3.575   3.608  0.8094 -0.4574 -0.5640
 2160SOL    HW118113   1.270   3.515   3.549  0.7648 -1.2037  0.2399
 2160SOL    HW218114   1.404   3.587   3.575 -0.5652  1.1830 -3.7052
 2161SOL     OW18115   0.698   3.134   3.911 -0.3701  0.1861 -0.6441
 2161SOL    HW118116   0.639   3.208   3.898 -0.9752  0.1297  1.8191
 2161SOL    HW218117   0.743   3.136   3.827  3.0956  1.4980  1.2314
 2162SOL     OW18118   4.092   2.078  12.852  0.1874  0.1428 -0.3276
 2162SOL    HW118119   4.028   2.040  12.793 -0.3215  1.0393 -0.3625
 2162SOL    HW218120   4.161   2.016  12.830  0.0843 -0.0335 -0.1525
 2163SOL     OW18121   2.321   0.997   1.430  0.0172 -0.4341  0.3885
 2163SOL    HW118122   2.352   1.019   1.518  2.2720 -2.1070  0.0098
 2163SOL    HW218123   2.355   1.072   1.381  0.7371 -1.1860 -0.2554
 2164SOL     OW18124   0.491   4.654   3.264  0.1114  0.0072  0.0541
 2164SOL    HW118125   0.568   4.707   3.246 -0.3776  0.9469  0.7514
 2164SOL    HW218126   0.521   4.563   3.254 -1.7508 -0.5236 -0.7036
 2165SOL     OW18127   0.942   3.122   7.314 -0.1850  0.5432 -0.1664
 2165SOL    HW118128   0.899   3.098   7.232 -2.3525  1.4367  0.7083
 2165SOL    HW218129   1.030   3.089   7.293 -0.3315 -1.1549  1.9357
 2166SOL     OW18130   2.158   1.594   7.791 -0.0857 -0.0156 -0.7630
 2166SOL    HW118131   2.249   1.591   7.763  0.3726  0.7429  0.6532
 2166SOL    HW218132   2.123   1.639   7.714 -0.2568 -0.2912 -0.8440
 2167SOL     OW18133   0.939   2.203  14.938  0.0035  0.4509  0.2933
 2167SOL    HW118134   0.863   2.230  14.989  0.1859  2.6436 -0.6082
 2167SOL    HW218135   1.010   2.232  14.996  0.5741 -0.4680  0.0483
 2168SOL     OW18136   4.013   3.960   7.128  0.4666  0.2186 -0.2103
 2168SOL    HW118137   3.940   3.931   7.183  0.0325 -0.3543 -1.0672
 2168SOL    HW218138   3.990   3.941   7.037  0.5181 -1.7828  0.1876
 2169SOL     OW18139   2.468   0.968  11.769 -0.0996  0.1057 -0.4020
 2169SOL    HW118140   2.532   0.993  11.837 -0.3201 -0.4635  0.0136
 2169SOL    HW218141   2.452   0.876  11.792 -1.9590  0.3580 -0.7069
 2170SOL     OW18142   1.857   2.550   2.082  0.4642 -0.7534  0.7328
 2170SOL    HW118143   1.931   2.606   2.060  0.0174 -0.7083 -0.6581
 2170SOL    HW218144   1.801   2.616   2.123  0.7496 -0.1044  0.0649
 2171SOL     OW18145   1.944   0.001  15.614  0.6688 -0.0884  0.4066
 2171SOL    HW118146   1.968   4.660  15.667  1.2849 -0.6459 -0.6722
 2171SOL    HW218147   1.966   4.696  15.530 -1.0460  0.2838 -0.2324
 2172SOL     OW18148   0.692   3.241   3.668 -0.2553 -0.0436  0.0504
 2172SOL    HW118149   0.710   3.180   3.597 -0.0659  0.1954 -0.1076
 2172SOL    HW218150   0.599   3.256   3.655  0.0404  0.9934 -0.8294
 2173SOL     OW18151   2.447   0.133   9.516  0.4372 -0.3053 -0.2654
 2173SOL    HW118152   2.427   0.042   9.494  0.6819 -0.6341  0.8588
 2173SOL    HW218153   2.362   0.173   9.495 -0.4210  0.1882  4.1204
 2174SOL     OW18154   2.699   2.221   4.427 -0.3301  0.6453 -0.0043
 2174SOL    HW118155   2.685   2.255   4.515  1.6662  1.8894 -0.1704
 2174SOL    HW218156   2.741   2.297   4.386 -1.0475  0.9702 -0.1372
 2175SOL     OW18157   1.783   2.184   1.294 -0.6843 -0.2939  0.2982
 2175SOL    HW118158   1.859   2.134   1.267 -0.8997 -1.2809  1.5266
 2175SOL    HW218159   1.706   2.127   1.290  0.1600 -1.3381 -0.9338
 2176SOL     OW18160   0.049   0.835   3.732 -0.1140  0.3174  0.7017
 2176SOL    HW118161   4.696   0.867   3.715 -0.9502 -1.1916  2.1036
 2176SOL    HW218162   0.036   0.768   3.799  2.4909  2.0513  2.9678
 2177SOL     OW18163   1.229   4.179   4.314 -0.1690 -0.3298  0.7086
 2177SOL    HW118164   1.250   4.173   4.407 -1.8851 -0.6276  1.0789
 2177SOL    HW218165   1.307   4.138   4.277 -0.7904 -1.7105  0.9321
 2178SOL     OW18166   3.748   4.378   8.112  0.6833 -0.2974 -0.3042
 2178SOL    HW118167   3.756   4.450   8.050 -1.0134  1.4043  1.4702
 2178SOL    HW218168   3.764   4.429   8.192 -2.0022  1.8357 -1.1274
 2179SOL     OW18169   0.568   0.845   9.838  0.1523 -0.1773 -0.2313
 2179SOL    HW118170   0.516   0.771   9.868  1.3706 -0.3825  1.3838
 2179SOL    HW218171   0.502   0.909   9.813 -1.2212 -0.5659  2.4263
 2180SOL     OW18172   0.785   3.819   4.494 -0.2959  0.1722  0.0411
 2180SOL    HW118173   0.738   3.897   4.464 -1.4959 -0.7140 -0.4007
 2180SOL    HW218174   0.798   3.765   4.416  1.2075 -0.4389  0.7160
 2181SOL     OW18175   3.231   0.402   4.852 -0.0910 -0.0339  0.2496
 2181SOL    HW118176   3.252   0.479   4.799 -0.3650  1.0632  1.7236
 2181SOL    HW218177   3.194   0.443   4.931 -2.5172  1.3667 -1.6092
 2182SOL     OW18178   0.197   0.107   4.382  0.0432 -0.5138  0.3205
 2182SOL    HW118179   0.221   0.054   4.305  0.5587 -1.4466  1.1225
 2182SOL    HW218180   0.217   0.040   4.447 -0.9221 -1.0284  0.0991
 2183SOL     OW18181   0.313   2.093   2.412  0.0902  0.1570  0.3340
 2183SOL    HW118182   0.361   2.029   2.464 -0.7177 -0.0985  0.7690
 2183SOL    HW218183   0.310   2.175   2.461  1.4023 -0.9543  2.2564
 2184SOL     OW18184   0.198   1.621   4.358  0.0607 -0.4151 -0.2083
 2184SOL    HW118185   0.170   1.561   4.289 -2.2240 -0.8587  1.1196
 2184SOL    HW218186   0.143   1.698   4.352 -0.4206 -0.7627 -0.2726
 2185SOL     OW18187   0.318   4.257   5.068 -0.5506  0.2813  0.1572
 2185SOL    HW118188   0.284   4.271   5.157  0.4253  1.2253  0.3775
 2185SOL    HW218189   0.409   4.261   5.096 -0.3806 -1.3283 -0.1291
 2186SOL     OW18190   3.201   1.513   2.757  0.7420  0.2270  0.2067
 2186SOL    HW118191   3.123   1.525   2.704 -0.6250 -2.0489  1.7194
 2186SOL    HW218192   3.215   1.599   2.797  0.8595 -0.2465  1.2064
 2187SOL     OW18193   3.141   0.259   2.717 -0.3661  0.0168  0.4900
 2187SOL    HW118194   3.171   0.237   2.629 -0.7798  0.0495  0.3386
 2187SOL    HW218195   3.051   0.227   2.716 -0.0219 -0.9178 -0.1787
 2188SOL     OW18196   4.236   4.699   7.519 -0.7347 -0.0127  0.1831
 2188SOL    HW118197   4.202   0.037   7.467  1.2330  0.8837  0.1626
 2188SOL    HW218198   4.211   4.622   7.468  0.8538 -1.0043  0.9118
 2189SOL     OW18199   0.828   3.080   3.415  0.1049 -0.1737  0.1114
 2189SOL    HW118200   0.805   3.133   3.339 -3.7851  0.8508  2.0653
 2189SOL    HW218201   0.788   2.994   3.400  2.8317 -1.1981 -1.4282
 2190SOL     OW18202   0.059   3.309   9.641  0.1022  0.2349 -0.1987
 2190SOL    HW118203   0.055   3.404   9.656 -0.5534  0.3419 -1.0619
 2190SOL    HW218204   4.701   3.290   9.629  0.5547 -1.5994 -0.7046
 2191SOL     OW18205   0.007   4.333  13.280  0.0327 -0.2711  0.0353
 2191SOL    HW118206   0.071   4.317  13.211  1.7771  2.0111  1.1360
 2191SOL    HW218207   0.048   4.285  13.352  0.7689 -0.5620 -0.5763
 2192SOL     OW18208   1.417   0.030   5.183 -0.4822 -0.6520 -0.3558
 2192SOL    HW118209   1.392   0.112   5.141  0.3749 -1.5887 -2.6885
 2192SOL    HW218210   1.453   4.711   5.112 -1.2650  1.9165 -2.7143
 2193SOL     OW18211   1.611   4.002   1.949 -0.6192  0.0780  0.0774
 2193SOL    HW118212   1.547   3.940   1.984  2.8042 -1.7559  3.1502
 2193SOL    HW218213   1.590   4.081   2.000 -3.4265 -0.7210  0.1582
 2194SOL     OW18214   1.143   0.269   1.684 -0.5731  0.4608  0.7120
 2194SOL    HW118215   1.073   0.321   1.644 -1.0620  0.1086  1.1078
 2194SOL    HW218216   1.202   0.242   1.614 -1.8014  1.3657 -0.6680
 2195SOL     OW18217   4.231   1.417   2.579 -0.3220 -0.1416  0.2970
 2195SOL    HW118218   4.137   1.417   2.597 -0.4121 -0.0750 -0.1775
 2195SOL    HW218219   4.230   1.334   2.530  0.2019 -0.2699  0.5042
 2196SOL     OW18220   4.516   2.639   7.777  0.4712  0.1005  0.4125
 2196SOL    HW118221   4.592   2.684   7.740 -0.0717 -0.7626 -1.8249
 2196SOL    HW218222   4.463   2.613   7.702 -0.4647 -1.1464  1.5153
 2197SOL     OW18223   2.063   3.997   8.631  0.3144 -0.9688  0.2078
 2197SOL    HW118224   2.071   3.969   8.722 -2.7949 -0.9914  0.4899
 2197SOL    HW218225   1.969   3.993   8.610  0.4817  0.9617 -0.9121
 2198SOL     OW18226   2.842   1.283   5.792  0.3849  0.2908 -0.2055
 2198SOL    HW118227   2.767   1.312   5.741  0.3145 -0.4609 -0.5287
 2198SOL    HW218228   2.888   1.365   5.812 -0.0622  0.7342 -1.0038
 2199SOL     OW18229   0.375   3.236   7.460  0.1982 -0.1026 -0.0207
 2199SOL    HW118230   0.402   3.294   7.531  0.3957 -0.1505 -0.0564
 2199SOL    HW218231   0.454   3.184   7.442  0.5456 -0.0442  1.3680
 2200SOL     OW18232   3.776   3.961   5.671 -0.1639  0.2715  0.3191
 2200SOL    HW118233   3.855   3.981   5.722  2.2449  0.1018 -3.2980
 2200SOL    HW218234   3.703   4.001   5.717  1.2630  2.6285  0.5757
 2201SOL     OW18235   0.604   4.071   4.839 -0.0369  0.2690  0.5057
 2201SOL    HW118236   0.564   4.045   4.922  0.3139  1.1799  0.9582
 2201SOL    HW218237   0.527   4.088   4.785  0.6947  0.4992 -0.4703
 2202SOL     OW18238   3.777   3.347   2.173 -0.3552 -0.0868 -0.5242
 2202SOL    HW118239   3.745   3.424   2.125 -0.5806 -1.3094 -2.3584
 2202SOL    HW218240   3.699   3.292   2.175 -1.6295  1.8095  1.8513
 2203SOL     OW18241   3.132   1.430  12.527 -0.0873 -0.2364 -0.3267
 2203SOL    HW118242   3.061   1.467  12.580 -0.0109  0.7403 -0.8978
 2203SOL    HW218243   3.087   1.419  12.443  1.4104  0.6130 -1.2345
 2204SOL     OW18244   2.865   1.114   7.977  0.5436 -0.4214  0.5131
 2204SOL    HW118245   2.932   1.055   7.942 -1.7274 -2.6224 -0.1177
 2204SOL    HW218246   2.808   1.135   7.903  1.6694  1.2181  0.1021
 2205SOL     OW18247   3.179   4.287   3.737  0.2544 -0.2927  0.0487
 2205SOL    HW118248   3.112   4.349   3.765  0.2469  0.5965 -1.9837
 2205SOL    HW218249   3.175   4.291   3.642 -2.3096  0.6070  0.1908
 2206SOL     OW18250   3.593   2.342   8.049 -0.4768  0.1950  0.4458
 2206SOL    HW118251   3.608   2.399   8.125  1.5376  0.9196 -0.5125
 2206SOL    HW218252   3.500   2.320   8.052 -0.7932  1.4238 -0.3436
 2207SOL     OW18253   2.501   3.552  16.443  0.3999 -0.2049  0.3344
 2207SOL    HW118254   2.439   3.613  16.483  1.8344  2.5669 -1.6462
 2207SOL    HW218255   2.538   3.610  16.377  0.8098 -1.4082 -0.4886
 2208SOL     OW18256   1.558   4.300   8.303  0.3315 -0.1110 -0.2980
 2208SOL    HW118257   1.607   4.370   8.345 -2.1148  1.1790  0.3976
 2208SOL    HW218258   1.519   4.352   8.233 -2.7607 -2.4734 -0.3545
 2209SOL     OW18259   3.393   4.734   6.311  0.2813 -0.7477  0.4130
 2209SOL    HW118260   3.436   0.053   6.245 -1.8231 -1.3618 -1.4594
 2209SOL    HW218261   3.304   0.025   6.288 -1.1131 -2.1747  4.1090
 2210SOL     OW18262   3.305   1.445  16.233 -0.5423 -0.4357  0.3815
 2210SOL    HW118263   3.350   1.386  16.173  0.9963 -0.0540  1.1783
 2210SOL    HW218264   3.340   1.529  16.202 -0.5327 -0.3645  0.5889
 2211SOL     OW18265   2.883   0.105   2.800 -0.0634  0.0547 -0.4391
 2211SOL    HW118266   2.856   0.055   2.724  0.4137 -0.1647 -0.4687
 2211SOL    HW218267   2.805   0.146   2.837 -0.1960 -1.2033  0.6677
 2212SOL     OW18268   2.825   2.917   4.674  0.2177  0.1713 -0.0280
 2212SOL    HW118269   2.820   3.011   4.692  2.3030  0.2281  0.1692
 2212SOL    HW218270   2.886   2.885   4.740 -0.1779  0.8907  0.6965
 2213SOL     OW18271   0.343   0.499   9.253 -0.3445 -0.0925  0.8168
 2213SOL    HW118272   0.423   0.457   9.222  0.8042  0.5619  2.8575
 2213SOL    HW218273   0.280   0.469   9.188  0.4221  0.8886 -0.3936
 2214SOL     OW18274   3.192   2.225   6.467 -0.3174  0.4273 -0.4813
 2214SOL    HW118275   3.270   2.175   6.443  0.3165  0.8657  0.7034
 2214SOL    HW218276   3.133   2.208   6.393  0.4986 -0.0132 -1.0284
 2215SOL     OW18277   0.635   0.054  12.389 -0.2869 -0.5449  0.1109
 2215SOL    HW118278   0.633   0.069  12.295 -2.1794 -0.4417  0.1646
 2215SOL    HW218279   0.549   0.018  12.412 -1.5065  1.4325 -1.3520
 2216SOL     OW18280   0.394   3.006   4.558 -0.0212  0.0749 -0.1180
 2216SOL    HW118281   0.311   3.053   4.566 -0.7856 -1.0177 -1.6095
 2216SOL    HW218282   0.360   2.920   4.532 -1.5814  0.4801  0.5630
 2217SOL     OW18283   3.406   1.697  13.895  0.1037  0.3027 -0.0367
 2217SOL    HW118284   3.355   1.690  13.815  4.2467  0.1747 -2.6304
 2217SOL    HW218285   3.379   1.626  13.953 -2.8059  0.5896 -1.0381
 2218SOL     OW18286   1.226   2.369  14.015 -0.3201  0.1938 -0.2506
 2218SOL    HW118287   1.190   2.332  13.934  2.4454 -1.3514 -0.7914
 2218SOL    HW218288   1.217   2.297  14.078 -1.1937 -0.0887 -0.6927
 2219SOL     OW18289   3.800   1.248  15.098 -0.5563 -0.2364  0.0915
 2219SOL    HW118290   3.825   1.166  15.056  0.0057 -0.1527  0.2635
 2219SOL    HW218291   3.722   1.222  15.147 -0.7391 -2.4044 -1.3272
 2220SOL     OW18292   1.521   2.295   4.698 -1.0535  0.0556 -0.0626
 2220SOL    HW118293   1.575   2.353   4.753  1.1694 -2.0178 -0.0952
 2220SOL    HW218294   1.498   2.225   4.758 -2.1010  2.0574  1.8811
 2221SOL     OW18295   0.878   2.723   4.790  0.1154  0.7927 -0.1569
 2221SOL    HW118296   0.895   2.759   4.703  0.4677  0.4839 -0.2198
 2221SOL    HW218297   0.967   2.690   4.802 -0.2359 -0.0255  0.2534
 2222SOL     OW18298   3.014   4.267   6.475  0.0267  0.7747 -0.5797
 2222SOL    HW118299   3.030   4.334   6.541  0.1492  1.1612 -0.9982
 2222SOL    HW218300   3.041   4.315   6.396  1.3327 -1.0255 -1.2308
 2223SOL     OW18301   0.127   3.854  16.492  0.0835  0.3046 -0.2485
 2223SOL    HW118302   0.074   3.901  16.427 -1.8350 -1.0787  0.3092
 2223SOL    HW218303   0.201   3.845  16.432  0.3096  2.7927 -0.3787
 2224SOL     OW18304   3.756   2.097   2.934 -0.9395 -0.3045  0.1731
 2224SOL    HW118305   3.828   2.159   2.947 -3.1059  2.4120 -0.7574
 2224SOL    HW218306   3.728   2.108   2.843 -0.7442 -0.8964  0.0418
 2225SOL     OW18307   3.641   2.877   4.076  0.6746  0.4900  0.4336
 2225SOL    HW118308   3.579   2.842   4.141 -0.4299  3.3074  0.8954
 2225SOL    HW218309   3.725   2.844   4.108  0.1662 -1.2628 -0.0455
 2226SOL     OW18310   0.510   2.580   7.106 -0.1392 -0.3382 -0.5628
 2226SOL    HW118311   0.506   2.499   7.057 -1.6858 -1.3972  1.2989
 2226SOL    HW218312   0.447   2.571   7.178 -0.2604 -1.0977 -0.7707
 2227SOL     OW18313   0.099   4.719  11.862  0.4552 -0.0988 -0.2257
 2227SOL    HW118314   0.187   4.703  11.894 -0.2722  0.2394  1.9213
 2227SOL    HW218315   0.104   4.659  11.787 -0.2582  0.4985 -0.7570
 2228SOL     OW18316   4.348   1.186   5.504 -0.0035 -0.3428  0.4728
 2228SOL    HW118317   4.387   1.102   5.481 -0.8872 -0.1272 -1.8549
 2228SOL    HW218318   4.254   1.170   5.490 -0.0005 -0.2331  0.3271
 2229SOL     OW18319   2.079   1.091   3.284  0.1284 -0.4442  0.4719
 2229SOL    HW118320   2.054   1.181   3.306  0.1313 -0.2419 -0.3731
 2229SOL    HW218321   2.059   1.057   3.372 -1.8441 -0.8281 -0.1255
 2230SOL     OW18322   1.040   1.710   2.273 -0.1666  0.2234  0.5584
 2230SOL    HW118323   1.053   1.689   2.180 -0.4709 -0.0847  0.5876
 2230SOL    HW218324   1.031   1.620   2.303 -1.8132  0.9326  2.1393
 2231SOL     OW18325   4.177   0.668   5.696  0.0064  0.5235 -0.5817
 2231SOL    HW118326   4.185   0.761   5.720 -1.7818  0.1623  1.4507
 2231SOL    HW218327   4.166   0.680   5.602 -1.0331  0.9652 -0.4022
 2232SOL     OW18328   1.638   3.767   6.156  0.2193 -0.2598 -0.0082
 2232SOL    HW118329   1.711   3.828   6.156  1.0437 -1.2511 -0.8434
 2232SOL    HW218330   1.685   3.684   6.163  0.9112  0.2710  1.4906
 2233SOL     OW18331   2.303   1.507   4.827  0.3006  0.4886  0.2470
 2233SOL    HW118332   2.395   1.531   4.838  1.1790 -1.9953 -1.7365
 2233SOL    HW218333   2.302   1.421   4.870  0.9758 -0.8472 -2.4628
 2234SOL     OW18334   3.171   0.122   4.032  0.3319  0.1410  0.7942
 2234SOL    HW118335   3.208   0.051   3.981 -1.9656 -0.1979 -0.4150
 2234SOL    HW218336   3.108   0.168   3.976  1.1799  1.6371  1.0841
 2235SOL     OW18337   1.148   3.730   6.570 -0.4362 -0.1844  0.1095
 2235SOL    HW118338   1.215   3.666   6.547  0.2308  0.9599 -1.1472
 2235SOL    HW218339   1.164   3.739   6.663 -0.6401  1.3973 -0.0111
 2236SOL     OW18340   2.976   4.609   6.215  0.2228 -0.6220  0.2186
 2236SOL    HW118341   2.893   4.639   6.253  0.2745  1.4823 -1.3513
 2236SOL    HW218342   2.932   4.575   6.137 -0.2102  0.8686 -0.1917
 2237SOL     OW18343   4.652   4.020   4.571 -0.5936 -0.3364  0.8399
 2237SOL    HW118344   4.627   4.040   4.481  1.0059 -1.8701  0.0347
 2237SOL    HW218345   4.706   4.096   4.591 -0.6594  0.0405 -0.4172
 2238SOL     OW18346   1.908   3.569  10.575  0.2079 -0.0750 -0.0107
 2238SOL    HW118347   1.901   3.531  10.663 -1.3831 -1.1588 -0.6110
 2238SOL    HW218348   1.826   3.540  10.536  0.0652  0.9808 -0.5002
 2239SOL     OW18349   0.507   2.474  16.244 -0.1745 -0.1148  0.0401
 2239SOL    HW118350   0.503   2.563  16.209  1.4323  0.2206  0.7101
 2239SOL    HW218351   0.416   2.446  16.242  0.1551 -1.0611 -1.5801
 2240SOL     OW18352   3.400   1.028  15.623 -0.0828  0.3559  0.0655
 2240SOL    HW118353   3.398   0.979  15.540 -0.1272 -0.3418  0.4810
 2240SOL    HW218354   3.494   1.030  15.644 -0.1706  1.4057  0.3698
 2241SOL     OW18355   4.479   2.002  13.717  0.2963 -0.5817  0.1068
 2241SOL    HW118356   4.397   2.026  13.673  0.4633 -1.0414 -0.4674
 2241SOL    HW218357   4.440   2.001  13.804 -0.4995 -0.5401 -0.2488
 2242SOL     OW18358   2.309   3.110   5.102  0.0871 -0.4574 -0.2608
 2242SOL    HW118359   2.222   3.084   5.132 -0.3674  1.0523 -0.2795
 2242SOL    HW218360   2.274   3.187   5.058  0.3599  2.2314  4.2576
 2243SOL     OW18361   4.730   1.384   9.495 -0.5144  0.2706 -0.2195
 2243SOL    HW118362   0.005   1.412   9.587  0.4447 -2.2090  0.4149
 2243SOL    HW218363   4.708   1.293   9.513 -0.6001  0.4451  0.5654
 2244SOL     OW18364   4.120   4.151  16.021  0.0061 -0.1604 -0.2721
 2244SOL    HW118365   4.131   4.205  15.943 -2.7256 -0.7756 -1.0803
 2244SOL    HW218366   4.040   4.190  16.056 -0.0763  0.9365 -1.6884
 2245SOL     OW18367   1.124   4.189   3.910  0.5957 -0.4201  0.5081
 2245SOL    HW118368   1.218   4.190   3.891  0.5418 -1.4809  0.2008
 2245SOL    HW218369   1.129   4.237   3.993 -2.7773  1.9384 -0.6446
 2246SOL     OW18370   1.621   2.697   3.413 -0.4151  0.6410  0.1279
 2246SOL    HW118371   1.562   2.713   3.486 -0.9292  0.2733 -0.2095
 2246SOL    HW218372   1.565   2.699   3.335  0.7914  0.4279 -0.7556
 2247SOL     OW18373   3.172   0.981  17.322 -0.4754 -0.3272 -0.0934
 2247SOL    HW118374   3.214   0.992  17.407  0.6427 -2.1459 -0.4113
 2247SOL    HW218375   3.101   0.924  17.355  1.1549 -0.8288  2.5475
 2248SOL     OW18376   1.226   2.610   1.508 -0.1228  0.6404  0.3246
 2248SOL    HW118377   1.301   2.589   1.452  1.0206  0.2441  2.0172
 2248SOL    HW218378   1.194   2.692   1.468 -1.2668 -0.3233 -0.7537
 2249SOL     OW18379   4.262   1.164   1.929 -0.5043 -0.6228 -0.0962
 2249SOL    HW118380   4.200   1.211   1.872 -1.2037 -0.7009  0.5985
 2249SOL    HW218381   4.194   1.147   1.994  0.3957 -2.4619  0.3528
 2250SOL     OW18382   2.130   1.046   3.964  0.0895 -0.5987 -0.4463
 2250SOL    HW118383   2.040   1.042   3.933 -0.4897  0.2661  1.1086
 2250SOL    HW218384   2.176   0.988   3.903  0.7270 -1.5197  0.8986
 2251SOL     OW18385   0.877   3.211   5.707  0.2969 -0.0350  0.3220
 2251SOL    HW118386   0.947   3.147   5.722 -0.0130 -0.5103 -0.2559
 2251SOL    HW218387   0.870   3.221   5.612  1.1216  0.9109  0.3557
 2252SOL     OW18388   4.320   0.139   1.733 -0.0433 -0.2064  0.1273
 2252SOL    HW118389   4.315   0.228   1.768 -0.4691 -0.0446 -0.3546
 2252SOL    HW218390   4.296   0.082   1.806  1.0717  0.0355  0.6848
 2253SOL     OW18391   2.834   3.154   9.117 -0.1064  0.2265 -0.3454
 2253SOL    HW118392   2.818   3.236   9.069  0.1337 -0.9820 -2.4792
 2253SOL    HW218393   2.748   3.111   9.115 -0.1130  0.1851  1.2945
 2254SOL     OW18394   3.236   2.939   7.662  0.1547 -0.4403  0.5502
 2254SOL    HW118395   3.180   3.014   7.642 -0.5603 -0.8617  1.0000
 2254SOL    HW218396   3.321   2.970   7.693  0.2597 -1.9349  1.7518
 2255SOL     OW18397   1.634   0.697   2.466  0.1207  0.3956 -0.2283
 2255SOL    HW118398   1.709   0.737   2.421 -0.6934  0.4936 -1.5263
 2255SOL    HW218399   1.633   0.607   2.434 -0.7476  0.6984 -1.0664
 2256SOL     OW18400   4.661   3.743  17.574 -0.0269 -0.4622 -0.5388
 2256SOL    HW118401   0.020   3.745  17.596 -0.5906  0.6843  1.6765
 2256SOL    HW218402   4.619   3.761  17.658  2.4116  0.8161  0.3964
 2257SOL     OW18403   2.518   2.781   1.043  0.0299 -0.7026 -0.2209
 2257SOL    HW118404   2.584   2.728   0.997 -0.4977  1.3782 -3.4330
 2257SOL    HW218405   2.452   2.716   1.067 -1.7236  0.3477 -2.1608
 2258SOL     OW18406   2.211   0.319   8.155 -0.6275  0.4185 -0.2250
 2258SOL    HW118407   2.141   0.343   8.093  0.4436  1.7774 -0.9122
 2258SOL    HW218408   2.240   0.232   8.128  2.4183  1.2502  0.3293
 2259SOL     OW18409   4.458   3.993  12.268 -0.0105 -0.3638  0.3326
 2259SOL    HW118410   4.378   3.990  12.320 -0.6753  0.1721 -0.6657
 2259SOL    HW218411   4.437   4.056  12.199  0.1905 -1.0831 -0.3914
 2260SOL     OW18412   2.422   3.092   3.442 -0.1607  0.2002 -0.1469
 2260SOL    HW118413   2.497   3.034   3.453  0.7110  0.9344 -2.1212
 2260SOL    HW218414   2.461   3.178   3.458  0.4284 -0.3767  1.4866
 2261SOL     OW18415   3.284   1.736  13.661 -0.0729  0.6764 -0.3735
 2261SOL    HW118416   3.188   1.730  13.665  0.0301 -0.0129  0.9846
 2261SOL    HW218417   3.293   1.818  13.612  3.2456  0.2228 -0.4883
 2262SOL     OW18418   3.426   2.647   5.210  0.2238  0.0155 -0.3034
 2262SOL    HW118419   3.435   2.706   5.284  0.4771  0.6347 -0.8236
 2262SOL    HW218420   3.375   2.583   5.259 -3.5127  3.3342  0.0823
 2263SOL     OW18421   4.717   2.942   3.614 -0.4470 -0.1788  0.2118
 2263SOL    HW118422   0.051   2.972   3.673 -0.1825  1.1117 -0.7584
 2263SOL    HW218423   4.652   3.011   3.623  1.3572  1.3965  1.1977
 2264SOL     OW18424   2.485   3.402  13.471  0.2523  0.4343  0.2127
 2264SOL    HW118425   2.390   3.404  13.459  0.0400  0.9992  2.0539
 2264SOL    HW218426   2.514   3.487  13.437  0.3416  2.5191  5.5477
 2265SOL     OW18427   1.439   1.139   7.098 -0.2275 -0.7514 -0.3571
 2265SOL    HW118428   1.406   1.214   7.047  0.5390 -0.9227 -1.1005
 2265SOL    HW218429   1.476   1.084   7.029  1.1394  1.5994 -1.5139
 2266SOL     OW18430   0.159   2.139   7.739 -0.2964  0.4625 -0.1945
 2266SOL    HW118431   0.065   2.118   7.742 -0.2852  0.7909  2.9023
 2266SOL    HW218432   0.163   2.233   7.758  1.9831  0.8382 -2.6661
 2267SOL     OW18433   2.334   4.064   0.778  0.8964  0.0663  0.0916
 2267SOL    HW118434   2.336   4.093   0.687 -1.0081 -1.0152 -0.2846
 2267SOL    HW218435   2.292   4.138   0.820 -0.3479 -0.1468 -0.8027
 2268SOL     OW18436   1.081   3.571  16.063  0.1848 -0.1718  0.0943
 2268SOL    HW118437   1.129   3.571  16.146  0.4770 -1.5871 -0.0851
 2268SOL    HW218438   1.085   3.480  16.036 -0.3559  0.0879 -0.8811
 2269SOL     OW18439   0.922   0.920   4.654  0.4726 -0.2276  0.1680
 2269SOL    HW118440   0.842   0.965   4.682  1.1246  1.5529 -0.8162
 2269SOL    HW218441   0.901   0.829   4.675  0.1410 -0.5590 -1.6257
 2270SOL     OW18442   1.225   3.570   4.509  0.1217  0.0997  0.1589
 2270SOL    HW118443   1.196   3.572   4.418  0.1583 -2.7264  0.0640
 2270SOL    HW218444   1.146   3.535   4.550 -0.7734  0.3166 -1.3781
 2271SOL     OW18445   0.533   4.587   9.258  0.4752 -0.1910 -0.4277
 2271SOL    HW118446   0.544   4.492   9.247  0.1529 -0.0260 -2.1049
 2271SOL    HW218447   0.616   4.621   9.226  0.3212  0.5180 -0.0615
 2272SOL     OW18448   1.977   3.116  15.569  0.1447 -0.2190 -0.3555
 2272SOL    HW118449   1.964   3.062  15.492 -0.3214 -1.4017  0.5640
 2272SOL    HW218450   1.922   3.194  15.555 -0.1221 -0.4562 -0.6252
 2273SOL     OW18451   0.870   4.257   7.847 -0.2645  0.2294  0.4906
 2273SOL    HW118452   0.877   4.217   7.934  2.0263 -2.2467 -0.8277
 2273SOL    HW218453   0.895   4.349   7.858 -1.4079  0.4707  1.0152
 2274SOL     OW18454   3.323   4.430   0.640 -0.1218 -0.0945 -0.6824
 2274SOL    HW118455   3.363   4.497   0.695 -1.3414  0.8012 -0.8899
 2274SOL    HW218456   3.358   4.355   0.689 -0.2394  0.6438  0.5301
 2275SOL     OW18457   4.563   2.534   1.289  0.4351  0.0914 -0.7302
 2275SOL    HW118458   4.560   2.628   1.304 -1.1049  0.4064 -3.0100
 2275SOL    HW218459   4.515   2.490   1.359 -1.9146 -1.0621 -3.0769
 2276SOL     OW18460   1.326   2.014   4.418  0.1621  0.0246  0.0273
 2276SOL    HW118461   1.236   2.000   4.389 -0.5573 -0.4092  2.4714
 2276SOL    HW218462   1.376   2.007   4.336 -1.0238 -0.0086 -0.6936
 2277SOL     OW18463   3.226   3.858  12.772  0.7142 -0.1383 -0.3038
 2277SOL    HW118464   3.226   3.829  12.863 -0.6482 -2.1676 -0.9506
 2277SOL    HW218465   3.319   3.864  12.749  0.9308 -0.7697  0.4172
 2278SOL     OW18466   0.813   1.408   4.924 -0.1481 -0.0277 -0.0286
 2278SOL    HW118467   0.801   1.382   5.015  2.0001 -0.1082  0.2384
 2278SOL    HW218468   0.734   1.363   4.893 -1.2774  0.9466  1.4770
 2279SOL     OW18469   0.057   0.204   3.998  0.1268 -0.0936 -0.6970
 2279SOL    HW118470   0.120   0.249   4.054 -1.7182  0.3995  0.9648
 2279SOL    HW218471   0.121   0.143   3.962  0.3049  0.5817 -1.5290
 2280SOL     OW18472   4.611   2.578  12.802 -0.0834 -0.1371  0.2897
 2280SOL    HW118473   4.634   2.574  12.709  1.7587  2.6313  0.6300
 2280SOL    HW218474   4.518   2.557  12.790  0.0110  0.1546 -0.9703
 2281SOL     OW18475   3.960   0.500   7.591  0.2090 -0.0547  0.1147
 2281SOL    HW118476   3.923   0.435   7.649 -0.1284 -0.0319 -0.0727
 2281SOL    HW218477   3.878   0.544   7.567 -0.3504 -0.8158  0.6515
 2282SOL     OW18478   0.103   4.095   1.777 -0.1886 -0.4050  0.4379
 2282SOL    HW118479   0.109   4.008   1.738 -1.1694  0.2151 -1.1231
 2282SOL    HW218480   0.009   4.087   1.796  0.5225  0.6481  4.3031
 2283SOL     OW18481   1.086   4.128   3.016 -0.4930 -0.3169  0.1865
 2283SOL    HW118482   1.169   4.139   3.062  0.7829 -1.0043 -1.9989
 2283SOL    HW218483   1.102   4.189   2.944 -0.5007  0.0404  0.4863
 2284SOL     OW18484   3.679   2.761   7.366 -0.8932 -0.5640 -0.0843
 2284SOL    HW118485   3.749   2.708   7.326  0.2329  2.0095 -1.5548
 2284SOL    HW218486   3.649   2.783   7.278  0.2338  1.4345  0.0163
 2285SOL     OW18487   2.696   3.735   5.961 -0.2256 -0.3494 -0.0440
 2285SOL    HW118488   2.618   3.772   6.002 -0.4185  0.0129 -0.7474
 2285SOL    HW218489   2.687   3.767   5.871 -0.6624  1.8977  0.8121
 2286SOL     OW18490   2.531   4.578  12.718  0.4303 -0.2758 -0.2381
 2286SOL    HW118491   2.605   4.615  12.766  0.2634  0.6043 -0.6686
 2286SOL    HW218492   2.546   4.483  12.714 -0.0230 -0.3157 -1.0030
 2287SOL     OW18493   0.000   3.545  10.378  0.6082  0.5131 -0.2875
 2287SOL    HW118494   0.012   3.450  10.384  1.1742  0.4974 -1.8692
 2287SOL    HW218495   0.087   3.569  10.411  0.1381  0.5285  0.9541
 2288SOL     OW18496   0.165   1.230  16.162 -0.2513 -0.0922  0.2069
 2288SOL    HW118497   0.189   1.176  16.237 -0.7023  1.3901  1.3977
 2288SOL    HW218498   0.169   1.316  16.203  2.6316  1.7396 -3.8667
 2289SOL     OW18499   3.522   3.859  11.808 -0.7565 -0.3289 -0.2309
 2289SOL    HW118500   3.445   3.866  11.751 -1.0811 -2.3115 -0.0235
 2289SOL    HW218501   3.492   3.906  11.886  1.4594 -0.1752  0.5137
 2290SOL     OW18502   3.922   3.376   6.590 -0.4660 -0.0725 -0.6070
 2290SOL    HW118503   3.846   3.413   6.546 -1.0994 -0.0416  0.5264
 2290SOL    HW218504   3.997   3.421   6.551  1.0551 -1.4580  0.6790
 2291SOL     OW18505   3.691   0.594  14.876  0.2871  0.4853 -0.0015
 2291SOL    HW118506   3.617   0.612  14.933 -0.6780  2.3174 -1.8785
 2291SOL    HW218507   3.692   0.499  14.891 -0.0434  0.4056 -0.4818
 2292SOL     OW18508   3.511   0.097  17.053 -0.4383  0.2821 -0.5282
 2292SOL    HW118509   3.501   0.092  17.148 -0.5500 -0.2549 -0.5659
 2292SOL    HW218510   3.527   0.190  17.038 -2.2961  0.4264 -1.6684
 2293SOL     OW18511   3.763   2.234   5.134 -0.3354  0.2893  0.7208
 2293SOL    HW118512   3.675   2.228   5.171 -0.4087 -2.8116  0.0683
 2293SOL    HW218513   3.748   2.224   5.040 -0.3512 -1.8845  0.9512
 2294SOL     OW18514   0.025   3.223   6.276  0.0475  0.1945 -0.4181
 2294SOL    HW118515   0.011   3.171   6.197  1.4242  0.5150 -0.8891
 2294SOL    HW218516   0.029   3.315   6.250  4.0351  0.3614  0.6976
 2295SOL     OW18517   4.331   2.645   9.612 -0.3616  0.1842 -0.5159
 2295SOL    HW118518   4.274   2.569   9.625  0.3689 -0.1894  0.5141
 2295SOL    HW218519   4.417   2.617   9.645  0.0862  0.2708 -1.6141
 2296SOL     OW18520   3.721   3.287   9.640  0.3692  0.4338  0.5556
 2296SOL    HW118521   3.785   3.224   9.604 -0.4025  0.2934 -0.5807
 2296SOL    HW218522   3.670   3.312   9.563 -1.6471  0.7331  2.0112
 2297SOL     OW18523   4.270   4.302   1.898 -0.2108 -0.1614 -0.2867
 2297SOL    HW118524   4.196   4.343   1.853 -0.3078  0.1087  0.1121
 2297SOL    HW218525   4.323   4.276   1.823 -0.9287 -0.0806 -0.8135
 2298SOL     OW18526   1.723   1.201   6.640 -0.0776  0.0091 -0.1573
 2298SOL    HW118527   1.789   1.133   6.623 -0.2320 -0.1367 -0.1808
 2298SOL    HW218528   1.776   1.272   6.676 -2.0456  1.0321  0.7008
 2299SOL     OW18529   1.754   0.878   6.875 -0.2292 -0.6539 -0.1583
 2299SOL    HW118530   1.816   0.892   6.803  0.4877  1.4989  0.8680
 2299SOL    HW218531   1.804   0.886   6.956 -0.7021  0.7548  0.0030
 2300SOL     OW18532   3.576   3.315   9.398 -0.2194 -0.4363 -0.6826
 2300SOL    HW118533   3.615   3.246   9.345  2.2150 -0.7530  1.5335
 2300SOL    HW218534   3.497   3.321   9.344 -0.0354  1.5180 -0.7069
 2301SOL     OW18535   1.767   2.443   5.493  0.2450 -0.2052  0.1002
 2301SOL    HW118536   1.849   2.404   5.525  0.2577 -0.2428  0.0235
 2301SOL    HW218537   1.816   2.513   5.450 -2.9925  2.3173  0.5470
 2302SOL     OW18538   3.218   2.201   9.405  0.3045  0.2853  0.1638
 2302SOL    HW118539   3.205   2.273   9.343  2.2342  1.2887  0.9006
 2302SOL    HW218540   3.129   2.180   9.431  0.2705 -0.8387 -0.8394
 2303SOL     OW18541   3.372   2.469  12.720  0.2140 -0.0130  0.0061
 2303SOL    HW118542   3.315   2.396  12.741  1.1662 -0.9057 -0.5193
 2303SOL    HW218543   3.429   2.428  12.654  1.0445  1.3672 -0.1593
 2304SOL     OW18544   2.636   3.665   8.978 -0.1446  0.2038 -0.1326
 2304SOL    HW118545   2.689   3.737   8.945 -0.8246  0.5460 -0.4731
 2304SOL    HW218546   2.583   3.645   8.901  1.7471 -1.6698 -0.9550
 2305SOL     OW18547   2.855   2.440   8.958 -0.2357 -0.6462 -0.3930
 2305SOL    HW118548   2.826   2.461   8.870 -2.1829  2.2310  0.9160
 2305SOL    HW218549   2.938   2.488   8.959 -0.1784 -0.7632  4.2524
 2306SOL     OW18550   3.610   2.651  16.679  0.2809  0.5070 -0.1716
 2306SOL    HW118551   3.552   2.629  16.606  2.7501  1.4016 -2.4342
 2306SOL    HW218552   3.593   2.744  16.697  1.9780  0.8802 -0.5008
 2307SOL     OW18553   0.466   0.659   8.787 -0.2548 -0.1640  0.2118
 2307SOL    HW118554   0.380   0.617   8.792 -0.2605 -0.2616 -0.6655
 2307SOL    HW218555   0.479   0.666   8.692  1.1235 -0.6408  0.3584
 2308SOL     OW18556   0.381   0.214   7.062  0.1644 -0.2929 -0.1210
 2308SOL    HW118557   0.416   0.125   7.059 -0.6141 -0.5607 -1.3728
 2308SOL    HW218558   0.293   0.217   7.101 -0.1534 -0.0770 -0.8677
 2309SOL     OW18559   2.718   4.531   9.129  0.2943 -0.1487  0.1685
 2309SOL    HW118560   2.706   4.582   9.209 -0.0524  0.2845 -0.1597
 2309SOL    HW218561   2.763   4.590   9.069  0.4865 -1.1014 -0.6185
 2310SOL     OW18562   3.185   1.664   7.115  0.2608 -0.4529  0.1636
 2310SOL    HW118563   3.269   1.659   7.161  0.0118 -0.7328  0.5859
 2310SOL    HW218564   3.134   1.725   7.168  0.5610 -0.5686  0.5868
 2311SOL     OW18565   4.151   1.113   2.558 -0.1708  0.1081 -0.4634
 2311SOL    HW118566   4.203   1.033   2.559 -1.2795 -0.6717 -4.2378
 2311SOL    HW218567   4.168   1.146   2.469 -3.4605  2.3438 -0.2729
 2312SOL     OW18568   2.531   0.460   2.040  1.1051  0.0868 -0.4439
 2312SOL    HW118569   2.466   0.526   2.064  0.1931 -1.0445  0.1522
 2312SOL    HW218570   2.488   0.415   1.967  0.8641  0.9558 -0.8520
 2313SOL     OW18571   3.733   3.170   0.064 -0.3844 -0.0536 -0.0398
 2313SOL    HW118572   3.638   3.184   0.058 -0.0767  0.8363 -3.0599
 2313SOL    HW218573   3.778   3.243   0.020  1.8686 -1.7563 -0.5241
 2314SOL     OW18574   4.268   0.971   7.147 -0.1659  0.4009 -1.0032
 2314SOL    HW118575   4.362   0.969   7.129 -0.2437 -2.3371 -1.1612
 2314SOL    HW218576   4.228   0.918   7.078  2.0916 -0.0012 -2.0079
 2315SOL     OW18577   3.154   2.416   8.947  0.4986 -0.9710 -0.0207
 2315SOL    HW118578   3.216   2.405   8.876  0.7308  0.2861 -0.0145
 2315SOL    HW218579   3.118   2.328   8.938 -1.8843  0.0119 -0.1775
 2316SOL     OW18580   1.792   1.733  11.059  0.3058 -0.5128 -0.6194
 2316SOL    HW118581   1.804   1.649  11.103  0.5792  1.6785  3.4374
 2316SOL    HW218582   1.711   1.714  11.013 -0.1349  1.1423 -0.5134
 2317SOL     OW18583   2.372   3.322  13.101  0.0170 -0.2105  0.0878
 2317SOL    HW118584   2.297   3.285  13.056  1.2727 -2.9819  0.2069
 2317SOL    HW218585   2.382   3.406  13.058 -0.3517 -0.3429 -0.2553
 2318SOL     OW18586   1.088   0.089   5.833 -0.2893  0.2275  0.1829
 2318SOL    HW118587   1.151   0.071   5.903  0.4117 -0.7806 -0.7146
 2318SOL    HW218588   1.148   0.064   5.763 -1.8985  1.0822 -1.5018
 2319SOL     OW18589   2.204   2.983   4.729  0.0083  0.0216  0.6538
 2319SOL    HW118590   2.204   3.050   4.661 -0.6056 -1.1175 -0.4619
 2319SOL    HW218591   2.291   2.983   4.769 -0.1017 -1.5064  0.8874
 2320SOL     OW18592   1.742   3.327   5.062  0.0987  0.1247  0.2402
 2320SOL    HW118593   1.708   3.351   4.976 -1.8589  0.9404  1.2469
 2320SOL    HW218594   1.832   3.301   5.040  0.7011  2.6992 -0.2716
 2321SOL     OW18595   1.203   4.679  17.475 -0.2541  0.3707  0.1672
 2321SOL    HW118596   1.181   4.623  17.550 -0.3007  1.0263  0.6452
 2321SOL    HW218597   1.209   0.032  17.513 -2.2475  0.9567 -0.8296
 2322SOL     OW18598   2.990   1.850   3.402 -0.5114  0.3439  0.1364
 2322SOL    HW118599   2.946   1.838   3.485 -0.2051  0.3312  0.2968
 2322SOL    HW218600   3.082   1.863   3.428 -0.6174 -0.6389  0.9783
 2323SOL     OW18601   2.477   0.891  12.148 -0.2014 -0.3127 -0.4863
 2323SOL    HW118602   2.490   0.985  12.157  1.0140 -0.4704 -0.6638
 2323SOL    HW218603   2.531   0.870  12.072 -1.9223  1.0372 -2.0703
 2324SOL     OW18604   0.157   4.549   2.167  0.3260 -0.4743 -0.2729
 2324SOL    HW118605   0.202   4.605   2.105 -5.2802  2.9425 -1.2391
 2324SOL    HW218606   0.181   4.590   2.250  0.8102  2.5854 -1.9563
 2325SOL     OW18607   3.801   1.234   2.038  0.8614 -0.1362  0.5773
 2325SOL    HW118608   3.769   1.323   2.054  2.5722  0.5736  0.0941
 2325SOL    HW218609   3.751   1.216   1.958  0.2917  2.1580  0.4236
 2326SOL     OW18610   0.997   3.240   0.869 -0.1285 -0.2173  0.1363
 2326SOL    HW118611   1.014   3.239   0.775 -0.6986  1.6069  0.0059
 2326SOL    HW218612   1.080   3.206   0.902 -1.2648 -2.4394  0.7025
 2327SOL     OW18613   0.740   1.147   6.575  0.2408  0.5458  0.2270
 2327SOL    HW118614   0.769   1.073   6.628  0.9424 -0.3384 -1.4032
 2327SOL    HW218615   0.793   1.152   6.496 -0.5672 -0.4189 -0.3798
 2328SOL     OW18616   3.631   0.296   2.496  0.5869  0.3635  0.3898
 2328SOL    HW118617   3.670   0.211   2.514  1.4035  0.7121  0.2524
 2328SOL    HW218618   3.581   0.296   2.578  0.4413 -1.4259  0.3109
 2329SOL     OW18619   2.733   2.742  11.714 -0.5552  0.1256  0.5023
 2329SOL    HW118620   2.723   2.698  11.799  2.0392 -1.2087  0.0988
 2329SOL    HW218621   2.816   2.785  11.737 -1.5249  1.9502  0.6110
 2330SOL     OW18622   3.933   2.334   9.330 -0.0555 -0.3855 -0.0091
 2330SOL    HW118623   3.852   2.293   9.300  0.2331  0.2033 -1.5885
 2330SOL    HW218624   3.901   2.423   9.344  0.1072 -0.5003  1.1152
 2331SOL     OW18625   0.251   0.942   1.011  0.3939  0.1836  0.1892
 2331SOL    HW118626   0.233   0.980   0.926 -1.6315  1.6475  1.2684
 2331SOL    HW218627   0.207   0.999   1.075 -1.6704 -1.4436  0.2359
 2332SOL     OW18628   4.122   2.589   8.786  0.2660  0.1751 -0.4257
 2332SOL    HW118629   4.052   2.527   8.807 -1.2992  2.3233  0.6280
 2332SOL    HW218630   4.117   2.631   8.872  1.3126 -0.6804  0.0545
 2333SOL     OW18631   3.019   1.400  11.548 -0.3639  0.0650 -0.9200
 2333SOL    HW118632   3.073   1.443  11.482 -0.5224 -2.0443 -2.4194
 2333SOL    HW218633   2.933   1.435  11.521 -0.8417 -0.5237 -0.1481
 2334SOL     OW18634   2.374   4.708   5.952 -0.2979 -0.3704 -0.4531
 2334SOL    HW118635   2.338   0.008   5.870  1.4323  0.8537 -0.7152
 2334SOL    HW218636   2.364   0.041   6.019  0.0700  1.3707 -2.1465
 2335SOL     OW18637   0.772   3.799   9.147 -0.7661 -0.0057  0.0069
 2335SOL    HW118638   0.685   3.764   9.126 -0.3184 -2.0873  1.5861
 2335SOL    HW218639   0.817   3.719   9.173 -0.5822 -0.0627 -0.4861
 2336SOL     OW18640   1.518   4.274   3.372 -0.4336 -0.0419  0.2558
 2336SOL    HW118641   1.517   4.368   3.388  2.2392  0.0778 -0.3019
 2336SOL    HW218642   1.436   4.237   3.406 -0.1109 -1.6536 -0.7295
 2337SOL     OW18643   0.803   4.189   7.167 -0.1137  0.5515  0.2465
 2337SOL    HW118644   0.873   4.138   7.209  2.8023  3.6415 -0.7947
 2337SOL    HW218645   0.730   4.132   7.191 -0.5529  1.7342  1.7297
 2338SOL     OW18646   4.003   1.593   6.982  0.1746  0.4702 -0.0194
 2338SOL    HW118647   4.027   1.506   7.013  1.5722  0.2933 -1.6034
 2338SOL    HW218648   4.012   1.576   6.888 -0.6898  1.2221 -0.2365
 2339SOL     OW18649   0.775   2.022  13.814  0.2332 -0.2773 -0.3514
 2339SOL    HW118650   0.756   2.045  13.723 -0.8504 -0.1927 -0.1020
 2339SOL    HW218651   0.740   1.933  13.824  0.9490 -0.5769 -0.4658
 2340SOL     OW18652   2.048   3.778   5.432  0.0075 -0.0482 -0.2725
 2340SOL    HW118653   2.108   3.709   5.459  1.4542  0.9932 -0.7979
 2340SOL    HW218654   1.968   3.727   5.419 -0.7924  0.8459  1.1812
 2341SOL     OW18655   4.459   1.581  16.668 -0.4165  0.1776  0.4628
 2341SOL    HW118656   4.387   1.619  16.618  0.1194  1.7694  0.9206
 2341SOL    HW218657   4.531   1.638  16.641 -1.1557  1.0984  0.4493
 2342SOL     OW18658   3.217   1.634   8.032 -0.1876  0.3659  0.3595
 2342SOL    HW118659   3.304   1.616   7.995  0.3045  1.1317  1.1315
 2342SOL    HW218660   3.193   1.545   8.059  3.3489 -0.6899  0.1052
 2343SOL     OW18661   3.928   4.156  13.923  0.3361  0.0693  0.2577
 2343SOL    HW118662   3.869   4.136  13.996  1.6220 -2.6042  0.5583
 2343SOL    HW218663   3.982   4.081  13.901  0.8982  0.2454  1.0324
 2344SOL     OW18664   1.892   3.726   4.616  0.4057 -0.3167 -0.3606
 2344SOL    HW118665   1.812   3.680   4.592  0.6965 -0.0245 -1.8758
 2344SOL    HW218666   1.935   3.708   4.532  1.6663  2.1313 -0.2532
 2345SOL     OW18667   4.663   0.355   9.855  0.1413  0.1062  0.0453
 2345SOL    HW118668   4.734   0.412   9.886 -2.1088  1.8941  1.9157
 2345SOL    HW218669   4.709   0.290   9.802  1.7707  1.5492 -0.3305
 2346SOL     OW18670   2.400   2.425   0.050 -0.3411 -0.3216 -0.3301
 2346SOL    HW118671   2.376   2.342   0.092 -2.4295  0.3966 -0.1165
 2346SOL    HW218672   2.376   2.489   0.117  1.7679  1.1868 -1.0153
 2347SOL     OW18673   3.433   1.136   2.548  0.1560 -0.0356 -0.1595
 2347SOL    HW118674   3.415   1.051   2.508  0.9017 -0.5927  0.6732
 2347SOL    HW218675   3.387   1.131   2.632 -1.6706  0.1313 -1.1504
 2348SOL     OW18676   1.028   3.000   2.151 -0.4957 -0.2629  0.1106
 2348SOL    HW118677   0.963   2.942   2.112 -0.3459  0.1470 -0.7456
 2348SOL    HW218678   1.084   2.937   2.198  1.8949  0.5534 -1.6571
 2349SOL     OW18679   3.371   2.979   5.213  0.1300 -0.2302 -0.2411
 2349SOL    HW118680   3.409   3.019   5.135 -1.2648 -1.1553 -1.3878
 2349SOL    HW218681   3.443   2.988   5.276 -1.2151  0.4015  1.2274
 2350SOL     OW18682   1.172   3.997   6.464  0.6678 -0.3291 -0.6515
 2350SOL    HW118683   1.099   4.021   6.407 -0.0052 -0.4389  0.1677
 2350SOL    HW218684   1.172   3.902   6.475  0.7275 -0.0409  1.8433
 2351SOL     OW18685   4.389   1.404   9.505 -1.0492 -0.1507  0.0157
 2351SOL    HW118686   4.413   1.349   9.430  1.7900  1.1132 -0.0361
 2351SOL    HW218687   4.400   1.342   9.577 -0.3669  1.2410  1.1442
 2352SOL     OW18688   1.685   1.301   7.107  0.1251 -0.7458  0.8760
 2352SOL    HW118689   1.617   1.305   7.040  0.0985 -4.1194  0.7179
 2352SOL    HW218690   1.685   1.211   7.137 -1.9058  0.0599  3.2810
 2353SOL     OW18691   4.186   3.911  17.636 -0.3632 -0.0816 -0.1230
 2353SOL    HW118692   4.272   3.940  17.608  0.0007  0.6702  1.7516
 2353SOL    HW218693   4.199   3.918  17.731 -1.2670 -0.0409 -0.0078
 2354SOL     OW18694   0.232   3.552   7.465 -1.0521 -0.0056  0.1705
 2354SOL    HW118695   0.273   3.637   7.454 -0.2634 -0.4424 -0.2850
 2354SOL    HW218696   0.266   3.527   7.551  0.8259 -1.3433 -0.9706
 2355SOL     OW18697   2.715   2.995   7.294  0.1197  0.5873  0.1013
 2355SOL    HW118698   2.713   3.019   7.201 -0.2847 -0.7851 -0.2472
 2355SOL    HW218699   2.625   3.023   7.313 -0.4013 -2.9421  2.9675
 2356SOL     OW18700   2.552   0.830   5.588 -0.2506 -0.2860 -0.0125
 2356SOL    HW118701   2.540   0.899   5.653 -1.8803  0.5478 -1.2017
 2356SOL    HW218702   2.619   0.860   5.527  1.1882 -2.4778  0.4942
 2357SOL     OW18703   0.290   4.626   8.654  0.3949 -0.0479  0.1629
 2357SOL    HW118704   0.211   4.572   8.648  1.6793 -1.7340 -1.5502
 2357SOL    HW218705   0.256   4.706   8.693  0.3412 -0.2106  0.4484
 2358SOL     OW18706   2.248   3.358  10.805 -1.3142  0.4367 -0.4452
 2358SOL    HW118707   2.185   3.328  10.871 -0.7810  2.9204  1.1704
 2358SOL    HW218708   2.328   3.335  10.852 -2.5385 -1.1850  0.8919
 2359SOL     OW18709   3.787   0.990  14.984  0.0274 -0.2327  0.5443
 2359SOL    HW118710   3.708   1.003  14.933 -0.5160  0.3505  1.5282
 2359SOL    HW218711   3.844   0.961  14.913 -0.8135  2.0795 -1.0667
 2360SOL     OW18712   0.199   1.588   3.764  0.6527  0.4667  0.0648
 2360SOL    HW118713   0.281   1.594   3.717  1.0046  1.1704  0.7682
 2360SOL    HW218714   0.194   1.493   3.753  1.0111 -0.0353  4.1172
 2361SOL     OW18715   0.020   2.922   0.624  0.6914 -0.0937 -0.2207
 2361SOL    HW118716   0.056   2.840   0.589  0.5777 -0.6954  1.0619
 2361SOL    HW218717   4.729   2.901   0.714 -1.0873  2.7211 -0.0918
 2362SOL     OW18718   2.439   2.010   6.398  0.5598  0.0800 -0.3744
 2362SOL    HW118719   2.367   2.064   6.430  0.3989 -1.3824  1.7435
 2362SOL    HW218720   2.510   2.071   6.378 -0.5259  0.5352 -2.7416
 2363SOL     OW18721   4.528   3.034   0.515  0.1825 -0.8654 -1.1503
 2363SOL    HW118722   4.623   3.031   0.524 -0.0127 -0.7480  0.9494
 2363SOL    HW218723   4.504   2.983   0.592 -2.5057 -0.5143 -1.7576
 2364SOL     OW18724   0.513   0.495   4.663 -0.2868  0.2403 -0.2276
 2364SOL    HW118725   0.431   0.518   4.619 -0.2427  1.4017  0.2953
 2364SOL    HW218726   0.488   0.424   4.723 -0.5352 -0.5390 -1.2488
 2365SOL     OW18727   2.294   2.836   2.583 -0.1052 -0.0976  0.1490
 2365SOL    HW118728   2.341   2.872   2.659  0.1552 -3.2836  1.5169
 2365SOL    HW218729   2.202   2.846   2.607 -0.6238 -0.2785 -1.8418
 2366SOL     OW18730   1.726   0.708  15.181 -0.0040 -0.7329 -0.3087
 2366SOL    HW118731   1.735   0.792  15.227 -1.5392 -1.0406  0.5373
 2366SOL    HW218732   1.631   0.704  15.191  0.0401 -2.1777 -0.5723
 2367SOL     OW18733   1.834   4.569   1.606 -0.5050  0.1929  1.1348
 2367SOL    HW118734   1.914   4.590   1.559 -1.4376  1.0535 -0.0351
 2367SOL    HW218735   1.884   4.540   1.683 -2.4778 -0.7495  2.0580
 2368SOL     OW18736   2.591   3.192  13.272  0.0062  0.1492  0.1262
 2368SOL    HW118737   2.519   3.190  13.208 -1.5677 -0.0965  1.9044
 2368SOL    HW218738   2.543   3.216  13.351  2.1537  3.5636  0.4111
 2369SOL     OW18739   2.508   2.113   1.439 -0.3826 -0.0412 -0.2330
 2369SOL    HW118740   2.460   2.061   1.503  0.0586  0.8138  0.8042
 2369SOL    HW218741   2.543   2.037   1.393  1.1479  0.9399 -0.7243
 2370SOL     OW18742   0.322   3.809   8.583  0.2046  0.0319  0.7979
 2370SOL    HW118743   0.283   3.896   8.593  0.0252 -0.1028  1.2753
 2370SOL    HW218744   0.243   3.762   8.611  1.1875 -3.2109 -1.9093
 2371SOL     OW18745   3.548   0.705   8.390  0.1253 -0.0474 -0.0010
 2371SOL    HW118746   3.612   0.739   8.327 -0.4406  0.9219 -0.0552
 2371SOL    HW218747   3.511   0.790   8.414  0.4570  0.2205 -0.4348
 2372SOL     OW18748   3.061   2.901   9.504 -0.3726 -0.6403  0.4887
 2372SOL    HW118749   3.112   2.826   9.475  0.3871 -0.3572  1.0721
 2372SOL    HW218750   3.033   2.939   9.421  0.5622  0.1090  0.5091
 2373SOL     OW18751   0.479   0.123   8.210 -0.4696 -0.7832 -0.3540
 2373SOL    HW118752   0.502   0.209   8.175  1.9982 -1.5909 -0.7140
 2373SOL    HW218753   0.547   0.067   8.173 -0.4238 -1.5815  0.9178
 2374SOL     OW18754   0.245   1.761   4.892 -0.3955 -0.0491  0.1552
 2374SOL    HW118755   0.322   1.778   4.837 -1.1494  2.9956  0.0253
 2374SOL    HW218756   0.208   1.678   4.863 -2.7789  0.2411  2.4030
 2375SOL     OW18757   2.208   3.942   7.561  0.0994  0.2876 -0.1109
 2375SOL    HW118758   2.242   3.950   7.472 -1.0704 -0.8027 -0.6597
 2375SOL    HW218759   2.278   3.886   7.595  0.6353  1.1455  0.2138
 2376SOL     OW18760   0.922   0.301   2.381  0.5850  0.7754 -0.1669
 2376SOL    HW118761   0.931   0.313   2.475 -3.8512 -0.2660  0.3868
 2376SOL    HW218762   0.833   0.333   2.366  1.3806  3.0566  0.0640
 2377SOL     OW18763   1.212   1.358   2.326  0.4953  0.1405  0.2384
 2377SOL    HW118764   1.179   1.338   2.414 -2.1067  2.5073 -0.2316
 2377SOL    HW218765   1.242   1.271   2.298  0.5396  0.3952 -0.5064
 2378SOL     OW18766   0.206   1.653  15.792 -0.6355  0.2908  0.3130
 2378SOL    HW118767   0.179   1.642  15.701  0.3774  2.6543 -0.2779
 2378SOL    HW218768   0.234   1.744  15.807 -2.5215  0.3750  3.3954
 2379SOL     OW18769   3.600   1.599   2.208 -0.1232  0.4915  0.4091
 2379SOL    HW118770   3.566   1.677   2.165 -0.3755  0.5172  0.6542
 2379SOL    HW218771   3.574   1.604   2.300 -0.0548  0.1505  0.4455
 2380SOL     OW18772   1.274   0.752   9.450  0.0374 -0.0906 -0.8585
 2380SOL    HW118773   1.209   0.793   9.506  0.7346 -1.0293  0.6402
 2380SOL    HW218774   1.282   0.810   9.374  1.0722 -0.6985 -1.2128
 2381SOL     OW18775   3.985   0.962   4.168 -0.8551 -0.2132 -0.0737
 2381SOL    HW118776   3.940   0.878   4.179  0.0815 -0.3654  2.5610
 2381SOL    HW218777   3.918   1.014   4.124  1.0831  2.4142  0.0938
 2382SOL     OW18778   0.684   0.164   1.659  0.2677 -0.3385  0.1357
 2382SOL    HW118779   0.628   0.089   1.677 -0.8077  0.5928  0.7417
 2382SOL    HW218780   0.760   0.112   1.634 -0.2251 -0.7359 -0.5540
 2383SOL     OW18781   4.539   4.720   9.705 -0.8013  0.2607 -0.0247
 2383SOL    HW118782   4.575   0.073   9.715 -0.6560  0.1244  0.6772
 2383SOL    HW218783   4.565   4.695   9.616 -2.1708 -1.9370  0.1795
 2384SOL     OW18784   3.586   0.407   3.011  0.1051 -0.3673  0.1657
 2384SOL    HW118785   3.514   0.465   2.987 -0.1030 -0.8317 -0.3600
 2384SOL    HW218786   3.664   0.452   2.979  1.2944 -1.8000  1.0928
 2385SOL     OW18787   4.563   3.213  11.964  0.5079  0.2430  0.0084
 2385SOL    HW118788   4.657   3.201  11.950  0.5471  1.4471 -0.7630
 2385SOL    HW218789   4.549   3.307  11.958  1.3415  0.3798  0.2655
 2386SOL     OW18790   3.540   4.710  15.228  0.2789 -0.2692 -0.6492
 2386SOL    HW118791   3.454   4.672  15.246  0.8484 -0.7844  0.9659
 2386SOL    HW218792   3.587   4.626  15.223  2.8158  1.0985  0.6356
 2387SOL     OW18793   2.726   2.581   3.695  0.3929  0.1723  0.4299
 2387SOL    HW118794   2.761   2.575   3.784  0.4828  2.1500  0.5490
 2387SOL    HW218795   2.812   2.584   3.653  0.2489  0.8470  0.1735
 2388SOL     OW18796   2.138   1.912   4.280 -0.0875 -0.3976 -0.4369
 2388SOL    HW118797   2.216   1.896   4.227  1.1228  2.6832  0.3695
 2388SOL    HW218798   2.151   2.000   4.315 -1.0525 -0.6257  0.5106
 2389SOL     OW18799   4.406   3.364  10.852  0.7202  0.3588 -0.4188
 2389SOL    HW118800   4.404   3.311  10.931  4.6108  4.3535  2.3339
 2389SOL    HW218801   4.466   3.318  10.793  0.9911  1.8768 -1.3350
 2390SOL     OW18802   1.222   2.667   8.770 -0.0860  0.3424  0.0208
 2390SOL    HW118803   1.141   2.718   8.762  0.0535  0.4774 -0.4898
 2390SOL    HW218804   1.193   2.580   8.744  2.5501 -0.8276  0.9843
 2391SOL     OW18805   4.172   1.217   6.938  0.4232  0.1046  0.1581
 2391SOL    HW118806   4.251   1.190   6.986 -0.4267 -2.1980  0.2668
 2391SOL    HW218807   4.101   1.206   7.002 -0.5230  0.1834 -0.8886
 2392SOL     OW18808   3.757   2.288   8.594 -0.3993  0.2317 -0.4454
 2392SOL    HW118809   3.810   2.253   8.523  1.5107 -2.3209  2.2416
 2392SOL    HW218810   3.671   2.256   8.566 -1.6487  1.0467  2.4147
 2393SOL     OW18811   3.082   3.245   6.398 -0.3085 -0.4319 -0.1980
 2393SOL    HW118812   3.001   3.297   6.396  0.6829  1.1279  1.0274
 2393SOL    HW218813   3.108   3.256   6.489 -1.9087 -2.0237  0.4642
 2394SOL     OW18814   0.482   0.487  10.124  0.1937  0.1222 -0.4691
 2394SOL    HW118815   0.428   0.566  10.129 -2.2571 -1.6781  1.2295
 2394SOL    HW218816   0.514   0.473  10.213  1.9475  1.1059 -0.9382
 2395SOL     OW18817   2.360   1.625   9.013 -0.3218  0.2729 -0.5270
 2395SOL    HW118818   2.283   1.577   9.045  0.5374 -2.3258 -2.3668
 2395SOL    HW218819   2.342   1.613   8.920  2.4278 -0.2138 -1.0051
 2396SOL     OW18820   1.673   0.960   2.233  0.0587  0.4807  0.0057
 2396SOL    HW118821   1.678   1.039   2.180  0.2720 -0.1515 -0.9002
 2396SOL    HW218822   1.620   0.995   2.305  1.4634  1.6870  0.4419
 2397SOL     OW18823   3.888   2.918  16.818  0.0980 -0.0330 -0.5197
 2397SOL    HW118824   3.922   2.932  16.729  0.6959  0.0416 -0.2789
 2397SOL    HW218825   3.929   2.993  16.860  0.1151 -0.8046  0.8511
 2398SOL     OW18826   1.339   4.029   7.800  1.0142  0.3211 -0.0152
 2398SOL    HW118827   1.315   4.076   7.881 -0.1560 -0.4046  0.0667
 2398SOL    HW218828   1.433   4.047   7.794  0.6801  2.5213  1.2109
 2399SOL     OW18829   0.021   3.951   7.632  0.3112 -0.5198 -0.5030
 2399SOL    HW118830   0.030   3.857   7.653 -4.9755 -0.8112  0.4703
 2399SOL    HW218831   0.075   3.995   7.698  1.3837 -0.3751 -1.4897
 2400SOL     OW18832   4.718   2.994   1.171  0.2091 -0.6072 -0.0711
 2400SOL    HW118833   4.674   2.942   1.237 -1.8044  0.9941 -0.1382
 2400SOL    HW218834   4.670   3.077   1.170  0.4453 -0.4661  1.0715
 2401SOL     OW18835   3.000   2.320   8.608 -0.1366 -0.0687  0.3564
 2401SOL    HW118836   3.080   2.301   8.559 -0.1709  3.7966 -1.2121
 2401SOL    HW218837   3.000   2.415   8.597  0.0190 -0.2524 -1.2961
 2402SOL     OW18838   2.177   0.677  15.860  0.5795 -0.1747 -0.9916
 2402SOL    HW118839   2.270   0.697  15.867  0.4136  0.8024 -1.6059
 2402SOL    HW218840   2.181   0.589  15.899  0.3241  0.3456  0.2180
 2403SOL     OW18841   1.973   2.219   8.038 -0.3880  0.0713  0.0445
 2403SOL    HW118842   1.977   2.138   8.089  1.7679 -0.2974 -0.7045
 2403SOL    HW218843   1.889   2.246   8.075 -1.0499  0.7504 -1.9628
 2404SOL     OW18844   1.090   0.932  12.125  0.2579 -0.3383  0.2370
 2404SOL    HW118845   1.149   0.921  12.050  2.5827  2.6281  1.6413
 2404SOL    HW218846   1.147   0.896  12.193 -1.1661  0.9686  2.1214
 2405SOL     OW18847   0.849   0.969   6.747 -0.4386 -0.2861  0.0954
 2405SOL    HW118848   0.912   1.039   6.760 -1.4990  0.5325  0.8472
 2405SOL    HW218849   0.855   0.923   6.831  2.4575  1.8323  1.0200
 2406SOL     OW18850   3.240   3.461   3.918 -0.1953 -0.5006 -0.4731
 2406SOL    HW118851   3.170   3.395   3.918 -0.1292 -0.5726  1.8857
 2406SOL    HW218852   3.287   3.442   3.837  1.0907  3.3374 -0.6365
 2407SOL     OW18853   1.181   1.937   6.461 -0.3543  0.2005  0.1066
 2407SOL    HW118854   1.154   1.846   6.474  0.0721  0.5241  3.3546
 2407SOL    HW218855   1.104   1.989   6.483 -1.7402 -1.2490 -1.3904
 2408SOL     OW18856   3.637   0.780   2.871 -0.5395 -0.4866 -0.2189
 2408SOL    HW118857   3.655   0.874   2.871  1.5067 -0.8702  0.1997
 2408SOL    HW218858   3.548   0.783   2.837 -0.7481  0.0182  0.3836
 2409SOL     OW18859   3.956   3.149   8.132 -0.2627  0.1968  0.1777
 2409SOL    HW118860   3.995   3.231   8.164 -1.9781  1.0781  0.0242
 2409SOL    HW218861   4.029   3.115   8.082  1.8471  0.6702  2.9287
 2410SOL     OW18862   0.509   3.697   3.706  0.0770  0.1160  0.2989
 2410SOL    HW118863   0.556   3.626   3.662 -0.2018  0.2104 -0.1488
 2410SOL    HW218864   0.566   3.774   3.703 -1.0835  0.8917 -1.6100
 2411SOL     OW18865   1.455   0.183   9.530 -0.2460 -0.0068  0.2446
 2411SOL    HW118866   1.549   0.197   9.544 -0.4753 -0.7123  2.4784
 2411SOL    HW218867   1.428   0.172   9.621 -0.4911  3.1510  0.5297
 2412SOL     OW18868   1.075   0.418   3.594  0.2093  0.1566  0.0533
 2412SOL    HW118869   0.986   0.445   3.617  0.3754 -0.1439  1.0517
 2412SOL    HW218870   1.076   0.337   3.645 -0.6871  0.4113  0.4771
 2413SOL     OW18871   0.930   3.979  15.654 -0.3766 -0.4484 -0.4923
 2413SOL    HW118872   0.944   3.952  15.745 -3.4001  0.1664  0.1389
 2413SOL    HW218873   1.014   4.018  15.630 -2.0119  2.2021 -1.8292
 2414SOL     OW18874   1.457   1.967   8.373 -0.3307 -0.7987  0.3523
 2414SOL    HW118875   1.495   2.014   8.448 -1.3677  0.0324  0.3631
 2414SOL    HW218876   1.522   1.993   8.308  0.3414  0.2916  1.4413
 2415SOL     OW18877   4.301   3.580   7.570  0.1520 -0.3355  0.0372
 2415SOL    HW118878   4.372   3.520   7.592 -0.8643 -1.4244  0.3151
 2415SOL    HW218879   4.300   3.566   7.475 -0.2844 -0.9061  0.1245
 2416SOL     OW18880   1.030   1.628  16.899 -0.5274 -0.2110 -0.0338
 2416SOL    HW118881   1.125   1.615  16.900 -0.2773  1.5270 -1.2968
 2416SOL    HW218882   1.023   1.709  16.950  0.3614 -0.2920  0.2170
 2417SOL     OW18883   4.178   3.079   5.647 -0.0841  0.7137  0.2960
 2417SOL    HW118884   4.168   3.168   5.681 -1.4205  0.9378 -0.6708
 2417SOL    HW218885   4.226   3.044   5.722 -1.0816 -0.8585  0.1892
 2418SOL     OW18886   1.695   0.902  14.324  0.0645  0.3428  0.5030
 2418SOL    HW118887   1.773   0.954  14.340  1.0333 -0.9440 -0.0581
 2418SOL    HW218888   1.696   0.916  14.229  0.6926  0.2306  0.4976
 2419SOL     OW18889   2.646   4.043   2.201  0.3671  0.2839 -0.2529
 2419SOL    HW118890   2.614   4.020   2.114  0.1419 -1.0920  0.2046
 2419SOL    HW218891   2.686   3.959   2.219  1.7530  0.9375 -0.3090
 2420SOL     OW18892   3.060   2.650   0.087 -0.0386 -0.2085 -0.4238
 2420SOL    HW118893   3.131   2.620   0.143 -1.3996 -0.8550  0.9762
 2420SOL    HW218894   3.080   2.608   0.004  0.3475 -1.1388  0.1294
 2421SOL     OW18895   3.303   2.943   4.797  0.5333  0.0755  0.0284
 2421SOL    HW118896   3.350   2.958   4.879 -1.7197 -2.5200  1.7852
 2421SOL    HW218897   3.266   2.857   4.819 -0.3489  0.5515  0.4022
 2422SOL     OW18898   1.206   1.434   3.855  0.7489 -0.0502  0.9498
 2422SOL    HW118899   1.193   1.511   3.800 -3.6172 -0.5061  1.3368
 2422SOL    HW218900   1.298   1.442   3.877  0.8403  0.8640  0.2282
 2423SOL     OW18901   4.080   2.159  17.454 -0.0133  0.0487 -0.0144
 2423SOL    HW118902   4.085   2.144  17.360  1.0434 -0.1231  0.0764
 2423SOL    HW218903   4.137   2.087  17.478 -2.4323 -1.4595  1.2465
 2424SOL     OW18904   0.762   1.719   1.369 -0.4692  0.0601 -0.5087
 2424SOL    HW118905   0.676   1.753   1.393  0.1807  1.1679  0.2548
 2424SOL    HW218906   0.806   1.745   1.450  2.0015  0.1186 -1.8673
 2425SOL     OW18907   2.803   2.511   4.739 -0.1074 -1.0222  0.4130
 2425SOL    HW118908   2.731   2.566   4.769  0.4806 -1.0640  1.9076
 2425SOL    HW218909   2.757   2.430   4.716 -2.6568  0.0972  1.5848
 2426SOL     OW18910   0.124   3.345   9.346  0.6785 -0.7475  0.0865
 2426SOL    HW118911   0.181   3.269   9.332  1.4833 -0.1792  0.2753
 2426SOL    HW218912   0.112   3.348   9.441  1.9058 -3.1420  0.3094
 2427SOL     OW18913   2.056   1.498   5.692  0.0014 -0.0050  0.2475
 2427SOL    HW118914   2.009   1.486   5.775 -0.0464  2.3810  0.5668
 2427SOL    HW218915   1.990   1.466   5.631 -1.5290  2.6143  0.5262
 2428SOL     OW18916   4.188   3.058  15.669 -0.1739 -0.2199 -0.0010
 2428SOL    HW118917   4.135   3.004  15.611 -3.6325  1.6117  1.4372
 2428SOL    HW218918   4.260   2.999  15.691 -0.3694 -0.7782 -0.8577
 2429SOL     OW18919   1.916   2.003  10.465  0.1684 -0.2315 -0.0391
 2429SOL    HW118920   1.865   2.082  10.448  2.7222  1.4023 -0.2176
 2429SOL    HW218921   2.008   2.031  10.468  0.6784 -1.9030 -0.0669
 2430SOL     OW18922   3.308   3.831  11.241  0.2932  0.3935  0.6503
 2430SOL    HW118923   3.362   3.838  11.320  0.8859 -0.5116  0.3259
 2430SOL    HW218924   3.287   3.923  11.225  1.0378 -0.1027 -3.3630
 2431SOL     OW18925   1.242   3.211   7.483 -0.3993  0.4410 -0.0113
 2431SOL    HW118926   1.184   3.147   7.442  0.3384 -0.3904  0.2579
 2431SOL    HW218927   1.175   3.269   7.519 -0.2171  1.5210 -1.4198
 2432SOL     OW18928   0.150   0.506   9.967 -0.3665  0.4495 -0.3122
 2432SOL    HW118929   0.172   0.422  10.008  0.5435  0.3722 -0.9588
 2432SOL    HW218930   0.161   0.572  10.035  0.0396 -3.8639  3.7728
 2433SOL     OW18931   0.448   2.538   3.497 -0.4333  0.3479 -0.4310
 2433SOL    HW118932   0.437   2.519   3.403 -2.8029  1.2521 -0.3357
 2433SOL    HW218933   0.536   2.575   3.489 -0.1808 -1.0225 -4.4252
 2434SOL     OW18934   3.077   0.429   4.595 -0.4113  0.5921  0.1900
 2434SOL    HW118935   3.150   0.389   4.548 -0.0595  0.7513  0.5973
 2434SOL    HW218936   3.012   0.361   4.580  1.0865 -0.9045  0.3664
 2435SOL     OW18937   4.002   0.831   7.410  0.1254 -0.1654  0.3136
 2435SOL    HW118938   4.073   0.767   7.415 -0.9982 -1.3595  0.8195
 2435SOL    HW218939   4.011   0.854   7.318 -0.3546  0.2316  0.3652
 2436SOL     OW18940   0.642   3.525   7.312 -0.1743  0.7949  0.6855
 2436SOL    HW118941   0.588   3.501   7.388 -1.8989 -1.2109 -1.1801
 2436SOL    HW218942   0.581   3.528   7.238  2.0996  0.4721 -1.1797
 2437SOL     OW18943   1.810   0.827   9.818 -0.3709  0.8245  0.0760
 2437SOL    HW118944   1.773   0.750   9.775 -0.3232  1.3816 -0.9594
 2437SOL    HW218945   1.754   0.823   9.896 -0.1649 -1.3504  0.1225
 2438SOL     OW18946   3.340   1.399   4.524 -0.5891 -0.3167  0.3512
 2438SOL    HW118947   3.376   1.387   4.436  2.9901  3.3355  1.3576
 2438SOL    HW218948   3.246   1.387   4.507 -0.6745  0.4019  0.3194
 2439SOL     OW18949   4.462   1.820   8.066  0.3874 -0.0852  0.2424
 2439SOL    HW118950   4.455   1.817   7.970 -0.7393  0.6645  0.3066
 2439SOL    HW218951   4.455   1.914   8.082 -0.8722  0.1390 -1.5929
 2440SOL     OW18952   3.197   2.857   9.088 -0.0296  0.1296 -0.6155
 2440SOL    HW118953   3.235   2.813   9.012 -1.8590 -0.6993 -1.0484
 2440SOL    HW218954   3.225   2.801   9.160 -0.2266 -0.1791 -0.7806
 2441SOL     OW18955   1.028   0.286   6.767  0.2048 -0.0170  0.0878
 2441SOL    HW118956   1.045   0.365   6.716  1.0230  0.1370  0.5901
 2441SOL    HW218957   1.095   0.296   6.834  0.4910 -0.1873 -0.1718
 2442SOL     OW18958   3.489   2.314   9.007  0.2256 -0.3786 -0.3254
 2442SOL    HW118959   3.445   2.364   8.938 -0.0688 -0.1975 -0.0094
 2442SOL    HW218960   3.413   2.300   9.063  0.3732  1.3380  0.3291
 2443SOL     OW18961   4.123   4.179   7.782  0.1277  0.0740 -0.4102
 2443SOL    HW118962   4.187   4.131   7.835  1.1987  1.8585 -0.0758
 2443SOL    HW218963   4.037   4.151   7.813 -1.2947  3.8415 -1.0260
 2444SOL     OW18964   4.568   3.029  10.373  0.3597  0.4239  0.3664
 2444SOL    HW118965   4.494   3.089  10.372 -1.7346 -2.1388  1.0007
 2444SOL    HW218966   4.531   2.943  10.352 -0.1418  0.3992  1.3684
 2445SOL     OW18967   3.245   4.687   7.561 -0.3194  0.0037 -0.5673
 2445SOL    HW118968   3.209   4.727   7.482 -1.2569 -1.8852 -1.0964
 2445SOL    HW218969   3.318   4.630   7.537  1.5131  1.2475  2.0051
 2446SOL     OW18970   3.740   0.095   8.630  0.0722  0.9212  0.4572
 2446SOL    HW118971   3.802   0.042   8.681 -1.2504 -0.6464  0.4527
 2446SOL    HW218972   3.782   0.090   8.544 -1.6112  0.0595 -0.3122
 2447SOL     OW18973   1.692   3.328   6.687 -0.1062 -0.3747  0.4878
 2447SOL    HW118974   1.749   3.274   6.742 -2.2789 -0.4707  2.6593
 2447SOL    HW218975   1.639   3.257   6.651  0.9007  0.4895 -2.7038
 2448SOL     OW18976   1.385   4.245  11.832  0.2333 -0.0421 -0.3131
 2448SOL    HW118977   1.358   4.185  11.762  2.2017 -0.1515 -0.9990
 2448SOL    HW218978   1.336   4.325  11.810  0.3712  0.4619  1.2057
 2449SOL     OW18979   1.820   3.268   1.718  0.3864  0.0097  0.6840
 2449SOL    HW118980   1.870   3.350   1.716  0.0167  0.2990  2.9560
 2449SOL    HW218981   1.741   3.287   1.668  2.2658 -2.3429 -3.1743
 2450SOL     OW18982   3.032   4.462  14.825  0.0130  0.6499 -0.4416
 2450SOL    HW118983   3.003   4.513  14.750  0.0679 -0.1612 -1.0090
 2450SOL    HW218984   2.988   4.379  14.810  1.6876 -0.3126 -0.0356
 2451SOL     OW18985   3.790   0.137  16.867  0.1021 -0.1674  0.2245
 2451SOL    HW118986   3.811   0.225  16.900  3.2608 -1.2141  1.0152
 2451SOL    HW218987   3.871   0.108  16.826  0.2953  1.2551 -0.3982
 2452SOL     OW18988   3.851   1.358  11.050  0.3988 -0.0381  0.1462
 2452SOL    HW118989   3.943   1.375  11.031 -0.1581  2.0926 -0.6815
 2452SOL    HW218990   3.805   1.351  10.967 -0.4100  1.8713  0.4351
 2453SOL     OW18991   2.644   2.743   2.595  0.0730 -0.5386  0.0973
 2453SOL    HW118992   2.622   2.836   2.595  0.8620 -0.3413 -1.5799
 2453SOL    HW218993   2.718   2.751   2.534 -0.1129  0.6450  0.0163
 2454SOL     OW18994   3.324   2.679   8.850 -0.7984  0.0748  0.5027
 2454SOL    HW118995   3.323   2.584   8.845 -0.7503  0.2022 -1.8474
 2454SOL    HW218996   3.392   2.692   8.916 -0.9937  2.3784  0.2533
 2455SOL     OW18997   0.013   4.426  10.999  0.0501  0.9293  0.4396
 2455SOL    HW118998   0.055   4.424  10.913  1.1242 -1.0433  1.0273
 2455SOL    HW218999   0.092   4.457  11.044 -1.0164  3.3734  0.6523
 2456SOL     OW19000   4.632   0.266   7.400  0.2231  0.0579 -0.8836
 2456SOL    HW119001   4.715   0.227   7.426 -0.5450 -0.0505  1.5081
 2456SOL    HW219002   4.570   0.198   7.428  0.8627  0.0418  0.5037
 2457SOL     OW19003   0.698   1.261  11.925  0.4993  0.0259 -0.1010
 2457SOL    HW119004   0.759   1.330  11.951  0.6557  0.0060 -0.4099
 2457SOL    HW219005   0.701   1.282  11.832  1.4859 -0.5674 -0.2057
 2458SOL     OW19006   3.575   3.794   4.034  0.1607  0.4470 -0.3855
 2458SOL    HW119007   3.597   3.798   4.127  0.3978  1.1663 -0.4718
 2458SOL    HW219008   3.554   3.702   4.020  0.6044 -0.0286  2.1513
 2459SOL     OW19009   3.503   4.271   9.177  0.3841  0.1599 -0.5995
 2459SOL    HW119010   3.409   4.271   9.191  0.4909  1.0983  0.0784
 2459SOL    HW219011   3.538   4.192   9.219 -0.3151  0.1077 -0.1267
 2460SOL     OW19012   3.578   3.620  17.046  0.6364 -0.5435  0.4839
 2460SOL    HW119013   3.626   3.655  17.120  3.4874 -0.8656 -1.2361
 2460SOL    HW219014   3.584   3.526  17.060  1.5486 -0.9625 -2.7983
 2461SOL     OW19015   3.346   0.883   8.477 -0.2336 -0.2659 -0.5332
 2461SOL    HW119016   3.269   0.862   8.424 -1.6684  0.7517  1.1115
 2461SOL    HW219017   3.367   0.971   8.446  1.1690 -0.5531 -0.3655
 2462SOL     OW19018   0.516   0.332   3.663  0.3381  0.4057 -0.3128
 2462SOL    HW119019   0.612   0.331   3.664  0.3310 -1.0931 -1.3514
 2462SOL    HW219020   0.500   0.401   3.599  1.2555 -0.2530 -1.2529
 2463SOL     OW19021   3.693   1.347  17.467 -0.0455 -0.0851 -0.0863
 2463SOL    HW119022   3.677   1.441  17.477 -0.0028 -0.3123  2.1395
 2463SOL    HW219023   3.609   1.316  17.433 -1.2524  1.1773  1.7239
 2464SOL     OW19024   1.251   2.849  16.080  0.2353  0.0099 -0.4167
 2464SOL    HW119025   1.174   2.896  16.047 -1.0292  0.1185  2.7195
 2464SOL    HW219026   1.210   2.772  16.120  0.9662 -0.9163 -1.4518
 2465SOL     OW19027   0.914   3.644   2.103  0.0179 -1.1608  0.1029
 2465SOL    HW119028   0.875   3.623   2.018 -0.7179  2.6986 -0.5060
 2465SOL    HW219029   0.832   3.689   2.126  0.4462  0.0915 -0.8152
 2466SOL     OW19030   4.132   4.462   4.694 -0.3497  0.0562  0.4772
 2466SOL    HW119031   4.051   4.412   4.703  1.4157 -3.0059 -0.5140
 2466SOL    HW219032   4.144   4.437   4.602  0.8082  1.9672  0.1133
 2467SOL     OW19033   4.128   0.976   4.762 -0.7826  0.0130  0.0551
 2467SOL    HW119034   4.184   0.899   4.758  1.8776  1.9727 -0.2767
 2467SOL    HW219035   4.133   1.000   4.669  1.7181  2.3836  0.8222
 2468SOL     OW19036   2.306   2.189  15.436 -0.3186  0.3733 -0.4234
 2468SOL    HW119037   2.346   2.154  15.357 -1.6934 -0.3289 -0.8021
 2468SOL    HW219038   2.350   2.274  15.441  1.8135 -0.7801  0.5819
 2469SOL     OW19039   1.574   3.993   8.090 -0.0359 -0.2214  0.1062
 2469SOL    HW119040   1.612   4.043   8.019  0.7019 -0.2827  0.4557
 2469SOL    HW219041   1.596   4.035   8.173  2.4802 -0.7044 -0.3223
 2470SOL     OW19042   2.520   0.560   0.253 -0.0592 -0.2259 -0.1135
 2470SOL    HW119043   2.558   0.520   0.175  0.2356 -0.7553  0.3011
 2470SOL    HW219044   2.430   0.529   0.249  0.4141 -1.5456 -0.5084
 2471SOL     OW19045   0.340   1.745  11.044 -0.1995 -0.4350 -0.2760
 2471SOL    HW119046   0.268   1.733  11.106 -1.3123 -1.2629 -1.7206
 2471SOL    HW219047   0.327   1.673  10.982 -0.9414  1.2341 -2.0542
 2472SOL     OW19048   1.368   2.645  15.948 -0.0976  0.1088  0.1065
 2472SOL    HW119049   1.433   2.632  16.017 -0.3208 -0.5203  0.2012
 2472SOL    HW219050   1.334   2.733  15.966 -1.2816 -0.9791  3.1095
 2473SOL     OW19051   1.058   2.272   8.019 -0.1506  0.1547  0.2877
 2473SOL    HW119052   1.141   2.308   8.051 -0.4514 -0.4652  1.7647
 2473SOL    HW219053   1.020   2.340   7.964  0.5613 -0.1649 -0.5942
 2474SOL     OW19054   1.787   3.523   6.096 -0.2434 -0.2271 -0.2047
 2474SOL    HW119055   1.820   3.512   6.006 -0.9156  1.4291 -0.6631
 2474SOL    HW219056   1.821   3.445   6.140 -1.0929 -0.2857  0.3509
 2475SOL     OW19057   1.388   0.782  13.650 -0.2802  0.6142 -0.0552
 2475SOL    HW119058   1.304   0.821  13.674 -0.3872  0.0308  0.5111
 2475SOL    HW219059   1.394   0.808  13.558 -0.3359  2.8706  0.6019
 2476SOL     OW19060   3.983   4.199   2.173 -0.3102 -0.4182 -0.2222
 2476SOL    HW119061   4.069   4.171   2.142 -0.5253 -2.4946  1.0348
 2476SOL    HW219062   3.950   4.184   2.085  0.9502  1.0451 -0.9384
 2477SOL     OW19063   4.431   3.855   7.738 -0.2067 -0.3055 -0.0796
 2477SOL    HW119064   4.496   3.796   7.700 -1.3829  0.4458 -3.3367
 2477SOL    HW219065   4.369   3.856   7.664 -0.8687  3.3216  0.5073
 2478SOL     OW19066   4.272   2.476   6.160  0.0291 -0.2311  0.0858
 2478SOL    HW119067   4.197   2.447   6.108 -1.9152  2.4057  1.4047
 2478SOL    HW219068   4.347   2.421   6.137 -0.4650 -0.9009  0.1068
 2479SOL     OW19069   4.448   3.082  13.754  0.1494  0.5107  0.0511
 2479SOL    HW119070   4.443   3.177  13.764 -1.2751  0.4569 -0.2110
 2479SOL    HW219071   4.491   3.072  13.670 -0.5875 -0.1444 -0.2511
 2480SOL     OW19072   3.738   4.206   2.909 -0.1732 -0.0301  0.0731
 2480SOL    HW119073   3.780   4.198   2.823  0.1225 -0.9107  0.3051
 2480SOL    HW219074   3.662   4.149   2.898 -1.1022  1.0626  0.8210
 2481SOL     OW19075   3.154   1.756   9.016 -0.1130  0.3654  0.0422
 2481SOL    HW119076   3.216   1.822   8.984  0.0025  0.8486  1.2309
 2481SOL    HW219077   3.074   1.804   9.038 -1.1566 -1.6834  0.7751
 2482SOL     OW19078   2.796   1.155  17.555 -0.0002  0.6086  0.3296
 2482SOL    HW119079   2.808   1.100  17.632 -0.4242 -0.2480 -0.2115
 2482SOL    HW219080   2.883   1.192  17.542  0.8833 -1.6076 -0.1454
 2483SOL     OW19081   4.572   2.115   9.582 -0.4710 -0.1348 -0.2502
 2483SOL    HW119082   4.506   2.078   9.523 -1.1028 -0.7148  0.8201
 2483SOL    HW219083   4.655   2.086   9.544 -0.0410 -0.5642  1.0467
 2484SOL     OW19084   1.936   1.865   5.567 -0.1968 -0.3863  0.4718
 2484SOL    HW119085   1.935   1.947   5.617 -1.1340 -0.3395  0.3773
 2484SOL    HW219086   2.016   1.817   5.583 -1.2074 -1.3027  2.7630
 2485SOL     OW19087   3.548   3.433  15.982 -0.4512 -0.4101  0.1661
 2485SOL    HW119088   3.475   3.458  15.926  0.6678  0.2659 -1.0048
 2485SOL    HW219089   3.503   3.406  16.062 -1.4503 -1.5851 -0.7855
 2486SOL     OW19090   3.466   4.277   4.924 -0.1760  0.5207  0.1245
 2486SOL    HW119091   3.551   4.234   4.929  0.5410  1.8814 -0.6627
 2486SOL    HW219092   3.405   4.206   4.899  1.0679 -0.5718  0.2049
 2487SOL     OW19093   3.618   2.684   7.614 -0.3997 -0.4416  0.0244
 2487SOL    HW119094   3.670   2.696   7.535 -1.3794 -4.2444 -1.1763
 2487SOL    HW219095   3.629   2.590   7.627  3.1099  0.3386  2.7014
 2488SOL     OW19096   2.037   0.690   4.887  0.2146 -0.5394  0.6403
 2488SOL    HW119097   2.131   0.699   4.906  0.3105  2.3052 -1.3284
 2488SOL    HW219098   2.037   0.731   4.801 -0.6906  1.7972  1.7703
 2489SOL     OW19099   0.966   2.060  16.432 -0.6171  0.2880 -0.7731
 2489SOL    HW119100   0.925   2.063  16.519  2.1426  0.9337  0.5006
 2489SOL    HW219101   0.896   2.032  16.372 -2.8129 -0.2637  2.0501
 2490SOL     OW19102   1.928   3.014  13.945 -0.1918 -0.0984 -0.3297
 2490SOL    HW119103   1.834   3.023  13.959 -0.3455 -1.8412 -0.3096
 2490SOL    HW219104   1.956   2.988  14.033 -1.1000 -1.8896 -0.5747
 2491SOL     OW19105   1.206   4.688  11.732 -0.5705  0.6703  0.7823
 2491SOL    HW119106   1.170   0.011  11.665 -0.2400  1.0073  0.9000
 2491SOL    HW219107   1.204   0.006  11.811  2.1388 -0.4883  1.6245
 2492SOL     OW19108   0.363   0.632  11.298 -0.3445  0.3222  0.3949
 2492SOL    HW119109   0.452   0.667  11.304 -1.0078  1.7236  2.1058
 2492SOL    HW219110   0.303   0.706  11.313 -0.8798  0.0429 -0.3807
 2493SOL     OW19111   4.045   0.677   2.691 -0.0772 -0.3005  0.1843
 2493SOL    HW119112   3.981   0.624   2.642 -1.0027  1.6737 -0.7286
 2493SOL    HW219113   4.077   0.613   2.754 -0.7802 -0.8117  0.0187
 2494SOL     OW19114   0.723   2.448  17.379 -0.1117  0.2463 -0.2228
 2494SOL    HW119115   0.807   2.487  17.357  0.0730  0.8647  1.6521
 2494SOL    HW219116   0.660   2.520  17.375  0.6978  0.8076 -2.5638
 2495SOL     OW19117   3.441   1.102   6.207 -0.6015 -0.6842  0.7205
 2495SOL    HW119118   3.455   1.192   6.237  0.3888 -0.8289  0.6949
 2495SOL    HW219119   3.529   1.067   6.223  1.2891  1.9795 -3.7528
 2496SOL     OW19120   0.379   2.460   4.289 -0.0561 -0.0793  0.2561
 2496SOL    HW119121   0.424   2.528   4.340 -2.2624  1.1866  0.5260
 2496SOL    HW219122   0.317   2.516   4.242  1.1467 -0.2853 -1.6090
 2497SOL     OW19123   0.924   2.242   9.395 -0.4426 -0.4300  0.1528
 2497SOL    HW119124   0.965   2.158   9.415  2.8291  1.5657  1.9155
 2497SOL    HW219125   1.007   2.287   9.376 -0.1306 -1.1300 -0.1306
 2498SOL     OW19126   3.514   3.421   5.150  0.8843 -0.0043 -0.4810
 2498SOL    HW119127   3.560   3.340   5.131 -1.4059 -1.1712 -1.1320
 2498SOL    HW219128   3.582   3.480   5.118  0.6009 -0.1292 -1.3047
 2499SOL     OW19129   2.224   4.353  10.725  0.2496 -0.9108 -0.4919
 2499SOL    HW119130   2.283   4.378  10.797  1.1406  0.6042 -1.7541
 2499SOL    HW219131   2.190   4.436  10.693 -1.6065 -0.9266  1.4772
 2500SOL     OW19132   1.618   3.486  10.508 -0.2902  0.8185 -0.2176
 2500SOL    HW119133   1.628   3.393  10.491 -0.8702  0.3599  1.9802
 2500SOL    HW219134   1.579   3.516  10.426  0.4040 -0.5450 -1.0390
 2501SOL     OW19135   2.492   2.253   0.767 -0.1997 -0.2499  0.6341
 2501SOL    HW119136   2.416   2.310   0.755 -1.2772 -2.1067 -1.3893
 2501SOL    HW219137   2.466   2.165   0.741  0.4002 -0.1595 -0.2664
 2502SOL     OW19138   4.407   2.535   2.073 -0.1856 -0.3258 -0.0828
 2502SOL    HW119139   4.417   2.629   2.059 -0.1100 -0.0934  1.5286
 2502SOL    HW219140   4.376   2.512   1.985 -0.1174  4.4430 -1.3615
 2503SOL     OW19141   1.625   4.158   7.892 -0.2696  0.2689 -0.0626
 2503SOL    HW119142   1.695   4.222   7.882  1.1012 -1.1889  0.3332
 2503SOL    HW219143   1.639   4.125   7.803 -1.4655  0.0248 -0.1617
 2504SOL     OW19144   0.320   3.263   4.164 -0.0018 -0.1786 -0.2099
 2504SOL    HW119145   0.243   3.289   4.215  0.8360  3.5782 -0.8740
 2504SOL    HW219146   0.301   3.169   4.162  0.9199 -0.2607 -4.0978
 2505SOL     OW19147   1.592   1.141  11.691  0.0504  0.0880  0.1515
 2505SOL    HW119148   1.589   1.236  11.703  0.5043  0.1743 -0.3858
 2505SOL    HW219149   1.667   1.135  11.631  1.8193 -1.7559  2.5437
 2506SOL     OW19150   0.228   2.582   8.179  0.4594  0.4017  0.2894
 2506SOL    HW119151   0.133   2.580   8.186  0.5274 -0.9226  0.7977
 2506SOL    HW219152   0.243   2.661   8.231  0.8815  1.0456 -0.8041
 2507SOL     OW19153   4.487   2.138   6.882 -0.3685  0.2348  0.4366
 2507SOL    HW119154   4.402   2.105   6.908 -0.9613  0.1200 -1.6441
 2507SOL    HW219155   4.467   2.183   6.800 -0.6775  0.2244  0.5084
 2508SOL     OW19156   3.851   1.928   9.565  0.2625  0.2243  0.1444
 2508SOL    HW119157   3.898   2.010   9.549  2.3363 -0.5306  2.4544
 2508SOL    HW219158   3.907   1.894   9.634  0.8748  1.5116  0.2807
 2509SOL     OW19159   4.370   4.246   1.078  0.8954 -0.0984 -0.2132
 2509SOL    HW119160   4.377   4.150   1.075  0.9246 -0.1006 -0.0202
 2509SOL    HW219161   4.324   4.267   0.996 -1.0486  1.0316  1.1838
 2510SOL     OW19162   0.158   2.600   0.293  0.2476  0.0562  0.6157
 2510SOL    HW119163   0.143   2.506   0.287  2.9241 -0.3056 -0.0477
 2510SOL    HW219164   0.097   2.622   0.364  0.6587 -2.5068  1.7608
 2511SOL     OW19165   0.613   4.202  15.692  0.1237 -0.2126  0.5051
 2511SOL    HW119166   0.579   4.276  15.642 -0.2187  0.8386  2.3106
 2511SOL    HW219167   0.560   4.193  15.771  0.5974 -1.8247  0.6340
 2512SOL     OW19168   0.225   1.049   3.634  0.3516 -0.6212  0.4357
 2512SOL    HW119169   0.167   0.982   3.671 -1.6135  0.6549 -0.3385
 2512SOL    HW219170   0.220   1.042   3.539 -1.8362 -1.2883  0.6108
 2513SOL     OW19171   1.871   2.036   0.313  0.4763 -0.1841 -0.0554
 2513SOL    HW119172   1.828   1.964   0.267 -1.6041  0.3675  1.0035
 2513SOL    HW219173   1.847   2.023   0.405 -2.4583 -0.9607 -0.9307
 2514SOL     OW19174   2.416   2.374   9.246 -1.0476  0.7815  0.2386
 2514SOL    HW119175   2.380   2.318   9.315 -0.5086  1.8461  1.3755
 2514SOL    HW219176   2.364   2.452   9.263  1.6577  1.6571  4.3926
 2515SOL     OW19177   4.713   2.311   3.987  0.2449 -0.0579  0.4634
 2515SOL    HW119178   4.681   2.345   4.070  2.9390  1.2572  0.9862
 2515SOL    HW219179   4.696   2.381   3.923 -2.1808  0.2163  1.4054
 2516SOL     OW19180   1.110   3.658   3.345  0.1550  0.4120 -0.0313
 2516SOL    HW119181   1.149   3.675   3.259 -0.6803 -1.5298 -0.7915
 2516SOL    HW219182   1.147   3.572   3.364  0.2172  0.0596 -1.7944
 2517SOL     OW19183   4.694   2.540   5.692  0.0520  0.2524  0.5946
 2517SOL    HW119184   4.700   2.527   5.597  0.8393  0.9664  0.5494
 2517SOL    HW219185   4.613   2.590   5.679 -0.5841 -0.9836 -0.2659
 2518SOL     OW19186   0.147   3.424   2.814  0.0239 -0.2300  0.4245
 2518SOL    HW119187   0.143   3.332   2.786 -0.3027 -0.4422  1.1729
 2518SOL    HW219188   0.216   3.429   2.880  0.0967 -1.0985  0.4199
 2519SOL     OW19189   2.194   2.349   7.998  0.3199 -0.8397  0.0268
 2519SOL    HW119190   2.165   2.421   7.942 -2.8901 -1.3864  0.9818
 2519SOL    HW219191   2.126   2.284   7.982 -1.1665  0.3832  1.2794
 2520SOL     OW19192   3.801   3.001   2.329 -0.3505 -0.1860 -0.0838
 2520SOL    HW119193   3.813   2.952   2.411  2.1730  0.5305 -0.0128
 2520SOL    HW219194   3.827   3.089   2.356 -0.9619 -0.7965  2.5500
 2521SOL     OW19195   3.819   1.836   6.755 -0.3787 -0.0479  0.0904
 2521SOL    HW119196   3.895   1.830   6.697 -0.6515  0.9111 -0.3570
 2521SOL    HW219197   3.763   1.889   6.698  0.6103 -0.9570 -1.7654
 2522SOL     OW19198   0.947   3.325   6.220 -0.1981 -0.5666 -0.2733
 2522SOL    HW119199   0.913   3.362   6.138  0.8336 -0.8208 -0.8169
 2522SOL    HW219200   0.990   3.247   6.183  0.4927  0.2182 -1.1084
 2523SOL     OW19201   2.627   4.192   3.714 -0.5860  0.6115 -0.4073
 2523SOL    HW119202   2.660   4.124   3.655 -0.2439  0.3285  0.1117
 2523SOL    HW219203   2.556   4.224   3.657 -1.8986  0.3715  1.0845
 2524SOL     OW19204   2.887   0.907  13.949 -0.0141 -0.1459  0.2691
 2524SOL    HW119205   2.959   0.935  13.892  1.0138  0.2050  1.7430
 2524SOL    HW219206   2.815   0.935  13.892 -2.1320 -1.0272  2.5285
 2525SOL     OW19207   0.325   3.564  11.077  0.0691 -0.2481  0.0377
 2525SOL    HW119208   0.235   3.580  11.107 -0.3917 -0.0011 -1.4860
 2525SOL    HW219209   0.326   3.470  11.096  0.2630 -0.2442  0.0380
 2526SOL     OW19210   4.608   1.338   3.987  0.0886  0.2961 -0.3678
 2526SOL    HW119211   4.563   1.368   3.909 -2.7072 -0.3130  1.0031
 2526SOL    HW219212   4.538   1.329   4.052  0.3996  0.8618  0.0491
 2527SOL     OW19213   2.955   2.708   7.648  0.1969 -0.7279  0.4916
 2527SOL    HW119214   2.921   2.794   7.624  2.9528  0.4831  0.9631
 2527SOL    HW219215   3.026   2.727   7.709 -0.1375  1.7887  0.0919
 2528SOL     OW19216   2.447   0.023   1.844 -0.2673 -0.0659  0.4321
 2528SOL    HW119217   2.536   0.056   1.828 -0.0518 -0.3215  1.1044
 2528SOL    HW219218   2.482   4.700   1.912  1.4878 -0.2904 -0.6713
 2529SOL     OW19219   4.358   2.952   5.451  0.2576 -0.3976 -0.3343
 2529SOL    HW119220   4.441   2.993   5.475  0.4715 -0.1793 -1.4384
 2529SOL    HW219221   4.294   3.002   5.503  0.0085 -0.6920 -0.3561
 2530SOL     OW19222   0.005   1.932  14.145 -0.2784 -0.0556 -0.4805
 2530SOL    HW119223   0.030   1.841  14.132 -0.4264 -0.2122  0.3359
 2530SOL    HW219224   4.645   1.934  14.157 -0.1723 -0.8892  0.4913
 2531SOL     OW19225   2.584   0.931  14.991 -0.3283 -0.1680  0.5430
 2531SOL    HW119226   2.576   0.865  15.060  0.4286  0.6399  1.4172
 2531SOL    HW219227   2.576   0.867  14.921  1.6603  0.8135 -0.5764
 2532SOL     OW19228   2.000   4.040   9.384  0.0474 -0.4363  0.5828
 2532SOL    HW119229   2.033   3.953   9.406 -0.6649 -0.6322  0.8656
 2532SOL    HW219230   2.082   4.089   9.395 -0.7152  0.8452  0.5202
 2533SOL     OW19231   1.815   2.826   3.127  0.2803  0.0902 -0.3029
 2533SOL    HW119232   1.755   2.753   3.113 -1.1489  0.4025  4.2659
 2533SOL    HW219233   1.864   2.831   3.045 -1.8080  1.5458 -1.4914
 2534SOL     OW19234   0.404   0.490   1.582  0.6692  0.6595  0.6484
 2534SOL    HW119235   0.375   0.456   1.666  0.9481  2.4622  1.4823
 2534SOL    HW219236   0.322   0.535   1.562 -0.8267 -1.8264  1.1676
 2535SOL     OW19237   0.996   1.359   1.724  0.3964 -0.0947  0.0684
 2535SOL    HW119238   0.965   1.442   1.761 -0.9448 -1.6732  2.5115
 2535SOL    HW219239   0.940   1.364   1.647  0.4503  0.1695  0.0453
 2536SOL     OW19240   0.651   4.415   8.042 -0.1589 -0.4852  0.6193
 2536SOL    HW119241   0.740   4.394   8.013 -0.4609  1.8564 -2.0148
 2536SOL    HW219242   0.605   4.332   8.037  1.1206 -1.1520 -0.1422
 2537SOL     OW19243   1.627   0.259   5.083  1.1604 -0.2153 -0.1048
 2537SOL    HW119244   1.646   0.271   4.990 -0.4543 -1.0104 -0.5368
 2537SOL    HW219245   1.638   0.165   5.099 -2.0140 -1.2271 -3.9246
 2538SOL     OW19246   3.914   3.298   6.881 -0.0506  0.0681 -0.2815
 2538SOL    HW119247   3.913   3.328   6.790 -0.1346  2.3777  0.4811
 2538SOL    HW219248   3.821   3.304   6.904 -0.5905  0.1549 -2.5665
 2539SOL     OW19249   1.531   2.949   4.254 -0.3919 -0.2102 -0.0382
 2539SOL    HW119250   1.579   2.954   4.337  0.1491 -0.3208 -0.3459
 2539SOL    HW219251   1.518   2.854   4.243 -3.2310 -0.1060  2.1938
 2540SOL     OW19252   0.787   1.747   7.778  0.6132 -0.4914 -0.3570
 2540SOL    HW119253   0.759   1.665   7.819  0.1297 -0.7030 -1.1136
 2540SOL    HW219254   0.882   1.736   7.789  0.2534 -2.0129  1.2092
 2541SOL     OW19255   2.293   3.520   8.408  0.3054  0.4483 -0.6407
 2541SOL    HW119256   2.378   3.509   8.365 -0.2674 -0.2953 -1.5595
 2541SOL    HW219257   2.266   3.429   8.417  2.7302 -0.2984 -0.9125
 2542SOL     OW19258   1.835   1.290  14.182  0.5331  0.5583  0.3158
 2542SOL    HW119259   1.869   1.367  14.136  1.8554  0.0755  0.4777
 2542SOL    HW219260   1.745   1.288  14.150  0.0152  1.6235  1.6947
 2543SOL     OW19261   2.445   2.040   1.044  0.0092 -0.5200  0.0795
 2543SOL    HW119262   2.472   2.132   1.040 -1.5973  0.0123  1.3965
 2543SOL    HW219263   2.530   1.997   1.039  1.1838  1.9053 -0.6228
 2544SOL     OW19264   1.011   2.180   4.968  0.2508  0.0987 -0.0285
 2544SOL    HW119265   1.010   2.212   4.877 -1.5585 -0.1760 -0.1169
 2544SOL    HW219266   1.034   2.088   4.953 -0.2213 -0.2509  1.3654
 2545SOL     OW19267   0.582   1.023   8.696 -0.7188 -0.1156  0.1357
 2545SOL    HW119268   0.595   1.029   8.790 -2.5974  0.4593  0.3766
 2545SOL    HW219269   0.597   0.930   8.678  2.4479  0.4966 -0.4081
 2546SOL     OW19270   1.060   0.508   6.645 -0.3460 -0.0371 -0.1069
 2546SOL    HW119271   1.096   0.520   6.558  0.4586  1.3891  0.4105
 2546SOL    HW219272   0.982   0.564   6.638  1.9532  3.5229  2.1075
 2547SOL     OW19273   1.390   2.155   5.830 -0.4986  0.0008 -0.2255
 2547SOL    HW119274   1.370   2.247   5.848 -3.1448 -0.2158 -2.1429
 2547SOL    HW219275   1.383   2.144   5.735 -0.2571 -1.2336 -0.0969
 2548SOL     OW19276   0.740   2.861   3.296 -0.5757 -0.1771 -0.3693
 2548SOL    HW119277   0.712   2.771   3.312  3.9107 -1.0976  2.1211
 2548SOL    HW219278   0.662   2.902   3.258 -2.4373 -3.0590  0.3447
 2549SOL     OW19279   2.854   0.266  11.322 -0.9301  0.0186 -0.0535
 2549SOL    HW119280   2.824   0.319  11.396  1.7523 -0.6549  1.5243
 2549SOL    HW219281   2.932   0.320  11.308  1.0533 -3.0288 -0.7555
 2550SOL     OW19282   3.042   3.804  10.054 -0.4810  0.0228  0.0436
 2550SOL    HW119283   3.009   3.882  10.010  0.7315  0.9702  0.8389
 2550SOL    HW219284   3.077   3.759   9.977  3.3702  0.9361  1.2689
 2551SOL     OW19285   0.447   3.220  16.647  0.4372  0.2152  0.5019
 2551SOL    HW119286   0.395   3.288  16.690  0.9613  0.6355  0.4767
 2551SOL    HW219287   0.378   3.165  16.610  1.1288 -0.7129  0.5831
 2552SOL     OW19288   2.363   3.036   2.127  0.0596  0.0495  0.4534
 2552SOL    HW119289   2.432   3.067   2.186  0.5360 -0.4096  0.1316
 2552SOL    HW219290   2.322   3.119   2.101  0.0333  0.6559  2.4510
 2553SOL     OW19291   1.273   2.867   5.665 -0.0516 -0.7044 -0.0299
 2553SOL    HW119292   1.335   2.865   5.738  0.0901 -0.1808 -0.1386
 2553SOL    HW219293   1.257   2.777   5.636  1.5801  0.2283 -3.7604
 2554SOL     OW19294   3.286   4.654   3.485 -0.0159  0.4068 -0.1963
 2554SOL    HW119295   3.374   4.615   3.487 -0.5820 -0.8684 -0.7971
 2554SOL    HW219296   3.263   4.643   3.393  0.4050 -2.1939 -0.0002
 2555SOL     OW19297   0.841   1.990   5.885  0.0325 -0.0203  0.2378
 2555SOL    HW119298   0.842   1.937   5.805  1.2825  0.2572  0.0661
 2555SOL    HW219299   0.859   1.943   5.966  1.7406 -0.9745 -0.7093
 2556SOL     OW19300   3.812   0.957   5.276  0.1650  0.3044 -0.4380
 2556SOL    HW119301   3.730   0.957   5.326  1.0180  1.5568  0.9716
 2556SOL    HW219302   3.853   0.881   5.317 -1.0301 -0.4980 -0.7205
 2557SOL     OW19303   0.103   4.166   6.481 -0.1765 -0.3602 -0.0973
 2557SOL    HW119304   0.063   4.158   6.567  3.1714  0.9467  1.5988
 2557SOL    HW219305   0.037   4.119   6.430 -2.3414  1.0937  1.3639
 2558SOL     OW19306   0.412   4.680   7.354  0.0684 -0.2721 -0.2168
 2558SOL    HW119307   0.374   4.687   7.442 -0.0284  0.2051 -0.2947
 2558SOL    HW219308   0.426   0.038   7.332  3.6671 -0.6473  0.5495
 2559SOL     OW19309   4.142   3.696   7.319 -0.2765 -0.0884  0.4431
 2559SOL    HW119310   4.089   3.618   7.301  0.0137 -0.0815 -0.4692
 2559SOL    HW219311   4.156   3.735   7.232 -0.5160 -0.6922  0.1311
 2560SOL     OW19312   1.450   2.783   6.517  0.5363 -0.6499  0.8448
 2560SOL    HW119313   1.540   2.752   6.521  0.9254 -0.1486 -3.7696
 2560SOL    HW219314   1.465   2.867   6.560  0.4451 -0.5851  0.7497
 2561SOL     OW19315   0.195   4.156   6.158  0.1442  0.6623  0.2803
 2561SOL    HW119316   0.206   4.067   6.192 -2.9978  0.6030  1.0877
 2561SOL    HW219317   0.192   4.125   6.068 -0.1476  1.6827 -0.0569
 2562SOL     OW19318   0.890   3.440   3.285  0.5598 -0.2401  0.2775
 2562SOL    HW119319   0.962   3.420   3.344 -1.3157 -0.2194  2.5980
 2562SOL    HW219320   0.935   3.491   3.218 -1.7589  1.4488  0.0123
 2563SOL     OW19321   0.660   3.135   6.878 -0.0763 -0.2392  0.1335
 2563SOL    HW119322   0.656   3.123   6.783 -1.0505 -0.0866  0.1468
 2563SOL    HW219323   0.678   3.229   6.881 -2.7864  0.2923 -0.3101
 2564SOL     OW19324   4.291   3.381   2.865 -0.3460  0.0525  0.2112
 2564SOL    HW119325   4.271   3.385   2.771  0.0611  0.5190  0.1426
 2564SOL    HW219326   4.212   3.393   2.917 -1.2648  0.6327 -1.3135
 2565SOL     OW19327   3.980   4.272   6.165 -0.1894 -0.3249 -0.5875
 2565SOL    HW119328   4.057   4.216   6.154 -1.5046 -1.9666 -1.3192
 2565SOL    HW219329   3.962   4.282   6.259 -1.0731  2.0034 -0.9957
 2566SOL     OW19330   2.143   2.206   6.730 -0.3927  0.5639 -0.4987
 2566SOL    HW119331   2.209   2.227   6.796 -2.5108 -2.4704  2.6052
 2566SOL    HW219332   2.194   2.191   6.651  0.7555 -2.8482  0.9031
 2567SOL     OW19333   0.243   0.465   3.495  0.1966  0.0879 -0.5997
 2567SOL    HW119334   0.231   0.552   3.532 -1.2260 -0.3887  0.0675
 2567SOL    HW219335   0.326   0.481   3.449 -0.3759  0.9335 -1.3370
 2568SOL     OW19336   1.937   2.344  16.128 -0.1911 -0.1679  0.3193
 2568SOL    HW119337   1.868   2.297  16.080  0.3865 -0.1686 -0.5110
 2568SOL    HW219338   2.015   2.309  16.085 -0.0485 -0.2619  0.6569
 2569SOL     OW19339   2.272   3.094  10.399 -0.1541 -0.2484 -0.0682
 2569SOL    HW119340   2.245   3.175  10.443 -1.1324 -0.1749 -0.7930
 2569SOL    HW219341   2.194   3.044  10.422  0.1099 -1.9911 -3.0076
 2570SOL     OW19342   0.448   4.589   2.879  0.2351 -0.3004  0.2524
 2570SOL    HW119343   0.380   4.531   2.913 -1.4227 -0.0625 -2.7222
 2570SOL    HW219344   0.511   4.517   2.873  0.9402  0.0817  2.6923
 2571SOL     OW19345   1.157   2.412  17.017 -0.3608  0.0003 -0.6184
 2571SOL    HW119346   1.239   2.366  17.000 -0.5480 -0.3276 -0.6314
 2571SOL    HW219347   1.109   2.356  17.078 -1.6981 -0.7830 -2.3836
 2572SOL     OW19348   0.521   4.461   7.230 -0.7488 -0.6416  0.0568
 2572SOL    HW119349   0.536   4.419   7.315 -0.0989  0.5042  0.5032
 2572SOL    HW219350   0.529   4.549   7.267  0.3525 -0.1929 -1.2635
 2573SOL     OW19351   2.071   1.181   9.119 -0.0605  0.7515 -0.1998
 2573SOL    HW119352   2.044   1.157   9.031  0.2373 -2.7145  0.6454
 2573SOL    HW219353   2.091   1.096   9.158 -0.5996  0.6183 -0.2166
 2574SOL     OW19354   4.652   1.708  16.097  0.0922 -0.3969  0.4736
 2574SOL    HW119355   0.004   1.668  16.088  0.2033 -0.4029  1.4933
 2574SOL    HW219356   4.646   1.718  16.192  2.2540 -1.6014  0.7306
 2575SOL     OW19357   0.281   0.715   4.647  0.7420  0.7598 -0.0624
 2575SOL    HW119358   0.267   0.739   4.555  1.2259 -1.4254 -0.7213
 2575SOL    HW219359   0.192   0.714   4.682 -0.4286  2.7717 -2.9996
 2576SOL     OW19360   0.570   0.036   6.387 -0.7720 -0.1994 -0.1523
 2576SOL    HW119361   0.605   4.734   6.468  1.4605 -3.1156 -2.4347
 2576SOL    HW219362   0.649   0.087   6.369 -1.3765 -0.2240 -2.8562
 2577SOL     OW19363   2.661   0.335  17.475 -0.0779 -0.3075  0.4186
 2577SOL    HW119364   2.639   0.242  17.471 -0.8467 -0.0895 -0.5296
 2577SOL    HW219365   2.637   0.365  17.387  0.0443 -0.9644  0.1663
 2578SOL     OW19366   3.601   3.598   3.778  0.0775 -0.0425 -0.0436
 2578SOL    HW119367   3.581   3.563   3.865  1.4815 -1.3178 -0.2225
 2578SOL    HW219368   3.693   3.573   3.776  0.3995  1.3107 -1.4772
 2579SOL     OW19369   3.567   4.730   5.378  0.9324  0.1315 -0.0125
 2579SOL    HW119370   3.501   4.729   5.308 -0.0346 -1.7255  0.9145
 2579SOL    HW219371   3.640   4.699   5.326  0.7698 -0.0858 -0.1129
 2580SOL     OW19372   0.266   1.970   7.948 -0.2722  0.2429 -0.0989
 2580SOL    HW119373   0.219   2.012   7.876  1.6358  1.2436 -0.7615
 2580SOL    HW219374   0.285   2.043   8.006 -1.6619  0.4355  0.1128
 2581SOL     OW19375   1.766   3.144   6.337 -0.0160  0.0021  0.7570
 2581SOL    HW119376   1.772   3.239   6.327  0.3151 -0.0251  0.6845
 2581SOL    HW219377   1.773   3.119   6.245  0.5099  0.7440  0.5910
 2582SOL     OW19378   0.485   2.272   6.221 -0.3484  0.1315  0.6697
 2582SOL    HW119379   0.579   2.289   6.212 -0.6872  0.8413 -1.5068
 2582SOL    HW219380   0.472   2.317   6.305 -1.6218  0.9921  0.0144
 2583SOL     OW19381   2.353   0.947   4.373 -0.2175  0.0308  0.3908
 2583SOL    HW119382   2.281   1.010   4.375 -0.8551 -0.6353 -1.2636
 2583SOL    HW219383   2.391   0.945   4.461 -0.8976 -0.5927  0.6793
 2584SOL     OW19384   4.550   3.506   4.669 -0.4144  0.2611 -0.3215
 2584SOL    HW119385   4.552   3.426   4.616 -1.5163  0.2520 -0.3501
 2584SOL    HW219386   4.494   3.559   4.612  1.1405  2.7521  0.4470
 2585SOL     OW19387   2.350   1.207   0.780 -0.0637 -0.0547  0.3962
 2585SOL    HW119388   2.298   1.178   0.855 -0.9255  1.6317  0.4328
 2585SOL    HW219389   2.433   1.159   0.778  0.0554  0.2212 -1.3892
 2586SOL     OW19390   2.897   3.114   7.799 -0.0868  0.2066 -0.3346
 2586SOL    HW119391   2.845   3.194   7.810 -2.0729 -0.8042 -2.1969
 2586SOL    HW219392   2.930   3.120   7.709 -1.7742  4.0971 -0.6909
 2587SOL     OW19393   1.574   2.558  13.658  0.2623  0.1685  0.3221
 2587SOL    HW119394   1.558   2.529  13.748 -0.8117 -1.0618 -0.2584
 2587SOL    HW219395   1.652   2.613  13.656  2.9349 -3.6139 -0.1785
 2588SOL     OW19396   0.590   4.660   1.716  1.0033  0.0630  0.2208
 2588SOL    HW119397   0.650   4.608   1.663  1.2477  1.6371 -1.0621
 2588SOL    HW219398   0.508   4.611   1.715  0.9667  0.1141  0.5849
 2589SOL     OW19399   0.046   1.699   5.896  0.1527  0.0405  0.1430
 2589SOL    HW119400   4.708   1.714   5.956  1.5200  1.0372  1.5439
 2589SOL    HW219401   0.065   1.605   5.906 -1.6004 -0.3995 -0.6435
 2590SOL     OW19402   2.857   2.925  12.370  0.0579  0.2559 -0.7213
 2590SOL    HW119403   2.942   2.890  12.343  0.7157  1.4156 -0.1898
 2590SOL    HW219404   2.867   3.016  12.340 -0.9246  0.0034 -1.8265
 2591SOL     OW19405   3.257   1.158   5.498 -0.4294 -0.1349 -0.4232
 2591SOL    HW119406   3.202   1.092   5.456 -1.5805 -0.4654  1.6000
 2591SOL    HW219407   3.225   1.153   5.588 -1.7132  2.6663 -0.7078
 2592SOL     OW19408   0.104   0.148  14.593 -0.7305  0.1528 -0.2295
 2592SOL    HW119409   0.008   0.153  14.586 -0.7529  0.5877  0.3659
 2592SOL    HW219410   0.133   0.074  14.539  2.3623  0.9223  0.4297
 2593SOL     OW19411   0.433   0.866   8.222 -0.7991 -0.2610  0.0203
 2593SOL    HW119412   0.524   0.847   8.201 -0.6449  2.9778 -2.2368
 2593SOL    HW219413   0.419   0.953   8.186  1.1883  1.2672  2.9132
 2594SOL     OW19414   2.184   1.767   5.170 -0.4720  0.4780 -0.2171
 2594SOL    HW119415   2.250   1.825   5.133 -0.7486  1.3544  0.6682
 2594SOL    HW219416   2.109   1.824   5.184  0.6209  1.5351  1.3542
 2595SOL     OW19417   1.691   4.392   3.134  0.2113 -0.3658  0.8840
 2595SOL    HW119418   1.763   4.437   3.090 -0.1133 -1.4679 -0.7451
 2595SOL    HW219419   1.710   4.420   3.224  2.7876 -1.9676  0.8390
 2596SOL     OW19420   2.879   2.245   4.145  0.3611 -0.2796  0.4700
 2596SOL    HW119421   2.794   2.275   4.178  0.3473  1.6511 -1.3017
 2596SOL    HW219422   2.932   2.252   4.224  0.9879  1.2782 -0.0897
 2597SOL     OW19423   2.166   0.365   5.638 -0.3499  0.5248 -0.4767
 2597SOL    HW119424   2.153   0.413   5.720 -2.7268 -0.5712 -0.2185
 2597SOL    HW219425   2.110   0.422   5.586 -2.1881 -1.2010 -0.3698
 2598SOL     OW19426   3.028   1.371   7.191  0.2946  0.0874 -0.0678
 2598SOL    HW119427   3.067   1.351   7.106  1.5010  1.3506  0.1934
 2598SOL    HW219428   3.050   1.464   7.192  1.7958 -0.2511 -1.5439
 2599SOL     OW19429   3.783   4.610  14.189 -0.6256  0.0649 -0.3299
 2599SOL    HW119430   3.803   4.606  14.095 -2.4425  0.0536 -0.7087
 2599SOL    HW219431   3.757   4.521  14.215 -2.5783  1.2816  1.8052
 2600SOL     OW19432   1.740   1.467   0.720  0.2426  0.3461  0.0500
 2600SOL    HW119433   1.736   1.472   0.624  1.7392 -1.6768 -0.1371
 2600SOL    HW219434   1.825   1.510   0.733  0.7853 -1.2431  1.7828
 2601SOL     OW19435   1.977   4.091   3.631 -0.4184 -0.4947  0.0966
 2601SOL    HW119436   1.905   4.154   3.626  0.7124  0.6073 -2.7789
 2601SOL    HW219437   1.954   4.046   3.712  0.2289  0.5048  0.8248
 2602SOL     OW19438   0.550   0.069   1.966  0.1387  0.2944  0.3850
 2602SOL    HW119439   0.490   0.121   1.912 -0.9988  0.2865  1.6433
 2602SOL    HW219440   0.581   0.009   1.898 -2.4997 -1.0000  0.3096
 2603SOL     OW19441   3.145   1.772  12.648 -0.1617 -0.3430  0.3158
 2603SOL    HW119442   3.138   1.769  12.552 -1.0940  0.7019  0.3528
 2603SOL    HW219443   3.080   1.702  12.650 -2.1171  1.4717 -0.2566
 2604SOL     OW19444   2.544   4.646   5.642 -0.7869  0.3429 -0.6106
 2604SOL    HW119445   2.538   4.552   5.621  0.6058  0.2457 -0.5862
 2604SOL    HW219446   2.460   4.645   5.689 -0.1343 -0.6746  0.5600
 2605SOL     OW19447   3.071   0.408   8.780  0.5423  0.1878  0.3877
 2605SOL    HW119448   3.086   0.327   8.733  1.7390  1.2649 -1.0779
 2605SOL    HW219449   3.161   0.421   8.808  0.9721 -1.3371 -0.2829
 2606SOL     OW19450   3.757   4.700   3.056  0.1005 -0.4364  1.3729
 2606SOL    HW119451   3.706   0.042   3.030  2.0438  1.2283  2.4077
 2606SOL    HW219452   3.692   4.636   3.086 -1.3831 -0.4690 -1.9535
 2607SOL     OW19453   1.143   2.619   5.593  0.6381  0.8887  0.1024
 2607SOL    HW119454   1.135   2.581   5.505 -2.9621  0.7062  0.5106
 2607SOL    HW219455   1.110   2.547   5.647 -1.1184  2.3686  0.9898
 2608SOL     OW19456   3.315   2.710   5.755  0.0452 -0.3096 -0.7496
 2608SOL    HW119457   3.409   2.727   5.766 -0.0237 -2.5936  3.3779
 2608SOL    HW219458   3.312   2.621   5.789 -3.5165 -0.4608 -1.5406
 2609SOL     OW19459   4.694   3.711   8.078 -0.0779 -0.0382 -0.0405
 2609SOL    HW119460   0.016   3.645   8.040  0.6644 -0.9332  2.6474
 2609SOL    HW219461   4.678   3.666   8.161  0.1075 -2.1138 -1.1422
 2610SOL     OW19462   2.529   0.858   1.282 -0.1127  0.4960 -1.0678
 2610SOL    HW119463   2.443   0.877   1.318  0.6463  1.7788  0.0515
 2610SOL    HW219464   2.526   0.766   1.254 -1.8037  0.6142 -1.2763
 2611SOL     OW19465   2.974   4.149  15.634  0.1284  0.1961  0.1871
 2611SOL    HW119466   2.886   4.168  15.665  0.0337  0.6043 -0.3272
 2611SOL    HW219467   3.009   4.074  15.682 -0.4950 -1.4096 -1.8913
 2612SOL     OW19468   0.240   4.019   8.301 -0.1274 -0.5486 -0.1249
 2612SOL    HW119469   0.157   3.985   8.267 -1.0289  0.0643  1.4307
 2612SOL    HW219470   0.259   4.090   8.239 -0.7185 -0.8507 -0.6515
 2613SOL     OW19471   2.494   0.498   7.975  0.1432  0.7068 -0.0390
 2613SOL    HW119472   2.447   0.420   8.005  1.3646  0.8067  2.1594
 2613SOL    HW219473   2.497   0.538   8.062  2.6244 -0.4316  0.4077
 2614SOL     OW19474   4.061   0.426   4.694  0.3856 -0.0247 -0.3661
 2614SOL    HW119475   4.120   0.351   4.695 -1.3068 -1.3370  1.7775
 2614SOL    HW219476   4.065   0.449   4.601  0.4186  0.0659 -0.3432
 2615SOL     OW19477   4.113   1.575   3.365  0.2145  0.0313  0.0505
 2615SOL    HW119478   4.066   1.529   3.296 -0.2412 -2.4589  2.0237
 2615SOL    HW219479   4.175   1.631   3.318  1.4081 -0.5316  0.9521
 2616SOL     OW19480   1.360   1.017  10.090  0.3387  0.2907 -0.1136
 2616SOL    HW119481   1.293   1.031  10.022 -2.2708 -0.8106  2.2284
 2616SOL    HW219482   1.356   1.096  10.144  1.5404  0.7574 -0.7056
 2617SOL     OW19483   3.288   4.405  12.986  0.1839 -0.0730  0.0021
 2617SOL    HW119484   3.270   4.499  12.982  0.4223  0.0608  2.0652
 2617SOL    HW219485   3.354   4.397  13.056  0.4718 -1.4886 -0.4246
 2618SOL     OW19486   4.294   4.351   8.101 -0.4117  0.6183 -0.3417
 2618SOL    HW119487   4.254   4.439   8.102 -1.0093  0.3767 -2.3278
 2618SOL    HW219488   4.329   4.354   8.012  1.4523  1.4150  0.4263
 2619SOL     OW19489   0.978   3.282   0.601  0.2089 -0.8461  0.7183
 2619SOL    HW119490   0.904   3.225   0.580 -0.3628  0.0292  0.3784
 2619SOL    HW219491   1.033   3.255   0.527  0.3583 -0.7360  0.7890
 2620SOL     OW19492   3.801   2.123  13.274  0.2498  0.0679  0.3545
 2620SOL    HW119493   3.847   2.041  13.289 -0.4489 -0.8544 -2.4742
 2620SOL    HW219494   3.863   2.194  13.292  0.1146 -0.4352  2.7879
 2621SOL     OW19495   4.525   4.705   2.219 -0.1270 -0.0640  0.0416
 2621SOL    HW119496   4.606   0.012   2.190 -0.4800  0.0976 -0.7196
 2621SOL    HW219497   4.510   4.622   2.173 -0.8458 -0.0125  0.1847
 2622SOL     OW19498   4.199   4.132   2.452  0.4674  0.5616 -0.3221
 2622SOL    HW119499   4.272   4.153   2.393 -0.5458  0.2780 -1.6919
 2622SOL    HW219500   4.244   4.151   2.534 -0.2803  1.8106 -0.2005
 2623SOL     OW19501   1.358   4.692   2.059  0.0090  0.0217  0.1934
 2623SOL    HW119502   1.446   4.707   2.092 -0.2384 -1.6376  1.5627
 2623SOL    HW219503   1.356   0.019   1.985  0.3032  1.4221  1.3434
 2624SOL     OW19504   3.722   1.823   2.565 -0.0221 -0.1403 -0.0037
 2624SOL    HW119505   3.715   1.735   2.527  3.8886 -0.8474  0.9180
 2624SOL    HW219506   3.636   1.837   2.603  0.5291 -0.9044  1.5588
 2625SOL     OW19507   2.467   0.120   2.705  0.2364 -0.7905 -0.5621
 2625SOL    HW119508   2.458   0.027   2.726  1.0494 -0.5668  0.7556
 2625SOL    HW219509   2.490   0.114   2.612 -0.2785  0.7879 -0.7982
 2626SOL     OW19510   1.844   3.544   5.843 -0.0518  0.3288  0.1823
 2626SOL    HW119511   1.902   3.612   5.807 -1.1365  1.7611  1.1462
 2626SOL    HW219512   1.760   3.577   5.811 -0.7805  0.8168  2.6022
 2627SOL     OW19513   3.107   3.646   5.320  0.0243  0.1076  0.6479
 2627SOL    HW119514   3.038   3.680   5.376 -0.2997  0.9548 -0.2562
 2627SOL    HW219515   3.060   3.578   5.271  1.8680 -1.2583  0.7780
 2628SOL     OW19516   3.390   2.848  15.746  0.0749 -0.0214 -0.2508
 2628SOL    HW119517   3.408   2.909  15.674 -1.5559  0.4492 -0.2681
 2628SOL    HW219518   3.382   2.913  15.817 -0.4079  0.9619 -1.2034
 2629SOL     OW19519   2.360   2.275  17.553 -0.5699  0.1480 -0.1326
 2629SOL    HW119520   2.379   2.344  17.617 -1.2916 -1.2621  1.6054
 2629SOL    HW219521   2.372   2.332  17.477 -0.7866 -0.6507 -0.7611
 2630SOL     OW19522   2.092   3.774   9.551 -0.2752 -0.4750  0.1237
 2630SOL    HW119523   2.146   3.698   9.533  0.6617  0.4669 -1.0658
 2630SOL    HW219524   2.166   3.817   9.593  0.5409  0.3274 -2.1183
 2631SOL     OW19525   0.057   0.071   7.751  0.1065  0.2416  0.2892
 2631SOL    HW119526   0.095   0.008   7.811 -0.9467  1.1795  1.9404
 2631SOL    HW219527   4.715   0.098   7.802  0.7998 -0.4114  1.6696
 2632SOL     OW19528   1.853   2.002   9.307 -0.1241  0.0613 -0.0522
 2632SOL    HW119529   1.862   2.074   9.245 -0.9327  1.2675  1.2146
 2632SOL    HW219530   1.763   2.015   9.337 -0.5458 -2.9213 -0.0681
 2633SOL     OW19531   4.551   1.197   1.665 -0.7543 -0.6693  0.8341
 2633SOL    HW119532   4.520   1.162   1.581 -1.1522  0.0596  0.6801
 2633SOL    HW219533   4.628   1.140   1.669 -1.0201 -0.9500  2.1212
 2634SOL     OW19534   2.884   4.281   3.803  0.2597  0.0121 -0.5370
 2634SOL    HW119535   2.795   4.246   3.802  0.4243 -0.3491 -2.3551
 2634SOL    HW219536   2.896   4.293   3.897 -1.0259  0.1973 -0.4065
 2635SOL     OW19537   4.191   1.519   5.821 -0.6565 -0.0492 -0.5548
 2635SOL    HW119538   4.158   1.566   5.898  0.7634 -0.2894  0.1940
 2635SOL    HW219539   4.111   1.477   5.789 -1.1898  0.5189  0.0260
 2636SOL     OW19540   0.189   0.921   2.893  0.3876  0.0081 -0.0633
 2636SOL    HW119541   0.180   0.850   2.829 -1.3636 -0.9511  1.2496
 2636SOL    HW219542   0.188   0.999   2.837  1.6277  0.4571  0.5480
 2637SOL     OW19543   2.834   3.909   6.795 -0.4040 -0.7120 -0.5450
 2637SOL    HW119544   2.771   3.850   6.753 -0.6903  0.6367 -2.0101
 2637SOL    HW219545   2.785   3.989   6.812  0.5710 -0.5589  1.5919
 2638SOL     OW19546   0.387   4.582   9.942  0.3370 -0.2872  0.1354
 2638SOL    HW119547   0.391   4.597   9.848 -0.6469 -0.2449  0.1032
 2638SOL    HW219548   0.481   4.594   9.955  0.2782  1.5338 -1.1723
 2639SOL     OW19549   1.308   1.695   1.535 -0.4619  0.4328 -0.4485
 2639SOL    HW119550   1.293   1.662   1.623  1.2555  0.4529 -0.1454
 2639SOL    HW219551   1.390   1.739   1.557 -0.2397  0.3676 -1.1231
 2640SOL     OW19552   0.020   4.365   4.902  0.1736  0.3190 -0.0924
 2640SOL    HW119553   0.015   4.412   4.985  1.8830  1.5805 -0.6921
 2640SOL    HW219554   0.115   4.350   4.897  0.5132  1.9860  1.1720
 2641SOL     OW19555   0.621   0.684   9.545  0.0170  0.1530  0.0850
 2641SOL    HW119556   0.582   0.769   9.566 -0.7014  0.2833 -1.7269
 2641SOL    HW219557   0.685   0.697   9.475 -1.3797  2.4352 -0.7851
 2642SOL     OW19558   4.717   4.484   8.725 -0.2657 -0.1124  0.6575
 2642SOL    HW119559   4.648   4.489   8.660 -0.8262 -0.8393  1.2008
 2642SOL    HW219560   4.712   4.574   8.756  0.7417  0.8136 -1.8964
 2643SOL     OW19561   2.398   2.153   2.620  0.2228 -0.5235  0.2615
 2643SOL    HW119562   2.304   2.138   2.610  0.1838  1.3748 -2.3872
 2643SOL    HW219563   2.402   2.225   2.682 -0.0767 -1.1447  0.9907
 2644SOL     OW19564   4.583   3.823   4.726  0.5733  0.2259 -0.0044
 2644SOL    HW119565   4.622   3.898   4.682 -0.5250 -1.1443 -3.2760
 2644SOL    HW219566   4.650   3.760   4.698  0.1673  0.7408 -2.1362
 2645SOL     OW19567   1.266   0.792   2.703 -0.0133 -0.3790  0.0947
 2645SOL    HW119568   1.325   0.717   2.696  1.1102  0.5763 -0.6601
 2645SOL    HW219569   1.322   0.857   2.744  1.0383  0.3819 -2.5053
 2646SOL     OW19570   2.545   3.378  13.746 -0.4304 -0.0669  0.5462
 2646SOL    HW119571   2.534   3.354  13.654  1.6000 -3.0266  1.0950
 2646SOL    HW219572   2.569   3.471  13.739 -1.2919  0.1200  0.1063
 2647SOL     OW19573   1.975   2.974   5.801 -0.6049 -0.2820  0.1047
 2647SOL    HW119574   1.893   3.021   5.785  0.1676  0.4053 -1.7628
 2647SOL    HW219575   2.027   2.993   5.723 -0.8232 -1.2076 -0.2658
 2648SOL     OW19576   0.733   0.215   7.001 -0.3109  0.6662 -0.4021
 2648SOL    HW119577   0.729   0.195   7.095  0.1812 -0.4592 -0.6144
 2648SOL    HW219578   0.728   0.127   6.964 -0.7944  0.4288  0.2244
 2649SOL     OW19579   1.639   2.907   5.517  0.0053  0.4321 -0.0977
 2649SOL    HW119580   1.714   2.861   5.554 -0.9574 -0.7791  0.3379
 2649SOL    HW219581   1.594   2.839   5.468  0.8840 -0.1270 -0.1227
 2650SOL     OW19582   3.554   1.247   6.440 -0.2405 -0.0709  0.2398
 2650SOL    HW119583   3.631   1.256   6.497  0.5327  2.1660 -1.1629
 2650SOL    HW219584   3.478   1.230   6.495 -0.3985  1.6352  0.5448
 2651SOL     OW19585   1.966   3.343  11.567 -0.0207 -0.7846 -0.0149
 2651SOL    HW119586   1.922   3.258  11.573 -1.0773 -0.2835 -0.6373
 2651SOL    HW219587   2.012   3.324  11.486  2.2090 -0.8056  1.2726
 2652SOL     OW19588   0.601   1.208   8.508  0.1760 -0.0111  0.1369
 2652SOL    HW119589   0.509   1.229   8.525  0.4056  0.5083  0.7256
 2652SOL    HW219590   0.617   1.148   8.581 -1.9715 -0.8168 -0.0396
 2653SOL     OW19591   1.915   1.988   2.397  0.1443  0.5088  0.7379
 2653SOL    HW119592   1.920   2.065   2.454 -1.5859  1.5085 -0.4752
 2653SOL    HW219593   2.001   1.985   2.355 -1.0500  1.7710 -1.7782
 2654SOL     OW19594   0.610   4.360   6.385  0.0978 -0.3439 -0.3217
 2654SOL    HW119595   0.676   4.291   6.393 -1.8810 -1.7866  4.0675
 2654SOL    HW219596   0.534   4.324   6.340 -0.4144  2.8524 -2.0549
 2655SOL     OW19597   2.118   2.984   2.989 -0.2202 -0.0255  0.4171
 2655SOL    HW119598   2.068   3.028   2.920 -0.1976  0.6383  0.8202
 2655SOL    HW219599   2.095   3.039   3.064 -0.1685  0.5992 -0.0266
 2656SOL     OW19600   0.902   4.555   9.784  0.4446 -0.4717  0.0162
 2656SOL    HW119601   0.935   4.495   9.850  2.4733  0.6135 -0.0012
 2656SOL    HW219602   0.986   4.584   9.749  0.0576  0.1103 -0.4249
 2657SOL     OW19603   4.365   0.489  16.684 -0.4593  0.1661  0.7872
 2657SOL    HW119604   4.385   0.581  16.705 -0.1523  0.3205 -0.2065
 2657SOL    HW219605   4.453   0.451  16.674 -0.9200 -1.0199  1.2747
 2658SOL     OW19606   0.228   2.546   2.288 -0.0999  0.6723  0.0037
 2658SOL    HW119607   0.207   2.472   2.231 -0.4230  0.8432 -0.1006
 2658SOL    HW219608   0.307   2.571   2.239  0.3999  1.1899  1.0852
 2659SOL     OW19609   4.503   2.787   2.367 -0.8284  0.3196  0.3940
 2659SOL    HW119610   4.506   2.823   2.455  1.2971  0.8996  0.0764
 2659SOL    HW219611   4.597   2.771   2.358 -0.7944  1.5073 -1.4651
 2660SOL     OW19612   4.054   3.046   8.659  0.4272 -0.6440 -0.0996
 2660SOL    HW119613   3.961   3.054   8.638  0.7510  2.0038 -0.5345
 2660SOL    HW219614   4.066   2.967   8.608 -2.0359  0.2619 -2.0642
 2661SOL     OW19615   1.608   0.475   6.101  0.7053 -0.0403  0.6993
 2661SOL    HW119616   1.554   0.504   6.174 -0.9367  0.7716 -0.8482
 2661SOL    HW219617   1.641   0.560   6.071  1.0042 -0.5461 -0.3989
 2662SOL     OW19618   1.298   1.093  11.274  0.8575 -0.2819 -0.5832
 2662SOL    HW119619   1.235   1.158  11.306  3.2381  0.9516  1.6396
 2662SOL    HW219620   1.346   1.147  11.211 -0.4233  0.4585 -0.9240
 2663SOL     OW19621   2.725   4.010   7.515  0.1024  0.6985 -0.5317
 2663SOL    HW119622   2.633   4.025   7.493 -0.4265  0.2578  1.2986
 2663SOL    HW219623   2.726   3.914   7.521  1.9363  0.7650  0.2385
 2664SOL     OW19624   1.000   3.232   7.727  0.0869 -0.3911  0.1857
 2664SOL    HW119625   0.987   3.265   7.637  3.8579 -0.9302 -0.5335
 2664SOL    HW219626   0.927   3.170   7.733 -0.5100  0.4932  1.9363
 2665SOL     OW19627   0.343   4.425   5.824  0.0476 -0.4414  0.0670
 2665SOL    HW119628   0.366   4.517   5.807 -0.0022 -0.0852  1.9770
 2665SOL    HW219629   0.259   4.440   5.867  0.2206  0.7794 -0.0183
 2666SOL     OW19630   2.411   1.465  16.152 -0.3192  0.1602 -0.2012
 2666SOL    HW119631   2.457   1.426  16.078 -0.2918  0.2201 -0.2154
 2666SOL    HW219632   2.481   1.516  16.193  0.0513  0.2864 -0.9974
 2667SOL     OW19633   1.822   2.890  10.776 -0.2402 -0.2703 -0.1412
 2667SOL    HW119634   1.738   2.923  10.805 -0.8784  0.1773 -2.5339
 2667SOL    HW219635   1.856   2.956  10.716 -0.8659  1.2213  1.1694
 2668SOL     OW19636   4.414   1.039   2.212 -0.1726 -0.0474 -0.3531
 2668SOL    HW119637   4.404   0.951   2.176 -1.9867 -0.4734  1.1967
 2668SOL    HW219638   4.463   1.015   2.291  2.2423 -0.9024 -2.0862
 2669SOL     OW19639   0.890   0.358  14.065 -0.4605  0.2732 -0.0700
 2669SOL    HW119640   0.877   0.415  14.141 -0.0613  2.3150 -1.5208
 2669SOL    HW219641   0.849   0.276  14.092  2.7839 -1.3181  0.0971
 2670SOL     OW19642   0.612   2.882   2.260  0.1950  0.2611 -0.4135
 2670SOL    HW119643   0.551   2.957   2.260 -0.7654 -0.5310 -1.3118
 2670SOL    HW219644   0.640   2.890   2.352 -1.3201 -1.4488  0.1912
 2671SOL     OW19645   2.863   1.715  17.054 -1.1557  0.0760 -0.0184
 2671SOL    HW119646   2.918   1.774  17.105 -0.7702  1.0346 -1.5215
 2671SOL    HW219647   2.890   1.736  16.964  1.4688  1.2465  1.0574
 2672SOL     OW19648   0.185   1.132   2.744  0.6616 -0.4470  0.4974
 2672SOL    HW119649   0.099   1.145   2.705 -0.2203 -0.0181  2.5790
 2672SOL    HW219650   0.227   1.216   2.727  1.6148 -0.9037  0.5901
 2673SOL     OW19651   3.554   3.828   5.538 -0.2146 -0.0101  0.3542
 2673SOL    HW119652   3.541   3.748   5.590  0.7380 -0.1086  0.4411
 2673SOL    HW219653   3.612   3.889   5.583  1.0057 -0.6636 -0.3306
 2674SOL     OW19654   3.210   3.300  11.329 -0.4336  0.0918 -0.0229
 2674SOL    HW119655   3.245   3.219  11.292  1.6918  0.9217  0.1751
 2674SOL    HW219656   3.223   3.362  11.258  1.6034  0.2925  0.5144
 2675SOL     OW19657   4.496   1.949   8.400 -0.3402 -0.6077 -0.4563
 2675SOL    HW119658   4.520   2.042   8.399 -1.2877 -0.3268  1.5473
 2675SOL    HW219659   4.408   1.950   8.438 -0.8081  0.0394 -1.5892
 2676SOL     OW19660   4.687   3.762  16.092 -0.3719  0.2842 -0.2993
 2676SOL    HW119661   4.707   3.681  16.044  0.8783  0.2817  0.2190
 2676SOL    HW219662   4.625   3.724  16.153 -0.1666  2.6727  1.3787
 2677SOL     OW19663   2.938   0.914   2.891  0.6003 -0.4203 -0.1356
 2677SOL    HW119664   3.028   0.888   2.914  0.7461 -1.3128 -1.7224
 2677SOL    HW219665   2.899   0.827   2.880 -1.6274  0.8468 -2.2289
 2678SOL     OW19666   2.731   1.682   6.537  0.1963  0.2198  0.5582
 2678SOL    HW119667   2.664   1.646   6.595 -0.3687  0.9622  0.3686
 2678SOL    HW219668   2.810   1.637   6.566  1.3665  2.4222  0.8151
 2679SOL     OW19669   1.893   1.257   4.211 -0.3163 -0.4695 -0.3187
 2679SOL    HW119670   1.836   1.331   4.234  2.0488  0.7480  1.6389
 2679SOL    HW219671   1.830   1.189   4.186 -1.1417  0.4709 -0.8123
 2680SOL     OW19672   0.391   2.192   3.142  0.1633 -0.0903 -0.1459
 2680SOL    HW119673   0.339   2.118   3.175 -0.3034  1.0086  1.5839
 2680SOL    HW219674   0.462   2.183   3.205 -0.2433  0.5278  0.4129
 2681SOL     OW19675   0.714   0.893   7.338 -0.7930  0.3032 -0.2752
 2681SOL    HW119676   0.794   0.852   7.306  0.9686  0.9831  3.1916
 2681SOL    HW219677   0.648   0.890   7.269 -1.4879  2.0743  0.3106
 2682SOL     OW19678   1.874   3.120   4.451  0.7740  0.7742  0.1295
 2682SOL    HW119679   1.904   3.032   4.428  0.2418  0.6457 -0.0825
 2682SOL    HW219680   1.782   3.096   4.462  1.2907 -0.7667  0.9491
 2683SOL     OW19681   4.490   4.215   9.292  0.0822 -0.1021 -0.1135
 2683SOL    HW119682   4.579   4.182   9.276  0.5615  0.5655  1.2054
 2683SOL    HW219683   4.462   4.224   9.201 -2.9384 -0.1778  0.8054
 2684SOL     OW19684   2.644   1.085  11.946 -0.8509  0.5131 -0.2279
 2684SOL    HW119685   2.589   1.122  12.015  1.0949  0.0394  1.5905
 2684SOL    HW219686   2.703   1.030  11.999  1.4207  4.3006  1.1515
 2685SOL     OW19687   2.683   3.624   7.855  0.2377  0.0049 -0.4337
 2685SOL    HW119688   2.667   3.714   7.881 -1.2595 -0.1039 -1.0077
 2685SOL    HW219689   2.766   3.605   7.900 -0.1033  0.6034  0.4385
 2686SOL     OW19690   2.718   0.083  12.465 -0.5729  0.2158 -0.6368
 2686SOL    HW119691   2.687   0.126  12.544  1.1081 -0.4478  0.3760
 2686SOL    HW219692   2.667   0.002  12.469 -0.3556  0.1678  1.0865
 2687SOL     OW19693   0.052   4.183   0.800 -0.0521  0.3021  0.1862
 2687SOL    HW119694   0.048   4.217   0.890 -0.0586  0.1408  0.2471
 2687SOL    HW219695   0.115   4.238   0.753 -1.1361 -0.2151 -1.8584
 2688SOL     OW19696   2.549   0.607   3.508 -0.0410  0.7806 -0.0266
 2688SOL    HW119697   2.510   0.694   3.516 -3.0317 -0.2641 -3.2861
 2688SOL    HW219698   2.587   0.611   3.596 -0.7290  1.2691  0.2457
 2689SOL     OW19699   2.995   1.850  13.380 -0.2788 -0.1357 -0.7865
 2689SOL    HW119700   2.959   1.937  13.392  1.5257  0.2885  1.5544
 2689SOL    HW219701   2.994   1.819  13.470 -0.2810 -0.4065 -0.8792
 2690SOL     OW19702   2.579   2.428   5.947 -0.2823  0.1137 -0.1952
 2690SOL    HW119703   2.591   2.437   5.852  0.9518  1.1914  0.0645
 2690SOL    HW219704   2.559   2.520   5.962 -1.9354 -0.0688 -1.2303
 2691SOL     OW19705   4.409   4.141  13.276 -0.8586 -0.0354 -0.1127
 2691SOL    HW119706   4.441   4.228  13.253 -1.3981 -0.0379 -0.8720
 2691SOL    HW219707   4.492   4.092  13.273 -0.5111  0.5984 -0.8913
 2692SOL     OW19708   3.817   0.577   8.011  0.5623 -0.2303  0.2772
 2692SOL    HW119709   3.754   0.581   8.084  0.9748 -0.2516  0.6364
 2692SOL    HW219710   3.829   0.483   8.000 -2.0389 -0.4910 -0.3814
 2693SOL     OW19711   3.194   2.356   2.132 -0.1879  0.0403 -0.8323
 2693SOL    HW119712   3.266   2.365   2.195  0.1386  2.0629 -1.5034
 2693SOL    HW219713   3.222   2.290   2.068  2.8189  0.8617 -0.3875
 2694SOL     OW19714   3.255   3.857   6.483  0.1954 -0.2348 -0.8946
 2694SOL    HW119715   3.204   3.929   6.522  1.8239  0.2389  0.3492
 2694SOL    HW219716   3.193   3.785   6.474  0.9909 -0.8979 -0.9798
 2695SOL     OW19717   4.346   2.926   8.776  0.3513  0.1009  0.3838
 2695SOL    HW119718   4.299   2.975   8.844 -1.1748  1.8285 -1.9359
 2695SOL    HW219719   4.274   2.882   8.730 -0.1372  0.2238  1.0314
 2696SOL     OW19720   1.711   2.630   6.489 -0.1085 -0.3287 -0.7063
 2696SOL    HW119721   1.741   2.653   6.576 -0.7191 -2.1576 -0.0162
 2696SOL    HW219722   1.762   2.551   6.473 -0.1689 -0.6066  0.4644
 2697SOL     OW19723   4.203   2.603   0.033 -0.2951 -0.0821 -0.4576
 2697SOL    HW119724   4.127   2.657   0.054 -0.3923 -0.1526 -0.6251
 2697SOL    HW219725   4.268   2.667   0.060 -0.8071 -0.1043  0.8211
 2698SOL     OW19726   1.488   2.847  12.014 -0.2574 -0.3470  0.5758
 2698SOL    HW119727   1.557   2.867  11.951  0.4211 -0.7875  1.1753
 2698SOL    HW219728   1.554   2.853  12.083 -0.2538 -0.3479  0.5725
 2699SOL     OW19729   0.598   3.109   7.739 -0.5491 -0.0323  0.0103
 2699SOL    HW119730   0.673   3.099   7.797 -0.4006  1.1068  0.0074
 2699SOL    HW219731   0.632   3.102   7.650  0.5447 -2.7711  0.6517
 2700SOL     OW19732   1.378   2.903   1.511 -0.2843 -0.1208  0.2412
 2700SOL    HW119733   1.413   2.814   1.506 -1.0947 -0.4161 -0.3406
 2700SOL    HW219734   1.315   2.902   1.439  1.5299  2.5648 -1.3590
 2701SOL     OW19735   0.807   0.930   2.514  0.1673 -0.3326 -0.2303
 2701SOL    HW119736   0.832   0.851   2.468  0.2743 -0.3032 -0.2234
 2701SOL    HW219737   0.894   0.964   2.534 -0.5498  1.1733  0.3494
 2702SOL     OW19738   1.541   2.196  16.334 -0.3702  0.6267 -0.1595
 2702SOL    HW119739   1.488   2.163  16.406 -0.7094 -0.3905 -0.8663
 2702SOL    HW219740   1.554   2.116  16.282 -0.6200 -0.0136  0.7534
 2703SOL     OW19741   0.053   4.276  12.251 -0.6000  0.0770  0.1798
 2703SOL    HW119742   0.115   4.204  12.262 -0.5538 -0.0561 -0.9560
 2703SOL    HW219743   4.724   4.241  12.312  1.1393  0.2994  2.1361
 2704SOL     OW19744   2.858   0.842   3.265 -0.1510 -0.3918 -0.7258
 2704SOL    HW119745   2.815   0.757   3.270 -1.6928  0.4415  0.2657
 2704SOL    HW219746   2.792   0.893   3.218  0.8506  0.9553 -0.6569
 2705SOL     OW19747   4.451   0.637   9.929  0.3643  0.1873 -0.1902
 2705SOL    HW119748   4.361   0.665   9.910  0.5160  0.4286 -0.5536
 2705SOL    HW219749   4.501   0.661   9.851 -1.1050 -0.6265 -1.3892
 2706SOL     OW19750   3.641   0.746   0.572  0.0812 -0.3585  0.6792
 2706SOL    HW119751   3.660   0.692   0.495 -2.8121  0.8280 -0.8573
 2706SOL    HW219752   3.545   0.747   0.568  0.0364 -0.2591  1.7528
 2707SOL     OW19753   4.612   3.344   2.484 -0.0903  0.2554  0.4134
 2707SOL    HW119754   4.677   3.284   2.448  2.6802  0.7223  4.5678
 2707SOL    HW219755   4.639   3.421   2.435  0.2740  0.4776  0.9579
 2708SOL     OW19756   0.977   2.756   2.651 -0.8680  0.2672  0.5456
 2708SOL    HW119757   0.931   2.811   2.714 -1.4998 -1.7121  1.8377
 2708SOL    HW219758   1.053   2.812   2.639 -0.9647 -0.4211 -3.2051
 2709SOL     OW19759   0.113   3.610   8.626  0.3207  0.5283 -0.0636
 2709SOL    HW119760   0.100   3.518   8.603  2.1019  0.5736 -1.2812
 2709SOL    HW219761   0.034   3.643   8.668 -1.0589 -2.7338 -0.1561
 2710SOL     OW19762   4.002   4.649  16.006  0.0147  0.5291  0.2770
 2710SOL    HW119763   4.062   4.581  16.037  0.2451  0.8751  0.5963
 2710SOL    HW219764   3.957   4.613  15.930 -0.4573  0.5360  0.5568
 2711SOL     OW19765   0.219   4.545  11.114 -0.1584 -0.2276  0.3867
 2711SOL    HW119766   0.224   4.636  11.142 -0.9691  0.2818 -1.1404
 2711SOL    HW219767   0.272   4.498  11.178  1.3300  0.5191 -0.2913
 2712SOL     OW19768   4.273   0.813  13.386  0.0048 -0.4224  0.1599
 2712SOL    HW119769   4.361   0.806  13.347  0.0520  1.6564 -0.0664
 2712SOL    HW219770   4.246   0.897  13.350 -4.3018 -2.9327 -2.4440
 2713SOL     OW19771   3.573   3.170   8.539 -0.2141 -0.0276 -0.3256
 2713SOL    HW119772   3.571   3.104   8.469 -0.8709 -0.6097  0.2505
 2713SOL    HW219773   3.510   3.129   8.597 -0.1633  0.3163 -0.0257
 2714SOL     OW19774   2.532   2.447  13.430  0.5017  0.0498 -0.0189
 2714SOL    HW119775   2.463   2.442  13.363  0.1914  0.0925  0.2977
 2714SOL    HW219776   2.610   2.468  13.379 -0.1592 -0.6878 -1.3186
 2715SOL     OW19777   0.363   2.180   0.583  0.5737 -0.1309 -0.7137
 2715SOL    HW119778   0.273   2.211   0.597  1.1007  1.7250 -1.4730
 2715SOL    HW219779   0.408   2.197   0.665  1.0952  1.0133 -1.2300
 2716SOL     OW19780   2.981   3.980  12.927 -0.0254  0.3480 -0.2918
 2716SOL    HW119781   2.993   4.019  13.013  0.1896  0.7886 -0.5247
 2716SOL    HW219782   3.066   4.006  12.891  0.1491 -0.7420 -0.6686
 2717SOL     OW19783   0.863   3.772   6.530 -0.5297 -0.0271  0.0961
 2717SOL    HW119784   0.943   3.729   6.559  0.8592  1.4006 -1.6622
 2717SOL    HW219785   0.811   3.698   6.497  0.8810 -1.0383  0.1507
 2718SOL     OW19786   0.385   4.036   3.629  0.0392  0.2072  0.3151
 2718SOL    HW119787   0.465   4.087   3.644  1.0863 -1.0791 -1.0096
 2718SOL    HW219788   0.421   3.959   3.586  0.3873  1.1098 -1.0120
 2719SOL     OW19789   3.224   2.342   3.075  0.3162 -1.1912 -0.1154
 2719SOL    HW119790   3.303   2.321   3.025  1.1891  0.8393  0.3842
 2719SOL    HW219791   3.152   2.302   3.026  0.3763  0.6255 -1.7041
 2720SOL     OW19792   2.195   3.847   1.490 -0.5313  0.2167 -0.4156
 2720SOL    HW119793   2.246   3.783   1.440 -3.2225 -0.8557 -1.7742
 2720SOL    HW219794   2.235   3.933   1.475 -0.9211  0.0689 -2.2450
 2721SOL     OW19795   1.778   2.671  14.023  0.0018  0.5859 -0.1693
 2721SOL    HW119796   1.704   2.731  14.028 -0.4272 -0.2013  3.5193
 2721SOL    HW219797   1.798   2.677  13.930  1.5474 -1.1576  0.0398
 2722SOL     OW19798   0.584   1.929   3.934 -0.4460 -0.4058 -0.4956
 2722SOL    HW119799   0.643   2.004   3.943  0.9602 -1.4631 -0.9616
 2722SOL    HW219800   0.523   1.934   4.007  0.4390 -0.9715  0.2826
 2723SOL     OW19801   0.229   3.393   4.695 -0.1523  0.0470 -0.2020
 2723SOL    HW119802   0.297   3.367   4.758  1.9475  2.0942 -1.6031
 2723SOL    HW219803   0.206   3.306   4.663 -0.2183  0.6280 -1.7412
 2724SOL     OW19804   3.563   3.166   1.173 -0.2532 -0.3342 -0.4114
 2724SOL    HW119805   3.499   3.237   1.165  0.6040  0.4734 -0.0960
 2724SOL    HW219806   3.625   3.195   1.241  1.0373 -0.6382 -1.4722
 2725SOL     OW19807   2.367   0.674  17.521 -0.3202 -0.1340 -0.3283
 2725SOL    HW119808   2.315   0.688  17.601  1.4082  0.2801  0.7194
 2725SOL    HW219809   2.340   0.748  17.467 -3.6645 -1.0946  0.0394
 2726SOL     OW19810   0.053   1.086   2.399 -0.7389  0.8266 -0.1135
 2726SOL    HW119811   0.003   1.164   2.422 -0.2184  0.3769  2.5492
 2726SOL    HW219812   4.723   1.020   2.423 -0.1303  0.7958  1.4491
 2727SOL     OW19813   0.599   1.402   5.240  0.6232 -0.3946  0.0866
 2727SOL    HW119814   0.540   1.368   5.173  0.3675  0.0124  0.1039
 2727SOL    HW219815   0.672   1.345   5.216  0.0387 -0.7685 -0.8071
 2728SOL     OW19816   1.823   1.745   3.123  0.4824  0.5093 -0.3454
 2728SOL    HW119817   1.745   1.755   3.068  1.8645  0.9725 -2.2248
 2728SOL    HW219818   1.898   1.736   3.064  0.9429  2.6070 -0.0598
 2729SOL     OW19819   1.324   2.272   1.716 -0.2105  0.2482  0.2918
 2729SOL    HW119820   1.305   2.332   1.788 -2.1846 -1.6548  1.3685
 2729SOL    HW219821   1.417   2.256   1.731 -0.2408  1.0834  1.3700
 2730SOL     OW19822   1.279   4.013   3.722  0.1460  0.2695 -0.3593
 2730SOL    HW119823   1.226   3.965   3.785  0.7618 -1.0390 -0.8292
 2730SOL    HW219824   1.252   3.963   3.645 -0.9949  1.8339 -0.9889
 2731SOL     OW19825   1.213   0.424  17.561 -0.3719 -0.8325 -0.4588
 2731SOL    HW119826   1.274   0.497  17.555  0.3104 -1.4171 -0.5837
 2731SOL    HW219827   1.152   0.445  17.632 -0.3998 -2.7790  0.1126
 2732SOL     OW19828   3.117   2.974   5.117 -0.0931  0.4233  0.1345
 2732SOL    HW119829   3.212   2.978   5.122 -0.0275  1.3089 -1.7511
 2732SOL    HW219830   3.096   2.961   5.210  2.1353 -0.7381  0.4814
 2733SOL     OW19831   3.426   0.508   6.279  0.5801 -0.2558 -0.2613
 2733SOL    HW119832   3.407   0.600   6.295  0.5340 -0.4546  0.7941
 2733SOL    HW219833   3.511   0.495   6.320 -0.6239 -1.9866  1.6412
 2734SOL     OW19834   2.853   1.811  10.802  0.0285 -0.2093 -0.1526
 2734SOL    HW119835   2.888   1.807  10.891  0.3420 -0.2620 -0.2788
 2734SOL    HW219836   2.914   1.870  10.758 -0.1905  0.2429  0.1454
 2735SOL     OW19837   0.469   3.566  15.878 -0.1516 -0.1012 -0.6266
 2735SOL    HW119838   0.539   3.603  15.932 -0.4826  1.0910 -1.0122
 2735SOL    HW219839   0.407   3.639  15.888  0.5762  0.6067 -1.3548
 2736SOL     OW19840   0.589   3.029   8.218 -0.3269  0.5716 -0.3642
 2736SOL    HW119841   0.677   3.031   8.178 -1.2734 -1.5067 -2.5539
 2736SOL    HW219842   0.622   3.083   8.290 -0.3061  0.8591 -0.5833
 2737SOL     OW19843   3.869   3.895   0.336  0.7717 -0.3248  0.4724
 2737SOL    HW119844   3.909   3.864   0.418  2.7717 -1.3329 -0.8991
 2737SOL    HW219845   3.832   3.815   0.300 -1.3092  0.8407  0.0197
 2738SOL     OW19846   2.778   1.544  17.291  0.2713  0.7137 -0.5207
 2738SOL    HW119847   2.685   1.544  17.314  0.0095 -0.9212 -1.5692
 2738SOL    HW219848   2.776   1.590  17.208  2.0448 -1.6027 -1.8518
 2739SOL     OW19849   4.520   1.965  13.160 -0.0342 -0.4118 -0.2254
 2739SOL    HW119850   4.567   1.898  13.111 -0.5888  0.4139 -1.9239
 2739SOL    HW219851   4.566   1.976  13.242 -1.4313  1.3505  0.3366
 2740SOL     OW19852   3.717   1.259   2.496 -0.8172  0.1831 -0.2034
 2740SOL    HW119853   3.766   1.200   2.552  0.4580  1.0707 -0.3913
 2740SOL    HW219854   3.632   1.216   2.500 -0.8775  0.4576  1.4737
 2741SOL     OW19855   4.015   1.929   7.613 -0.2765 -0.1465  0.0964
 2741SOL    HW119856   4.103   1.902   7.588 -0.3624 -0.0513 -0.3108
 2741SOL    HW219857   3.997   2.001   7.553 -1.0980  0.2795  0.8550
 2742SOL     OW19858   2.645   3.416   6.455 -0.2912  0.1430  0.4893
 2742SOL    HW119859   2.578   3.410   6.524  0.4922  0.3929  1.2649
 2742SOL    HW219860   2.595   3.393   6.377 -0.9243 -1.7615  1.4600
 2743SOL     OW19861   1.662   0.165   2.444  0.4481  0.0519 -0.6511
 2743SOL    HW119862   1.744   0.150   2.490  0.0429 -0.7399 -0.1836
 2743SOL    HW219863   1.611   0.122   2.513  0.1800 -1.6535 -1.9166
 2744SOL     OW19864   3.962   2.958   9.376  0.0629 -0.4968  0.1172
 2744SOL    HW119865   3.907   2.902   9.321  0.3912  0.1618 -0.8655
 2744SOL    HW219866   3.999   2.906   9.448  0.1058 -1.4147 -0.5718
 2745SOL     OW19867   1.417   1.214   6.231  0.0519 -0.6742  0.2408
 2745SOL    HW119868   1.376   1.152   6.291 -1.4097 -0.9595 -1.0556
 2745SOL    HW219869   1.346   1.278   6.221  1.1938  0.6437  0.6391
 2746SOL     OW19870   0.749   1.377  11.654 -0.2958 -0.3975 -0.2862
 2746SOL    HW119871   0.679   1.441  11.641  0.9803  0.8744 -0.9323
 2746SOL    HW219872   0.822   1.432  11.626 -0.3114  0.1447  0.7256
 2747SOL     OW19873   2.665   3.718   4.109 -0.6495  0.3357  0.0275
 2747SOL    HW119874   2.719   3.754   4.038 -0.7111 -1.8016 -1.1262
 2747SOL    HW219875   2.644   3.798   4.155  1.2816  0.4290  0.7527
 2748SOL     OW19876   3.900   0.804   3.392 -0.1772 -0.7338  0.5920
 2748SOL    HW119877   3.978   0.751   3.376 -1.5635 -2.8197  0.8622
 2748SOL    HW219878   3.831   0.740   3.377 -3.3841  2.5275  1.2309
 2749SOL     OW19879   1.654   3.375   8.077  0.2526  0.1484  0.8577
 2749SOL    HW119880   1.738   3.388   8.120  0.3645  2.3159 -0.0607
 2749SOL    HW219881   1.662   3.446   8.014  0.6104 -0.6682 -0.0104
 2750SOL     OW19882   3.068   0.060   1.881  0.1431 -0.0482 -0.0209
 2750SOL    HW119883   3.158   0.056   1.915 -0.7502  1.2898  2.5360
 2750SOL    HW219884   3.030   4.714   1.914 -1.7139  0.4589 -0.9358
 2751SOL     OW19885   3.209   2.860   4.080 -0.4609 -0.3314 -0.8331
 2751SOL    HW119886   3.184   2.853   3.987 -0.0417  0.3051 -0.9912
 2751SOL    HW219887   3.291   2.810   4.082 -0.3382 -0.1010 -0.3515
 2752SOL     OW19888   1.084   2.245   3.730 -0.2193  0.0081  0.6154
 2752SOL    HW119889   1.130   2.162   3.741 -1.4949 -0.9750 -1.4639
 2752SOL    HW219890   1.138   2.297   3.789  1.2403 -0.2535 -0.4934
 2753SOL     OW19891   0.521   4.712   0.150  0.1851 -0.2497  0.0684
 2753SOL    HW119892   0.473   0.044   0.101 -0.5577 -0.1409  0.9403
 2753SOL    HW219893   0.477   4.727   0.234 -0.6255  1.1153 -0.5928
 2754SOL     OW19894   2.471   0.701  15.791  0.4881 -0.0166  0.6305
 2754SOL    HW119895   2.474   0.795  15.808 -0.7281  0.4927 -1.9808
 2754SOL    HW219896   2.561   0.685  15.763  0.7938  0.8656  1.0959
 2755SOL     OW19897   0.838   4.272  15.836 -0.1224 -0.2095 -0.3036
 2755SOL    HW119898   0.766   4.245  15.779  0.9882  0.4074 -1.9840
 2755SOL    HW219899   0.905   4.254  15.771 -0.5699 -2.2347 -0.2306
 2756SOL     OW19900   3.216   0.997  10.530 -0.3289 -0.2100 -0.4650
 2756SOL    HW119901   3.232   1.030  10.441 -1.2226  0.7726 -0.2522
 2756SOL    HW219902   3.134   0.950  10.513 -1.4885  1.4955  0.4191
 2757SOL     OW19903   4.428   3.611  11.415 -0.4118  0.0732 -0.1730
 2757SOL    HW119904   4.360   3.661  11.461 -0.6113  0.4361 -0.8621
 2757SOL    HW219905   4.488   3.594  11.488  0.4942  3.0348 -0.2212
 2758SOL     OW19906   3.985   2.496   4.988 -0.3390  0.5176 -0.2494
 2758SOL    HW119907   4.032   2.575   5.013  0.9019 -0.9085  1.8924
 2758SOL    HW219908   3.942   2.470   5.070  1.3088 -0.4582  0.2944
 2759SOL     OW19909   3.692   3.955   3.632  0.0296 -0.5536  0.3399
 2759SOL    HW119910   3.778   3.984   3.661 -0.6586 -1.5015  3.3517
 2759SOL    HW219911   3.667   4.037   3.591  0.4772 -1.6356 -2.1073
 2760SOL     OW19912   2.895   4.411   0.566 -0.3657  0.0956  0.0431
 2760SOL    HW119913   2.853   4.334   0.527 -0.2395  0.3271 -0.5385
 2760SOL    HW219914   2.958   4.441   0.501  0.1874 -0.9551  0.1029
 2761SOL     OW19915   1.272   3.541   6.828  0.0203  0.1055  0.0237
 2761SOL    HW119916   1.362   3.532   6.796  0.1952  3.8416 -0.6117
 2761SOL    HW219917   1.264   3.630   6.862 -0.1993  0.3080 -0.5582
 2762SOL     OW19918   0.161   1.777   7.228 -0.4845 -0.0425 -0.5153
 2762SOL    HW119919   0.185   1.782   7.321 -2.5765 -0.3167  0.0464
 2762SOL    HW219920   0.166   1.682   7.228 -0.0737 -0.0273  0.2994
 2763SOL     OW19921   0.632   2.625   5.512  0.3432 -0.5512  0.6144
 2763SOL    HW119922   0.656   2.595   5.600  1.0831  0.2935  0.7138
 2763SOL    HW219923   0.543   2.590   5.517  0.2215 -0.1184  1.4175
 2764SOL     OW19924   3.074   1.973  13.635  0.1419 -0.5932 -0.1766
 2764SOL    HW119925   3.077   1.880  13.658  2.3196 -0.5956 -0.4854
 2764SOL    HW219926   2.992   1.997  13.680  0.2384  0.5385 -0.6248
 2765SOL     OW19927   0.873   1.602   6.894 -0.2108  0.1332  0.2843
 2765SOL    HW119928   0.923   1.603   6.976 -1.7368 -0.6172  1.2279
 2765SOL    HW219929   0.884   1.521   6.844  2.4571  2.5511 -3.0325
 2766SOL     OW19930   2.655   4.681   4.006 -0.0921 -0.0533 -0.6601
 2766SOL    HW119931   2.686   4.591   4.000  2.9442  1.0216 -1.1933
 2766SOL    HW219932   2.691   4.724   3.929  1.1577  0.4052  0.1915
 2767SOL     OW19933   0.179   3.674   6.066 -0.0108  0.0344 -0.5760
 2767SOL    HW119934   0.151   3.679   5.974  1.7510  0.3563 -1.0795
 2767SOL    HW219935   0.273   3.685   6.054 -0.1014  1.1683 -0.2767
 2768SOL     OW19936   2.794   3.046   4.971  0.2310  0.4427 -0.0013
 2768SOL    HW119937   2.734   3.046   4.897 -1.6424 -0.7458  1.5095
 2768SOL    HW219938   2.744   3.008   5.043 -0.6306 -0.4910 -1.1015
 2769SOL     OW19939   0.261   1.641   3.339 -0.4930 -0.8202  0.3427
 2769SOL    HW119940   0.293   1.636   3.429 -1.2609  0.9713  0.7296
 2769SOL    HW219941   0.187   1.702   3.349  0.0288 -0.2686  0.8843
 2770SOL     OW19942   1.458   0.915   9.028  0.4086  0.1702 -0.0686
 2770SOL    HW119943   1.476   0.856   9.102 -1.6030 -1.8618 -1.1739
 2770SOL    HW219944   1.396   0.857   8.984  1.7273 -0.9385 -0.4770
 2771SOL     OW19945   1.734   1.045   4.096  0.6562 -0.4409 -0.0948
 2771SOL    HW119946   1.739   0.951   4.111  2.9362 -0.5507 -1.4777
 2771SOL    HW219947   1.642   1.062   4.075  0.7940 -0.3749 -0.6458
 2772SOL     OW19948   3.797   3.525   9.256 -0.4938 -0.1025 -0.0932
 2772SOL    HW119949   3.832   3.528   9.167  0.6281 -1.5435  0.2911
 2772SOL    HW219950   3.762   3.438   9.276  2.1958 -1.6201 -2.0054
 2773SOL     OW19951   3.383   0.883   2.782 -0.3428  0.3432  0.1213
 2773SOL    HW119952   3.387   0.910   2.874 -1.4836  0.5603  0.1036
 2773SOL    HW219953   3.332   0.955   2.743  2.1894  2.5899  0.9276
 2774SOL     OW19954   3.147   1.618  16.014  0.5166 -0.2168 -0.4408
 2774SOL    HW119955   3.083   1.671  16.062  1.7834  0.9963 -0.0695
 2774SOL    HW219956   3.125   1.528  16.037 -0.5974 -0.1343 -1.1968
 2775SOL     OW19957   2.176   4.568  15.970  0.1204  0.2481 -0.3945
 2775SOL    HW119958   2.224   4.570  16.052 -1.4578 -0.0556  0.5209
 2775SOL    HW219959   2.247   4.572  15.905  0.2934 -0.3344 -0.2444
 2776SOL     OW19960   0.712   2.933   2.776 -0.0124  0.7169 -0.0041
 2776SOL    HW119961   0.798   2.952   2.813  0.8494  0.1000 -1.7083
 2776SOL    HW219962   0.674   3.015   2.808 -2.1916  0.2380 -1.3966
 2777SOL     OW19963   3.896   2.465   3.547 -0.6251  0.3977  0.8007
 2777SOL    HW119964   3.988   2.459   3.520 -0.6840  0.1940  0.6526
 2777SOL    HW219965   3.914   2.465   3.641  0.8662 -0.5353  0.5189
 2778SOL     OW19966   2.540   2.561   6.435  0.0227  0.0624 -0.1282
 2778SOL    HW119967   2.581   2.588   6.517  1.7111  1.1367 -1.3091
 2778SOL    HW219968   2.619   2.560   6.382  0.2303  0.9122  0.1574
 2779SOL     OW19969   2.665   0.179  10.186  0.4360 -0.2039  0.9590
 2779SOL    HW119970   2.661   0.194  10.281  0.3830  0.6493  0.8198
 2779SOL    HW219971   2.651   0.085  10.195 -0.5517 -0.1212  0.3328
 2780SOL     OW19972   0.310   3.309   6.264 -0.3562  0.2663  0.5720
 2780SOL    HW119973   0.375   3.242   6.284  0.2119  0.8714  0.7775
 2780SOL    HW219974   0.234   3.260   6.294 -0.7644 -0.3834 -1.5586
 2781SOL     OW19975   4.385   2.245  11.488 -0.2605 -0.2942  0.0224
 2781SOL    HW119976   4.292   2.228  11.472  0.0850 -2.9291  0.7770
 2781SOL    HW219977   4.419   2.157  11.469  0.6499  0.0372  0.1019
 2782SOL     OW19978   1.534   3.259  17.123  0.8953  0.2923  0.6530
 2782SOL    HW119979   1.614   3.207  17.123 -0.5681 -1.9877  2.3497
 2782SOL    HW219980   1.477   3.201  17.072  0.1004  1.1849  0.5250
 2783SOL     OW19981   2.778   4.417   3.217 -0.1461  0.3383 -0.6285
 2783SOL    HW119982   2.695   4.442   3.177  0.0591  1.7770 -0.1733
 2783SOL    HW219983   2.799   4.357   3.145 -1.1562  0.1725 -0.7757
 2784SOL     OW19984   2.288   3.182   3.902 -0.1831 -0.4701 -0.2108
 2784SOL    HW119985   2.264   3.274   3.889 -0.5148 -0.8087 -2.0620
 2784SOL    HW219986   2.205   3.136   3.885 -1.3841  1.4859  0.3531
 2785SOL     OW19987   2.460   2.182   6.644  0.1132  0.0446  0.3283
 2785SOL    HW119988   2.405   2.195   6.567  0.8219  0.3810 -0.1260
 2785SOL    HW219989   2.469   2.273   6.672 -1.5579  1.2682 -3.2124
 2786SOL     OW19990   2.692   3.858   7.154 -0.4155 -0.4146 -0.4074
 2786SOL    HW119991   2.639   3.827   7.081  1.5584  1.2352 -2.5271
 2786SOL    HW219992   2.630   3.888   7.220  0.4142  0.7619 -0.1605
 2787SOL     OW19993   1.932   4.062  10.224 -0.0087 -0.3261  0.2072
 2787SOL    HW119994   2.002   4.012  10.265  1.1362 -0.4788 -1.9494
 2787SOL    HW219995   1.975   4.148  10.216  1.0589 -1.0283 -1.6070
 2788SOL     OW19996   0.126   3.343  16.557  0.1337 -0.0647 -0.2903
 2788SOL    HW119997   0.088   3.407  16.617 -0.2468  0.1111 -0.7137
 2788SOL    HW219998   0.212   3.374  16.531 -0.7382 -0.1598 -3.2648
 2789SOL     OW19999   2.038   4.482   7.719 -0.4414 -0.3074 -0.4818
 2789SOL    HW120000   1.992   4.526   7.647  1.6498  2.8552  0.1043
 2789SOL    HW220001   2.097   4.551   7.750  1.5245 -0.6887 -3.4009
 2790SOL     OW20002   3.828   0.526   9.528  0.3426  0.3207 -0.4408
 2790SOL    HW120003   3.841   0.585   9.602  0.7831 -0.9633  0.5076
 2790SOL    HW220004   3.804   0.441   9.565 -0.2862  0.2644 -0.9977
 2791SOL     OW20005   3.043   2.058   5.120 -0.6922 -0.1836  0.3584
 2791SOL    HW120006   3.103   2.127   5.150 -0.7014 -1.8051  4.0920
 2791SOL    HW220007   3.014   2.098   5.038  1.2476 -1.0691 -0.7601
 2792SOL     OW20008   0.104   4.338  13.765 -0.2160 -0.7964  0.2910
 2792SOL    HW120009   0.064   4.423  13.779  1.6338 -0.2186  2.0128
 2792SOL    HW220010   0.064   4.297  13.842  1.8285 -0.0763  1.7460
 2793SOL     OW20011   4.386   4.206  17.082  0.5610  0.4311  0.0805
 2793SOL    HW120012   4.367   4.123  17.037  2.1895 -1.4418  2.8676
 2793SOL    HW220013   4.309   4.259  17.060 -0.6555 -0.1445  3.0205
 2794SOL     OW20014   0.886   2.567   7.453 -0.3853 -0.9081  0.2895
 2794SOL    HW120015   0.938   2.488   7.438 -2.1158 -1.9735 -0.1610
 2794SOL    HW220016   0.801   2.530   7.476 -0.6220  1.1501  2.6204
 2795SOL     OW20017   0.508   3.494   2.666 -0.7179  0.1998 -0.5779
 2795SOL    HW120018   0.429   3.476   2.615 -0.0513 -2.3957 -0.6825
 2795SOL    HW220019   0.545   3.572   2.623  0.5922 -0.0868  0.0364
 2796SOL     OW20020   1.276   0.373  16.971  0.5067 -0.0758  0.1652
 2796SOL    HW120021   1.243   0.413  17.052 -4.2632 -2.0025 -0.8138
 2796SOL    HW220022   1.268   0.449  16.914 -2.8832  0.3335  1.1336
 2797SOL     OW20023   0.925   2.486  10.135 -0.2329  0.7291 -0.2728
 2797SOL    HW120024   0.858   2.424  10.107  3.2470 -2.4909 -1.3991
 2797SOL    HW220025   0.897   2.483  10.227  2.3025 -0.6940  0.4432
 2798SOL     OW20026   2.893   1.220   7.369  0.5093  0.0781 -0.0359
 2798SOL    HW120027   2.958   1.166   7.413 -1.4565 -2.2702  0.0158
 2798SOL    HW220028   2.941   1.281   7.313 -1.8600  0.5966 -1.5220
 2799SOL     OW20029   0.717   4.655   6.974 -0.0138 -0.0633 -0.0785
 2799SOL    HW120030   0.735   4.568   7.011 -0.7297 -0.0772  0.2285
 2799SOL    HW220031   0.625   4.658   6.999 -0.2332 -0.9551 -0.8051
 2800SOL     OW20032   3.835   1.542   8.161  0.5887 -0.8771  0.7488
 2800SOL    HW120033   3.868   1.454   8.144 -0.8538 -1.6085  1.7972
 2800SOL    HW220034   3.746   1.517   8.184 -0.4997  1.1373 -1.3255
 2801SOL     OW20035   1.521   0.259   8.712  0.0562 -0.0494  0.0495
 2801SOL    HW120036   1.556   0.302   8.790  0.9551 -3.8756  1.8051
 2801SOL    HW220037   1.600   0.223   8.671  0.7823  1.1349  0.4315
 2802SOL     OW20038   4.341   2.919  10.122 -0.2111 -0.5667 -0.0633
 2802SOL    HW120039   4.293   2.998  10.148 -1.4380 -0.8156 -1.5397
 2802SOL    HW220040   4.373   2.938  10.033  2.8892 -0.4265  1.0854
 2803SOL     OW20041   3.966   3.863   8.617 -0.2226 -0.2831  0.9985
 2803SOL    HW120042   4.036   3.805   8.648  1.1369  0.1906 -1.2268
 2803SOL    HW220043   3.990   3.905   8.535  0.9366 -1.5061  0.7022
 2804SOL     OW20044   4.435   3.633   7.279 -0.3122  0.0751  0.4296
 2804SOL    HW120045   4.411   3.692   7.208 -1.8981 -0.8802  0.1789
 2804SOL    HW220046   4.388   3.558   7.241 -1.0386  0.5572  0.3935
 2805SOL     OW20047   0.990   4.627  10.890 -0.6358  0.2652 -0.3220
 2805SOL    HW120048   1.030   4.609  10.975 -0.7804 -0.0732 -0.3252
 2805SOL    HW220049   0.900   4.624  10.923  0.2444  1.5148  2.2051
 2806SOL     OW20050   3.179   0.523  13.298 -0.5370  0.0107  0.4124
 2806SOL    HW120051   3.222   0.453  13.347 -1.0428 -2.3185 -2.4847
 2806SOL    HW220052   3.252   0.585  13.303  1.6444 -2.4844 -0.1810
 2807SOL     OW20053   2.624   2.865   4.232 -0.1543 -0.5384 -0.3796
 2807SOL    HW120054   2.712   2.847   4.265 -0.3955  2.9889  2.2185
 2807SOL    HW220055   2.625   2.961   4.222  1.7879 -0.5751 -0.5662
 2808SOL     OW20056   0.476   1.905   2.504  0.4687 -0.2771 -0.1328
 2808SOL    HW120057   0.571   1.893   2.493  0.2465 -1.5565 -0.6462
 2808SOL    HW220058   0.438   1.818   2.492  0.6692 -0.3232 -0.4423
 2809SOL     OW20059   3.317   0.303   5.962  0.1355 -0.1507 -0.2029
 2809SOL    HW120060   3.286   0.302   6.052 -0.5243  1.6229 -0.4189
 2809SOL    HW220061   3.237   0.319   5.913  0.1161 -0.1897 -0.1835
 2810SOL     OW20062   0.288   0.160  17.494 -0.5521  0.0720 -0.1356
 2810SOL    HW120063   0.249   0.118  17.570  0.8452  0.0234  0.5580
 2810SOL    HW220064   0.215   0.210  17.457 -0.5677  1.5596  1.9517
 2811SOL     OW20065   0.369   1.338   2.280  0.0293  0.0817  0.3832
 2811SOL    HW120066   0.317   1.416   2.264 -0.9666 -0.0398  2.9669
 2811SOL    HW220067   0.323   1.277   2.223 -0.8317  0.7597  0.3584
 2812SOL     OW20068   2.647   3.353  16.529 -0.3687  0.1622  0.0549
 2812SOL    HW120069   2.734   3.391  16.543 -0.4930  0.9381 -1.2730
 2812SOL    HW220070   2.596   3.426  16.495 -0.2182 -0.4094 -1.4232
 2813SOL     OW20071   2.433   1.132  14.499 -0.0583  0.5423  0.3514
 2813SOL    HW120072   2.445   1.093  14.586 -2.2433  0.7311  0.7416
 2813SOL    HW220073   2.358   1.188  14.520  0.4831  1.0422  0.9365
 2814SOL     OW20074   4.268   4.693   9.480 -0.4564 -0.2190 -0.2415
 2814SOL    HW120075   4.265   4.667   9.572 -0.2365  2.5663  0.5545
 2814SOL    HW220076   4.276   4.608   9.436 -2.1422 -0.8732  0.7091
 2815SOL     OW20077   2.640   0.429   6.220  0.0028 -0.1871 -0.6147
 2815SOL    HW120078   2.579   0.502   6.211 -1.8749 -1.5733  0.9632
 2815SOL    HW220079   2.595   0.382   6.290 -0.4141  2.3395  0.8095
 2816SOL     OW20080   3.896   0.730   5.494  0.7034 -0.0489 -0.1501
 2816SOL    HW120081   3.984   0.697   5.479  0.7239 -0.7003  1.4205
 2816SOL    HW220082   3.855   0.649   5.523  1.3974 -0.3637 -0.0510
 2817SOL     OW20083   0.260   3.289  11.775 -0.5154 -0.4326  0.2801
 2817SOL    HW120084   0.347   3.252  11.767 -0.7297 -0.7732 -0.4628
 2817SOL    HW220085   0.274   3.360  11.838  0.7220  0.9377 -1.5236
 2818SOL     OW20086   1.627   1.181   1.274 -0.5678 -0.2253  0.3046
 2818SOL    HW120087   1.616   1.136   1.191 -0.8883 -0.2954  0.3814
 2818SOL    HW220088   1.555   1.148   1.329 -0.0864 -0.8081  0.5808
 2819SOL     OW20089   1.412   0.594   4.938 -0.5265  0.0699 -0.3049
 2819SOL    HW120090   1.417   0.615   4.844  0.6273 -0.7978 -0.4329
 2819SOL    HW220091   1.318   0.607   4.952 -1.0814 -1.5773 -2.5683
 2820SOL     OW20092   4.707   1.276   4.569  0.1171  0.7408  0.1227
 2820SOL    HW120093   4.641   1.238   4.628  0.7017 -1.1966 -0.4839
 2820SOL    HW220094   0.028   1.201   4.550 -2.6441 -1.1771 -0.5014
 2821SOL     OW20095   2.409   0.421   9.591 -0.1727 -0.5381  1.1980
 2821SOL    HW120096   2.439   0.500   9.546 -0.6514 -0.8693  0.2905
 2821SOL    HW220097   2.367   0.379   9.516  0.5582  0.7477  0.0770
 2822SOL     OW20098   3.029   2.578   8.442 -0.0361  0.1773  0.1563
 2822SOL    HW120099   2.981   2.616   8.515 -1.5290 -3.4550  1.0882
 2822SOL    HW220100   3.014   2.643   8.373 -1.0584  0.7528  0.9094
 2823SOL     OW20101   2.388   3.099   6.709  0.1903  0.4856 -0.2459
 2823SOL    HW120102   2.459   3.150   6.746  2.4058 -0.7408 -2.7331
 2823SOL    HW220103   2.433   3.015   6.720 -0.3890  0.0713 -1.0242
 2824SOL     OW20104   0.057   0.843  16.183 -0.3748 -0.2571  0.2576
 2824SOL    HW120105   0.131   0.839  16.122  0.0844 -1.4273  0.8978
 2824SOL    HW220106   0.084   0.912  16.243  0.6264 -1.2405  0.9293
 2825SOL     OW20107   2.459   2.734   0.151  0.6570 -0.2479  0.2466
 2825SOL    HW120108   2.441   2.720   0.058 -1.0114 -2.0449  0.8485
 2825SOL    HW220109   2.370   2.764   0.167  1.3284  1.2812  1.1790
 2826SOL     OW20110   0.528   2.850   1.995  0.1860 -0.3488 -0.8503
 2826SOL    HW120111   0.516   2.858   2.089 -0.0196 -0.1038 -0.8980
 2826SOL    HW220112   0.515   2.755   1.990  0.3499 -0.2757 -2.9840
 2827SOL     OW20113   0.728   2.400   6.704  0.4121  0.3026 -0.3374
 2827SOL    HW120114   0.693   2.340   6.770 -1.5242 -2.1302 -3.5929
 2827SOL    HW220115   0.818   2.416   6.734 -0.8158  3.0988  1.8958
 2828SOL     OW20116   4.253   2.006   3.181 -0.2547 -0.4013 -0.4427
 2828SOL    HW120117   4.262   2.042   3.093  0.0051 -0.9584 -0.6455
 2828SOL    HW220118   4.325   2.055   3.221  0.4972 -0.2304 -2.0212
 2829SOL     OW20119   3.432   3.458   9.574  0.1651 -0.1931  0.2908
 2829SOL    HW120120   3.458   3.414   9.655  0.4846 -0.9895 -0.2524
 2829SOL    HW220121   3.489   3.422   9.506 -2.5849 -1.3523 -1.4265
 2830SOL     OW20122   0.609   3.200   7.146 -0.3379 -0.0265  0.3636
 2830SOL    HW120123   0.670   3.272   7.133  3.5007 -2.9466  2.1093
 2830SOL    HW220124   0.600   3.159   7.060 -2.1758 -0.6721  0.8695
 2831SOL     OW20125   0.213   3.870   6.223 -0.0991 -0.0128 -0.2734
 2831SOL    HW120126   0.192   3.798   6.163 -1.0864 -0.0345  0.0937
 2831SOL    HW220127   0.128   3.883   6.264 -0.0496  2.6564 -1.0193
 2832SOL     OW20128   2.909   2.094  15.185  0.0220  0.0176  0.0069
 2832SOL    HW120129   2.973   2.157  15.152 -0.0305 -0.6352 -1.3590
 2832SOL    HW220130   2.955   2.040  15.250 -0.8815  1.3478  1.7346
 2833SOL     OW20131   1.950   1.118   8.882 -0.8028 -0.1412 -1.0355
 2833SOL    HW120132   1.858   1.097   8.891 -0.4146 -0.5639  1.9126
 2833SOL    HW220133   1.986   1.029   8.891  0.7449  0.4632 -1.1651
 2834SOL     OW20134   1.808   0.501   3.448 -0.2639  0.1600 -0.0266
 2834SOL    HW120135   1.879   0.472   3.505 -0.9871 -0.1043  0.7361
 2834SOL    HW220136   1.795   0.596   3.452 -0.2090  0.1178  1.0980
 2835SOL     OW20137   2.107   4.503   3.141  0.1625  0.1226 -0.1887
 2835SOL    HW120138   2.125   4.586   3.186  1.2385 -0.6903  0.8867
 2835SOL    HW220139   2.098   4.452   3.221 -1.0737 -0.8407 -0.9458
 2836SOL     OW20140   0.026   3.586   6.629 -0.7837  0.6791  0.3513
 2836SOL    HW120141   4.683   3.622   6.670 -1.6652  0.2292 -0.9310
 2836SOL    HW220142   0.050   3.527   6.700 -1.8696  1.1274  1.0848
 2837SOL     OW20143   1.180   2.045   6.047  0.5086 -0.0446  0.1894
 2837SOL    HW120144   1.235   1.969   6.068  0.3853 -0.1248  0.2235
 2837SOL    HW220145   1.198   2.072   5.957  1.9015 -0.5811  0.2997
 2838SOL     OW20146   2.811   4.683   3.573 -0.0724  0.1637 -0.7575
 2838SOL    HW120147   2.869   4.607   3.577 -2.4632 -1.5004  1.9844
 2838SOL    HW220148   2.804   4.691   3.478  0.4878  3.7569 -0.4797
 2839SOL     OW20149   4.359   1.320   4.386 -0.2608 -0.4197 -0.4099
 2839SOL    HW120150   4.344   1.401   4.434  0.7742 -0.3837 -0.1470
 2839SOL    HW220151   4.268   1.303   4.364 -0.7030 -1.7939  2.4690
 2840SOL     OW20152   2.392   1.395   0.398  0.7320 -0.0788  0.1801
 2840SOL    HW120153   2.418   1.485   0.383 -0.8455  0.3542  0.0140
 2840SOL    HW220154   2.297   1.399   0.409  0.7938 -0.7167  1.0065
 2841SOL     OW20155   2.402   3.418  14.495 -0.4422 -0.2441  0.3670
 2841SOL    HW120156   2.316   3.377  14.492 -0.1627 -0.9399  2.3034
 2841SOL    HW220157   2.386   3.511  14.514 -0.0846 -0.0484 -0.2873
 2842SOL     OW20158   0.512   2.847   2.986 -0.4791  0.2178  0.3357
 2842SOL    HW120159   0.518   2.763   3.031 -1.4419 -0.1238 -0.1902
 2842SOL    HW220160   0.601   2.851   2.950 -0.6213  2.1718  0.2309
 2843SOL     OW20161   2.435   1.216   8.805 -0.3759 -0.4611  0.1922
 2843SOL    HW120162   2.473   1.236   8.890  0.3608  0.6799 -0.4020
 2843SOL    HW220163   2.417   1.124   8.821 -1.2476 -0.0779  1.3817
 2844SOL     OW20164   4.120   2.118   2.490 -0.1051 -0.5883 -0.3120
 2844SOL    HW120165   4.045   2.070   2.525  1.3021 -0.1859  3.2889
 2844SOL    HW220166   4.076   2.188   2.443 -1.6424 -0.3284  1.5248
 2845SOL     OW20167   2.503   3.489   3.666 -0.2239  0.4517  0.8956
 2845SOL    HW120168   2.539   3.428   3.602  1.9235  0.4943  2.0990
 2845SOL    HW220169   2.538   3.571   3.630 -0.3036  0.5379  1.0124
 2846SOL     OW20170   2.069   2.956   3.369 -0.6751 -0.0923  0.3509
 2846SOL    HW120171   2.024   2.994   3.444 -0.1225  0.8165  0.2311
 2846SOL    HW220172   2.063   3.021   3.298 -2.1723  0.5753  1.0919
 2847SOL     OW20173   1.459   1.699   5.717  0.1023 -0.0380 -0.2667
 2847SOL    HW120174   1.498   1.652   5.643 -0.8198  0.2570 -0.9487
 2847SOL    HW220175   1.430   1.631   5.776 -0.5392  2.1225  1.9018
 2848SOL     OW20176   0.578   0.800  10.561  0.1359  0.7024 -0.2216
 2848SOL    HW120177   0.638   0.735  10.523 -0.9289 -0.6523  0.4397
 2848SOL    HW220178   0.581   0.870  10.496  2.8100  1.0483  0.2740
 2849SOL     OW20179   0.310   0.648  12.385 -0.5688 -0.3983  0.0728
 2849SOL    HW120180   0.339   0.716  12.324 -2.6732  0.7421  0.3462
 2849SOL    HW220181   0.367   0.573  12.369 -1.4208 -1.2504  1.0098
 2850SOL     OW20182   3.540   0.828   4.613 -0.1071  0.2913 -0.2651
 2850SOL    HW120183   3.590   0.753   4.580 -0.1263  0.2954 -0.3040
 2850SOL    HW220184   3.472   0.851   4.550 -1.7576 -0.9609  1.0867
 2851SOL     OW20185   1.916   1.793   5.049 -0.1489 -0.1550 -0.0628
 2851SOL    HW120186   1.949   1.882   5.035 -0.5776  0.0739  0.3877
 2851SOL    HW220187   1.841   1.818   5.103 -0.7327 -2.6695  0.2922
 2852SOL     OW20188   3.648   2.511  10.385 -0.3589  0.0970 -0.3335
 2852SOL    HW120189   3.584   2.568  10.343  0.4996  1.7776  0.6192
 2852SOL    HW220190   3.722   2.569  10.367 -0.0387  0.5007  2.1811
 2853SOL     OW20191   3.445   1.999   4.910  0.2691 -0.4886  0.0701
 2853SOL    HW120192   3.402   2.077   4.876  0.5599  0.3122  1.5311
 2853SOL    HW220193   3.432   1.935   4.840  1.8398 -1.7651  0.9170
 2854SOL     OW20194   4.190   0.659   9.835  0.7841  0.3306  0.2423
 2854SOL    HW120195   4.114   0.625   9.788 -0.4336 -0.5139  2.8391
 2854SOL    HW220196   4.156   0.721   9.900  0.0778  0.5771 -0.3657
 2855SOL     OW20197   0.859   3.348   9.087  0.1598  0.3922  0.5743
 2855SOL    HW120198   0.886   3.307   9.169  1.5085 -0.5807 -0.3661
 2855SOL    HW220199   0.946   3.364   9.051 -0.7320 -1.7182 -2.4899
 2856SOL     OW20200   2.865   1.714  16.778  0.2880  0.0315 -0.0900
 2856SOL    HW120201   2.923   1.782  16.744 -1.1161  0.6625 -1.2689
 2856SOL    HW220202   2.805   1.698  16.706 -1.1497  0.2718  1.0482
 2857SOL     OW20203   1.385   1.314   3.229  0.3157 -0.1368  0.2649
 2857SOL    HW120204   1.407   1.231   3.271 -2.0918 -0.6768  0.4424
 2857SOL    HW220205   1.314   1.281   3.175  2.4163 -2.1774 -1.2923
 2858SOL     OW20206   0.949   4.308   1.675 -0.3506 -0.4752  0.4373
 2858SOL    HW120207   1.038   4.273   1.681  0.0844  1.0930  3.4543
 2858SOL    HW220208   0.958   4.342   1.586 -2.1828  0.0203  0.4483
 2859SOL     OW20209   1.830   0.825   3.442 -0.0832  0.7019  0.3813
 2859SOL    HW120210   1.746   0.850   3.480  0.2744 -1.0963  2.3511
 2859SOL    HW220211   1.889   0.895   3.470 -0.3324  2.1249 -2.5982
 2860SOL     OW20212   2.709   1.126   4.696 -0.3114  0.5144  0.1430
 2860SOL    HW120213   2.791   1.090   4.664 -0.6240 -0.9134  0.9064
 2860SOL    HW220214   2.729   1.156   4.785 -2.4542 -1.5772  1.3592
 2861SOL     OW20215   2.918   3.472   2.375 -0.3746 -0.0801  0.2229
 2861SOL    HW120216   2.956   3.535   2.314  0.9748 -0.9785  0.1585
 2861SOL    HW220217   2.836   3.517   2.397 -0.1507 -0.3426  1.5926
 2862SOL     OW20218   3.411   4.203   0.756  0.2438 -0.2067  0.1800
 2862SOL    HW120219   3.472   4.173   0.824 -1.4018  1.7026  2.5208
 2862SOL    HW220220   3.341   4.148   0.791  0.2848  0.5132  1.4108
 2863SOL     OW20221   3.719   4.034   6.567  0.2709  0.2660  0.1785
 2863SOL    HW120222   3.626   4.024   6.549 -0.0341 -1.1037  2.5058
 2863SOL    HW220223   3.711   4.093   6.642  1.8981 -0.9219  1.2866
 2864SOL     OW20224   1.470   1.161   1.553  0.3209  0.3864 -1.0560
 2864SOL    HW120225   1.525   1.239   1.544  0.2290  0.6159  0.3526
 2864SOL    HW220226   1.501   1.130   1.638 -1.5693  1.6024  0.0777
 2865SOL     OW20227   2.434   2.972   2.795  0.4473  0.0165  0.5268
 2865SOL    HW120228   2.479   2.906   2.848  1.0844  0.3759  0.4341
 2865SOL    HW220229   2.428   3.047   2.853  2.4335  0.5980 -0.0222
 2866SOL     OW20230   3.774   3.133   6.556  0.1471  1.0842  0.1144
 2866SOL    HW120231   3.822   3.214   6.569  2.5020  0.1058 -2.5880
 2866SOL    HW220232   3.749   3.146   6.465  2.1863 -2.5687 -0.9710
 2867SOL     OW20233   0.014   1.162   8.926 -0.1096  0.2583  0.7194
 2867SOL    HW120234   0.008   1.176   8.832 -1.8100 -0.7252  0.6832
 2867SOL    HW220235   4.676   1.103   8.942  0.0353  0.1758  1.0748
 2868SOL     OW20236   4.190   4.439   0.597 -0.1548 -0.2192 -0.8306
 2868SOL    HW120237   4.164   4.523   0.559 -0.4643  2.1534  4.5089
 2868SOL    HW220238   4.200   4.384   0.519 -1.1777 -0.4621 -0.7853
 2869SOL     OW20239   0.918   2.052   7.295  0.4473  0.1554  0.5568
 2869SOL    HW120240   0.942   2.125   7.351  0.7641  0.5436 -0.0861
 2869SOL    HW220241   1.002   2.027   7.255  0.9729  0.9232  1.1852
 2870SOL     OW20242   3.820   1.901   8.692  0.4795 -0.6473 -0.0992
 2870SOL    HW120243   3.767   1.848   8.751 -1.0612 -0.7225 -1.5691
 2870SOL    HW220244   3.758   1.972   8.680  2.2855  0.6332 -1.9984
 2871SOL     OW20245   4.276   1.223   7.833  0.6539 -0.5557  0.0945
 2871SOL    HW120246   4.230   1.182   7.760 -0.2676 -2.7708  1.8988
 2871SOL    HW220247   4.245   1.314   7.834 -2.7415 -1.7173  1.0844
 2872SOL     OW20248   2.794   3.427   4.038  0.0200 -0.1463 -0.2062
 2872SOL    HW120249   2.744   3.427   3.956  0.6337 -0.1935 -0.5882
 2872SOL    HW220250   2.726   3.414   4.104 -2.1852 -2.0285 -2.8388
 2873SOL     OW20251   1.805   0.197  15.750  0.7631 -0.5902  0.0131
 2873SOL    HW120252   1.858   0.217  15.828 -0.8491  1.6679  0.5395
 2873SOL    HW220253   1.868   0.162  15.688  0.8824  0.5475 -0.5128
 2874SOL     OW20254   1.387   3.774  16.556  0.2901  0.1158  0.3578
 2874SOL    HW120255   1.373   3.681  16.574 -0.7703  0.2172  0.0545
 2874SOL    HW220256   1.347   3.812  16.635  1.1026  1.9636 -0.1149
 2875SOL     OW20257   3.011   3.183   3.679 -0.2505 -0.0663 -0.1807
 2875SOL    HW120258   3.101   3.180   3.648  0.3370  0.3357  1.4714
 2875SOL    HW220259   3.016   3.247   3.750 -0.0386  0.5099 -0.7159
 2876SOL     OW20260   0.992   2.098   6.509 -0.0291 -0.3507  0.0999
 2876SOL    HW120261   0.945   2.181   6.504 -0.9977 -0.8590  0.7444
 2876SOL    HW220262   0.946   2.058   6.583 -0.5970  0.0571 -0.0312
 2877SOL     OW20263   0.111   4.719   6.434  0.2121  0.6920 -0.3019
 2877SOL    HW120264   0.048   4.687   6.499  1.3506  2.1208  1.5024
 2877SOL    HW220265   0.191   4.707   6.485  0.0786  0.7028 -0.0859
 2878SOL     OW20266   0.319   4.252   1.740 -0.4458 -0.1241 -0.4588
 2878SOL    HW120267   0.351   4.256   1.830 -0.8340 -0.2263 -0.3165
 2878SOL    HW220268   0.253   4.183   1.747 -2.5322  1.9040 -0.1505
 2879SOL     OW20269   1.596   4.114   9.054 -0.1391 -0.2339  1.0948
 2879SOL    HW120270   1.543   4.036   9.067  0.8029 -0.9815  0.4416
 2879SOL    HW220271   1.686   4.087   9.070  0.7668  2.4854  0.6030
 2880SOL     OW20272   3.769   4.639   2.799  0.2241  0.0660 -0.0347
 2880SOL    HW120273   3.860   4.621   2.775  0.1509 -1.4893  0.9042
 2880SOL    HW220274   3.767   4.667   2.891 -0.3177 -1.8917  0.5426
 2881SOL     OW20275   3.626   1.585   3.058 -0.2164  0.2616 -0.0936
 2881SOL    HW120276   3.625   1.670   3.014 -1.5904  1.2919  1.9301
 2881SOL    HW220277   3.545   1.596   3.108  0.5338 -2.1458  1.6747
 2882SOL     OW20278   0.858   2.283  12.719  0.0796  0.5428 -0.0066
 2882SOL    HW120279   0.917   2.346  12.677  0.3979 -0.5201 -1.1735
 2882SOL    HW220280   0.809   2.334  12.783  0.0686  1.0245 -0.3931
 2883SOL     OW20281   3.685   1.863  17.322  0.4550 -0.3101 -0.0382
 2883SOL    HW120282   3.733   1.933  17.365 -0.0520  1.1247 -1.7917
 2883SOL    HW220283   3.703   1.887  17.231  2.0156  3.1707  1.1887
 2884SOL     OW20284   0.679   0.276   2.057 -0.4002  0.2293  0.4458
 2884SOL    HW120285   0.772   0.257   2.069 -1.0458 -2.5751  1.0506
 2884SOL    HW220286   0.639   0.194   2.028 -0.9596 -0.2732  2.6565
 2885SOL     OW20287   3.058   1.832  17.158 -0.3668  0.2623  0.6465
 2885SOL    HW120288   3.121   1.770  17.195 -0.1228 -0.6148 -1.2545
 2885SOL    HW220289   3.093   1.915  17.189  0.2094  0.1958  0.1611
 2886SOL     OW20290   3.984   0.352   8.696  0.3055 -0.3976  0.3095
 2886SOL    HW120291   3.925   0.340   8.770 -0.3382 -3.3483 -0.7022
 2886SOL    HW220292   4.068   0.350   8.744  0.3202  1.1903  0.3654
 2887SOL     OW20293   1.283   4.446   5.158  0.0023 -0.0483 -0.1684
 2887SOL    HW120294   1.270   4.406   5.244 -0.2131  1.9514  0.7122
 2887SOL    HW220295   1.379   4.442   5.158 -0.0407 -1.1083  1.3337
 2888SOL     OW20296   1.959   3.654   2.741  0.5272 -0.5480 -0.1363
 2888SOL    HW120297   1.994   3.690   2.823 -0.1840 -1.2108  0.4620
 2888SOL    HW220298   1.880   3.704   2.720 -1.0660 -2.4266  1.4238
 2889SOL     OW20299   0.267   4.576  10.746  0.0505  0.2427 -0.3550
 2889SOL    HW120300   0.210   4.547  10.675 -2.1427  0.7066  1.2441
 2889SOL    HW220301   0.240   4.668  10.751  2.8442  1.1156 -1.1599
 2890SOL     OW20302   1.688   0.585   4.300  0.2538  0.0347  0.2257
 2890SOL    HW120303   1.693   0.544   4.214  1.5426  1.1654 -0.2423
 2890SOL    HW220304   1.657   0.673   4.276  0.0799  0.1587  0.8965
 2891SOL     OW20305   4.044   0.670  15.186  0.2254 -0.3867 -0.4909
 2891SOL    HW120306   3.995   0.694  15.107 -0.3713 -1.3767 -0.4322
 2891SOL    HW220307   3.984   0.711  15.248  2.0130  0.5086  0.6357
 2892SOL     OW20308   1.387   4.290   9.433  0.6139 -0.0771 -0.1731
 2892SOL    HW120309   1.423   4.336   9.509  3.4700 -0.2417 -1.4331
 2892SOL    HW220310   1.304   4.337   9.422 -0.4815 -1.4509  2.3746
 2893SOL     OW20311   0.493   2.561   6.649  0.2342  0.3444  0.0584
 2893SOL    HW120312   0.580   2.539   6.683 -0.7202 -2.1346  0.9003
 2893SOL    HW220313   0.483   2.647   6.691  0.4707  0.9899 -1.1877
 2894SOL     OW20314   1.753   2.637   8.173  0.2722 -0.2630  0.3320
 2894SOL    HW120315   1.728   2.679   8.090  0.1812 -1.0782 -0.0572
 2894SOL    HW220316   1.794   2.704   8.227  1.0465  1.0649 -1.8684
 2895SOL     OW20317   1.723   4.522   0.485 -0.7063 -0.1469 -0.4216
 2895SOL    HW120318   1.775   4.576   0.545  1.4278 -3.0770  0.3874
 2895SOL    HW220319   1.760   4.550   0.401 -0.5524 -1.1963 -0.6995
 2896SOL     OW20320   4.327   2.813   0.165  0.8613  0.2154  0.2782
 2896SOL    HW120321   4.421   2.829   0.166  0.5939  1.6969  1.5313
 2896SOL    HW220322   4.300   2.857   0.245 -0.8084 -0.6783  0.2149
 2897SOL     OW20323   2.229   4.150  10.525  0.1130  0.1130  0.6304
 2897SOL    HW120324   2.220   4.211  10.598 -1.8183 -0.6993  1.0690
 2897SOL    HW220325   2.173   4.077  10.551  2.2854 -1.5432  0.7176
 2898SOL     OW20326   2.926   4.206   3.538  0.6943 -0.1665  0.0332
 2898SOL    HW120327   2.905   4.222   3.629 -0.9025 -0.0060 -0.3602
 2898SOL    HW220328   2.878   4.281   3.503  0.6914  0.2805  1.0006
 2899SOL     OW20329   2.467   0.406   3.766 -0.4013  0.2402 -0.5816
 2899SOL    HW120330   2.471   0.500   3.746  1.1389  0.5109  1.0170
 2899SOL    HW220331   2.559   0.379   3.767  0.2043  2.3244  1.0732
 2900SOL     OW20332   2.414   1.601   3.480 -0.9572  0.1045 -0.0083
 2900SOL    HW120333   2.476   1.623   3.549  0.5149  1.1236 -1.6563
 2900SOL    HW220334   2.392   1.690   3.453  0.0947  0.1219 -0.7882
 2901SOL     OW20335   4.360   1.711   8.691 -0.4714  0.3888 -0.1418
 2901SOL    HW120336   4.384   1.667   8.610  2.1275 -2.1102  1.9459
 2901SOL    HW220337   4.371   1.805   8.680 -0.6271  0.4443  0.1626
 2902SOL     OW20338   2.054   0.622   2.215 -0.2409 -0.6543 -0.7389
 2902SOL    HW120339   2.045   0.565   2.139  0.7245 -0.6398 -0.8572
 2902SOL    HW220340   2.026   0.563   2.285  0.8136 -1.7454 -1.2386
 2903SOL     OW20341   0.817   0.578   7.601  0.3122  0.1841 -0.3271
 2903SOL    HW120342   0.782   0.656   7.644 -1.1247  1.2498 -3.3946
 2903SOL    HW220343   0.900   0.607   7.564  0.3777  2.2400  1.4437
 2904SOL     OW20344   2.196   1.714  13.814 -0.5982  0.1901  0.1582
 2904SOL    HW120345   2.208   1.795  13.765  1.6683 -0.6964 -0.7677
 2904SOL    HW220346   2.108   1.685  13.788  0.1038 -2.0586  0.3109
 2905SOL     OW20347   4.101   2.419   4.119  0.0742  0.0666 -0.0214
 2905SOL    HW120348   4.037   2.487   4.098 -0.2259  0.3657  1.8049
 2905SOL    HW220349   4.119   2.390   4.030  1.1932 -2.5075  1.0569
 2906SOL     OW20350   3.069   4.670   5.602  0.5912 -0.3294  0.3145
 2906SOL    HW120351   3.072   4.582   5.637 -1.0295  1.0093  3.7497
 2906SOL    HW220352   3.023   4.719   5.669  0.4698  0.0391 -0.0339
 2907SOL     OW20353   1.213   1.830   8.663  0.0564 -0.5955 -0.0481
 2907SOL    HW120354   1.284   1.795   8.610 -0.7525 -1.0843 -0.8164
 2907SOL    HW220355   1.125   1.814   8.627 -0.4434  1.3016  0.3122
 2908SOL     OW20356   3.012   0.339  14.810 -0.2693 -0.3861 -0.3753
 2908SOL    HW120357   3.061   0.416  14.780  0.0406 -0.5710 -0.3429
 2908SOL    HW220358   2.972   0.313  14.727  0.7351  0.5321 -1.1471
 2909SOL     OW20359   1.615   0.728   6.007 -0.0502  0.2128 -0.2907
 2909SOL    HW120360   1.611   0.811   6.053 -0.1709  0.8325 -1.4335
 2909SOL    HW220361   1.680   0.729   5.938  0.0223  0.1049 -0.2250
 2910SOL     OW20362   3.134   0.782   0.493 -0.6993  1.2666 -0.7436
 2910SOL    HW120363   3.060   0.830   0.529  0.9523  1.0357  2.9422
 2910SOL    HW220364   3.095   0.695   0.482 -0.5898  0.7117  3.4193
 2911SOL     OW20365   1.832   3.844  15.938  0.1753 -0.6555  0.0142
 2911SOL    HW120366   1.832   3.769  15.878 -1.3103 -0.9919  0.4385
 2911SOL    HW220367   1.858   3.806  16.022  0.7127 -0.1095  0.0973
 2912SOL     OW20368   4.631   3.624   7.433  0.3988 -0.0878  0.0454
 2912SOL    HW120369   4.667   3.549   7.386 -1.1878 -1.0435  0.3663
 2912SOL    HW220370   4.544   3.632   7.393 -0.4113 -0.3196  1.7917
 2913SOL     OW20371   1.989   0.238   6.248  0.3267  0.0511  0.1154
 2913SOL    HW120372   2.062   0.265   6.192  1.9159 -0.8641  1.7294
 2913SOL    HW220373   1.938   0.319   6.244  0.9556  0.4679  0.5100
 2914SOL     OW20374   2.709   0.223   9.559  0.1295  0.4129 -0.5114
 2914SOL    HW120375   2.615   0.210   9.548 -0.0928 -0.2645  2.0648
 2914SOL    HW220376   2.740   0.275   9.485 -1.5517  0.6625 -1.0430
 2915SOL     OW20377   4.201   0.440   7.473  0.5111  0.1835  0.4354
 2915SOL    HW120378   4.111   0.454   7.503  0.6987 -2.1418  2.0852
 2915SOL    HW220379   4.218   0.512   7.412  2.4961  0.4728  1.3522
 2916SOL     OW20380   1.966   0.811   1.866  0.2303 -0.1055  0.1041
 2916SOL    HW120381   1.997   0.871   1.798  1.0225  0.9474  1.4014
 2916SOL    HW220382   1.881   0.847   1.889  0.1832 -0.1220 -0.0474
 2917SOL     OW20383   4.580   3.385   5.298  0.4968 -0.5879 -0.6192
 2917SOL    HW120384   4.519   3.330   5.347  0.2345  0.2223 -0.0364
 2917SOL    HW220385   4.529   3.427   5.229  3.3708  2.1937 -1.0425
 2918SOL     OW20386   3.429   1.917  10.730 -0.3836  0.5450 -0.3224
 2918SOL    HW120387   3.483   1.854  10.778 -0.1645 -0.2540 -1.6155
 2918SOL    HW220388   3.492   1.986  10.713 -0.5254  0.6610 -0.3741
 2919SOL     OW20389   2.713   1.645  14.884  0.0911  0.5235 -0.4105
 2919SOL    HW120390   2.687   1.680  14.969  2.7114  0.3358  0.4609
 2919SOL    HW220391   2.650   1.681  14.822  0.6633  0.7523 -0.8652
 2920SOL     OW20392   3.965   4.550   6.082 -0.0674  0.5519 -0.6661
 2920SOL    HW120393   3.888   4.584   6.128 -1.3956 -0.4218 -2.1678
 2920SOL    HW220394   3.949   4.457   6.096  1.1732  0.7266  2.0185
 2921SOL     OW20395   2.664   4.359   2.573  0.0283 -0.2317 -0.0521
 2921SOL    HW120396   2.649   4.319   2.659  2.7028 -0.2448  0.4192
 2921SOL    HW220397   2.753   4.328   2.556 -0.3581  0.4247 -3.2668
 2922SOL     OW20398   3.729   2.540   2.820  0.1658  0.3385  0.4793
 2922SOL    HW120399   3.747   2.563   2.729  0.4472 -2.2149 -0.1187
 2922SOL    HW220400   3.649   2.591   2.834 -0.2937 -0.4467  0.7428
 2923SOL     OW20401   2.004   1.812  17.719  0.3064  0.1975  0.0166
 2923SOL    HW120402   2.052   1.757  17.657 -0.6495 -1.4119  0.7290
 2923SOL    HW220403   2.045   1.896  17.699 -0.3155  0.4012 -0.4030
 2924SOL     OW20404   0.562   3.917   8.083 -0.0730  0.2800  0.1828
 2924SOL    HW120405   0.485   3.861   8.086  0.4802 -0.5537 -1.2100
 2924SOL    HW220406   0.623   3.869   8.138 -0.6336 -1.9736 -1.1644
 2925SOL     OW20407   2.206   3.217   5.775 -0.6277  0.1322 -0.6210
 2925SOL    HW120408   2.185   3.200   5.684  1.2860 -1.5359 -0.7604
 2925SOL    HW220409   2.200   3.312   5.789 -0.7884  0.4608 -3.0157
 2926SOL     OW20410   2.195   0.030   5.741  0.0990 -0.4023 -0.2898
 2926SOL    HW120411   2.159   0.066   5.660  0.5897 -0.0738 -0.3633
 2926SOL    HW220412   2.117   0.002   5.788 -0.2459  2.5424  0.9600
 2927SOL     OW20413   4.707   0.962  15.235  0.4513  0.1008 -0.2396
 2927SOL    HW120414   4.646   0.901  15.277 -0.7638  1.2359 -0.3421
 2927SOL    HW220415   0.050   0.918  15.268  0.3581  1.4714  1.8108
 2928SOL     OW20416   4.629   2.861   6.071  0.0336 -1.0241 -0.0765
 2928SOL    HW120417   4.579   2.779   6.077 -0.9010 -0.4887 -0.6085
 2928SOL    HW220418   4.710   2.844   6.119  0.2551  0.0292 -0.0743
 2929SOL     OW20419   4.496   4.354   1.297  0.2707 -0.6933 -0.0717
 2929SOL    HW120420   4.439   4.300   1.242  0.3407  0.9387 -1.7627
 2929SOL    HW220421   4.436   4.423   1.327  1.7545  0.8364 -0.6273
 2930SOL     OW20422   2.918   1.547  12.672 -0.4001  1.3424  1.0611
 2930SOL    HW120423   2.835   1.594  12.682  1.1490  4.3362  0.0906
 2930SOL    HW220424   2.927   1.479  12.739  0.4631  1.6685  1.2823
 2931SOL     OW20425   3.697   0.113   9.798  0.3491 -0.4315  0.1930
 2931SOL    HW120426   3.655   0.052   9.738  0.6016 -1.2743  0.8818
 2931SOL    HW220427   3.616   0.148   9.836 -0.3072 -1.5356 -0.1992
 2932SOL     OW20428   1.011   0.883  10.929 -0.4114 -0.5594  0.0892
 2932SOL    HW120429   0.949   0.910  10.861  0.2195 -0.4596 -0.4511
 2932SOL    HW220430   1.040   0.795  10.904  2.7856  0.2941  0.7956
 2933SOL     OW20431   2.219   4.187   9.119  0.1745 -0.3290  0.2990
 2933SOL    HW120432   2.126   4.202   9.132 -0.2009 -0.1112 -2.7107
 2933SOL    HW220433   2.253   4.276   9.110 -2.6260  0.4639 -2.4058
 2934SOL     OW20434   3.202   4.252   2.077  0.2572  0.3050 -0.0459
 2934SOL    HW120435   3.182   4.289   1.991 -0.6508  3.9628  1.7280
 2934SOL    HW220436   3.131   4.294   2.125  0.1741  0.4788 -0.3212
 2935SOL     OW20437   2.582   1.323   7.892 -0.0564 -0.2544 -0.2352
 2935SOL    HW120438   2.621   1.350   7.975 -1.2920 -1.5433  0.7794
 2935SOL    HW220439   2.540   1.240   7.917 -2.6052  1.0823 -0.0716
 2936SOL     OW20440   2.118   2.764  15.692 -0.3667  0.3221 -0.1480
 2936SOL    HW120441   2.026   2.787  15.696 -0.7470 -0.7725 -2.7678
 2936SOL    HW220442   2.107   2.670  15.705 -2.9340  0.5174 -0.9752
 2937SOL     OW20443   1.996   0.573   6.606 -0.7665  0.6800  0.7626
 2937SOL    HW120444   1.928   0.601   6.545 -2.0551 -3.3770  0.3413
 2937SOL    HW220445   1.953   0.509   6.663  0.3926  0.4974  1.4447
 2938SOL     OW20446   0.111   3.238   3.504  0.3976 -0.2807  0.1511
 2938SOL    HW120447   0.109   3.236   3.599  1.3628  1.0273  0.1924
 2938SOL    HW220448   0.025   3.278   3.499  1.3597  1.7148 -0.2788
 2939SOL     OW20449   3.840   2.639   0.589  0.2017 -0.3781  0.0551
 2939SOL    HW120450   3.914   2.671   0.537 -0.9644  1.5523 -0.4401
 2939SOL    HW220451   3.819   2.720   0.637 -0.7302  0.2868 -1.4620
 2940SOL     OW20452   3.590   1.070   2.999 -0.1083 -0.1657 -0.1306
 2940SOL    HW120453   3.536   1.147   2.982 -0.5845 -0.5018 -0.1588
 2940SOL    HW220454   3.568   1.058   3.091  0.4315 -0.1635 -0.0011
 2941SOL     OW20455   1.914   0.930   7.102  0.1180  0.3090  0.0112
 2941SOL    HW120456   1.996   0.950   7.147  1.4202  0.1829 -2.2776
 2941SOL    HW220457   1.861   0.929   7.181  0.7572 -0.9598  0.4299
 2942SOL     OW20458   2.266   0.399  10.752  0.3305  0.5902 -0.2478
 2942SOL    HW120459   2.203   0.459  10.793 -0.8441 -2.0069  1.7236
 2942SOL    HW220460   2.255   0.324  10.810  0.0749  1.4340  0.8071
 2943SOL     OW20461   3.926   2.235   8.234  0.6239  0.0871  0.3270
 2943SOL    HW120462   3.979   2.216   8.311  0.5823  1.2319  0.6314
 2943SOL    HW220463   3.851   2.181   8.259  1.8539 -0.5035  2.7485
 2944SOL     OW20464   3.571   2.433  14.865 -0.0856 -0.1703 -0.1804
 2944SOL    HW120465   3.605   2.488  14.795 -0.5910 -0.1030 -0.3654
 2944SOL    HW220466   3.478   2.441  14.848  0.0150  0.3285 -0.4821
 2945SOL     OW20467   4.564   4.262   9.994  0.2965  0.2976 -0.7064
 2945SOL    HW120468   4.501   4.327  10.025 -1.7637 -1.1322 -1.8752
 2945SOL    HW220469   4.645   4.313   9.998  0.5566 -0.2323  0.8730
 2946SOL     OW20470   1.050   1.633   1.927 -0.5147  0.1596  0.1867
 2946SOL    HW120471   0.967   1.650   1.972 -1.5857 -0.2863 -1.5897
 2946SOL    HW220472   1.092   1.571   1.986 -0.3778 -0.4418 -0.5317
 2947SOL     OW20473   3.469   3.643  15.629  0.0970  0.5542 -0.5012
 2947SOL    HW120474   3.562   3.631  15.612 -0.1885 -1.5730 -0.5620
 2947SOL    HW220475   3.448   3.672  15.540  2.3635 -0.4378 -1.3530
 2948SOL     OW20476   3.917   1.525   8.749  0.0652  0.2451 -0.0292
 2948SOL    HW120477   3.892   1.534   8.657 -0.9585  0.8572  0.3196
 2948SOL    HW220478   3.945   1.613   8.773  3.5085 -1.1298  0.9494
 2949SOL     OW20479   3.275   1.425  14.975 -0.6487  0.0429  0.0627
 2949SOL    HW120480   3.297   1.491  14.910 -2.2472  0.6178  0.1044
 2949SOL    HW220481   3.345   1.359  14.972 -0.5419  0.2217 -1.7729
 2950SOL     OW20482   0.864   2.237   2.862  0.2697  0.0010 -0.0479
 2950SOL    HW120483   0.801   2.309   2.867 -0.9281 -0.9413 -1.6160
 2950SOL    HW220484   0.885   2.238   2.769  1.5397  0.0932  0.2433
 2951SOL     OW20485   1.671   0.591   2.878 -0.9588 -0.5039  0.1071
 2951SOL    HW120486   1.678   0.681   2.910 -0.2406  0.5602 -3.0553
 2951SOL    HW220487   1.581   0.593   2.846 -1.0141 -1.4182  0.2048
 2952SOL     OW20488   0.478   1.737   6.225  0.1395 -0.3370  0.2126
 2952SOL    HW120489   0.555   1.779   6.185 -1.4660  0.5919 -1.9317
 2952SOL    HW220490   0.491   1.771   6.313  0.2374  0.5675 -0.1482
 2953SOL     OW20491   3.970   1.928   3.135  0.1431 -0.1985  0.3534
 2953SOL    HW120492   3.968   2.024   3.139  1.1029 -0.1699  0.2089
 2953SOL    HW220493   4.060   1.912   3.164  0.8523  3.2578  0.1055
 2954SOL     OW20494   3.123   4.169  14.578  0.1595  0.2626  0.4833
 2954SOL    HW120495   3.060   4.220  14.629  1.1610 -0.2720  2.2729
 2954SOL    HW220496   3.088   4.167  14.489  0.0412  0.5674  0.5246
 2955SOL     OW20497   4.006   2.597   9.771 -0.1870  0.4846 -0.3978
 2955SOL    HW120498   4.064   2.530   9.736  0.2883  2.2179 -2.9270
 2955SOL    HW220499   3.981   2.551   9.851  0.8846  1.8159  0.7086
 2956SOL     OW20500   0.532   2.930   5.558 -0.0089  0.1432 -0.1637
 2956SOL    HW120501   0.493   2.857   5.607 -0.8814  0.5730 -0.2266
 2956SOL    HW220502   0.510   2.908   5.467 -1.0666  1.2912 -0.1704
 2957SOL     OW20503   3.201   1.693   8.406 -0.6219  0.3070  0.4108
 2957SOL    HW120504   3.120   1.670   8.361 -1.0028  1.2996  0.5983
 2957SOL    HW220505   3.187   1.653   8.492 -0.3897 -0.0895  0.2668
 2958SOL     OW20506   0.051   3.268   4.292  0.1571  0.0038 -0.2724
 2958SOL    HW120507   0.062   3.319   4.372  1.3652  1.2778 -1.2266
 2958SOL    HW220508   4.716   3.322   4.256  1.0723 -0.0545 -2.1540
 2959SOL     OW20509   2.052   1.219   6.148  0.3787 -0.0113 -0.2452
 2959SOL    HW120510   2.051   1.313   6.131  3.4306  0.1324  0.3184
 2959SOL    HW220511   2.029   1.217   6.241 -0.9482  0.5127 -0.5648
 2960SOL     OW20512   0.324   4.266   4.448  0.1502  0.0731 -0.0507
 2960SOL    HW120513   0.369   4.182   4.455  0.7869  0.5533  1.5003
 2960SOL    HW220514   0.388   4.322   4.492  1.3870 -0.8386 -0.6838
 2961SOL     OW20515   3.721   2.227   2.672  0.1105  0.1752  0.6923
 2961SOL    HW120516   3.713   2.322   2.682 -1.0757 -0.1351  2.5599
 2961SOL    HW220517   3.666   2.220   2.594 -1.0692 -1.9961  1.7175
 2962SOL     OW20518   2.622   1.452   7.319  0.0085 -0.4783  0.2029
 2962SOL    HW120519   2.681   1.497   7.259 -0.6615 -0.2855 -0.3169
 2962SOL    HW220520   2.634   1.361   7.291  1.1930 -0.1863 -0.2298
 2963SOL     OW20521   1.758   2.157   8.902 -0.0854 -0.6175  0.7412
 2963SOL    HW120522   1.713   2.085   8.858 -1.9005  0.2261  1.2071
 2963SOL    HW220523   1.707   2.163   8.982 -0.2727  1.2892  0.4953
 2964SOL     OW20524   0.011   3.580   9.699  0.0761 -0.2551  0.3150
 2964SOL    HW120525   0.088   3.633   9.680 -1.4915  2.0765  0.4912
 2964SOL    HW220526   4.691   3.644   9.745  1.3330  0.4626  0.8010
 2965SOL     OW20527   0.756   2.228   8.160 -0.2702  0.1742  1.0245
 2965SOL    HW120528   0.850   2.214   8.145 -0.2493  0.3722  0.9696
 2965SOL    HW220529   0.746   2.323   8.153 -2.3207  0.1462  3.5061
 2966SOL     OW20530   3.753   0.256   9.559  0.2421 -0.1974 -0.1536
 2966SOL    HW120531   3.776   0.201   9.634 -2.5021 -2.4957 -1.0090
 2966SOL    HW220532   3.658   0.259   9.570  0.3711 -0.8040  1.0663
 2967SOL     OW20533   2.019   2.417   4.316 -0.6044  0.4390 -0.0898
 2967SOL    HW120534   2.110   2.446   4.310 -0.1861 -0.2714  2.6114
 2967SOL    HW220535   2.037   2.328   4.348  1.4579  0.8245 -0.1765
 2968SOL     OW20536   2.091   2.329  10.786  0.2733  0.5207 -0.2308
 2968SOL    HW120537   2.174   2.377  10.794  0.3196  0.0954  1.7427
 2968SOL    HW220538   2.087   2.279  10.867  1.5053 -0.2296 -0.6349
 2969SOL     OW20539   4.246   1.610  13.354  0.2898 -0.4013 -0.7032
 2969SOL    HW120540   4.191   1.688  13.353 -2.4747 -2.3282 -1.4472
 2969SOL    HW220541   4.328   1.648  13.384 -0.7556  1.3679 -0.0663
 2970SOL     OW20542   4.286   2.065   9.516 -0.0017 -0.6260  0.4068
 2970SOL    HW120543   4.232   2.144   9.510  1.8658  0.6373  0.3720
 2970SOL    HW220544   4.236   2.007   9.574 -1.2773  0.4107  0.3492
 2971SOL     OW20545   0.606   1.460   0.964 -0.0676  0.4601 -0.0284
 2971SOL    HW120546   0.696   1.447   0.934 -0.4976 -0.5033 -0.8933
 2971SOL    HW220547   0.609   1.402   1.040 -3.2351 -1.9809 -1.8007
 2972SOL     OW20548   0.762   3.418   4.041 -0.0686 -0.0544  0.6125
 2972SOL    HW120549   0.770   3.485   3.973 -1.5439  0.3067  0.8056
 2972SOL    HW220550   0.668   3.401   4.034  0.0132  0.0579 -0.6865
 2973SOL     OW20551   1.762   1.858   8.259  0.2047 -0.2231  0.0826
 2973SOL    HW120552   1.780   1.895   8.345  0.7074  2.7684 -1.3169
 2973SOL    HW220553   1.800   1.921   8.197 -1.9621 -0.8838 -1.9098
 2974SOL     OW20554   0.896   3.364   5.239  0.1649  0.1985 -0.3335
 2974SOL    HW120555   0.845   3.443   5.253  0.8471  0.2183  2.1795
 2974SOL    HW220556   0.870   3.339   5.151  2.1839  0.7071 -1.0733
 2975SOL     OW20557   0.304   2.860   1.821 -0.3006  0.6900  0.7699
 2975SOL    HW120558   0.342   2.890   1.738  0.6959 -2.7797 -0.0236
 2975SOL    HW220559   0.367   2.873   1.891 -0.7012 -1.4012  1.5140
 2976SOL     OW20560   1.362   2.400  16.255  0.0373 -0.3804  0.3678
 2976SOL    HW120561   1.287   2.341  16.246 -0.5041  0.3512  0.0715
 2976SOL    HW220562   1.431   2.334  16.265  1.0876  0.6016 -0.4461
 2977SOL     OW20563   0.957   2.053   7.867 -0.3468 -0.4538  0.1654
 2977SOL    HW120564   1.002   2.107   7.933  1.6234 -0.3843 -1.2360
 2977SOL    HW220565   0.983   1.966   7.899  0.6318 -0.6359 -1.1205
 2978SOL     OW20566   3.842   2.594   4.065 -0.2050 -0.8918  0.5550
 2978SOL    HW120567   3.760   2.544   4.071 -0.3621 -0.6297  0.5875
 2978SOL    HW220568   3.865   2.605   4.157  1.4496 -2.4307  0.3244
 2979SOL     OW20569   0.017   1.971   2.401  0.4091 -0.0524 -0.0505
 2979SOL    HW120570   0.002   1.951   2.494  0.0486  1.4228  0.2200
 2979SOL    HW220571   0.085   2.037   2.414  1.4317 -1.1985  0.3349
 2980SOL     OW20572   2.839   2.533   5.478 -0.3829 -0.5661 -0.5018
 2980SOL    HW120573   2.864   2.597   5.545  1.7402 -1.5370 -0.3538
 2980SOL    HW220574   2.911   2.549   5.416  0.2803 -0.5774  0.2610
 2981SOL     OW20575   3.327   1.363   3.774  0.2343 -0.2289 -0.5949
 2981SOL    HW120576   3.343   1.457   3.772  1.7393 -0.4178  2.3563
 2981SOL    HW220577   3.395   1.338   3.712 -0.1174 -1.1472 -0.6169
 2982SOL     OW20578   3.973   1.836   5.991  0.3016 -0.1653 -0.2333
 2982SOL    HW120579   3.892   1.857   6.037  1.8772  0.1662  2.3673
 2982SOL    HW220580   3.939   1.812   5.905  1.0084 -1.3841 -0.1793
 2983SOL     OW20581   1.061   3.748   5.318  0.1529  0.0688 -0.1085
 2983SOL    HW120582   1.024   3.729   5.232 -2.5340  1.6361  0.7000
 2983SOL    HW220583   1.032   3.838   5.333  2.4856  0.5266  1.4927
 2984SOL     OW20584   4.424   0.324   2.634  0.1335 -0.0174 -0.5777
 2984SOL    HW120585   4.400   0.251   2.691 -0.2341  1.6368  1.3928
 2984SOL    HW220586   4.351   0.323   2.572 -1.0324 -0.9182  0.8056
 2985SOL     OW20587   3.363   3.796   4.618  0.1163 -0.3477 -0.4091
 2985SOL    HW120588   3.278   3.805   4.660  2.5695 -1.1941  4.8291
 2985SOL    HW220589   3.346   3.731   4.550  1.0852  1.0943 -2.0371
 2986SOL     OW20590   4.085   4.588   8.071 -0.0786 -0.6865 -0.4246
 2986SOL    HW120591   4.074   4.519   8.006  1.3746 -0.9389 -0.4031
 2986SOL    HW220592   4.024   4.655   8.041  0.4023 -0.3626 -0.6769
 2987SOL     OW20593   4.121   3.123   3.948 -1.4875  0.3116  0.6997
 2987SOL    HW120594   4.076   3.040   3.959 -0.7553 -0.0158  1.2687
 2987SOL    HW220595   4.185   3.107   3.879 -0.8968  1.4282  0.9710
 2988SOL     OW20596   4.122   2.080  17.209  0.3448  0.2762 -0.2946
 2988SOL    HW120597   4.153   1.999  17.170 -2.4524 -1.1615  0.4737
 2988SOL    HW220598   4.187   2.148  17.193 -0.3308  1.3699  1.5666
 2989SOL     OW20599   3.120   1.169  16.208  0.2786  0.4111 -0.1553
 2989SOL    HW120600   3.183   1.222  16.258 -0.0997  1.4724 -0.8111
 2989SOL    HW220601   3.082   1.230  16.145  0.9275  0.5869 -0.3706
 2990SOL     OW20602   3.771   2.815   9.219  0.2661  0.1392  0.0349
 2990SOL    HW120603   3.801   2.863   9.142  2.1623 -2.0013 -0.5701
 2990SOL    HW220604   3.684   2.850   9.238  0.1460 -0.6370  0.9050
 2991SOL     OW20605   3.692   1.030  12.620  0.9426  0.4648  0.0501
 2991SOL    HW120606   3.732   1.112  12.594 -0.1446  0.5748 -1.2706
 2991SOL    HW220607   3.727   0.973  12.551  2.5685  2.2829 -0.6173
 2992SOL     OW20608   4.513   2.015   5.701  0.2225  0.3291  0.6921
 2992SOL    HW120609   4.527   1.921   5.698 -1.1303  0.1384  0.6551
 2992SOL    HW220610   4.418   2.014   5.698  0.2849 -2.1704 -0.1596
 2993SOL     OW20611   2.110   4.302   4.947  0.2066 -0.1451 -0.1203
 2993SOL    HW120612   2.098   4.336   5.036 -1.3616 -0.2948 -0.2730
 2993SOL    HW220613   2.204   4.310   4.931  0.2030  0.7691  0.3425
 2994SOL     OW20614   4.268   4.355   5.185 -0.4199  0.2545 -0.0398
 2994SOL    HW120615   4.257   4.356   5.090  2.4820  0.4851 -0.3811
 2994SOL    HW220616   4.220   4.430   5.219 -0.8824  0.9846 -2.3141
 2995SOL     OW20617   2.987   3.063  14.755 -0.2534  0.0001  0.4897
 2995SOL    HW120618   2.971   2.994  14.690 -0.4030  1.9540 -1.5292
 2995SOL    HW220619   3.047   3.120  14.707 -2.3482  1.3291 -0.5396
 2996SOL     OW20620   1.059   2.987   3.786 -0.4486 -0.2141 -0.0524
 2996SOL    HW120621   1.048   3.079   3.813  1.6159 -0.3091  1.1095
 2996SOL    HW220622   1.151   2.990   3.758 -0.3104 -0.5598  0.3649
 2997SOL     OW20623   3.196   0.992   6.296  0.2362  0.3603  0.2537
 2997SOL    HW120624   3.141   1.067   6.274 -0.2136  0.5711  2.0949
 2997SOL    HW220625   3.278   1.024   6.260  0.3630  0.0132  0.2297
 2998SOL     OW20626   1.343   0.599   7.823 -0.5894  0.1722 -0.3163
 2998SOL    HW120627   1.298   0.565   7.745 -0.1505 -0.1303 -0.4363
 2998SOL    HW220628   1.329   0.694   7.827 -1.0466  0.1609 -1.4494
 2999SOL     OW20629   1.014   3.667  14.652  0.2732 -0.0349 -0.1118
 2999SOL    HW120630   0.961   3.691  14.728  0.3291  0.5448 -0.2532
 2999SOL    HW220631   1.056   3.588  14.686 -0.4356 -0.7421 -0.9258
 3000SOL     OW20632   2.352   1.103   4.621 -0.0630 -0.2856  0.1684
 3000SOL    HW120633   2.279   1.162   4.601  1.7999  1.7065 -0.6745
 3000SOL    HW220634   2.324   1.058   4.701 -0.6427 -0.8544 -0.3501
 3001SOL     OW20635   1.786   2.752   3.873  0.1628  0.1321 -0.0943
 3001SOL    HW120636   1.790   2.720   3.783  1.1552  1.3480 -0.4709
 3001SOL    HW220637   1.877   2.780   3.884  0.8702 -1.3735 -2.0040
 3002SOL     OW20638   4.115   0.356   5.022 -0.2301 -0.2167  0.2400
 3002SOL    HW120639   4.027   0.359   4.984  0.7325  2.4845 -1.8050
 3002SOL    HW220640   4.158   0.327   4.942 -0.9988  0.9576 -0.6039
 3003SOL     OW20641   2.615   0.760  13.895 -0.2521 -0.2182 -0.5262
 3003SOL    HW120642   2.688   0.762  13.958  0.6825  2.5838 -1.7064
 3003SOL    HW220643   2.617   0.848  13.856  1.2066 -0.7239 -1.6039
 3004SOL     OW20644   2.677   1.828   6.033  0.5608  0.3919 -0.3468
 3004SOL    HW120645   2.603   1.854   5.978  1.7282  2.7798 -0.7836
 3004SOL    HW220646   2.632   1.786   6.106  0.3504  0.1347 -0.6245
 3005SOL     OW20647   0.503   4.073   4.484  0.8177  0.0633  0.0507
 3005SOL    HW120648   0.585   4.118   4.506 -0.7995  2.9991  0.0591
 3005SOL    HW220649   0.531   3.992   4.440  1.5723 -0.2037  1.0208
 3006SOL     OW20650   2.256   2.914  14.233  0.3832  0.3526  0.3550
 3006SOL    HW120651   2.289   2.905  14.144 -0.4923  3.6187 -0.3118
 3006SOL    HW220652   2.165   2.940  14.218  0.3942 -0.5484 -1.3077
 3007SOL     OW20653   4.697   0.403  11.698 -0.2998  0.2573  0.0152
 3007SOL    HW120654   4.711   0.339  11.767 -1.3923 -0.4790 -0.4551
 3007SOL    HW220655   0.047   0.448  11.693 -0.0143 -0.4957 -2.0081
 3008SOL     OW20656   3.148   0.568   3.379  0.0186  0.0409  0.3279
 3008SOL    HW120657   3.074   0.509   3.365 -1.1955  0.9284  3.0354
 3008SOL    HW220658   3.218   0.525   3.330 -0.6529 -1.0616  0.3405
 3009SOL     OW20659   0.545   0.403   6.646  0.2804 -0.2429  0.1683
 3009SOL    HW120660   0.634   0.371   6.661 -0.4455 -2.2704  0.1509
 3009SOL    HW220661   0.491   0.327   6.621 -0.5157  0.3897 -0.0143
 3010SOL     OW20662   0.652   4.105   9.674  0.3280  0.1497 -0.0468
 3010SOL    HW120663   0.663   4.025   9.725  1.5835  0.8346  0.7609
 3010SOL    HW220664   0.651   4.073   9.584 -0.3489 -2.5968  0.9520
 3011SOL     OW20665   1.933   0.801  13.318 -0.2490 -0.2713  0.3238
 3011SOL    HW120666   1.893   0.809  13.405 -1.7361  1.6844 -0.5350
 3011SOL    HW220667   1.995   0.869  13.294 -0.5548 -0.2804 -0.4767
 3012SOL     OW20668   4.158   3.275   5.824 -0.4305 -0.3773 -0.3605
 3012SOL    HW120669   4.111   3.358   5.810  0.4246  0.3108  0.8723
 3012SOL    HW220670   4.140   3.251   5.915 -0.5159  1.0557  0.0021
 3013SOL     OW20671   2.771   4.707  12.823 -1.0323 -0.1149 -0.0256
 3013SOL    HW120672   2.830   0.028  12.772 -1.3225 -0.8796 -1.2089
 3013SOL    HW220673   2.836   4.640  12.846  1.0587  2.5677  1.8152
 3014SOL     OW20674   2.574   1.635   5.772 -0.3471 -0.2072 -0.0929
 3014SOL    HW120675   2.482   1.633   5.801 -0.5057  0.9265 -0.5063
 3014SOL    HW220676   2.586   1.545   5.741 -1.0402  0.5072 -2.4740
 3015SOL     OW20677   2.595   0.923   9.142 -0.5452  0.4803  0.3528
 3015SOL    HW120678   2.573   1.014   9.122  0.0376  0.8131  1.2082
 3015SOL    HW220679   2.640   0.903   9.060 -0.4077  0.1654  0.5071
 3016SOL     OW20680   4.490   2.345  14.414 -0.6000 -0.0759  0.2296
 3016SOL    HW120681   4.511   2.252  14.404 -0.2822  0.1393 -1.1011
 3016SOL    HW220682   4.409   2.343  14.363 -1.2093 -0.9985  1.2339
 3017SOL     OW20683   1.306   2.339   4.923 -0.6805  0.9488 -0.0323
 3017SOL    HW120684   1.278   2.341   4.832 -1.1009 -3.2627  0.0072
 3017SOL    HW220685   1.320   2.245   4.935  2.8152  1.4188 -0.3096
 3018SOL     OW20686   3.175   3.988   2.123  0.7068 -0.0300  0.2723
 3018SOL    HW120687   3.201   4.079   2.108  1.6053 -0.3569 -0.1644
 3018SOL    HW220688   3.105   4.010   2.185  0.4258 -0.1276 -0.0088
 3019SOL     OW20689   2.599   3.873   4.524 -0.1758  0.0202 -0.1321
 3019SOL    HW120690   2.619   3.916   4.607  0.8017 -0.1017 -0.3006
 3019SOL    HW220691   2.505   3.879   4.505 -0.8808 -2.3995  2.6960
 3020SOL     OW20692   3.001   2.114   0.580  0.2704  0.5930  0.2491
 3020SOL    HW120693   2.922   2.090   0.628 -0.7769  1.2134 -1.1590
 3020SOL    HW220694   3.060   2.161   0.639 -0.3089 -0.2620  1.5084
 3021SOL     OW20695   1.550   3.378   6.016 -0.7137  0.1059 -0.3014
 3021SOL    HW120696   1.582   3.440   6.083  1.6520 -1.2356 -0.1665
 3021SOL    HW220697   1.525   3.433   5.942 -0.6048  3.2257  1.9308
 3022SOL     OW20698   4.468   0.431  15.667  0.2818 -0.1263 -0.3766
 3022SOL    HW120699   4.563   0.437  15.679  0.3359 -1.9597  0.1225
 3022SOL    HW220700   4.469   0.368  15.596  3.0147 -0.1497 -0.3314
 3023SOL     OW20701   3.190   3.710   6.726 -0.1607 -0.1480  0.2614
 3023SOL    HW120702   3.213   3.794   6.686 -1.1139  0.3885  0.8373
 3023SOL    HW220703   3.133   3.735   6.799 -1.4380 -2.3058  0.0031
 3024SOL     OW20704   3.164   0.754   6.608 -0.4238  0.4917  0.5171
 3024SOL    HW120705   3.247   0.760   6.562 -2.5086  0.7051 -3.2016
 3024SOL    HW220706   3.116   0.829   6.572 -0.4533  0.3756  0.3187
 3025SOL     OW20707   0.281   1.759   7.489 -0.4084  0.3347 -0.3902
 3025SOL    HW120708   0.278   1.854   7.497 -1.7013  0.2800 -0.0909
 3025SOL    HW220709   0.369   1.733   7.465  0.8424  1.9141  2.4508
 3026SOL     OW20710   2.188   1.215   9.462  0.2415 -0.3741 -0.2155
 3026SOL    HW120711   2.143   1.300   9.460  1.0018  0.0236 -0.4593
 3026SOL    HW220712   2.111   1.159   9.471  0.2234 -0.2712  0.2413
 3027SOL     OW20713   1.870   0.061   9.403 -0.7061 -0.1537 -0.3731
 3027SOL    HW120714   1.903   0.107   9.480  2.6981 -1.6428 -0.9601
 3027SOL    HW220715   1.803   0.006   9.443  1.2618 -3.3434 -1.4642
 3028SOL     OW20716   2.597   2.441  15.371  0.3525 -0.5388 -0.5673
 3028SOL    HW120717   2.617   2.376  15.303  0.9932 -0.9367  0.0085
 3028SOL    HW220718   2.654   2.406  15.439  0.9456  3.5463  1.0348
 3029SOL     OW20719   1.392   4.597  14.225  0.1157  0.3143 -0.4548
 3029SOL    HW120720   1.318   4.542  14.199  0.0928 -0.5245  1.3851
 3029SOL    HW220721   1.353   4.680  14.252  0.6066 -0.1465  1.6951
 3030SOL     OW20722   2.494   2.354   7.506 -0.2768 -0.0497 -0.2170
 3030SOL    HW120723   2.561   2.332   7.442 -1.4433 -1.2814 -1.0166
 3030SOL    HW220724   2.500   2.447   7.483 -3.4071  0.5375  1.2270
 3031SOL     OW20725   0.881   2.513   3.902 -0.3519  0.3694  0.4389
 3031SOL    HW120726   0.874   2.572   3.977 -2.2572  1.3136 -0.4679
 3031SOL    HW220727   0.966   2.529   3.862  0.4016 -0.7961  1.5614
 3032SOL     OW20728   1.757   1.877  13.797  0.3111 -0.0334  0.3658
 3032SOL    HW120729   1.677   1.892  13.847  0.5315  0.8295  0.4563
 3032SOL    HW220730   1.769   1.783  13.813  0.2644 -0.4172 -1.8771
 3033SOL     OW20731   1.046   2.484   2.698 -0.3836 -0.1846 -0.1242
 3033SOL    HW120732   1.026   2.573   2.667  0.8350  0.4389  0.8956
 3033SOL    HW220733   0.998   2.437   2.630  0.6820  0.2827 -1.2015
 3034SOL     OW20734   4.366   3.046   1.087 -0.4686 -0.2433  0.1864
 3034SOL    HW120735   4.378   2.951   1.078 -3.1629 -0.5755  0.0328
 3034SOL    HW220736   4.282   3.051   1.133 -0.7305 -0.5879 -0.2568
 3035SOL     OW20737   2.565   3.286   3.911  0.1841 -0.0956 -0.0492
 3035SOL    HW120738   2.605   3.244   3.835  0.4380 -0.7230  0.4293
 3035SOL    HW220739   2.475   3.264   3.888 -0.1205  1.1246 -0.0270
 3036SOL     OW20740   0.328   2.090   9.120 -0.3415  0.2273 -0.0813
 3036SOL    HW120741   0.313   2.123   9.031 -1.9772 -1.5474 -0.4703
 3036SOL    HW220742   0.380   2.011   9.105  0.4610  0.7880 -0.2545
 3037SOL     OW20743   3.271   4.214   8.721 -0.6685  0.0233 -1.1686
 3037SOL    HW120744   3.302   4.147   8.782 -0.1325  1.4459  0.1250
 3037SOL    HW220745   3.293   4.184   8.633  2.8081 -1.3193  0.1584
 3038SOL     OW20746   3.906   4.619   1.091 -0.1539 -0.1710 -0.1059
 3038SOL    HW120747   3.894   4.673   1.170  1.6432  2.8439 -1.8572
 3038SOL    HW220748   3.871   4.673   1.020  0.5376 -0.3300 -0.5653
 3039SOL     OW20749   2.331   1.650  15.156  0.0946  0.0251  0.6405
 3039SOL    HW120750   2.301   1.700  15.232 -0.0882 -1.0701  1.2969
 3039SOL    HW220751   2.344   1.562  15.190  0.0093 -0.0975  0.3519
 3040SOL     OW20752   0.814   0.328   3.695 -0.0951  0.3873 -0.4821
 3040SOL    HW120753   0.793   0.277   3.616  0.5760  2.2501 -1.8539
 3040SOL    HW220754   0.868   0.264   3.742  0.1412  0.7795 -0.2288
 3041SOL     OW20755   0.165   3.263   7.667 -0.3816  0.1343 -0.2289
 3041SOL    HW120756   0.226   3.269   7.593  1.5369 -2.7802  1.1492
 3041SOL    HW220757   0.213   3.229   7.742  0.1327  0.8712 -0.2143
 3042SOL     OW20758   2.850   4.223   4.596 -0.1798  0.3196 -0.4139
 3042SOL    HW120759   2.873   4.226   4.503 -0.1573 -0.2567 -0.4274
 3042SOL    HW220760   2.755   4.216   4.591 -0.2877  0.6721  1.2344
 3043SOL     OW20761   4.021   1.503   9.777 -0.4582 -0.3408 -0.2717
 3043SOL    HW120762   4.045   1.431   9.718 -1.0148 -1.7793  1.2578
 3043SOL    HW220763   3.926   1.512   9.765 -0.5434 -0.6568  0.1549
 3044SOL     OW20764   2.891   3.929   9.258  0.1965 -0.3236 -0.0780
 3044SOL    HW120765   2.901   3.934   9.353  0.8883  1.0115 -0.2154
 3044SOL    HW220766   2.840   3.849   9.252 -0.3469  0.0936 -1.0601
 3045SOL     OW20767   2.094   1.719  17.435 -0.5138  0.6521  0.1148
 3045SOL    HW120768   2.012   1.733  17.388 -1.7943  2.2944  2.8037
 3045SOL    HW220769   2.080   1.629  17.462 -1.1083  0.7756  0.2036
 3046SOL     OW20770   1.783   3.373  16.549 -0.3119  0.0946  0.2113
 3046SOL    HW120771   1.707   3.359  16.605 -1.9289 -1.5519 -2.3993
 3046SOL    HW220772   1.823   3.286  16.540 -2.2769 -0.7389 -0.4513
 3047SOL     OW20773   4.458   4.560   8.275 -0.0241  0.3353  0.1061
 3047SOL    HW120774   4.538   4.600   8.242  1.8206 -0.9509  2.9958
 3047SOL    HW220775   4.400   4.634   8.258  0.6863  0.9044  0.1715
 3048SOL     OW20776   0.169   0.093  10.800  0.2573 -0.0815  0.1085
 3048SOL    HW120777   0.123   0.158  10.747 -0.1022 -1.8948 -1.8080
 3048SOL    HW220778   0.132   0.100  10.888  0.3350  0.6656  0.0804
 3049SOL     OW20779   4.192   3.281   2.174  0.2434  0.3355 -0.0335
 3049SOL    HW120780   4.260   3.305   2.236 -0.1866 -2.2735  1.4520
 3049SOL    HW220781   4.132   3.354   2.182  0.2113  0.3278 -0.1889
 3050SOL     OW20782   2.299   4.606   3.767  0.5204  0.2556  0.1018
 3050SOL    HW120783   2.386   4.567   3.766 -0.0344 -0.9674 -0.4101
 3050SOL    HW220784   2.257   4.541   3.823  0.2126  1.4714  1.2783
 3051SOL     OW20785   0.743   4.579   4.337 -0.2318  0.3441  0.0719
 3051SOL    HW120786   0.760   4.672   4.323  2.2136  0.1090  1.4092
 3051SOL    HW220787   0.676   4.565   4.271 -0.1668 -0.4614  0.1857
 3052SOL     OW20788   4.325   2.112   2.942 -0.1779 -0.0211  0.0454
 3052SOL    HW120789   4.410   2.119   2.899 -1.3762 -1.2616 -2.5285
 3052SOL    HW220790   4.256   2.106   2.876  0.1420 -1.2250 -0.1667
 3053SOL     OW20791   1.147   0.660   3.347 -0.3068 -0.5990 -0.0018
 3053SOL    HW120792   1.149   0.751   3.378  0.7730 -1.5380  2.6867
 3053SOL    HW220793   1.099   0.612   3.414  0.4956 -1.4047 -0.0180
 3054SOL     OW20794   3.022   1.604  16.417 -0.0393 -0.6577 -0.2723
 3054SOL    HW120795   3.012   1.509  16.418 -3.5352 -0.3252 -2.1362
 3054SOL    HW220796   3.060   1.618  16.504  1.1200 -0.1347 -0.8661
 3055SOL     OW20797   4.636   3.255   9.184  0.0610  0.6241  0.5324
 3055SOL    HW120798   4.692   3.287   9.254  0.3861  2.5550 -0.5854
 3055SOL    HW220799   4.570   3.325   9.174 -1.1285 -0.6724 -0.6758
 3056SOL     OW20800   0.096   4.398   8.016 -0.3273 -0.2978  0.1821
 3056SOL    HW120801   0.014   4.401   8.065  0.8211  0.5923  2.0421
 3056SOL    HW220802   0.161   4.422   8.082 -1.3964 -0.5532  1.3328
 3057SOL     OW20803   1.986   1.123   5.569 -0.3538 -0.5036 -0.0059
 3057SOL    HW120804   1.917   1.189   5.578  1.7183  1.7695 -0.7758
 3057SOL    HW220805   1.945   1.073   5.498 -0.2811  0.0971 -0.4686
 3058SOL     OW20806   0.318   0.392  14.286 -0.2388 -0.8117  0.1692
 3058SOL    HW120807   0.228   0.368  14.266 -0.9376  2.1119 -0.1446
 3058SOL    HW220808   0.331   0.353  14.372  0.2474 -0.3872  0.2887
 3059SOL     OW20809   1.725   1.978   4.746  0.1492  0.2377  0.1776
 3059SOL    HW120810   1.692   1.925   4.673 -3.4914  1.6366  0.8027
 3059SOL    HW220811   1.659   1.956   4.812 -0.0214  1.9765  0.5814
 3060SOL     OW20812   2.241   0.479  16.027 -0.0963  0.6094 -0.0802
 3060SOL    HW120813   2.207   0.446  16.110  1.6362  0.7312  0.6743
 3060SOL    HW220814   2.324   0.432  16.015 -0.9339 -1.0512  0.6074
 3061SOL     OW20815   1.582   0.198  13.614  0.0632 -0.5856  0.2077
 3061SOL    HW120816   1.587   0.117  13.665 -1.1024 -0.2635  0.8328
 3061SOL    HW220817   1.610   0.256  13.685 -1.5492 -1.2933  1.4195
 3062SOL     OW20818   1.017   2.668   5.963 -0.4956 -0.3639 -0.5176
 3062SOL    HW120819   1.111   2.656   5.977 -0.5165 -0.1886 -0.2147
 3062SOL    HW220820   1.019   2.738   5.897  0.2050  0.5105  0.4283
 3063SOL     OW20821   0.532   0.353   9.114 -0.1962  0.3308  0.2571
 3063SOL    HW120822   0.605   0.412   9.094  0.0551  0.4079  1.4206
 3063SOL    HW220823   0.571   0.269   9.092 -0.8315  0.1698 -0.2858
 3064SOL     OW20824   3.357   3.864  15.029  0.2087  0.3155 -0.2469
 3064SOL    HW120825   3.345   3.865  14.934 -0.1149  1.3044 -0.1969
 3064SOL    HW220826   3.266   3.842  15.051  0.6823 -2.7614 -1.4025
 3065SOL     OW20827   4.543   2.489  10.537  0.2010  0.0227  0.0720
 3065SOL    HW120828   4.511   2.406  10.503 -0.3288  0.5045 -0.6112
 3065SOL    HW220829   4.458   2.532  10.546  0.8789  1.4754 -0.4961
 3066SOL     OW20830   0.084   0.754   6.059 -0.6088  0.1133 -0.3985
 3066SOL    HW120831   0.078   0.687   5.992  1.0791  1.4800 -1.9116
 3066SOL    HW220832   0.069   0.710   6.143 -1.1857 -1.1342 -1.1633
 3067SOL     OW20833   2.019   1.930  13.089 -0.3515 -0.5190 -0.2279
 3067SOL    HW120834   2.002   2.015  13.047 -0.5735 -0.1127  0.6929
 3067SOL    HW220835   2.110   1.945  13.114 -0.2792 -0.8307 -0.2995
 3068SOL     OW20836   3.516   2.565  11.560 -0.2597  0.4787 -0.2937
 3068SOL    HW120837   3.434   2.545  11.605  0.9054 -0.1559  1.5399
 3068SOL    HW220838   3.548   2.475  11.549 -1.3194  0.0306  0.3193
 3069SOL     OW20839   2.867   0.856   6.895  0.1829  0.7333 -0.2850
 3069SOL    HW120840   2.952   0.813   6.903 -0.7680 -0.8008  1.6566
 3069SOL    HW220841   2.831   0.855   6.984 -0.7902  0.2601 -0.6783
 3070SOL     OW20842   2.398   1.904   6.705 -0.5464 -0.6686  0.3322
 3070SOL    HW120843   2.409   1.979   6.648  0.9592 -0.8113  0.4354
 3070SOL    HW220844   2.411   1.934   6.795 -0.7745 -0.3171  0.2445
 3071SOL     OW20845   1.284   1.926   4.700  0.1822 -0.0416  0.2143
 3071SOL    HW120846   1.258   1.833   4.696 -0.4844  0.2250 -1.4984
 3071SOL    HW220847   1.310   1.935   4.609 -0.3313  0.7564  0.1424
 3072SOL     OW20848   0.238   2.460  13.448  0.4985 -0.8439  0.7329
 3072SOL    HW120849   0.305   2.526  13.433  0.9789 -1.4576  0.1769
 3072SOL    HW220850   0.179   2.463  13.373  2.4465  0.0294 -0.7537
 3073SOL     OW20851   0.243   1.559   5.205  0.0758  0.1935 -0.5637
 3073SOL    HW120852   0.175   1.512   5.254  0.3909  1.0034  0.6352
 3073SOL    HW220853   0.254   1.639   5.257  0.2286  0.1229 -0.4844
 3074SOL     OW20854   4.463   2.805   8.536 -0.5733  0.2768 -0.2292
 3074SOL    HW120855   4.406   2.825   8.609  0.4520  0.6819  0.4610
 3074SOL    HW220856   4.546   2.815   8.583 -1.7812 -0.3553  2.0076
 3075SOL     OW20857   0.268   0.933  15.994 -0.2109 -0.0930  0.1074
 3075SOL    HW120858   0.242   0.964  15.907  0.1299 -0.1055  0.0014
 3075SOL    HW220859   0.317   1.012  16.013  0.3456 -0.0218 -1.5653
 3076SOL     OW20860   2.188   2.863   7.929 -0.1088  0.2159 -0.0696
 3076SOL    HW120861   2.137   2.943   7.939  0.1927  0.4699 -0.5332
 3076SOL    HW220862   2.266   2.900   7.971 -0.6854  1.1212  0.2007
 3077SOL     OW20863   4.638   0.452   9.187 -0.6222  0.2287 -0.4733
 3077SOL    HW120864   4.702   0.457   9.116 -0.1538 -0.1351 -0.0742
 3077SOL    HW220865   4.681   0.520   9.238  0.2464 -0.5327 -0.1986
 3078SOL     OW20866   0.588   2.256   0.314 -0.1848  0.2523  0.2423
 3078SOL    HW120867   0.551   2.334   0.353 -0.4172  0.0066  0.5118
 3078SOL    HW220868   0.595   2.286   0.224  0.8490 -1.1749 -0.1635
 3079SOL     OW20869   2.016   1.851   7.462 -0.5228  0.1050 -0.3889
 3079SOL    HW120870   2.074   1.775   7.470  1.2234  1.3401 -1.7532
 3079SOL    HW220871   2.038   1.896   7.543  3.0374 -1.1030 -0.7011
 3080SOL     OW20872   0.064   0.699   5.545 -0.3214 -0.3606 -0.0062
 3080SOL    HW120873   0.052   0.728   5.454 -0.7702  0.7411  0.3980
 3080SOL    HW220874   0.049   0.605   5.536  1.6735 -0.7662  0.8820
 3081SOL     OW20875   0.226   2.987   3.761  0.1880 -0.6972 -0.3360
 3081SOL    HW120876   0.291   2.919   3.739 -0.3267 -0.5140 -2.4581
 3081SOL    HW220877   0.215   2.962   3.852  0.7102 -1.7843 -0.5630
 3082SOL     OW20878   0.516   2.811  12.242  0.0867 -0.5825  0.7016
 3082SOL    HW120879   0.461   2.740  12.274 -1.2543  0.9116  1.7332
 3082SOL    HW220880   0.567   2.759  12.180 -0.4402  0.1851 -0.3744
 3083SOL     OW20881   3.536   3.662   7.484 -0.7163 -0.1359  0.1750
 3083SOL    HW120882   3.490   3.636   7.404  0.6112 -0.3885 -0.5096
 3083SOL    HW220883   3.629   3.658   7.462 -0.5990 -0.9448  0.8326
 3084SOL     OW20884   4.052   2.993   5.308  0.1591  0.4260  0.1256
 3084SOL    HW120885   4.061   3.003   5.403  0.7562  1.4511 -0.0463
 3084SOL    HW220886   4.029   2.900   5.303  1.0025  0.3168 -1.6359
 3085SOL     OW20887   1.483   3.219  16.574 -0.1954  0.5280  0.0797
 3085SOL    HW120888   1.504   3.126  16.564 -0.8544  0.5598 -1.6865
 3085SOL    HW220889   1.542   3.240  16.646  0.5405 -0.1052 -0.3418
 3086SOL     OW20890   4.162   0.966   9.864  0.5520  0.2608 -0.6983
 3086SOL    HW120891   4.112   0.968   9.945  0.3193 -2.0341 -0.7829
 3086SOL    HW220892   4.249   0.998   9.890  0.8175  0.4418 -1.8133
 3087SOL     OW20893   1.236   1.948  14.809  0.1431  0.0966 -0.2068
 3087SOL    HW120894   1.301   2.019  14.805 -1.1126  1.3845  1.8765
 3087SOL    HW220895   1.303   1.880  14.811 -0.5997 -0.5926  2.0005
 3088SOL     OW20896   0.463   2.480  11.964  0.1948 -0.0116 -0.7693
 3088SOL    HW120897   0.536   2.445  11.912  0.8148  0.0544  0.0490
 3088SOL    HW220898   0.501   2.557  12.006 -1.3096 -0.9220  2.2021
 3089SOL     OW20899   2.557   1.605   0.872 -0.3765  0.0950 -0.4213
 3089SOL    HW120900   2.608   1.685   0.880 -1.8353  1.0831 -0.9366
 3089SOL    HW220901   2.489   1.625   0.807 -0.2795 -0.9077 -0.8372
 3090SOL     OW20902   0.779   3.179   4.939 -0.0067  0.6098 -0.8279
 3090SOL    HW120903   0.733   3.108   4.895 -0.4730 -0.8373  1.9841
 3090SOL    HW220904   0.715   3.224   4.994  0.1166  0.6273 -0.6952
 3091SOL     OW20905   0.187   4.596   7.834 -0.4228 -0.4402 -0.5034
 3091SOL    HW120906   0.122   4.548   7.885 -0.7144  0.4216 -0.0578
 3091SOL    HW220907   0.264   4.545   7.858  0.5429  0.7606 -1.0214
 3092SOL     OW20908   2.453   3.861   3.892 -0.0696  0.1275 -0.2674
 3092SOL    HW120909   2.413   3.910   3.964 -1.5471 -1.8687  0.2772
 3092SOL    HW220910   2.544   3.889   3.897 -0.3806  0.8395  1.6072
 3093SOL     OW20911   2.344   1.934   4.960  0.6147 -0.2282  0.4797
 3093SOL    HW120912   2.429   1.974   4.975 -0.5073  1.5516  1.9993
 3093SOL    HW220913   2.364   1.890   4.877  0.2812  0.7358 -0.1117
 3094SOL     OW20914   1.176   3.005   3.118  0.1732 -0.1803 -0.1875
 3094SOL    HW120915   1.265   2.972   3.113  0.5179  0.4025  1.8389
 3094SOL    HW220916   1.129   2.966   3.191 -0.0187  1.0965  0.3865
 3095SOL     OW20917   3.754   2.206   5.945  0.3543  0.1887  0.1754
 3095SOL    HW120918   3.765   2.138   6.011 -1.4906  1.0545  1.3787
 3095SOL    HW220919   3.813   2.166   5.882  2.1819  0.8777  1.4671
 3096SOL     OW20920   3.515   1.324   5.648  0.2790 -0.4747  0.0764
 3096SOL    HW120921   3.562   1.332   5.731  0.2612  1.6465 -0.1396
 3096SOL    HW220922   3.421   1.340   5.658  0.7455  1.4364  1.3617
 3097SOL     OW20923   0.139   3.676   2.672  0.0589 -0.2439  0.1449
 3097SOL    HW120924   0.189   3.645   2.596  1.5064  1.3864  0.4376
 3097SOL    HW220925   0.136   3.590   2.714 -0.0185  0.3477  1.3467
 3098SOL     OW20926   3.516   4.654   4.570  0.6416 -0.1553 -0.1504
 3098SOL    HW120927   3.475   4.666   4.655 -0.4106 -2.0631 -0.3894
 3098SOL    HW220928   3.550   4.565   4.569  1.1901  0.0705 -1.9453
 3099SOL     OW20929   4.036   3.377   4.007  0.0063  0.0829  0.4244
 3099SOL    HW120930   4.111   3.403   3.952  0.0027 -1.1628 -0.1580
 3099SOL    HW220931   4.058   3.284   4.010  0.3670  0.1739  0.6894
 3100SOL     OW20932   2.351   4.245  11.616 -0.1892  0.1648  0.5288
 3100SOL    HW120933   2.414   4.307  11.653 -0.1924  0.3066  0.2976
 3100SOL    HW220934   2.402   4.238  11.536 -0.3057  1.1472  0.3656
 3101SOL     OW20935   3.470   3.052   3.652  0.5940  0.3849 -0.4711
 3101SOL    HW120936   3.482   3.065   3.557  3.3299 -0.2172 -0.1925
 3101SOL    HW220937   3.540   2.989   3.669  1.2134  1.4403  0.8600
 3102SOL     OW20938   2.488   3.517   4.124  0.1407  1.0115  0.3035
 3102SOL    HW120939   2.464   3.468   4.046  1.0525  2.3933 -0.8554
 3102SOL    HW220940   2.530   3.597   4.092 -1.1664  0.8751 -1.7260
 3103SOL     OW20941   0.997   2.033  12.075  0.4867  0.4129  0.1054
 3103SOL    HW120942   0.975   1.980  11.998  1.0576 -0.8563  0.8025
 3103SOL    HW220943   0.914   2.022  12.120  0.1915  0.9589 -0.3093
 3104SOL     OW20944   0.771   3.954   6.690  0.2890 -0.5827 -0.1047
 3104SOL    HW120945   0.686   3.911   6.705  0.5099 -0.2941  2.0858
 3104SOL    HW220946   0.818   3.901   6.627  1.1550 -0.8830  0.7916
 3105SOL     OW20947   1.808   2.061   5.726 -0.0074  0.1503 -0.1756
 3105SOL    HW120948   1.880   2.105   5.771 -0.1149 -0.5900  0.7231
 3105SOL    HW220949   1.749   2.040   5.799 -0.7193  0.7333 -0.5835
 3106SOL     OW20950   0.072   0.723   8.868 -0.2228 -0.1162 -0.0750
 3106SOL    HW120951   0.060   0.773   8.787 -1.7663  0.5260  0.5525
 3106SOL    HW220952   0.071   0.636   8.828  1.9276 -0.8812  1.6002
 3107SOL     OW20953   1.587   0.923   3.529 -0.1891  0.2887  0.0543
 3107SOL    HW120954   1.546   0.844   3.565 -0.4305 -0.4754 -1.9226
 3107SOL    HW220955   1.615   0.963   3.611 -0.3276  0.7840 -0.1392
 3108SOL     OW20956   2.342   2.886   5.812 -0.5210 -0.2156 -0.2071
 3108SOL    HW120957   2.256   2.922   5.789 -0.8135 -1.0018 -0.3334
 3108SOL    HW220958   2.316   2.813   5.868  0.8840 -1.1911 -0.8157
 3109SOL     OW20959   1.097   1.877   3.997  0.1646  0.4823  0.1507
 3109SOL    HW120960   1.010   1.874   3.956  0.3399  1.1657 -0.2571
 3109SOL    HW220961   1.072   1.919   4.079 -0.1615  0.6740 -0.0466
 3110SOL     OW20962   3.465   0.882  10.238 -0.5796  0.5672 -0.3599
 3110SOL    HW120963   3.445   0.971  10.268 -0.9810  0.0645  0.8367
 3110SOL    HW220964   3.556   0.890  10.267 -1.5509  2.4838  2.1253
 3111SOL     OW20965   4.508   2.588  11.424 -0.6455 -0.1401  0.0620
 3111SOL    HW120966   4.413   2.590  11.435 -0.5134  0.3391  1.1583
 3111SOL    HW220967   4.542   2.522  11.485  0.6923  2.1068  1.7772
 3112SOL     OW20968   2.109   2.733   8.686  0.0800  0.1491  0.0400
 3112SOL    HW120969   2.031   2.680   8.702  0.2549 -0.1370 -0.0576
 3112SOL    HW220970   2.078   2.823   8.674 -0.2004  0.3790  2.4716
 3113SOL     OW20971   1.961   0.136   5.589  0.0560  0.0141 -0.1668
 3113SOL    HW120972   1.908   0.121   5.511  1.4262 -0.9079 -0.9114
 3113SOL    HW220973   1.992   0.226   5.577  1.7572 -0.7461 -1.3885
 3114SOL     OW20974   3.531   0.531   2.751 -0.6009 -0.5491  0.6877
 3114SOL    HW120975   3.562   0.612   2.791 -1.2148 -1.1639  2.4168
 3114SOL    HW220976   3.477   0.567   2.681  2.3346  0.0872 -1.2935
 3115SOL     OW20977   1.665   0.863   4.710  0.3834  0.6055 -0.0351
 3115SOL    HW120978   1.635   0.775   4.732 -1.0823  0.6725 -1.7433
 3115SOL    HW220979   1.590   0.918   4.734 -0.0133  0.7638 -1.6025
 3116SOL     OW20980   1.817   3.633   3.127  0.1603 -0.2069  0.8026
 3116SOL    HW120981   1.840   3.726   3.132  2.2338 -0.7147  0.5606
 3116SOL    HW220982   1.756   3.630   3.201  1.9748  0.2394  2.3253
 3117SOL     OW20983   1.434   1.664   4.453 -0.0496  0.1714 -0.4505
 3117SOL    HW120984   1.429   1.569   4.464 -0.5331  0.0479 -1.7211
 3117SOL    HW220985   1.346   1.700   4.447 -0.7901 -1.5246  0.2690
 3118SOL     OW20986   0.963   0.737   3.129 -0.7922  0.0422 -0.1432
 3118SOL    HW120987   0.981   0.694   3.212  0.3472 -1.4601 -1.1738
 3118SOL    HW220988   0.887   0.792   3.152 -0.0755  0.1188  2.0237
 3119SOL     OW20989   1.132   3.602   6.273  0.1987 -0.0830 -0.0046
 3119SOL    HW120990   1.170   3.579   6.188 -0.2844 -0.1360 -0.2069
 3119SOL    HW220991   1.094   3.688   6.254  1.8105  0.8105  0.9167
 3120SOL     OW20992   3.669   1.536  15.202 -0.1249  0.2668 -0.0359
 3120SOL    HW120993   3.660   1.539  15.297 -0.5153  0.2980 -0.0726
 3120SOL    HW220994   3.738   1.600  15.188 -0.4847  0.3502 -1.4372
 3121SOL     OW20995   2.135   1.347   7.117  0.3897 -0.0803  0.0234
 3121SOL    HW120996   2.146   1.280   7.049  0.9910 -1.0889  1.1177
 3121SOL    HW220997   2.061   1.397   7.082 -1.7473 -2.8377  0.6021
 3122SOL     OW20998   3.161   3.195   7.939 -0.2506  0.2813 -0.1666
 3122SOL    HW120999   3.102   3.134   7.896  1.4662 -1.3014 -0.2676
 3122SOL    HW221000   3.101   3.246   7.994 -1.1150 -0.7738 -0.1478
 3123SOL     OW21001   0.247   2.149   6.157 -0.3252 -0.5245 -0.0614
 3123SOL    HW121002   0.229   2.241   6.140 -0.7126 -0.2790  1.6998
 3123SOL    HW221003   0.329   2.164   6.203 -0.6213 -2.7560  1.2170
 3124SOL     OW21004   0.179   2.723  10.064 -0.2988  0.3539  0.0283
 3124SOL    HW121005   0.212   2.650  10.116  0.1430  0.6283  0.1313
 3124SOL    HW221006   0.152   2.683   9.981  0.0239 -0.4957  0.3330
 3125SOL     OW21007   4.267   3.375  14.836  0.3846 -0.4100  0.8586
 3125SOL    HW121008   4.183   3.331  14.846 -1.7020  3.4293 -0.1523
 3125SOL    HW221009   4.242   3.449  14.782  1.6613 -0.8724 -0.3868
 3126SOL     OW21010   3.247   2.700   6.771  0.1074 -0.0683 -0.2716
 3126SOL    HW121011   3.289   2.622   6.735  1.8929  0.8723 -0.2307
 3126SOL    HW221012   3.169   2.660   6.810  0.7959 -0.9074  0.2464
 3127SOL     OW21013   4.125   0.653   8.309  0.3581 -0.3470  0.1497
 3127SOL    HW121014   4.037   0.617   8.322 -0.1649  0.9470  0.1563
 3127SOL    HW221015   4.127   0.660   8.213 -1.8581 -1.8219 -0.0121
 3128SOL     OW21016   0.715   0.007   1.356  0.1943 -0.3334 -0.4181
 3128SOL    HW121017   0.806   0.033   1.372  1.2667 -3.8344 -0.6719
 3128SOL    HW221018   0.733   4.675   1.290  0.9332  0.3374 -0.8970
 3129SOL     OW21019   3.801   3.439  17.727 -0.1186  0.1718 -0.8279
 3129SOL    HW121020   3.790   3.465  17.635 -0.5731 -0.7111 -1.0195
 3129SOL    HW221021   3.880   3.487   0.015 -0.5638  1.5295 -1.9377
 3130SOL     OW21022   4.386   2.976   8.324  0.2126  0.2428 -0.6688
 3130SOL    HW121023   4.397   2.920   8.400  1.5879 -1.7710 -2.3490
 3130SOL    HW221024   4.355   2.913   8.258 -0.5554 -0.2903  0.1995
 3131SOL     OW21025   2.451   1.982   8.646 -0.5616 -0.3189 -0.6468
 3131SOL    HW121026   2.358   2.003   8.638 -0.2457  0.2213 -2.8474
 3131SOL    HW221027   2.469   1.935   8.565 -0.0626 -0.7447 -0.2847
 3132SOL     OW21028   2.967   0.364   3.435 -0.2801 -0.2442 -0.3200
 3132SOL    HW121029   3.007   0.285   3.471  0.4433  1.0220  1.6810
 3132SOL    HW221030   2.887   0.377   3.486  0.9035  1.2989  1.1673
 3133SOL     OW21031   0.037   3.431  15.188  0.1602  0.5075  0.1931
 3133SOL    HW121032   0.034   3.390  15.101 -0.3339  0.2822  0.3127
 3133SOL    HW221033   0.010   3.356  15.242 -0.1221 -1.7569 -3.1041
 3134SOL     OW21034   0.300   3.290   2.471 -0.3235  0.3178 -0.0490
 3134SOL    HW121035   0.388   3.254   2.480 -0.4166 -0.0993 -0.7985
 3134SOL    HW221036   0.245   3.226   2.517 -0.9801  0.8053 -0.1534
 3135SOL     OW21037   1.713   4.125   3.042  0.2685 -0.5258  0.2275
 3135SOL    HW121038   1.680   4.207   3.078  0.5970  0.1249 -0.9425
 3135SOL    HW221039   1.806   4.146   3.035 -0.4851  1.7619 -2.6801
 3136SOL     OW21040   3.402   1.465   6.042  0.0135 -0.5153 -0.3285
 3136SOL    HW121041   3.423   1.461   6.136  3.9860 -0.2795 -1.2278
 3136SOL    HW221042   3.329   1.528   6.042  1.5062  1.1973 -0.8787
 3137SOL     OW21043   1.874   0.042   4.822 -0.4051  0.5697  0.2263
 3137SOL    HW121044   1.969   0.036   4.809 -0.5271  1.0805 -0.8818
 3137SOL    HW221045   1.879   0.063   4.915 -1.7458 -0.4870  0.5319
 3138SOL     OW21046   2.077   2.591   5.679  0.2219 -0.2497  0.3738
 3138SOL    HW121047   2.066   2.502   5.713  2.0239 -1.4212 -2.0983
 3138SOL    HW221048   2.117   2.627   5.758 -1.5670  0.8066  0.7975
 3139SOL     OW21049   4.201   0.694  15.914  0.0119 -0.3467  0.1410
 3139SOL    HW121050   4.137   0.735  15.855 -1.0156 -2.7617 -0.4180
 3139SOL    HW221051   4.154   0.616  15.944 -0.4407 -0.3405 -0.5533
 3140SOL     OW21052   1.451   0.623   4.665 -0.3067 -0.3914 -0.2094
 3140SOL    HW121053   1.403   0.634   4.583 -2.1168  1.7549  1.1512
 3140SOL    HW221054   1.515   0.556   4.640 -0.7681 -0.7301 -0.4916
 3141SOL     OW21055   2.721   2.513   8.693 -0.0729  0.6307  0.3518
 3141SOL    HW121056   2.696   2.463   8.615 -0.5660  2.8979 -0.9752
 3141SOL    HW221057   2.647   2.493   8.749 -0.9861  2.0861 -0.3153
 3142SOL     OW21058   2.592   4.312   8.192 -0.4219 -0.4360  0.1436
 3142SOL    HW121059   2.549   4.232   8.225 -5.0402  1.6582 -0.8428
 3142SOL    HW221060   2.521   4.360   8.150 -0.5039  0.2507  1.0765
 3143SOL     OW21061   1.308   2.691   5.241  0.5596  0.1806  0.2376
 3143SOL    HW121062   1.303   2.597   5.222  1.6313 -0.3461  2.5211
 3143SOL    HW221063   1.218   2.713   5.265  0.2394  0.0200 -0.8131
 3144SOL     OW21064   4.179   0.421   6.231  0.2436  0.4543  0.2392
 3144SOL    HW121065   4.175   0.512   6.261 -0.4907  0.6093 -0.3285
 3144SOL    HW221066   4.236   0.424   6.154  0.6700  0.7245  0.5674
 3145SOL     OW21067   3.122   3.243   7.125  0.4392 -0.5796  0.2173
 3145SOL    HW121068   3.079   3.206   7.048  0.3849 -0.6020  0.2578
 3145SOL    HW221069   3.208   3.257   7.087 -0.5153 -0.9110 -2.1043
 3146SOL     OW21070   3.832   1.514   4.442 -0.1565  1.2416  0.2546
 3146SOL    HW121071   3.778   1.590   4.423  0.3120  1.2762 -0.9502
 3146SOL    HW221072   3.774   1.438   4.431 -0.6633  1.7233 -0.3966
 3147SOL     OW21073   2.419   0.178   7.723 -0.0060 -0.2410  0.0085
 3147SOL    HW121074   2.358   0.228   7.669 -0.4389  0.5032  1.1908
 3147SOL    HW221075   2.504   0.217   7.703  0.6283  0.7542  4.6137
 3148SOL     OW21076   1.742   1.688   2.752 -0.6254 -0.7041  0.0531
 3148SOL    HW121077   1.714   1.754   2.816  0.7482  1.2949 -1.3909
 3148SOL    HW221078   1.804   1.734   2.694 -1.8839  0.9207 -0.0221
 3149SOL     OW21079   4.497   1.245   2.046  0.1847  0.8848 -0.4642
 3149SOL    HW121080   4.485   1.183   2.117  1.5629 -0.0323 -1.0332
 3149SOL    HW221081   4.435   1.210   1.982 -0.6566  3.5004 -1.0873
 3150SOL     OW21082   0.446   2.619   7.386  0.0132  0.2304 -0.3180
 3150SOL    HW121083   0.400   2.699   7.363 -0.8238 -0.2904 -0.4691
 3150SOL    HW221084   0.535   2.648   7.368 -0.5189  0.7381 -2.1871
 3151SOL     OW21085   1.090   0.963   3.629 -0.2692  0.5730  0.3378
 3151SOL    HW121086   1.163   0.994   3.683  0.9590 -2.5691  0.4488
 3151SOL    HW221087   1.022   0.936   3.691  0.5119 -0.5735  0.6876
 3152SOL     OW21088   2.514   2.925   5.520  0.1626  0.2108  0.2131
 3152SOL    HW121089   2.508   2.969   5.605 -3.9955 -0.7765  0.4169
 3152SOL    HW221090   2.557   2.989   5.463  2.0563 -1.0840  0.1896
 3153SOL     OW21091   2.211   4.276   5.793  0.0778  0.1447  0.3143
 3153SOL    HW121092   2.251   4.191   5.809  0.6160 -0.0356 -1.9418
 3153SOL    HW221093   2.264   4.333   5.849  0.7133 -2.0221  1.9243
 3154SOL     OW21094   1.300   1.381   5.300 -0.3472  0.3175  0.1627
 3154SOL    HW121095   1.284   1.475   5.299 -2.5746 -0.0846 -0.9401
 3154SOL    HW221096   1.347   1.367   5.217  0.9330  1.7765  0.6479
 3155SOL     OW21097   3.936   4.314  12.081  0.3774 -0.1989 -0.3887
 3155SOL    HW121098   3.935   4.343  11.990  1.7217 -1.0876 -0.6997
 3155SOL    HW221099   3.924   4.399  12.123  0.7884 -0.7750  0.8933
 3156SOL     OW21100   1.007   2.765   0.790  0.0352 -0.2289 -0.3940
 3156SOL    HW121101   1.050   2.690   0.832  1.4972  2.2850  2.6365
 3156SOL    HW221102   1.018   2.730   0.702 -0.1940 -1.5116  0.0787
 3157SOL     OW21103   1.018   3.227   9.290 -0.7317  0.0903 -0.3074
 3157SOL    HW121104   1.056   3.234   9.378  2.4102  2.2741 -1.8223
 3157SOL    HW221105   0.958   3.155   9.308  1.6514 -1.2276  2.5443
 3158SOL     OW21106   2.515   1.337   4.109 -0.4648 -0.0877 -0.1876
 3158SOL    HW121107   2.551   1.385   4.034 -2.0263  1.7286  0.2562
 3158SOL    HW221108   2.427   1.315   4.078 -0.2487 -0.9024 -0.2273
 3159SOL     OW21109   3.576   4.100   0.944  0.5792  0.2790  0.4918
 3159SOL    HW121110   3.539   4.059   1.022  0.3392  0.3296  0.4062
 3159SOL    HW221111   3.668   4.121   0.958  1.0043 -0.6184 -0.9272
 3160SOL     OW21112   1.101   1.243   1.016 -0.2955 -0.1889  0.9745
 3160SOL    HW121113   1.134   1.155   0.996 -3.8549 -0.9703 -1.6344
 3160SOL    HW221114   1.187   1.283   1.017 -0.4522  0.2261 -1.0279
 3161SOL     OW21115   2.421   1.162  15.063 -0.0650  0.1288 -0.6782
 3161SOL    HW121116   2.405   1.087  15.120  1.5009  0.7152  0.5404
 3161SOL    HW221117   2.517   1.157  15.066 -0.1364 -1.2471 -0.4928
 3162SOL     OW21118   1.418   3.878  11.934  0.1408  0.2972 -0.6389
 3162SOL    HW121119   1.431   3.930  12.013  0.1079  0.0710 -0.4844
 3162SOL    HW221120   1.469   3.931  11.872  0.4466  0.9236  0.1541
 3163SOL     OW21121   3.076   2.571   2.204 -0.0529  0.1386  0.0342
 3163SOL    HW121122   3.120   2.492   2.173 -1.2562 -0.6653  0.3873
 3163SOL    HW221123   3.075   2.622   2.123 -1.5716 -0.5118 -0.3542
 3164SOL     OW21124   4.583   3.478  11.911  0.0103 -0.0721  0.3467
 3164SOL    HW121125   4.606   3.536  11.984  0.5358  2.0609 -1.4994
 3164SOL    HW221126   4.653   3.498  11.848 -0.1487  0.2465  0.2705
 3165SOL     OW21127   0.502   1.481   6.823  0.6330  0.3268 -0.2959
 3165SOL    HW121128   0.533   1.550   6.882 -1.2726  2.4866 -1.8754
 3165SOL    HW221129   0.545   1.506   6.741  1.8458  1.7977  0.7878
 3166SOL     OW21130   4.135   4.456   3.935  0.5791  0.0460  0.3946
 3166SOL    HW121131   4.168   4.427   4.020 -0.3783 -0.8198  0.4723
 3166SOL    HW221132   4.052   4.496   3.960  0.2136 -0.9401  0.7392
 3167SOL     OW21133   4.428   0.298   8.703 -0.3199  0.0707 -0.4573
 3167SOL    HW121134   4.486   0.347   8.762  0.2032  0.7368 -1.5385
 3167SOL    HW221135   4.349   0.350   8.715  0.7754  1.6520 -0.1375
 3168SOL     OW21136   0.705   1.582   0.692  0.2757 -0.3033 -0.3545
 3168SOL    HW121137   0.627   1.612   0.738  1.7256  3.4562 -0.4044
 3168SOL    HW221138   0.715   1.653   0.629  0.5951 -0.5428 -0.5754
 3169SOL     OW21139   0.784   3.597   1.448  0.1657 -0.5528 -0.0022
 3169SOL    HW121140   0.853   3.602   1.382 -0.0163 -1.9330 -0.3013
 3169SOL    HW221141   0.795   3.685   1.484  2.4501 -0.0127 -2.0322
 3170SOL     OW21142   3.809   3.144  13.463 -0.1333  0.6878  0.5147
 3170SOL    HW121143   3.772   3.100  13.388  1.5358 -1.1194  0.7597
 3170SOL    HW221144   3.733   3.192  13.496 -0.4974  0.3584  0.1475
 3171SOL     OW21145   4.597   4.392   8.445 -0.2416 -0.0953 -0.1275
 3171SOL    HW121146   4.639   4.306   8.441 -1.6984 -0.8692  1.4540
 3171SOL    HW221147   4.503   4.377   8.446 -0.7034  2.9341  0.0300
 3172SOL     OW21148   4.407   3.358  11.322 -0.2652  0.6202 -0.6122
 3172SOL    HW121149   4.378   3.341  11.411  1.9850 -1.1522 -0.2273
 3172SOL    HW221150   4.435   3.448  11.337 -0.3635  0.5012  0.2841
 3173SOL     OW21151   2.866   3.537   9.434 -0.0752 -0.1670 -0.5621
 3173SOL    HW121152   2.850   3.601   9.503 -0.4560 -0.2739 -0.5517
 3173SOL    HW221153   2.828   3.589   9.362 -0.8113 -1.4161 -1.0814
 3174SOL     OW21154   3.308   3.013  11.226  0.3079 -0.5188 -0.1721
 3174SOL    HW121155   3.375   2.970  11.280  0.4541  1.2061  1.0208
 3174SOL    HW221156   3.351   3.023  11.141  0.4037 -1.2451 -0.2091
 3175SOL     OW21157   4.120   1.315   9.066  0.2654 -0.2089 -0.0471
 3175SOL    HW121158   4.072   1.299   8.986  0.9236  0.9579 -0.6679
 3175SOL    HW221159   4.152   1.399   9.035  0.5876 -1.1191 -2.2032
 3176SOL     OW21160   4.302   0.766   4.658 -0.4268 -0.2619  0.1630
 3176SOL    HW121161   4.274   0.721   4.579 -1.0461  0.8461 -0.2455
 3176SOL    HW221162   4.393   0.788   4.639 -0.9510 -0.0789 -2.0518
 3177SOL     OW21163   4.393   2.201   5.379  0.0078 -0.3048  0.2759
 3177SOL    HW121164   4.345   2.167   5.455  1.7055 -0.6808  1.1677
 3177SOL    HW221165   4.478   2.182   5.417 -0.3977  2.2769  2.4718
 3178SOL     OW21166   1.827   0.794  13.573  0.0717 -0.0019  0.0421
 3178SOL    HW121167   1.886   0.738  13.623  1.1574  0.9213 -0.1899
 3178SOL    HW221168   1.765   0.818  13.642 -1.6374 -0.9733 -1.1624
 3179SOL     OW21169   3.711   3.930   3.206 -0.1595 -0.3206  0.1684
 3179SOL    HW121170   3.730   3.869   3.134  0.2496  0.5599 -0.4722
 3179SOL    HW221171   3.660   3.883   3.272 -0.7267 -1.9114 -1.3767
 3180SOL     OW21172   1.336   2.102   5.571  0.0923  0.1663 -0.1584
 3180SOL    HW121173   1.251   2.140   5.548 -0.1242  0.2076  0.7030
 3180SOL    HW221174   1.313   2.013   5.596 -1.4846  0.5395 -0.2830
 3181SOL     OW21175   4.528   0.529   9.523 -0.9071  0.0229  0.9055
 3181SOL    HW121176   4.594   0.548   9.455 -0.4171 -1.0416  1.0873
 3181SOL    HW221177   4.454   0.580   9.492 -0.5138  0.3006  0.4134
 3182SOL     OW21178   1.118   4.699   8.039 -0.3538 -0.0724 -0.1340
 3182SOL    HW121179   1.209   4.714   8.013 -0.0457  1.7348  2.0326
 3182SOL    HW221180   1.124   4.631   8.106 -2.2822 -0.0345  0.0881
 3183SOL     OW21181   2.310   0.683  12.140  0.2984 -0.2176  0.9609
 3183SOL    HW121182   2.388   0.635  12.112 -0.5528 -1.8716  1.3989
 3183SOL    HW221183   2.354   0.768  12.147  0.1512 -0.0861  0.2962
 3184SOL     OW21184   1.735   1.267   2.657  0.2534 -0.3183  0.0454
 3184SOL    HW121185   1.686   1.348   2.675  3.2368  1.5363 -0.0158
 3184SOL    HW221186   1.744   1.269   2.562  1.6076 -1.0214  0.1592
 3185SOL     OW21187   3.448   4.688   6.585 -0.4009 -0.3934  0.8234
 3185SOL    HW121188   3.376   0.012   6.607 -1.4768 -0.3054 -2.9705
 3185SOL    HW221189   3.456   4.699   6.491  0.5896 -1.4820  0.7713
 3186SOL     OW21190   2.829   2.163   8.928 -0.0143  0.0708 -0.2839
 3186SOL    HW121191   2.812   2.254   8.951  0.6333 -0.1463  1.0179
 3186SOL    HW221192   2.772   2.151   8.851  0.8064  0.1852 -0.9052
 3187SOL     OW21193   0.210   3.177  13.488  0.1541  0.0530 -0.2390
 3187SOL    HW121194   0.267   3.124  13.431  0.4812  0.7558 -0.5719
 3187SOL    HW221195   0.129   3.195  13.440 -0.6600 -0.9064  0.7932
 3188SOL     OW21196   0.816   0.913  14.332 -0.2237  0.0125 -0.8493
 3188SOL    HW121197   0.745   0.850  14.317 -0.3206  0.1338 -0.8949
 3188SOL    HW221198   0.794   0.943  14.421  1.6059  1.5166 -0.8949
 3189SOL     OW21199   0.699   2.927  10.782  0.6711 -0.4054 -0.0419
 3189SOL    HW121200   0.768   2.875  10.740 -0.4884 -1.2621 -0.9055
 3189SOL    HW221201   0.665   2.972  10.704 -0.0751  1.2160  1.2168
 3190SOL     OW21202   0.006   0.628   9.377  0.0083  0.2639 -0.0071
 3190SOL    HW121203   0.031   0.676   9.456 -0.6201 -2.2658  1.7172
 3190SOL    HW221204   0.048   0.681   9.309  0.8376  0.2110  0.4723
 3191SOL     OW21205   2.335   0.361   8.954 -0.5903 -0.0740 -0.4047
 3191SOL    HW121206   2.310   0.274   8.985  1.2504  0.0400  1.4362
 3191SOL    HW221207   2.428   0.344   8.940 -0.1211  1.6180  0.6333
 3192SOL     OW21208   2.122   1.547   4.645  0.4428 -0.0156 -0.3001
 3192SOL    HW121209   2.181   1.519   4.715 -0.8355 -2.6057 -0.2765
 3192SOL    HW221210   2.150   1.638   4.635  1.8691 -0.6220 -1.7954
 3193SOL     OW21211   4.396   0.761   4.276  0.1467  0.2422 -0.5635
 3193SOL    HW121212   4.348   0.704   4.215 -0.9377  0.2116  0.3180
 3193SOL    HW221213   4.331   0.808   4.327 -2.2131 -0.8665 -2.5371
 3194SOL     OW21214   0.549   2.732  10.890  0.1726 -0.0348  0.1149
 3194SOL    HW121215   0.502   2.764  10.966  0.0302  0.5202 -0.2050
 3194SOL    HW221216   0.580   2.816  10.855 -0.4369 -0.0986 -0.5791
 3195SOL     OW21217   4.492   2.701   5.631  0.4356 -0.1112  0.2259
 3195SOL    HW121218   4.513   2.795   5.630 -1.6444  0.3682  1.0409
 3195SOL    HW221219   4.507   2.679   5.539 -1.2207  1.4370 -0.4147
 3196SOL     OW21220   2.994   1.889   0.430  0.0651 -0.2796 -0.3993
 3196SOL    HW121221   2.957   1.973   0.456 -0.7015 -0.6694 -0.2551
 3196SOL    HW221222   3.072   1.891   0.486 -1.8233 -0.2651  2.2112
 3197SOL     OW21223   3.747   2.758  17.152  0.0833  0.6179 -0.5123
 3197SOL    HW121224   3.714   2.793  17.069  1.2351 -1.1987 -1.7271
 3197SOL    HW221225   3.673   2.706  17.184 -0.0874 -0.3700 -2.5423
 3198SOL     OW21226   0.937   3.963  15.159  0.0012 -0.1543  0.3924
 3198SOL    HW121227   0.862   3.916  15.122 -0.8730  0.8039  0.9485
 3198SOL    HW221228   0.984   3.954  15.076  1.3224 -3.7072  1.5487
 3199SOL     OW21229   1.757   1.415   5.960  0.2703 -0.3525 -0.3618
 3199SOL    HW121230   1.766   1.339   6.017 -1.1202 -0.8886 -0.8585
 3199SOL    HW221231   1.675   1.451   5.995 -0.6602  0.3066 -3.2005
 3200SOL     OW21232   4.606   3.074   8.403  0.0185 -0.4424  0.0622
 3200SOL    HW121233   4.546   3.007   8.370 -1.1259  1.4559 -1.7264
 3200SOL    HW221234   4.564   3.095   8.486  3.5177  0.1880  1.6702
 3201SOL     OW21235   2.708   2.220   9.328 -0.0858  0.6091  0.8071
 3201SOL    HW121236   2.652   2.214   9.251 -2.5758 -1.0055  2.7353
 3201SOL    HW221237   2.676   2.303   9.362 -0.8089  1.3473 -1.7375
 3202SOL     OW21238   2.025   3.709  10.919 -0.4038  0.0274 -0.2129
 3202SOL    HW121239   2.029   3.786  10.976  0.6142  0.5848 -1.0276
 3202SOL    HW221240   1.929   3.709  10.910 -0.4771  0.0202  0.5910
 3203SOL     OW21241   0.830   3.843  10.271 -0.2105 -0.1449  0.4579
 3203SOL    HW121242   0.889   3.876  10.204 -0.7430 -0.7409 -0.3064
 3203SOL    HW221243   0.881   3.774  10.312  2.3014  1.2433 -0.3426
 3204SOL     OW21244   0.763   1.306   8.830  0.3836  0.4127  0.6905
 3204SOL    HW121245   0.681   1.351   8.853  0.9034  1.2588  0.8871
 3204SOL    HW221246   0.739   1.218   8.859 -0.9912  0.7844  0.7215
 3205SOL     OW21247   1.979   1.878  16.673 -0.5588 -0.7132  0.1263
 3205SOL    HW121248   2.023   1.918  16.748  0.2014  1.0170 -1.2497
 3205SOL    HW221249   1.921   1.948  16.642  0.2378  0.0755  0.4132
 3206SOL     OW21250   4.728   1.049   7.392 -0.1521  0.2429  0.2956
 3206SOL    HW121251   0.046   1.099   7.331 -2.1137  1.7846 -0.1525
 3206SOL    HW221252   4.639   1.080   7.376  0.0770  1.8070  2.0269
 3207SOL     OW21253   1.409   1.730  14.865  0.9418  0.5237  0.7523
 3207SOL    HW121254   1.446   1.731  14.953  3.0696 -0.0550 -0.1421
 3207SOL    HW221255   1.495   1.726  14.823 -0.0534 -0.9613 -1.1324
 3208SOL     OW21256   2.316   4.276  15.595 -0.2615 -0.2991 -0.4657
 3208SOL    HW121257   2.371   4.326  15.657  1.3228 -2.7046  0.0611
 3208SOL    HW221258   2.375   4.212  15.555  2.7413  1.5369  1.0129
 3209SOL     OW21259   0.506   1.130   2.076  0.8043  0.2138 -0.6235
 3209SOL    HW121260   0.559   1.126   2.155  1.7472  1.0258 -1.2259
 3209SOL    HW221261   0.419   1.129   2.116  1.2802 -3.5644  0.3392
 3210SOL     OW21262   2.461   1.538   7.753  0.0335  0.7174  0.1229
 3210SOL    HW121263   2.487   1.457   7.797 -1.6054 -0.1391 -0.4787
 3210SOL    HW221264   2.505   1.605   7.805  0.6841  0.6666 -0.3619
 3211SOL     OW21265   3.456   3.830   3.742 -0.1204 -0.4537 -0.1150
 3211SOL    HW121266   3.503   3.752   3.770 -0.0346 -0.7964 -1.2159
 3211SOL    HW221267   3.526   3.878   3.698  0.9574 -0.9214  1.0822
 3212SOL     OW21268   1.912   0.390   8.602  0.0168 -0.1680 -0.3626
 3212SOL    HW121269   2.004   0.363   8.594  0.0189 -0.4301  0.5389
 3212SOL    HW221270   1.867   0.306   8.589 -0.7457 -0.0182  1.2801
 3213SOL     OW21271   0.791   4.075   1.767  0.2077 -0.3474 -0.0289
 3213SOL    HW121272   0.805   4.070   1.862 -0.5054 -0.3740  0.0751
 3213SOL    HW221273   0.856   4.139   1.740 -0.3971 -0.3287 -1.4632
 3214SOL     OW21274   1.425   1.749   2.134  0.1684 -0.1113 -0.4770
 3214SOL    HW121275   1.427   1.755   2.229  0.0074  2.0647 -0.6090
 3214SOL    HW221276   1.355   1.812   2.120 -0.1467 -0.0947  1.2560
 3215SOL     OW21277   0.142   2.797   5.494 -0.0736  0.6417  0.1353
 3215SOL    HW121278   0.183   2.742   5.427 -0.4157 -0.7032  1.0245
 3215SOL    HW221279   0.088   2.855   5.441 -1.8640 -0.7156  0.4826
 3216SOL     OW21280   0.680   3.945   3.771 -0.6627 -0.1649 -0.1640
 3216SOL    HW121281   0.635   4.026   3.744 -0.3394  0.5961  1.6011
 3216SOL    HW221282   0.716   3.921   3.685  0.2254  2.0325 -0.4137
 3217SOL     OW21283   3.030   1.370   2.333 -0.3620  0.3724 -0.1707
 3217SOL    HW121284   3.030   1.296   2.394 -2.2528  0.6310  0.1403
 3217SOL    HW221285   3.123   1.390   2.340 -0.4745 -0.2674  2.9438
 3218SOL     OW21286   0.571   3.070   7.370 -0.0839  0.3906 -0.1564
 3218SOL    HW121287   0.637   3.033   7.429  0.1467  0.0631 -0.6155
 3218SOL    HW221288   0.617   3.111   7.297 -0.1241 -1.7492 -1.3898
 3219SOL     OW21289   4.038   1.283   5.704 -0.0577 -0.1773  0.3613
 3219SOL    HW121290   4.076   1.225   5.639  1.3872 -1.0369  1.9918
 3219SOL    HW221291   4.044   1.234   5.786 -0.3801 -2.5957 -1.0699
 3220SOL     OW21292   2.827   2.510   2.618  0.1056  0.5109 -1.0996
 3220SOL    HW121293   2.902   2.514   2.558  0.2710 -0.6350 -0.9555
 3220SOL    HW221294   2.750   2.517   2.561  0.2576  3.3411 -0.9562
 3221SOL     OW21295   3.738   0.509   5.588 -0.0246  0.2348 -0.1954
 3221SOL    HW121296   3.721   0.415   5.599 -0.1918  0.2858 -0.0092
 3221SOL    HW221297   3.741   0.537   5.680  0.2786 -0.4210 -0.0071
 3222SOL     OW21298   3.300   4.455   8.877 -0.2712  0.0788  0.0949
 3222SOL    HW121299   3.277   4.496   8.793 -1.1890 -1.4586 -0.4002
 3222SOL    HW221300   3.317   4.368   8.841  0.3603  0.2606 -0.0418
 3223SOL     OW21301   3.093   4.248   5.964  0.6692  0.0392  0.1431
 3223SOL    HW121302   3.124   4.170   6.010  2.6029  0.0818 -1.0627
 3223SOL    HW221303   3.062   4.294   6.042 -1.0912  0.6342 -0.9184
 3224SOL     OW21304   2.026   4.578  10.867  0.0139  0.3178 -0.2518
 3224SOL    HW121305   2.075   4.608  10.790  0.3745 -0.9556 -0.5261
 3224SOL    HW221306   1.966   4.652  10.875 -2.2122 -1.4787 -0.5906
 3225SOL     OW21307   4.450   4.183   9.035  0.0855  0.0244 -0.2851
 3225SOL    HW121308   4.539   4.213   9.013 -0.5389  0.6525 -1.9290
 3225SOL    HW221309   4.396   4.217   8.964 -0.1580  0.4819  0.1205
 3226SOL     OW21310   4.425   3.981   2.767 -0.4745 -0.3777  0.3569
 3226SOL    HW121311   4.498   3.951   2.713 -0.7758 -0.5699  0.0553
 3226SOL    HW221312   4.414   4.072   2.740 -0.0691 -0.7444 -1.0733
 3227SOL     OW21313   0.857   4.570   5.370  0.0146 -0.1629  0.0491
 3227SOL    HW121314   0.892   4.567   5.459 -1.8724  0.7992  0.8121
 3227SOL    HW221315   0.811   4.654   5.366 -1.2479 -0.8037  1.3928
 3228SOL     OW21316   2.361   2.047  17.697 -0.1155 -0.1565 -0.5507
 3228SOL    HW121317   2.284   2.055   0.015  1.7198  1.0833  1.7858
 3228SOL    HW221318   2.364   2.128  17.645  1.4295 -0.1947 -0.5171
 3229SOL     OW21319   4.514   2.112   8.947  0.6527  0.1858 -0.4105
 3229SOL    HW121320   4.446   2.171   8.978 -1.0592  0.1109 -4.0476
 3229SOL    HW221321   4.521   2.073   9.034 -2.0540  1.3518  0.3310
 3230SOL     OW21322   1.989   2.312   4.629 -0.4682 -0.2604 -0.1797
 3230SOL    HW121323   2.004   2.219   4.613  1.0586 -0.4274  2.2094
 3230SOL    HW221324   1.904   2.324   4.588 -1.2139 -0.2907  1.3425
 3231SOL     OW21325   3.379   0.410   3.516  0.3429  0.3090  0.4238
 3231SOL    HW121326   3.364   0.318   3.538  0.0305  0.2927  0.1423
 3231SOL    HW221327   3.432   0.413   3.436  0.2909 -0.0359  0.3773
 3232SOL     OW21328   3.731   4.135   5.437  0.8542 -0.0948 -0.1436
 3232SOL    HW121329   3.655   4.161   5.489  0.7350  0.4021 -0.5705
 3232SOL    HW221330   3.772   4.071   5.495  0.9482  0.8005  0.7757
 3233SOL     OW21331   4.502   1.500  10.359 -0.1688  0.2891 -0.3358
 3233SOL    HW121332   4.409   1.520  10.352 -0.3621 -0.5514 -0.1788
 3233SOL    HW221333   4.537   1.548  10.284  1.5594  0.2401  0.4444
 3234SOL     OW21334   1.913   1.629   5.930 -0.4421  0.1971  0.5958
 3234SOL    HW121335   1.864   1.676   5.863  0.2028  2.6897  1.8766
 3234SOL    HW221336   1.864   1.547   5.935  0.1287 -0.1281  0.8937
 3235SOL     OW21337   3.459   3.631   1.270  0.5490  0.0215  0.0219
 3235SOL    HW121338   3.384   3.692   1.268 -0.6789 -1.4937  0.2253
 3235SOL    HW221339   3.495   3.647   1.357 -2.8142 -0.3151  1.5020
 3236SOL     OW21340   2.545   2.427   7.108  0.1671 -0.3677 -0.2662
 3236SOL    HW121341   2.560   2.391   7.021 -0.9080  0.9963 -1.0179
 3236SOL    HW221342   2.554   2.521   7.093 -0.2830 -0.5847 -1.8307
 3237SOL     OW21343   3.403   0.857  11.681 -0.0839  0.2372  0.3719
 3237SOL    HW121344   3.346   0.892  11.612 -2.4532  2.5276  3.4807
 3237SOL    HW221345   3.448   0.940  11.696  0.3001  0.3802 -1.5438
 3238SOL     OW21346   2.870   3.660   4.772  0.1171  0.0913 -0.1448
 3238SOL    HW121347   2.932   3.706   4.715  0.9668 -2.1883 -1.0643
 3238SOL    HW221348   2.873   3.575   4.728 -1.2028 -0.5018  0.9084
 3239SOL     OW21349   3.308   1.967   8.955  0.2386  0.0299 -0.5116
 3239SOL    HW121350   3.240   2.025   8.919 -1.6741 -0.9923  1.4299
 3239SOL    HW221351   3.328   2.007   9.040 -1.6851  1.8794 -0.9197
 3240SOL     OW21352   3.938   0.519  14.625 -0.2589 -0.1425  0.0539
 3240SOL    HW121353   3.842   0.525  14.622 -0.2336 -0.2383 -1.3860
 3240SOL    HW221354   3.969   0.566  14.547  2.2413 -0.5878  0.7777
 3241SOL     OW21355   2.670   3.348   7.490  0.1047  0.4693 -0.7455
 3241SOL    HW121356   2.690   3.439   7.467 -3.1480  0.9946 -1.4705
 3241SOL    HW221357   2.749   3.307   7.455  1.3489  2.0567  0.1719
 3242SOL     OW21358   0.110   0.581   6.271 -0.1859 -0.2456  0.3964
 3242SOL    HW121359   0.179   0.579   6.338  0.7607 -2.9737 -0.6391
 3242SOL    HW221360   0.048   0.516   6.304 -0.5222 -0.3378 -0.4264
 3243SOL     OW21361   2.747   0.042   0.397 -0.0493  0.3411 -0.6637
 3243SOL    HW121362   2.744   4.718   0.321 -1.7176  0.2540 -0.5197
 3243SOL    HW221363   2.654   0.062   0.398  0.1061  0.7889  2.3075
 3244SOL     OW21364   1.634   4.128   5.210 -0.4702 -0.1880  0.3437
 3244SOL    HW121365   1.564   4.148   5.148  0.8361 -4.8088 -2.5799
 3244SOL    HW221366   1.589   4.111   5.293  0.2917 -0.0154  0.7915
 3245SOL     OW21367   0.309   4.639   4.555  0.2683  0.1931 -0.1163
 3245SOL    HW121368   0.344   4.560   4.513 -0.5563 -0.7766  0.9893
 3245SOL    HW221369   0.265   4.606   4.634 -2.7919 -1.6618 -2.6004
 3246SOL     OW21370   2.706   3.376   1.563  0.0474 -0.6563 -0.2806
 3246SOL    HW121371   2.720   3.297   1.510  2.2373 -0.0040 -0.6614
 3246SOL    HW221372   2.611   3.385   1.557 -0.0346 -1.1870  0.1940
 3247SOL     OW21373   4.203   1.198   2.285  0.4746 -0.2986  0.0961
 3247SOL    HW121374   4.135   1.148   2.240  0.0587 -1.6783  2.2771
 3247SOL    HW221375   4.284   1.156   2.255 -0.8157 -4.0059  1.7785
 3248SOL     OW21376   2.564   1.234   2.925 -0.0224 -0.3667 -0.2678
 3248SOL    HW121377   2.646   1.201   2.961 -0.3719  0.4058  1.2384
 3248SOL    HW221378   2.611   1.307   2.884 -0.8949 -0.4368 -1.4064
 3249SOL     OW21379   4.540   0.524  15.325 -0.1956 -0.7902  0.3513
 3249SOL    HW121380   4.480   0.518  15.251 -1.7189  1.5112  1.4185
 3249SOL    HW221381   4.525   0.444  15.377 -1.4487  0.5197  1.9868
 3250SOL     OW21382   3.989   0.817   3.033  0.1781 -0.4345  0.4331
 3250SOL    HW121383   3.956   0.903   3.061  2.4920  0.0836  1.5219
 3250SOL    HW221384   4.032   0.832   2.949  1.4416  1.1520  1.3540
 3251SOL     OW21385   0.991   2.426   8.983  0.6705  0.0073  0.1271
 3251SOL    HW121386   0.987   2.330   8.991  0.7931 -0.1912 -2.0427
 3251SOL    HW221387   1.021   2.430   8.892  0.9169  0.3856  0.2288
 3252SOL     OW21388   4.498   4.570   7.682  0.2237 -0.2518  0.0545
 3252SOL    HW121389   4.402   4.573   7.685  0.2548 -0.0188  0.8958
 3252SOL    HW221390   4.517   4.563   7.776  1.2793 -0.2979 -0.1711
 3253SOL     OW21391   0.933   0.995   4.233 -0.5019  0.1297  0.7983
 3253SOL    HW121392   0.881   1.003   4.153  0.0219 -0.1905  0.4295
 3253SOL    HW221393   0.898   1.058   4.296 -1.7934  1.1760 -0.9861
 3254SOL     OW21394   1.003   3.226   3.926 -0.2777 -0.2234  0.4413
 3254SOL    HW121395   1.041   3.313   3.936  0.9967 -0.7836  0.4751
 3254SOL    HW221396   0.912   3.249   3.946 -0.5463 -1.3373  0.4949
 3255SOL     OW21397   1.565   0.381  11.715 -0.0884 -0.0082 -0.0205
 3255SOL    HW121398   1.551   0.464  11.760 -0.0173 -1.0278  1.9137
 3255SOL    HW221399   1.653   0.390  11.679 -0.2814  0.4425 -0.3699
 3256SOL     OW21400   0.920   3.391   7.936  0.1917  0.3345  0.5040
 3256SOL    HW121401   0.958   3.334   7.870  0.5713  2.5569 -1.2103
 3256SOL    HW221402   1.002   3.424   7.972  0.3753  0.7806 -0.3118
 3257SOL     OW21403   1.846   1.805   8.949 -0.5097 -0.2786  0.5490
 3257SOL    HW121404   1.843   1.838   8.859  0.1879  0.0859  0.6594
 3257SOL    HW221405   1.783   1.864   8.990  0.0383  0.9517 -0.3474
 3258SOL     OW21406   3.230   1.308   2.958  0.2337  0.3717 -0.0562
 3258SOL    HW121407   3.222   1.366   2.882  1.7010  0.0109 -0.4898
 3258SOL    HW221408   3.187   1.357   3.028 -1.5955 -4.0866  1.9153
 3259SOL     OW21409   2.278   0.955   9.183  0.3598  0.0266 -0.0227
 3259SOL    HW121410   2.282   0.896   9.258  2.4191  0.3390  0.1229
 3259SOL    HW221411   2.368   0.950   9.149  1.3071 -0.6038  2.6094
 3260SOL     OW21412   0.585   3.925   8.629  0.2670  0.3502  0.2003
 3260SOL    HW121413   0.560   3.966   8.546 -0.9613  3.1178  1.9230
 3260SOL    HW221414   0.530   3.847   8.621  1.2855 -0.3781  0.2887
 3261SOL     OW21415   3.539   4.459  10.403  0.0095 -0.4579  0.3816
 3261SOL    HW121416   3.449   4.427  10.391  0.5442 -1.9385  0.3367
 3261SOL    HW221417   3.578   4.400  10.338  0.6067 -1.6463  1.8058
 3262SOL     OW21418   2.031   2.685   6.488  0.5017  0.3365  0.5577
 3262SOL    HW121419   2.098   2.707   6.553  2.1827 -3.9533  0.2752
 3262SOL    HW221420   2.020   2.591   6.496  0.5109  0.3039  0.1953
 3263SOL     OW21421   3.564   3.839   9.150  0.7190  0.4332 -0.2739
 3263SOL    HW121422   3.643   3.884   9.180 -0.5237  1.6331  1.1547
 3263SOL    HW221423   3.537   3.876   9.066  2.7734  0.6881 -0.8222
 3264SOL     OW21424   3.840   2.637   2.578 -0.5954 -0.2262 -0.1957
 3264SOL    HW121425   3.851   2.731   2.593 -1.3780 -0.4076  1.5708
 3264SOL    HW221426   3.930   2.605   2.570 -0.3852  0.3640 -0.1821
 3265SOL     OW21427   3.530   1.073   3.279  0.2050  0.2876  0.4905
 3265SOL    HW121428   3.530   1.169   3.281 -2.9359  0.3210 -0.5071
 3265SOL    HW221429   3.571   1.056   3.364  2.0157 -0.8888 -0.6113
 3266SOL     OW21430   3.803   1.847  15.856  0.7793  0.1045 -0.0422
 3266SOL    HW121431   3.897   1.847  15.840  0.6576 -0.9237 -0.7820
 3266SOL    HW221432   3.783   1.937  15.881  1.0786  0.5068 -1.2283
 3267SOL     OW21433   2.377   2.630  13.175 -0.2036 -0.2871  0.0118
 3267SOL    HW121434   2.418   2.605  13.092 -1.0909  1.1172 -0.8460
 3267SOL    HW221435   2.334   2.551  13.207 -0.9183  0.0290 -0.1722
 3268SOL     OW21436   0.964   4.612   8.350 -0.3491  0.4311 -0.0921
 3268SOL    HW121437   0.869   4.599   8.348 -0.1254 -1.2104  0.2651
 3268SOL    HW221438   0.995   4.545   8.289 -0.6687 -0.3281  0.5902
 3269SOL     OW21439   1.212   1.096   6.413  0.2299 -0.3148  0.3628
 3269SOL    HW121440   1.131   1.065   6.373  0.0603  1.3938 -0.6203
 3269SOL    HW221441   1.220   1.042   6.491 -1.4609 -3.5469 -1.6808
 3270SOL     OW21442   0.747   0.644   4.657 -0.0783 -0.0976 -0.1525
 3270SOL    HW121443   0.811   0.636   4.587  0.4748 -2.4253  0.6272
 3270SOL    HW221444   0.670   0.596   4.627 -0.4059  0.1640  0.2622
 3271SOL     OW21445   3.038   0.416   3.065 -0.6117  0.5728  0.0664
 3271SOL    HW121446   3.133   0.412   3.071 -0.6262  1.7759  1.2947
 3271SOL    HW221447   3.018   0.491   3.008  1.0840 -0.0508 -1.3366
 3272SOL     OW21448   0.259   1.528   9.871  0.5857  0.2734  0.4613
 3272SOL    HW121449   0.284   1.570   9.789 -0.0731 -0.0602  0.0935
 3272SOL    HW221450   0.259   1.604   9.929  0.0987 -1.5199  2.8237
 3273SOL     OW21451   0.160   0.478   5.209 -0.5429  0.0092  0.2222
 3273SOL    HW121452   0.220   0.425   5.262  1.3425  0.8195 -1.0966
 3273SOL    HW221453   0.121   0.408   5.157 -0.8657 -0.1910  0.7407
 3274SOL     OW21454   4.691   2.250   3.648  0.2301 -0.0167 -0.9094
 3274SOL    HW121455   4.700   2.341   3.678  1.4838 -0.1028 -1.0092
 3274SOL    HW221456   4.652   2.212   3.726 -0.2893 -0.7940 -1.5421
 3275SOL     OW21457   2.582   1.215   0.519  0.4763 -0.1537 -0.2248
 3275SOL    HW121458   2.568   1.195   0.611  0.3968 -0.7823 -0.3682
 3275SOL    HW221459   2.513   1.277   0.498 -1.8635 -2.6360  0.0807
 3276SOL     OW21460   1.645   1.554   7.608  0.0519  0.2619 -0.7040
 3276SOL    HW121461   1.711   1.485   7.599  0.1079  0.3279 -0.8050
 3276SOL    HW221462   1.613   1.554   7.518  2.2221  0.6776 -1.4818
 3277SOL     OW21463   1.993   4.058  15.828  0.0624 -0.1185 -0.7498
 3277SOL    HW121464   1.950   4.143  15.829  2.8013  1.2293 -0.5291
 3277SOL    HW221465   1.931   4.004  15.877  1.1665 -1.7816 -1.1669
 3278SOL     OW21466   4.203   0.063   1.339 -0.0922  0.5289 -0.2176
 3278SOL    HW121467   4.247   0.148   1.347  2.7366 -0.9588  0.1463
 3278SOL    HW221468   4.189   0.057   1.244  1.6135  1.0148 -0.4951
 3279SOL     OW21469   3.757   2.836  13.999  0.0136  0.0425 -0.1561
 3279SOL    HW121470   3.852   2.847  13.994  0.2263 -1.2892  0.8406
 3279SOL    HW221471   3.720   2.858  13.914  0.3684  0.4180 -0.2108
 3280SOL     OW21472   0.948   1.492   2.411  0.9238 -0.1147  0.3834
 3280SOL    HW121473   0.955   1.402   2.443  1.0965 -0.8381 -1.6539
 3280SOL    HW221474   0.860   1.499   2.373  0.5960 -0.3209  1.0964
 3281SOL     OW21475   0.559   0.140   5.486 -0.2740 -0.4277 -0.0191
 3281SOL    HW121476   0.561   0.163   5.578  3.3917  3.0220 -0.9819
 3281SOL    HW221477   0.539   0.229   5.458  0.4689  0.2703  1.7185
 3282SOL     OW21478   3.899   0.989   5.652  1.0209  0.0384  0.1193
 3282SOL    HW121479   3.814   0.977   5.694  0.4556  0.1395 -0.9886
 3282SOL    HW221480   3.888   0.904   5.611 -2.0280  0.9627 -1.0517
 3283SOL     OW21481   0.537   3.709   1.700  0.6784  0.1450 -0.2829
 3283SOL    HW121482   0.489   3.768   1.758  2.6788  0.6826  0.8207
 3283SOL    HW221483   0.620   3.684   1.740  0.6262  1.6593  0.7860
 3284SOL     OW21484   3.795   4.469  11.181 -0.1674 -0.0077 -0.0260
 3284SOL    HW121485   3.788   4.422  11.264  1.3959  0.0555  0.1300
 3284SOL    HW221486   3.856   4.413  11.133 -0.3344 -0.9702  0.8741
 3285SOL     OW21487   3.285   2.108  12.004  0.6683  0.3182 -0.2486
 3285SOL    HW121488   3.231   2.148  12.072  1.8965  0.5109  0.6118
 3285SOL    HW221489   3.261   2.159  11.927  0.4020  3.1854  1.7204
 3286SOL     OW21490   4.389   1.872   3.587 -0.2088 -0.2570  0.1622
 3286SOL    HW121491   4.429   1.881   3.673 -0.9902 -1.0422  0.6085
 3286SOL    HW221492   4.452   1.833   3.527  1.6042  0.7017  1.4591
 3287SOL     OW21493   2.793   4.314   9.449  0.5007 -0.2528 -0.1651
 3287SOL    HW121494   2.727   4.245   9.441 -1.0211  0.9160  2.5894
 3287SOL    HW221495   2.742   4.383   9.490  0.7242  0.1671 -0.5962
 3288SOL     OW21496   2.890   3.657   8.446  0.1286  1.0255 -0.6989
 3288SOL    HW121497   2.969   3.617   8.410  1.0560  1.3943  0.8964
 3288SOL    HW221498   2.840   3.685   8.370  0.7544  3.1399 -0.3532
 3289SOL     OW21499   2.363   2.155   7.848  0.1263  0.3447 -1.1317
 3289SOL    HW121500   2.320   2.105   7.918 -1.7623  0.4646 -2.2220
 3289SOL    HW221501   2.316   2.237   7.859  0.3694  0.4572 -0.9327
 3290SOL     OW21502   3.393   2.961   7.288 -0.6060 -0.4560 -0.3203
 3290SOL    HW121503   3.482   2.992   7.301 -0.3089 -1.0720 -0.8843
 3290SOL    HW221504   3.355   3.048   7.298 -0.8615 -0.8821  2.6345
 3291SOL     OW21505   2.966   0.097   9.673  0.6128  0.0276  0.2078
 3291SOL    HW121506   2.891   0.102   9.614  0.4859  0.6349  0.4180
 3291SOL    HW221507   2.995   0.184   9.645 -0.2778 -0.0093 -0.8204
 3292SOL     OW21508   4.347   3.731   8.762  0.7530  0.1941  0.1625
 3292SOL    HW121509   4.435   3.757   8.734 -0.1668  1.9260 -1.1268
 3292SOL    HW221510   4.370   3.639   8.755 -0.6221 -0.2910  2.2092
 3293SOL     OW21511   3.244   2.244  12.240 -0.1266  0.2754  0.1830
 3293SOL    HW121512   3.179   2.175  12.253 -1.1686  0.7009 -2.7031
 3293SOL    HW221513   3.322   2.195  12.264  0.0628  0.2552 -0.4805
 3294SOL     OW21514   0.952   1.962  14.859 -0.3391 -0.0299 -0.0523
 3294SOL    HW121515   0.950   2.056  14.874 -0.4985 -0.0934  0.3092
 3294SOL    HW221516   1.045   1.959  14.835  0.2810  1.3009  2.1814
 3295SOL     OW21517   1.681   4.535   2.347 -0.5140  0.1962 -0.0204
 3295SOL    HW121518   1.777   4.539   2.348 -0.4366 -1.3632 -1.4892
 3295SOL    HW221519   1.663   4.519   2.440 -0.6078 -1.0365 -0.2477
 3296SOL     OW21520   0.973   3.629   5.900  0.0787  0.2006  0.1148
 3296SOL    HW121521   1.059   3.589   5.883 -0.1627  0.7934 -2.4637
 3296SOL    HW221522   0.926   3.562   5.949  1.6746 -1.0279 -0.0545
 3297SOL     OW21523   1.251   2.223  12.345  0.1732  0.6949 -0.1820
 3297SOL    HW121524   1.306   2.158  12.389 -1.6130 -0.7532 -0.1258
 3297SOL    HW221525   1.263   2.297  12.405 -1.2869  0.3064  0.5731
 3298SOL     OW21526   0.903   1.218   8.615 -0.4437 -0.0883  0.7654
 3298SOL    HW121527   0.821   1.219   8.666 -1.7495  1.4564 -1.3688
 3298SOL    HW221528   0.956   1.186   8.688 -1.8312  0.8278  2.1697
 3299SOL     OW21529   3.456   0.626   8.672 -0.0009 -0.0661 -0.6051
 3299SOL    HW121530   3.486   0.602   8.585 -1.7535 -0.3977 -1.1131
 3299SOL    HW221531   3.497   0.712   8.687 -0.8366  0.4810 -1.4396
 3300SOL     OW21532   1.258   1.322  16.169 -0.0572 -0.3291 -0.1539
 3300SOL    HW121533   1.217   1.390  16.222  4.2641  1.3893  0.9534
 3300SOL    HW221534   1.333   1.296  16.223 -1.1899 -0.3024  1.4207
 3301SOL     OW21535   4.473   2.029   4.188 -0.3534 -0.0726  0.1054
 3301SOL    HW121536   4.394   2.081   4.175 -0.9242 -0.9816 -0.0753
 3301SOL    HW221537   4.449   1.939   4.166  0.7213 -0.1304 -0.8498
 3302SOL     OW21538   4.401   4.592   1.363  0.3027  0.2315  0.1011
 3302SOL    HW121539   4.336   4.658   1.338 -0.5235 -0.5343  0.2239
 3302SOL    HW221540   4.445   4.635   1.436  0.3578  0.3738 -0.0177
 3303SOL     OW21541   2.326   1.470   6.073 -0.1046  0.1713  0.0513
 3303SOL    HW121542   2.232   1.453   6.079  0.6074 -3.4617  0.8518
 3303SOL    HW221543   2.341   1.484   6.166  3.1894  0.6673 -0.5625
 3304SOL     OW21544   2.707   2.611   2.907 -0.4040  0.3220 -0.4053
 3304SOL    HW121545   2.767   2.666   2.957  1.6015 -3.6783  1.5624
 3304SOL    HW221546   2.743   2.619   2.819  0.9034 -0.8793  0.0115
 3305SOL     OW21547   0.241   1.854   6.260  0.3470 -0.1333 -0.7459
 3305SOL    HW121548   0.250   1.921   6.193  1.2041  0.4112 -0.0812
 3305SOL    HW221549   0.322   1.804   6.249  0.0516 -1.0162  0.9459
 3306SOL     OW21550   2.652   0.563   5.587  0.2345 -0.5929  0.4187
 3306SOL    HW121551   2.607   0.502   5.528 -1.4880 -0.2779  1.4162
 3306SOL    HW221552   2.591   0.634   5.606  1.6421  0.9297 -0.7087
 3307SOL     OW21553   4.618   1.465   7.328  0.3082 -0.0324  0.7991
 3307SOL    HW121554   4.673   1.513   7.390 -0.4144  1.5007  0.2769
 3307SOL    HW221555   4.590   1.542   7.278 -0.7683 -0.9566 -0.0223
 3308SOL     OW21556   0.306   1.319   5.789  0.3089 -0.5196 -0.1574
 3308SOL    HW121557   0.235   1.271   5.748  0.2712  0.0777 -0.7809
 3308SOL    HW221558   0.261   1.358   5.864 -0.8743 -0.0780 -1.1223
 3309SOL     OW21559   4.695   1.382  17.340 -0.4104 -0.2148  0.0154
 3309SOL    HW121560   4.610   1.383  17.384  0.2090  0.5473  1.2024
 3309SOL    HW221561   4.712   1.475  17.324 -0.0796  0.0048  1.6269
 3310SOL     OW21562   0.926   1.829   8.452  0.2699 -0.1200  0.1877
 3310SOL    HW121563   0.865   1.886   8.405  1.9019  0.5754 -1.0956
 3310SOL    HW221564   0.905   1.844   8.544  1.1336  0.0630  0.3554
 3311SOL     OW21565   2.410   0.864   7.058  0.0669  0.3028  0.6032
 3311SOL    HW121566   2.407   0.958   7.043  2.9064  0.3717  0.5542
 3311SOL    HW221567   2.407   0.866   7.154 -0.7640  1.2479  0.5560
 3312SOL     OW21568   1.568   2.580  12.208 -0.1838 -0.2688  0.1985
 3312SOL    HW121569   1.645   2.622  12.247 -1.0916  1.0106  0.5925
 3312SOL    HW221570   1.609   2.494  12.192  0.3963  0.2972 -1.3284
 3313SOL     OW21571   3.143   3.091   8.841  0.0945  0.3264  0.1969
 3313SOL    HW121572   3.131   3.175   8.885 -0.8461 -0.2238  0.9982
 3313SOL    HW221573   3.151   3.029   8.913  1.4451  1.9749  1.4544
 3314SOL     OW21574   2.337   3.259   5.362  0.2911 -0.7129  0.1296
 3314SOL    HW121575   2.284   3.303   5.296 -0.4707  0.3450  1.4156
 3314SOL    HW221576   2.409   3.219   5.314  0.5899 -2.0710  1.7074
 3315SOL     OW21577   2.744   0.175   8.826  0.3110 -0.1115  0.2837
 3315SOL    HW121578   2.786   0.089   8.833 -0.2083 -0.4028 -0.2676
 3315SOL    HW221579   2.725   0.194   8.735  1.7677 -1.5167 -0.3183
 3316SOL     OW21580   4.465   3.849   5.552  0.6196 -0.6592 -0.0616
 3316SOL    HW121581   4.433   3.908   5.484  0.6879 -1.4701 -0.7976
 3316SOL    HW221582   4.385   3.814   5.590 -0.6332  1.3671 -0.7957
 3317SOL     OW21583   4.725   2.844   0.014  0.2171  0.4582  0.0625
 3317SOL    HW121584   0.058   2.781   0.039 -0.9025 -1.1635 -0.9710
 3317SOL    HW221585   4.726   2.851  17.657 -2.5638 -2.9350 -0.2161
 3318SOL     OW21586   3.986   1.156   4.443  0.5976 -0.0201 -0.2995
 3318SOL    HW121587   3.901   1.139   4.404  0.0002  0.6289  0.6975
 3318SOL    HW221588   3.962   1.206   4.521 -0.8950  0.4490 -1.0469
 3319SOL     OW21589   4.277   2.512   0.432  0.3965  0.2341  0.3250
 3319SOL    HW121590   4.217   2.559   0.489 -1.5903 -0.2969 -1.3226
 3319SOL    HW221591   4.346   2.577   0.415  0.6346  0.0963  0.7754
 3320SOL     OW21592   2.244   3.926   4.744 -0.3437 -0.5435  0.4196
 3320SOL    HW121593   2.220   3.945   4.835 -0.5768 -0.2477  0.2942
 3320SOL    HW221594   2.241   4.014   4.709  0.3070 -0.0343  1.6386
 3321SOL     OW21595   0.182   1.992  17.111  0.4767 -0.3587  0.1654
 3321SOL    HW121596   0.217   1.903  17.102 -1.4195 -1.2188  1.1967
 3321SOL    HW221597   0.265   2.034  17.131  0.4566 -1.3863  2.3994
 3322SOL     OW21598   2.029   3.691   3.482  0.9275  0.0255 -0.2260
 3322SOL    HW121599   2.006   3.669   3.573 -1.4045  0.1485 -0.8025
 3322SOL    HW221600   2.123   3.679   3.494  0.7211  0.7005  2.2427
 3323SOL     OW21601   0.126   0.136   7.488 -0.1925 -0.0841  0.1249
 3323SOL    HW121602   0.143   0.047   7.457  0.3237 -0.1947  0.7369
 3323SOL    HW221603   0.129   0.118   7.582 -0.4299  1.1439  0.3719
 3324SOL     OW21604   0.381   0.066   3.025  0.4823 -0.0506 -0.0270
 3324SOL    HW121605   0.435   0.019   2.962  0.2239  1.9914 -1.7566
 3324SOL    HW221606   0.412   0.025   3.106 -1.2323  0.6995  1.0134
 3325SOL     OW21607   2.754   2.049   3.967  0.7360  0.1043 -0.0282
 3325SOL    HW121608   2.800   2.115   4.019 -0.6456  0.0702  1.2412
 3325SOL    HW221609   2.695   2.108   3.921  0.9407  1.2031  1.1414
 3326SOL     OW21610   0.742   2.724   3.678  0.0936  0.0726  0.0555
 3326SOL    HW121611   0.812   2.669   3.715  0.8480  0.0065 -1.4552
 3326SOL    HW221612   0.717   2.777   3.754 -1.7464  2.2181 -2.0877
 3327SOL     OW21613   0.419   3.119  15.723  0.5422  0.5974 -0.3889
 3327SOL    HW121614   0.327   3.130  15.746  0.2885  0.9576 -1.6010
 3327SOL    HW221615   0.405   3.093  15.632 -2.0365  0.2104  0.1121
 3328SOL     OW21616   3.521   3.219   2.163 -0.4910  0.1742 -0.2055
 3328SOL    HW121617   3.454   3.203   2.230  0.3544  1.2111  0.8895
 3328SOL    HW221618   3.504   3.145   2.104 -0.6061 -0.4702  0.6333
 3329SOL     OW21619   2.211   4.291   7.436  0.2122 -0.4176  0.7600
 3329SOL    HW121620   2.276   4.344   7.484  2.0291 -1.4417 -0.6011
 3329SOL    HW221621   2.165   4.250   7.510 -0.4569 -0.9885  0.0166
 3330SOL     OW21622   3.947   1.315  17.027  0.5255  0.0205  0.1884
 3330SOL    HW121623   3.978   1.389  17.079  0.6207  0.1326 -0.0250
 3330SOL    HW221624   3.906   1.260  17.094 -2.0438  0.9391 -0.5875
 3331SOL     OW21625   0.012   2.589  11.951  0.2084  0.0692 -0.4382
 3331SOL    HW121626   4.716   2.629  12.032  1.5566  0.8692 -0.3202
 3331SOL    HW221627   0.037   2.666  11.899  0.2234 -0.2227 -0.8648
 3332SOL     OW21628   0.820   0.315   9.806 -0.0417 -0.0509 -0.3787
 3332SOL    HW121629   0.767   0.395   9.808  0.1262  0.0611 -0.4425
 3332SOL    HW221630   0.850   0.312   9.897 -0.4468  2.1042 -0.1721
 3333SOL     OW21631   0.099   0.934  11.352 -0.0024 -0.0361  0.1296
 3333SOL    HW121632   0.006   0.955  11.360 -0.3110 -0.9623 -1.1845
 3333SOL    HW221633   0.081   0.874  11.280 -3.4502  1.2878 -0.0976
 3334SOL     OW21634   1.610   4.614   1.899 -0.2089  0.6253  0.4495
 3334SOL    HW121635   1.692   4.611   1.948  1.0147  1.6049 -1.5330
 3334SOL    HW221636   1.569   4.528   1.903  0.9592  0.0920  1.0057
 3335SOL     OW21637   0.150   4.461   3.844  0.5130 -0.2937  0.2125
 3335SOL    HW121638   0.204   4.479   3.767 -1.6502 -1.7059 -1.6324
 3335SOL    HW221639   0.196   4.384   3.878  2.2269  0.4209 -0.4910
 3336SOL     OW21640   3.843   1.127   0.610 -0.1042  0.5010 -0.0400
 3336SOL    HW121641   3.786   1.137   0.534  1.3161  1.7289 -0.9419
 3336SOL    HW221642   3.919   1.178   0.582 -0.7858  0.6427 -1.6629
 3337SOL     OW21643   4.633   4.162   6.059 -0.0521 -0.1388  0.1720
 3337SOL    HW121644   4.572   4.164   6.133 -2.1804  0.6918 -1.5954
 3337SOL    HW221645   4.705   4.107   6.090  0.4276  1.0641  1.1961
 3338SOL     OW21646   4.442   4.483   2.079 -0.2956  0.0768 -0.1602
 3338SOL    HW121647   4.490   4.401   2.086 -0.7305 -0.1804 -0.2331
 3338SOL    HW221648   4.400   4.467   1.994  0.3054 -1.0874 -0.2301
 3339SOL     OW21649   2.252   0.018   8.436 -0.4130 -0.2323  0.0191
 3339SOL    HW121650   2.336   0.036   8.477  1.2755 -2.9325 -2.2081
 3339SOL    HW221651   2.284   4.721   8.351 -1.3663 -2.8080  0.6235
 3340SOL     OW21652   1.846   0.503   9.473  0.1829  0.1756 -0.1377
 3340SOL    HW121653   1.910   0.556   9.521  0.0058  0.0698  0.2147
 3340SOL    HW221654   1.901   0.450   9.415  1.3863  0.5381  0.6774
 3341SOL     OW21655   3.008   0.203   0.180  0.5456 -0.6505 -0.5498
 3341SOL    HW121656   2.935   0.259   0.151  0.5984  0.2879  1.1420
 3341SOL    HW221657   3.014   0.152   0.099  0.0123 -1.2580 -0.2141
 3342SOL     OW21658   1.126   3.493   8.089  0.3024  0.1206  0.2086
 3342SOL    HW121659   1.134   3.453   8.176  1.4569 -0.4463 -0.1525
 3342SOL    HW221660   1.180   3.572   8.093 -1.2125  1.3280 -2.8577
 3343SOL     OW21661   0.213   4.057   7.340  0.6819 -0.4594 -0.4155
 3343SOL    HW121662   0.189   4.128   7.280 -0.3839  0.5060  1.1324
 3343SOL    HW221663   0.135   4.002   7.343  0.0336  0.3962 -1.4922
 3344SOL     OW21664   4.357   1.424   5.645  0.0155  0.1999 -0.0971
 3344SOL    HW121665   4.334   1.349   5.590 -1.1995 -0.0181  0.7065
 3344SOL    HW221666   4.286   1.439   5.707 -0.3422  1.6820 -0.8545
 3345SOL     OW21667   3.220   3.525   0.114 -0.2292  0.1846  0.7210
 3345SOL    HW121668   3.248   3.444   0.072  0.1103  1.4385 -1.4729
 3345SOL    HW221669   3.203   3.515   0.208 -2.0528 -2.4499  0.0745
 3346SOL     OW21670   3.775   3.275  12.578  0.3744 -0.5243  0.2084
 3346SOL    HW121671   3.797   3.183  12.565 -1.1127 -0.9053  0.3200
 3346SOL    HW221672   3.681   3.264  12.592  0.9216 -1.8705  2.7482
 3347SOL     OW21673   4.558   3.362   9.520 -0.8676 -0.8907  0.0341
 3347SOL    HW121674   4.561   3.456   9.537 -1.4100 -0.5923 -1.5346
 3347SOL    HW221675   4.570   3.348   9.426  1.4625 -2.4724  0.5517
 3348SOL     OW21676   1.993   2.159   5.900 -0.3344 -0.6732 -0.1917
 3348SOL    HW121677   1.985   2.212   5.979  1.5204 -0.3902 -0.2080
 3348SOL    HW221678   2.038   2.087   5.946  1.2643  0.8503  0.6081
 3349SOL     OW21679   1.940   4.658   5.776  0.5794  0.6097  0.6061
 3349SOL    HW121680   1.889   4.578   5.787 -0.6833  1.0209 -2.1651
 3349SOL    HW221681   1.955   4.658   5.682  1.3624  2.2170  0.7194
 3350SOL     OW21682   0.283   0.199   8.354 -0.6983 -0.1158  0.1258
 3350SOL    HW121683   0.329   0.247   8.422 -0.7181 -0.2125  0.2073
 3350SOL    HW221684   0.357   0.163   8.305 -0.8624 -1.9142  1.1867
 3351SOL     OW21685   1.823   1.867   8.535  0.2524 -0.0509  0.0060
 3351SOL    HW121686   1.880   1.806   8.582 -0.8766 -0.2831  1.0728
 3351SOL    HW221687   1.733   1.833   8.534  0.4051 -0.4768  1.1814
 3352SOL     OW21688   2.861   0.545   6.957 -0.2745 -0.3858  0.5536
 3352SOL    HW121689   2.920   0.597   6.902  0.4425 -2.3043 -0.4897
 3352SOL    HW221690   2.806   0.611   6.998  0.7835  0.5067  0.5407
 3353SOL     OW21691   1.600   0.202  16.003  0.5101  0.3552  0.0443
 3353SOL    HW121692   1.580   0.247  15.921 -1.1735  0.9998  0.7941
 3353SOL    HW221693   1.592   0.114  15.966  1.3980 -0.0807  0.9011
 3354SOL     OW21694   1.880   4.612   2.811 -0.0716  0.0435  0.3095
 3354SOL    HW121695   1.787   4.602   2.827 -0.1798 -3.3931 -2.4281
 3354SOL    HW221696   1.903   4.697   2.850  0.2468  0.7854 -1.5104
 3355SOL     OW21697   2.279   3.160   4.512 -0.5426 -0.3975 -0.0753
 3355SOL    HW121698   2.204   3.220   4.507 -1.2052 -1.0151  2.2702
 3355SOL    HW221699   2.299   3.151   4.419 -2.1968 -0.5078 -0.4194
 3356SOL     OW21700   4.330   0.533   6.650  0.1056  0.8092 -0.8518
 3356SOL    HW121701   4.236   0.516   6.644  0.0623  0.8727 -0.3574
 3356SOL    HW221702   4.342   0.513   6.557 -0.4661 -1.7693 -0.3875
 3357SOL     OW21703   1.571   1.505   6.194 -0.0635  0.1428  0.0348
 3357SOL    HW121704   1.515   1.495   6.271 -1.5781 -1.9952 -1.3752
 3357SOL    HW221705   1.637   1.567   6.227 -1.2414  2.4624 -1.9974
 3358SOL     OW21706   1.059   2.315   3.036  0.9309 -0.1513 -0.3795
 3358SOL    HW121707   0.981   2.370   3.046  0.2948 -1.0095 -0.5889
 3358SOL    HW221708   1.019   2.262   2.967  0.8958  0.0893 -0.5464
 3359SOL     OW21709   2.805   3.366   8.368 -0.1281 -0.5948  0.0424
 3359SOL    HW121710   2.875   3.344   8.430 -0.1279  0.1591  0.3013
 3359SOL    HW221711   2.784   3.454   8.399 -3.4110 -2.0005  1.8104
 3360SOL     OW21712   4.269   4.364   4.907  0.1963  0.0537  0.3469
 3360SOL    HW121713   4.357   4.344   4.875 -0.3577  3.0175 -3.0058
 3360SOL    HW221714   4.236   4.380   4.819  1.8060  0.7819 -0.1372
 3361SOL     OW21715   4.413   3.915  17.227  0.2644  0.2820  0.0469
 3361SOL    HW121716   4.402   3.917  17.132 -2.1005  1.0579  0.3126
 3361SOL    HW221717   4.417   4.008  17.247  2.0379  0.6186 -1.9279
 3362SOL     OW21718   0.145   4.038   9.655 -0.9175  0.0353 -0.3002
 3362SOL    HW121719   0.218   3.981   9.681  0.4005  2.2790  0.8684
 3362SOL    HW221720   0.156   4.115   9.710  0.8857 -0.4726  0.0634
 3363SOL     OW21721   2.270   2.094  14.802  0.1810  0.0571  0.1472
 3363SOL    HW121722   2.201   2.047  14.849 -1.0198 -0.1081 -1.7626
 3363SOL    HW221723   2.235   2.088  14.713 -0.2122  1.6424  0.1932
 3364SOL     OW21724   1.637   1.711   0.903  0.4445 -0.1539  0.0101
 3364SOL    HW121725   1.550   1.739   0.876  0.8184  2.3854  1.4353
 3364SOL    HW221726   1.646   1.621   0.871 -1.7811 -0.6515  0.8087
 3365SOL     OW21727   1.109   4.650   3.774  0.5019 -0.0350 -0.0535
 3365SOL    HW121728   1.085   4.563   3.744  0.1624  0.4243 -1.1325
 3365SOL    HW221729   1.205   4.651   3.768  0.6287 -1.1609  2.0465
 3366SOL     OW21730   4.267   0.252   4.669  0.5902 -0.0923  0.1103
 3366SOL    HW121731   4.252   0.165   4.706 -2.5267  0.1478 -0.6666
 3366SOL    HW221732   4.322   0.226   4.594 -1.6113  0.2635 -1.6216
 3367SOL     OW21733   1.388   3.110  13.177  0.0438 -0.1198 -0.3050
 3367SOL    HW121734   1.439   3.037  13.211 -0.0538 -0.7911 -1.6269
 3367SOL    HW221735   1.307   3.060  13.169  1.1671 -2.0096  0.1273
 3368SOL     OW21736   3.958   2.387   7.262  0.3175  0.3530 -0.2971
 3368SOL    HW121737   4.042   2.399   7.306 -0.6145  2.2962  0.9592
 3368SOL    HW221738   3.918   2.473   7.272 -1.1516 -0.0901 -2.2841
 3369SOL     OW21739   1.669   2.050   9.540 -0.1104  0.3847  0.5763
 3369SOL    HW121740   1.705   1.969   9.575  0.7796  0.3207 -0.4907
 3369SOL    HW221741   1.609   2.065   9.614 -0.1883 -2.2661  1.0672
 3370SOL     OW21742   3.620   2.846   9.509 -0.0402 -0.2820  0.2429
 3370SOL    HW121743   3.699   2.807   9.548  0.1441 -1.8240 -1.6709
 3370SOL    HW221744   3.593   2.904   9.580 -0.8801 -1.4825  0.9059
 3371SOL     OW21745   1.412   3.978   0.960  0.3958  0.5185 -0.3724
 3371SOL    HW121746   1.410   4.054   1.017  1.0102  1.5308 -1.7147
 3371SOL    HW221747   1.318   3.964   0.955  0.5788 -1.1772  1.1384
 3372SOL     OW21748   2.642   0.769   1.962 -0.5928  0.4946  0.1237
 3372SOL    HW121749   2.574   0.816   2.010 -0.2459 -0.4276  1.5541
 3372SOL    HW221750   2.686   0.724   2.035 -0.2223 -1.3236 -1.2234
 3373SOL     OW21751   3.271   2.231  14.472  0.1622 -0.1977  0.0318
 3373SOL    HW121752   3.345   2.275  14.431  1.3415 -0.8796  1.3805
 3373SOL    HW221753   3.228   2.184  14.401  0.3501 -0.0554 -0.1745
 3374SOL     OW21754   1.715   3.203   7.654 -0.6826  0.3369  0.0911
 3374SOL    HW121755   1.623   3.205   7.680 -0.7797  0.6336 -0.2664
 3374SOL    HW221756   1.718   3.259   7.575  1.0271  0.3929  0.1971
 3375SOL     OW21757   4.223   2.273   3.891  0.2619  0.1868 -0.0257
 3375SOL    HW121758   4.197   2.181   3.894  1.0673 -0.0863 -1.4341
 3375SOL    HW221759   4.311   2.266   3.927  1.1522  0.6110 -2.0874
 3376SOL     OW21760   2.047   0.535   9.678  0.0677 -0.2121  0.1909
 3376SOL    HW121761   2.011   0.501   9.760 -1.6182  0.5517 -0.2289
 3376SOL    HW221762   2.118   0.470   9.676  0.4073  0.1705 -0.0918
 3377SOL     OW21763   3.846   0.302  10.877 -0.2448 -0.0102  0.3902
 3377SOL    HW121764   3.803   0.244  10.813 -0.4755  1.4551 -0.7744
 3377SOL    HW221765   3.798   0.382  10.859 -0.0654 -0.5465 -2.4923
 3378SOL     OW21766   2.460   4.559   7.309 -0.2859  0.2782 -0.5569
 3378SOL    HW121767   2.494   4.514   7.232 -0.9597 -0.4005 -0.4461
 3378SOL    HW221768   2.366   4.568   7.298 -0.4044  1.9703  1.8192
 3379SOL     OW21769   0.552   2.613   3.094  0.3440 -0.0758 -0.3527
 3379SOL    HW121770   0.631   2.570   3.128  0.0208  0.5804  1.2070
 3379SOL    HW221771   0.482   2.574   3.147  1.6143  1.4663  2.4396
 3380SOL     OW21772   0.968   2.673   6.599 -0.0716  0.1589  0.4510
 3380SOL    HW121773   0.979   2.610   6.670  0.9322 -0.5446 -0.3428
 3380SOL    HW221774   0.966   2.757   6.645 -0.9016  0.7618 -0.6750
 3381SOL     OW21775   3.187   1.865   2.538 -0.3661  0.0129  0.1745
 3381SOL    HW121776   3.122   1.808   2.580  1.6459 -1.5860  1.1076
 3381SOL    HW221777   3.128   1.927   2.495 -1.0960  0.4087  1.7429
 3382SOL     OW21778   1.963   3.368   7.911 -0.2373  0.5374 -0.5160
 3382SOL    HW121779   2.028   3.432   7.941  1.1314 -0.8761 -0.4307
 3382SOL    HW221780   1.885   3.422   7.895 -1.1939 -1.3595 -2.1899
 3383SOL     OW21781   2.679   4.071   5.392 -0.2547 -0.4875  0.2035
 3383SOL    HW121782   2.744   4.000   5.394 -0.0809 -0.4029 -1.7991
 3383SOL    HW221783   2.612   4.026   5.340 -1.2208  0.9696  0.1827
 3384SOL     OW21784   1.673   4.106   6.520  0.4515 -0.5985  0.1168
 3384SOL    HW121785   1.708   4.180   6.471  1.6369 -1.3139 -0.1171
 3384SOL    HW221786   1.578   4.107   6.503  0.1032 -1.7124  2.0368
 3385SOL     OW21787   0.826   1.200   6.009 -0.2909  0.0241 -0.4880
 3385SOL    HW121788   0.786   1.286   6.022 -3.4831 -1.5589  0.1476
 3385SOL    HW221789   0.747   1.146   5.999  0.7932 -1.2059 -2.2735
 3386SOL     OW21790   0.812   1.491  12.028 -0.6049  0.1709 -0.3816
 3386SOL    HW121791   0.818   1.536  12.112 -1.5767  1.3313 -0.9438
 3386SOL    HW221792   0.869   1.538  11.968  0.9245 -1.3295 -0.1087
 3387SOL     OW21793   0.660   4.639  10.115  0.0541 -0.7855  0.0162
 3387SOL    HW121794   0.634   4.582  10.187 -2.3036 -0.7619 -0.8306
 3387SOL    HW221795   0.590   4.703  10.110  0.3745 -0.6086 -2.0488
 3388SOL     OW21796   3.073   2.339  17.407  0.0132 -0.3276 -0.2734
 3388SOL    HW121797   3.100   2.305  17.322 -0.8918 -0.6195 -0.4438
 3388SOL    HW221798   3.004   2.278  17.433  2.6333 -2.8072  0.9361
 3389SOL     OW21799   1.186   4.080   6.721 -0.7344 -0.2537 -0.3701
 3389SOL    HW121800   1.279   4.100   6.706 -0.6243  0.4599  1.2621
 3389SOL    HW221801   1.164   4.058   6.631 -0.7806 -0.1731 -0.3784
 3390SOL     OW21802   1.518   0.328   3.229  0.4923  0.0283  0.4473
 3390SOL    HW121803   1.468   0.395   3.275  1.5559  2.0706 -1.3928
 3390SOL    HW221804   1.448   0.297   3.172  0.4051 -0.2979  0.7305
 3391SOL     OW21805   2.424   1.793  11.951  0.1750  0.0955 -0.3131
 3391SOL    HW121806   2.414   1.702  11.922  0.4692 -0.2546  0.6676
 3391SOL    HW221807   2.371   1.791  12.031 -1.5377  1.8435 -1.3953
 3392SOL     OW21808   2.599   4.495  16.935 -0.6387  0.5187 -0.1513
 3392SOL    HW121809   2.656   4.567  16.962 -1.9414  1.0688  1.1493
 3392SOL    HW221810   2.633   4.421  16.986 -1.3256  2.2011  2.7511
 3393SOL     OW21811   3.317   2.952   2.127  0.0551  0.0477  0.7481
 3393SOL    HW121812   3.250   3.005   2.171 -0.4856 -1.2063  1.4525
 3393SOL    HW221813   3.324   2.878   2.187  2.8902 -3.1605 -3.5239
 3394SOL     OW21814   3.162   1.685   1.820  0.2460  0.3535 -0.0945
 3394SOL    HW121815   3.167   1.780   1.807  0.4498  0.4519  0.6825
 3394SOL    HW221816   3.092   1.669   1.757  0.8445 -1.6718 -0.2334
 3395SOL     OW21817   1.797   2.609   0.429 -0.1526  0.3041 -0.4134
 3395SOL    HW121818   1.762   2.675   0.490 -0.3063 -1.1322  1.0414
 3395SOL    HW221819   1.748   2.533   0.461 -0.2724 -0.1480 -1.6904
 3396SOL     OW21820   4.238   1.999   3.927  0.0318 -0.4960  0.3433
 3396SOL    HW121821   4.259   1.906   3.924  0.3259 -0.4240  0.2582
 3396SOL    HW221822   4.220   2.006   4.021  0.7985  0.0249  0.4449
 3397SOL     OW21823   0.310   2.064   1.841 -0.1242  0.2197 -0.1400
 3397SOL    HW121824   0.244   1.996   1.855 -0.2913  0.8767  2.4030
 3397SOL    HW221825   0.260   2.145   1.856  0.0148  0.2359  0.2518
 3398SOL     OW21826   3.953   3.045   9.674  0.5381  0.0111 -0.7887
 3398SOL    HW121827   4.019   3.097   9.629  1.8345 -1.2199 -0.3000
 3398SOL    HW221828   3.971   3.049   9.768  0.0895 -0.0126 -0.6975
 3399SOL     OW21829   0.489   1.989   3.524 -0.3628  0.3903  0.1032
 3399SOL    HW121830   0.433   1.958   3.594 -1.0229  2.1858  0.3646
 3399SOL    HW221831   0.435   1.986   3.445  0.4033  2.5197 -0.4972
 3400SOL     OW21832   3.432   4.456   7.851  0.1623  0.5160 -0.2711
 3400SOL    HW121833   3.470   4.380   7.807  0.2609  1.6720 -2.1593
 3400SOL    HW221834   3.443   4.432   7.943  0.8199  0.3194 -0.3982
 3401SOL     OW21835   0.865   3.116   8.136 -0.0026  0.2645 -0.3282
 3401SOL    HW121836   0.937   3.122   8.199 -1.6878  0.0217  1.6164
 3401SOL    HW221837   0.833   3.206   8.132 -1.3785 -0.1802  0.8507
 3402SOL     OW21838   2.632   3.512   5.297  0.6111 -0.4089  0.0328
 3402SOL    HW121839   2.552   3.559   5.275  0.7071 -0.2729 -0.0223
 3402SOL    HW221840   2.665   3.494   5.209  0.7956  1.4066 -0.2567
 3403SOL     OW21841   1.403   0.549  15.311 -0.2324  0.5941 -0.2817
 3403SOL    HW121842   1.333   0.556  15.247  0.6605  3.0843 -0.9755
 3403SOL    HW221843   1.475   0.509  15.263 -0.0567 -1.4282  1.6420
 3404SOL     OW21844   2.032   1.491   5.080  0.2441 -0.3959  0.0272
 3404SOL    HW121845   2.052   1.583   5.093  0.2131 -0.3741 -0.0796
 3404SOL    HW221846   2.077   1.464   5.000  0.5088 -0.2409  0.1224
 3405SOL     OW21847   1.190   2.123  12.731 -0.1473 -0.0225 -0.0232
 3405SOL    HW121848   1.097   2.105  12.745 -0.4773  0.9788 -0.9095
 3405SOL    HW221849   1.222   2.084  12.812 -0.4185 -0.0705  0.0603
 3406SOL     OW21850   0.206   0.302   3.044  0.0066  0.1585  0.6655
 3406SOL    HW121851   0.115   0.298   3.013  0.7874 -0.2837 -1.5722
 3406SOL    HW221852   0.237   0.211   3.035 -0.9890 -0.1201  0.0345
 3407SOL     OW21853   0.391   4.602  16.069  0.3513  0.6358 -0.0368
 3407SOL    HW121854   0.455   4.674  16.060  1.8406 -0.7163 -0.2534
 3407SOL    HW221855   0.418   4.553  16.147  3.0416 -0.3870 -1.5975
 3408SOL     OW21856   1.127   4.527  16.168  0.2391  0.2918 -0.4029
 3408SOL    HW121857   1.161   4.446  16.205  0.6101  1.1702  1.1515
 3408SOL    HW221858   1.034   4.508  16.156  0.2162 -0.4138  0.9635
 3409SOL     OW21859   1.606   2.610   0.195 -0.1723 -0.6652 -0.3696
 3409SOL    HW121860   1.654   2.579   0.273 -0.4431  3.9147  1.6032
 3409SOL    HW221861   1.548   2.538   0.171 -0.4751 -1.6400  3.1776
 3410SOL     OW21862   2.419   2.777  14.430 -0.2067  0.3198 -0.6902
 3410SOL    HW121863   2.360   2.716  14.473  1.5072 -0.1818  0.9824
 3410SOL    HW221864   2.350   2.813  14.374 -0.4443  2.3510  0.9028
 3411SOL     OW21865   3.263   4.494   2.548  0.0228 -0.4790  0.4912
 3411SOL    HW121866   3.267   4.509   2.454  1.1204 -2.5401  0.1895
 3411SOL    HW221867   3.343   4.529   2.588  0.2308 -0.8913  0.4401
 3412SOL     OW21868   3.626   4.075  13.882 -0.2716 -0.7615 -0.2070
 3412SOL    HW121869   3.674   4.103  13.960 -1.1498 -2.6913  1.0276
 3412SOL    HW221870   3.663   4.146  13.829 -0.4588 -1.4817 -1.3130
 3413SOL     OW21871   4.484   2.088   6.405 -0.2312 -0.5114  0.1920
 3413SOL    HW121872   4.457   2.004   6.369 -1.0678 -0.2757  0.2643
 3413SOL    HW221873   4.495   2.073   6.499 -0.5508 -1.0144  0.1467
 3414SOL     OW21874   4.193   2.594   5.594  0.2231 -0.6317  0.1055
 3414SOL    HW121875   4.163   2.570   5.682  0.2490  0.1309  0.3191
 3414SOL    HW221876   4.275   2.642   5.603  0.8781 -1.2878 -2.4064
 3415SOL     OW21877   1.211   1.994   2.800 -0.2038  0.0944 -0.2899
 3415SOL    HW121878   1.244   2.033   2.881  1.9146  0.0285 -1.0960
 3415SOL    HW221879   1.192   1.906   2.832 -0.7564  0.9367  1.6650
 3416SOL     OW21880   3.771   3.955   9.318 -0.4140  0.0354 -0.3333
 3416SOL    HW121881   3.780   3.871   9.364  0.5162 -0.2062 -0.9628
 3416SOL    HW221882   3.862   3.969   9.296 -0.7524 -0.0482 -1.7796
 3417SOL     OW21883   0.539   2.874   1.021  0.2820 -0.1041 -0.2595
 3417SOL    HW121884   0.464   2.816   1.010 -0.4927  0.8293  0.2109
 3417SOL    HW221885   0.506   2.948   0.970 -2.1157 -0.0595  1.3639
 3418SOL     OW21886   2.107   3.502   5.501 -0.2746  0.2334 -0.3606
 3418SOL    HW121887   2.174   3.535   5.561  0.6092  0.0691 -1.2534
 3418SOL    HW221888   2.029   3.474   5.548 -1.0158  1.7194 -0.6972
 3419SOL     OW21889   2.417   4.655   2.898 -0.0719 -0.8232 -0.4262
 3419SOL    HW121890   2.341   4.610   2.862  1.2394 -0.3902 -3.7232
 3419SOL    HW221891   2.482   4.602   2.852  2.1589  0.4267  1.2417
 3420SOL     OW21892   1.141   0.435  17.231 -0.0316  0.0430 -0.2548
 3420SOL    HW121893   1.115   0.481  17.311 -0.7246 -1.2125  0.2503
 3420SOL    HW221894   1.227   0.396  17.247 -0.3049 -1.0166 -1.3603
 3421SOL     OW21895   2.300   4.036   5.857  0.3741 -0.0837  0.3659
 3421SOL    HW121896   2.374   3.995   5.900 -0.1006 -0.5836  0.7121
 3421SOL    HW221897   2.236   3.965   5.852 -1.0149  1.2000 -0.2121
 3422SOL     OW21898   4.486   1.360   2.883  0.0814  0.0284 -0.0531
 3422SOL    HW121899   4.434   1.439   2.867 -0.9713 -0.5489  0.4853
 3422SOL    HW221900   4.420   1.293   2.867  1.0866 -1.1810  0.9268
 3423SOL     OW21901   0.478   0.782   4.256  0.3129 -0.0843 -0.2672
 3423SOL    HW121902   0.477   0.850   4.323 -0.8935  0.5096 -0.8731
 3423SOL    HW221903   0.391   0.741   4.258  0.5972 -0.7760 -1.7591
 3424SOL     OW21904   0.745   0.967   1.604 -0.3408 -0.1008 -0.1456
 3424SOL    HW121905   0.749   0.887   1.550 -1.9752 -0.6359  0.5235
 3424SOL    HW221906   0.823   1.012   1.571 -1.0930 -0.3561 -2.3331
 3425SOL     OW21907   0.801   0.143   4.329  0.0002 -0.1156 -0.1328
 3425SOL    HW121908   0.708   0.165   4.334 -0.0068 -0.3973  1.0561
 3425SOL    HW221909   0.835   0.208   4.268 -1.4398 -0.0642 -0.8883
 3426SOL     OW21910   2.772   4.362   7.438 -0.2084 -0.1615  0.2073
 3426SOL    HW121911   2.711   4.407   7.496  1.4056  1.1336  0.9308
 3426SOL    HW221912   2.851   4.396   7.481 -1.5850 -1.6277  3.9037
 3427SOL     OW21913   3.386   0.510  10.178  0.4970  0.2009  0.0465
 3427SOL    HW121914   3.300   0.539  10.147 -0.4772 -0.9794  1.6444
 3427SOL    HW221915   3.441   0.554  10.113  0.8454  0.7344  0.7035
 3428SOL     OW21916   0.960   1.134   3.323 -0.1783 -0.3587 -0.4404
 3428SOL    HW121917   1.012   1.056   3.343  0.9009  0.2787 -0.7610
 3428SOL    HW221918   0.892   1.098   3.267 -1.1725  1.1165 -0.1907
 3429SOL     OW21919   0.456   2.067  17.163  0.5451 -0.2129 -0.3698
 3429SOL    HW121920   0.493   2.127  17.227 -0.2996  1.5314 -1.5425
 3429SOL    HW221921   0.457   1.982  17.208  0.5335 -1.0956 -2.0238
 3430SOL     OW21922   0.106   1.452   8.995 -0.6253  0.0094  0.1667
 3430SOL    HW121923   0.037   1.446   8.928  1.1159  1.1240 -1.7025
 3430SOL    HW221924   0.063   1.508   9.060  0.1863 -0.7361  1.3539
 3431SOL     OW21925   1.188   4.602   6.563 -0.0845  0.1602 -0.0667
 3431SOL    HW121926   1.153   4.636   6.646 -1.0173  0.0382 -0.4042
 3431SOL    HW221927   1.253   4.666   6.536 -1.0755  1.0481 -0.3556
 3432SOL     OW21928   3.405   0.067   5.836  0.7376 -0.4614  0.1998
 3432SOL    HW121929   3.331   0.047   5.894 -0.6215 -1.1774 -1.7646
 3432SOL    HW221930   3.415   0.154   5.873  1.3219 -1.0402  1.4117
 3433SOL     OW21931   0.321   3.967  11.852  0.3261 -0.3199 -0.0051
 3433SOL    HW121932   0.394   4.005  11.901  0.1850  2.4441 -1.9666
 3433SOL    HW221933   0.316   3.877  11.884 -2.8248 -0.4427 -0.8769
 3434SOL     OW21934   3.127   0.778   3.795  0.7281 -0.1090  0.0668
 3434SOL    HW121935   3.211   0.823   3.788  1.7733 -2.1957 -0.5617
 3434SOL    HW221936   3.123   0.756   3.888  1.2795  0.7992  0.3031
 3435SOL     OW21937   1.686   2.853   2.794 -0.1205  0.0011 -0.0382
 3435SOL    HW121938   1.616   2.858   2.859 -1.3698  0.7972 -1.4310
 3435SOL    HW221939   1.662   2.899   2.713 -1.4665  0.9919  0.9204
 3436SOL     OW21940   2.364   2.487   6.812 -0.2082 -0.1646  0.3056
 3436SOL    HW121941   2.393   2.572   6.845 -2.1625 -0.0289  1.6082
 3436SOL    HW221942   2.301   2.462   6.879 -0.7860  1.6765  0.4526
 3437SOL     OW21943   2.365   1.302   3.625  0.0822 -0.1382  0.0319
 3437SOL    HW121944   2.285   1.332   3.582  0.3831  1.5069  0.6264
 3437SOL    HW221945   2.378   1.208   3.610 -0.6844 -0.0545 -1.1147
 3438SOL     OW21946   0.993   0.872  10.029  0.0933 -0.1637 -0.1181
 3438SOL    HW121947   0.919   0.812  10.018 -1.0361  1.3348 -0.6917
 3438SOL    HW221948   1.007   0.874  10.123 -0.4979  0.1456 -0.0431
 3439SOL     OW21949   4.480   4.492   1.754  0.1896  0.1293 -0.5931
 3439SOL    HW121950   4.414   4.442   1.705 -1.2532  0.6352  0.8244
 3439SOL    HW221951   4.559   4.440   1.740  1.0269  1.2494  0.0035
 3440SOL     OW21952   3.995   1.942   6.558 -0.2094  0.2361  0.2230
 3440SOL    HW121953   4.025   2.007   6.621  1.9418 -0.4648 -0.0765
 3440SOL    HW221954   3.955   1.998   6.491 -0.5594  0.4759  0.6358
 3441SOL     OW21955   2.569   0.809  17.733  0.3613  0.6693  0.1113
 3441SOL    HW121956   2.525   0.852  17.660 -0.5307 -0.5996 -0.0924
 3441SOL    HW221957   2.565   0.717  17.708 -0.8939  0.5046  0.9155
 3442SOL     OW21958   4.423   1.656   5.530 -0.1457 -0.3863 -0.0489
 3442SOL    HW121959   4.395   1.574   5.572  1.4745 -0.8716  0.0898
 3442SOL    HW221960   4.495   1.692   5.581  0.2519 -0.3517 -0.6323
 3443SOL     OW21961   1.994   4.540   4.348 -0.6908  0.1617  0.3236
 3443SOL    HW121962   1.904   4.527   4.319 -1.3443  0.4625  2.2595
 3443SOL    HW221963   2.012   4.623   4.305 -0.4269  0.5543  1.2036
 3444SOL     OW21964   1.954   0.408   8.222 -0.1660 -0.0611  0.2260
 3444SOL    HW121965   2.038   0.410   8.267 -0.3905  1.3331  0.5889
 3444SOL    HW221966   1.983   0.457   8.145 -2.6212 -1.4294 -1.5693
 3445SOL     OW21967   1.538   3.524   6.741  0.8993 -0.2812 -0.3177
 3445SOL    HW121968   1.592   3.447   6.722 -0.4470 -1.0769 -0.9102
 3445SOL    HW221969   1.605   3.581   6.780  1.0602 -0.5960 -0.1395
 3446SOL     OW21970   0.183   2.642   4.144  0.5763  0.3235  0.0539
 3446SOL    HW121971   0.097   2.645   4.188  1.2709  1.5340  1.3323
 3446SOL    HW221972   0.151   2.662   4.056 -0.3549 -0.2909  0.2472
 3447SOL     OW21973   3.144   0.674   7.220  0.3052 -0.1344 -0.4866
 3447SOL    HW121974   3.129   0.592   7.172 -1.0428 -1.0885  1.5412
 3447SOL    HW221975   3.215   0.703   7.163 -0.8340 -2.0099 -2.8734
 3448SOL     OW21976   1.362   2.922   5.899  0.2265  0.1716 -0.1620
 3448SOL    HW121977   1.350   2.851   5.961  0.7394 -0.3248 -0.6226
 3448SOL    HW221978   1.400   2.997   5.945  1.7574  0.3271 -1.6632
 3449SOL     OW21979   1.644   3.686   7.461 -0.1915  0.0565  0.2375
 3449SOL    HW121980   1.651   3.671   7.367  0.1830 -0.1116  0.2889
 3449SOL    HW221981   1.733   3.670   7.493 -0.4392 -1.3328  0.2410
 3450SOL     OW21982   4.251   3.703   0.328  0.3083 -0.5975 -0.6423
 3450SOL    HW121983   4.171   3.663   0.362 -1.2793  0.0053 -3.6608
 3450SOL    HW221984   4.230   3.688   0.235  4.6776 -2.0806 -1.3794
 3451SOL     OW21985   2.141   3.631   7.750 -0.1126  0.4814  0.1374
 3451SOL    HW121986   2.161   3.709   7.803  0.8168 -0.2683  0.8812
 3451SOL    HW221987   2.147   3.551   7.801 -0.9098 -0.8212 -1.8071
 3452SOL     OW21988   2.004   2.502   2.403 -0.0924 -0.1359 -0.0439
 3452SOL    HW121989   2.091   2.539   2.384 -0.3134 -0.3657 -1.4976
 3452SOL    HW221990   1.963   2.579   2.443  1.2575  0.4787  0.1752
 3453SOL     OW21991   3.019   4.466   3.354 -0.3756 -0.3230 -0.2194
 3453SOL    HW121992   3.080   4.535   3.327  0.3403 -0.9567 -0.2314
 3453SOL    HW221993   2.933   4.471   3.314 -0.7779 -0.6537  0.5965
 3454SOL     OW21994   4.184   0.595   0.144  0.1645 -0.4905 -0.0556
 3454SOL    HW121995   4.266   0.630   0.106  0.7684 -0.8833  0.8881
 3454SOL    HW221996   4.234   0.542   0.206  1.1859 -0.1353 -0.5606
 3455SOL     OW21997   0.880   3.605   7.452 -0.2456 -0.3508  0.2600
 3455SOL    HW121998   0.911   3.657   7.378  1.0220 -1.6302 -0.1148
 3455SOL    HW221999   0.794   3.606   7.409  0.3520  1.2558 -0.8865
 3456SOL     OW22000   3.821   0.431   2.697 -0.0450  0.2853  0.3186
 3456SOL    HW122001   3.751   0.494   2.716  1.5572  1.8422  1.0542
 3456SOL    HW222002   3.815   0.440   2.602  2.0644 -2.5901 -0.0984
 3457SOL     OW22003   1.409   3.787   0.671 -0.0472 -0.3264  0.2446
 3457SOL    HW122004   1.486   3.741   0.636 -1.6117 -1.7569 -1.2983
 3457SOL    HW222005   1.435   3.802   0.762  0.3004 -1.3713  0.3156
 3458SOL     OW22006   3.932   3.878   1.946  0.2300 -0.1423  0.2163
 3458SOL    HW122007   3.866   3.945   1.966  2.3017  2.5051 -1.7548
 3458SOL    HW222008   3.888   3.800   1.979  0.4945 -0.7720 -0.9409
 3459SOL     OW22009   2.199   2.667  17.044 -0.9494 -0.1636 -1.3060
 3459SOL    HW122010   2.121   2.721  17.029 -0.2541  0.8325 -1.3028
 3459SOL    HW222011   2.266   2.733  17.056 -0.0111 -1.2598 -0.5867
 3460SOL     OW22012   3.459   4.456   0.338 -0.1637  0.5445  0.3649
 3460SOL    HW122013   3.450   4.516   0.264 -0.7812 -0.5669 -0.4541
 3460SOL    HW222014   3.375   4.457   0.385  0.6675  1.1105  1.8426
 3461SOL     OW22015   1.798   0.557  16.294  0.6183 -0.6193 -0.2093
 3461SOL    HW122016   1.802   0.496  16.220 -3.5310 -1.6166  0.4067
 3461SOL    HW222017   1.882   0.537  16.336  1.2170  0.6042 -0.8095
 3462SOL     OW22018   2.244   0.755   8.469 -1.1525  0.6191 -0.4346
 3462SOL    HW122019   2.224   0.744   8.376  0.6247  1.1213 -0.8654
 3462SOL    HW222020   2.318   0.816   8.473  0.2996 -1.0723 -1.7555
 3463SOL     OW22021   2.057   1.229   7.735 -0.3967  0.3578  0.1650
 3463SOL    HW122022   2.128   1.195   7.681 -1.3546  1.1022 -1.5645
 3463SOL    HW222023   2.088   1.301   7.791  0.7264  0.1886 -0.2340
 3464SOL     OW22024   0.970   2.941   1.008 -0.5040 -0.1127 -0.0565
 3464SOL    HW122025   1.051   2.992   0.996 -0.0969 -0.6799  0.2647
 3464SOL    HW222026   0.970   2.875   0.940 -0.7515 -0.8855  0.6960
 3465SOL     OW22027   2.453   1.968   0.726 -0.0002 -0.4825  0.5261
 3465SOL    HW122028   2.529   1.963   0.784  0.6599 -1.6279 -0.4418
 3465SOL    HW222029   2.393   1.916   0.779  0.2839  0.8206  2.1242
 3466SOL     OW22030   1.960   3.668   3.728  0.7230 -0.2110  0.0339
 3466SOL    HW122031   1.972   3.742   3.788  0.2216 -1.1800  1.3119
 3466SOL    HW222032   1.918   3.605   3.786 -0.8589  1.1870  0.3951
 3467SOL     OW22033   3.147   3.314   8.377  0.2047  0.0014 -0.3834
 3467SOL    HW122034   3.170   3.335   8.468  0.2805 -0.0040 -0.4009
 3467SOL    HW222035   3.114   3.225   8.391  0.9192 -0.1247  0.5090
 3468SOL     OW22036   4.077   3.909  17.352 -0.2583  0.0276 -0.0037
 3468SOL    HW122037   4.037   3.822  17.361  0.2829 -0.0436  1.8119
 3468SOL    HW222038   4.150   3.907  17.414 -0.1372  1.6843 -0.1013
 3469SOL     OW22039   1.681   0.608  10.143  0.5674 -0.3696  0.3670
 3469SOL    HW122040   1.598   0.627  10.187 -0.2519 -0.7420 -1.0243
 3469SOL    HW222041   1.658   0.609  10.050 -1.1423 -1.3022  0.7794
 3470SOL     OW22042   3.570   1.762   3.815 -0.0701  0.2292  0.0447
 3470SOL    HW122043   3.663   1.740   3.823 -0.8361 -2.9163  0.5683
 3470SOL    HW222044   3.565   1.847   3.858 -0.8490 -0.0211  0.4460
 3471SOL     OW22045   4.076   4.662   5.806  0.7488 -0.0359  0.4734
 3471SOL    HW122046   4.104   0.012   5.772  0.0892  0.1728  0.4630
 3471SOL    HW222047   4.079   4.683   5.900 -2.5531  1.3070  0.2572
 3472SOL     OW22048   2.381   1.167   7.233 -0.2595 -0.0416 -0.8909
 3472SOL    HW122049   2.380   1.189   7.326  0.2847  0.6685 -1.0508
 3472SOL    HW222050   2.469   1.195   7.210 -0.7934  1.7449 -0.7882
 3473SOL     OW22051   0.614   4.139  14.953 -0.2200  0.0512 -0.3835
 3473SOL    HW122052   0.621   4.121  15.047  1.7885  1.2066 -0.3274
 3473SOL    HW222053   0.618   4.048  14.925 -2.8592 -0.3492  0.4827
 3474SOL     OW22054   0.850   0.510   4.897 -0.4027  0.3139 -0.2431
 3474SOL    HW122055   0.826   0.552   4.980 -0.7511 -2.7673  1.2046
 3474SOL    HW222056   0.812   0.574   4.837  1.1053  0.7462 -0.7384
 3475SOL     OW22057   4.325   0.676   1.841 -0.2421  0.0996 -0.4413
 3475SOL    HW122058   4.350   0.763   1.808  0.0685  0.0102 -0.4349
 3475SOL    HW222059   4.270   0.699   1.916  1.1831  0.7060  0.3964
 3476SOL     OW22060   1.419   3.686   7.943 -0.3427  0.3220 -0.5866
 3476SOL    HW122061   1.445   3.747   7.875  0.7123  1.8827  1.2141
 3476SOL    HW222062   1.498   3.676   7.996 -0.1098  0.0555 -0.9810
 3477SOL     OW22063   3.231   4.269   6.728 -0.2617  0.4608  0.0394
 3477SOL    HW122064   3.323   4.244   6.733 -0.3574  0.3481  1.2052
 3477SOL    HW222065   3.183   4.193   6.762 -0.6547  0.1688 -1.1850
 3478SOL     OW22066   2.998   3.413   4.725  0.2959  0.2405  0.2701
 3478SOL    HW122067   2.982   3.348   4.793 -2.2874  0.0312 -0.5537
 3478SOL    HW222068   3.093   3.424   4.733  0.2892 -0.2458  1.0214
 3479SOL     OW22069   2.063   1.865   1.574  0.1038  0.1460 -0.0811
 3479SOL    HW122070   2.014   1.877   1.656 -0.7796  1.7946 -0.8579
 3479SOL    HW222071   1.995   1.888   1.511 -2.1943 -0.5271  2.1073
 3480SOL     OW22072   0.711   0.627   8.406 -0.2570  0.3412 -0.2160
 3480SOL    HW122073   0.767   0.576   8.464 -0.8636  0.0193  0.0710
 3480SOL    HW222074   0.774   0.694   8.376 -0.3091 -0.1915 -1.5055
 3481SOL     OW22075   3.577   1.172   7.743 -0.0838  0.5921  0.1976
 3481SOL    HW122076   3.594   1.115   7.668 -1.2571  0.7351 -0.1847
 3481SOL    HW222077   3.481   1.166   7.736 -0.1199  0.8105  0.5144
 3482SOL     OW22078   1.509   1.980   1.902  0.1857 -0.3340 -0.2026
 3482SOL    HW122079   1.544   2.069   1.903 -0.5804 -0.0415  0.6504
 3482SOL    HW222080   1.424   1.993   1.944  1.4314  1.3201  1.7668
 3483SOL     OW22081   1.226   3.116   5.222 -0.1365 -0.5329 -0.1402
 3483SOL    HW122082   1.167   3.132   5.148 -0.6263 -0.5069  0.2501
 3483SOL    HW222083   1.174   3.053   5.271  3.1650 -1.6357  1.9471
 3484SOL     OW22084   0.863   3.887   5.946  0.3905  0.5650 -0.1448
 3484SOL    HW122085   0.818   3.846   6.020 -1.4537 -0.6143 -1.9400
 3484SOL    HW222086   0.894   3.808   5.903  0.1546  0.7736 -0.6950
 3485SOL     OW22087   2.479   4.034   2.460 -0.8260 -0.4297  0.2208
 3485SOL    HW122088   2.536   4.044   2.384 -1.0022  2.9033  0.4913
 3485SOL    HW222089   2.466   3.940   2.451  2.8869 -0.8880 -0.1749
 3486SOL     OW22090   3.815   0.987   3.202 -0.2591  0.1272 -0.3201
 3486SOL    HW122091   3.848   0.920   3.261 -2.6498  0.8730  1.8616
 3486SOL    HW222092   3.727   0.997   3.237 -0.2953  4.7445 -1.7188
 3487SOL     OW22093   1.115   0.459   7.917 -0.3927 -0.3378 -0.4021
 3487SOL    HW122094   1.164   0.407   7.854 -0.3851 -3.6377  2.3299
 3487SOL    HW222095   1.113   0.419   8.004 -3.5350  0.5923 -0.0471
 3488SOL     OW22096   3.985   2.951   8.343 -0.5791 -0.4647  0.7022
 3488SOL    HW122097   3.970   3.024   8.283  2.0735 -0.1902  0.3613
 3488SOL    HW222098   3.999   2.883   8.277  2.5050 -1.1749  2.0702
 3489SOL     OW22099   0.012   1.613   4.793  0.1458  0.3986 -0.5917
 3489SOL    HW122100   4.702   1.571   4.866  1.0617  0.5763  0.0753
 3489SOL    HW222101   4.696   1.576   4.721 -1.2386  0.2465  0.4795
 3490SOL     OW22102   1.691   2.941   4.979  0.2466 -0.1272 -0.4852
 3490SOL    HW122103   1.701   2.991   5.060  0.8088  0.8798 -1.1812
 3490SOL    HW222104   1.616   2.882   4.991 -1.0333  1.6381  0.1886
 3491SOL     OW22105   1.644   4.349  16.108  0.0954  0.0645 -0.3471
 3491SOL    HW122106   1.648   4.297  16.028 -1.9551 -1.2020  0.3469
 3491SOL    HW222107   1.655   4.438  16.077 -1.8609  0.1874 -0.7088
 3492SOL     OW22108   1.202   2.918   6.677  0.0143 -0.4427  0.8738
 3492SOL    HW122109   1.197   3.002   6.631 -1.6010 -0.0229  1.8317
 3492SOL    HW222110   1.296   2.924   6.696  0.3009  0.2301 -0.7382
 3493SOL     OW22111   3.974   0.254  14.349  0.0854  0.0815 -0.1711
 3493SOL    HW122112   3.973   0.215  14.437  1.8327 -0.3873 -0.3598
 3493SOL    HW222113   3.888   0.295  14.343  0.2397  0.4421  0.0702
 3494SOL     OW22114   0.792   1.133   7.700 -0.3304  0.0784  0.9741
 3494SOL    HW122115   0.732   1.156   7.630  1.4836 -0.2134 -0.6814
 3494SOL    HW222116   0.746   1.177   7.772 -0.7202  0.6006  0.4021
 3495SOL     OW22117   1.671   2.515   9.962 -0.1285 -0.5100 -0.3701
 3495SOL    HW122118   1.712   2.516   9.875  0.4249 -1.3302 -0.1256
 3495SOL    HW222119   1.584   2.540   9.933 -0.2721 -1.1861 -0.5228
 3496SOL     OW22120   4.706   2.696  12.203  0.0792 -0.3697 -0.0632
 3496SOL    HW122121   4.639   2.764  12.197 -0.8613 -1.2389  0.5789
 3496SOL    HW222122   0.038   2.745  12.250 -2.3110  4.0139 -1.2060
 3497SOL     OW22123   3.803   1.533   6.459  0.0466  0.4101  0.2343
 3497SOL    HW122124   3.825   1.507   6.549  1.0526 -0.1317 -0.1774
 3497SOL    HW222125   3.788   1.449   6.415 -1.1808  1.2629 -0.9883
 3498SOL     OW22126   2.790   1.160   6.029  0.1011 -0.7627  0.1434
 3498SOL    HW122127   2.732   1.237   6.033 -0.5917 -1.3174  0.7234
 3498SOL    HW222128   2.815   1.160   5.936 -2.2716  0.8607 -0.5004
 3499SOL     OW22129   3.468   1.853   3.582  0.1039  0.9394 -0.9147
 3499SOL    HW122130   3.512   1.795   3.644 -0.8689  0.3866 -0.7435
 3499SOL    HW222131   3.503   1.827   3.496  1.8909 -0.7652  0.3295
 3500SOL     OW22132   1.583   3.528  14.139 -0.0490 -0.0797  0.1867
 3500SOL    HW122133   1.678   3.535  14.144 -0.2968  2.2527  1.2881
 3500SOL    HW222134   1.577   3.469  14.063  1.4038  0.4624 -0.3535
 3501SOL     OW22135   4.356   2.675  10.626 -0.3075 -0.3061 -0.1921
 3501SOL    HW122136   4.278   2.691  10.574 -0.4514 -0.0350  0.1086
 3501SOL    HW222137   4.373   2.766  10.651  0.9435 -1.0469  1.7270
 3502SOL     OW22138   3.394   0.364   8.438 -0.8712 -0.5210  0.1260
 3502SOL    HW122139   3.484   0.356   8.406 -0.7962 -0.0842  0.2212
 3502SOL    HW222140   3.396   0.333   8.528  1.8838  0.3301  0.3462
 3503SOL     OW22141   2.307   0.812   5.490 -0.0958 -0.4638  0.1666
 3503SOL    HW122142   2.397   0.815   5.520  0.4489 -2.9043 -1.2555
 3503SOL    HW222143   2.272   0.773   5.570 -0.5998  0.0107  0.1828
 3504SOL     OW22144   0.864   1.132  10.188 -0.0909 -0.5882  0.1562
 3504SOL    HW122145   0.901   1.053  10.229 -0.7252  0.0099  1.8877
 3504SOL    HW222146   0.942   1.163  10.143 -0.6574 -0.4347 -0.7250
 3505SOL     OW22147   2.143   4.436  11.733  0.4176 -0.2051 -0.2861
 3505SOL    HW122148   2.199   4.380  11.678  3.9127 -0.0031  3.0520
 3505SOL    HW222149   2.143   4.519  11.685  0.4771  0.0855  0.2230
 3506SOL     OW22150   4.479   2.169   1.948  0.4151  0.2340 -0.1299
 3506SOL    HW122151   4.497   2.082   1.984  1.1606  0.5279  0.2185
 3506SOL    HW222152   4.401   2.164   1.893 -0.7001 -1.2033  1.5691
 3507SOL     OW22153   4.124   3.201  17.707  0.4212 -0.0397 -0.0664
 3507SOL    HW122154   4.082   3.117  17.727  0.5996  0.0165  0.5589
 3507SOL    HW222155   4.135   3.230   0.060 -0.2251  0.0469 -0.0178
 3508SOL     OW22156   2.687   0.866  16.121  0.5972  0.7441 -0.0932
 3508SOL    HW122157   2.710   0.871  16.214 -1.2737 -0.0711  0.4076
 3508SOL    HW222158   2.749   0.929  16.083  0.8593 -0.7824 -2.1625
 3509SOL     OW22159   2.787   2.458   2.266 -0.2110  0.1843  0.3231
 3509SOL    HW122160   2.823   2.535   2.309 -1.6204  0.1314  1.6066
 3509SOL    HW222161   2.700   2.493   2.248 -0.7346 -0.0817  2.3359
 3510SOL     OW22162   0.115   3.179   2.688  0.6383 -0.2357 -0.2352
 3510SOL    HW122163   0.055   3.176   2.613  0.0535 -1.2938  0.2763
 3510SOL    HW222164   0.073   3.124   2.754  2.3996 -1.6087 -0.2556
 3511SOL     OW22165   2.242   0.793  14.046 -0.2860 -0.3809 -0.3309
 3511SOL    HW122166   2.264   0.793  14.139 -1.2673  1.2486 -0.1031
 3511SOL    HW222167   2.304   0.724  14.022  0.9027  0.2263  1.0032
 3512SOL     OW22168   1.946   4.296   2.205  0.1174  0.4405 -0.2045
 3512SOL    HW122169   1.919   4.252   2.285  1.3068  0.6087  0.2777
 3512SOL    HW222170   2.040   4.283   2.210  0.1211 -0.3247 -2.3746
 3513SOL     OW22171   2.674   0.109   0.050 -0.2701  0.1090  0.1443
 3513SOL    HW122172   2.582   0.108   0.076 -0.2631  0.7744  0.2028
 3513SOL    HW222173   2.714   0.042   0.105 -1.2243 -0.4474  0.1577
 3514SOL     OW22174   0.677   3.850   7.805  0.1617  0.9881  0.8599
 3514SOL    HW122175   0.670   3.879   7.896  0.8882 -1.4933  1.7182
 3514SOL    HW222176   0.739   3.778   7.813 -1.5346 -0.3841  1.8345
 3515SOL     OW22177   2.961   1.502  14.731  0.7334 -0.0911 -0.4328
 3515SOL    HW122178   2.903   1.427  14.730  1.0317 -0.3428  1.2038
 3515SOL    HW222179   3.047   1.469  14.758  0.7957 -1.5815 -2.4804
 3516SOL     OW22180   0.269   3.301  10.279  0.1069 -0.0261  0.5901
 3516SOL    HW122181   0.284   3.212  10.310 -2.1838 -0.6995 -0.2335
 3516SOL    HW222182   0.174   3.291  10.269  0.7747 -0.5214 -5.2337
 3517SOL     OW22183   4.048   3.480   9.664 -0.2287  0.2792 -0.2124
 3517SOL    HW122184   4.067   3.522   9.748 -1.6060 -3.4729  1.9773
 3517SOL    HW222185   4.019   3.557   9.615 -0.4719 -0.0190 -0.5377
 3518SOL     OW22186   0.949   0.190   8.018 -0.1314  0.5125  0.0737
 3518SOL    HW122187   0.970   0.245   8.094 -0.0383 -0.6741  0.9078
 3518SOL    HW222188   1.011   0.119   8.035 -0.2210  0.0465 -1.5425
 3519SOL     OW22189   3.856   4.353   7.259 -0.1084 -0.1667 -0.2913
 3519SOL    HW122190   3.916   4.300   7.311 -2.2236 -1.0393  1.2568
 3519SOL    HW222191   3.782   4.375   7.315  0.8835 -0.6339  1.1732
 3520SOL     OW22192   3.793   0.262   5.978  0.6139 -0.3205 -0.4810
 3520SOL    HW122193   3.840   0.273   5.896  1.7865 -1.6909 -0.0164
 3520SOL    HW222194   3.865   0.253   6.041  0.2278 -0.7449 -0.0983
 3521SOL     OW22195   2.832   4.289   8.087  0.2559  0.4030  0.6248
 3521SOL    HW122196   2.754   4.273   8.142  1.3597 -1.9100  1.5246
 3521SOL    HW222197   2.832   4.384   8.078  0.6736  0.4702  1.3322
 3522SOL     OW22198   2.761   3.768   3.101 -0.0721  0.0947  0.1096
 3522SOL    HW122199   2.823   3.743   3.033 -0.6231 -0.4062 -0.2107
 3522SOL    HW222200   2.800   3.734   3.181  0.3325  0.1532 -0.0630
 3523SOL     OW22201   3.430   4.517   4.817 -0.1860 -0.2635  0.0951
 3523SOL    HW122202   3.485   4.570   4.874  0.9266 -2.1823  0.8180
 3523SOL    HW222203   3.442   4.428   4.852  0.8287  0.0901  0.6403
 3524SOL     OW22204   3.503   2.216   5.209  0.1394  0.0225  0.2135
 3524SOL    HW122205   3.473   2.247   5.294  2.0410 -1.7214  1.5188
 3524SOL    HW222206   3.446   2.140   5.201  1.0009 -0.7503  1.5028
 3525SOL     OW22207   2.454   0.425   5.944  0.0749  0.2708 -0.6205
 3525SOL    HW122208   2.530   0.478   5.921  0.7406 -1.5086 -2.4572
 3525SOL    HW222209   2.440   0.459   6.033  0.9027 -2.7548  0.6602
 3526SOL     OW22210   3.979   0.848   9.680 -0.4790  0.2323  0.4588
 3526SOL    HW122211   4.065   0.864   9.720  0.4801  0.4742 -1.6541
 3526SOL    HW222212   3.968   0.935   9.639 -0.6541 -0.8908 -1.9073
 3527SOL     OW22213   1.190   3.837   6.834 -0.0408 -0.2646 -0.1070
 3527SOL    HW122214   1.190   3.927   6.802  2.0861 -0.9610 -2.0712
 3527SOL    HW222215   1.101   3.819   6.864  0.5802 -2.2524  0.5262
 3528SOL     OW22216   0.192   1.477  16.292 -0.2849 -0.4333  0.5313
 3528SOL    HW122217   0.195   1.527  16.211 -0.5333 -0.2238  0.6523
 3528SOL    HW222218   0.268   1.507  16.342 -0.3072 -2.4897  1.8158
 3529SOL     OW22219   3.342   1.497   4.770 -0.2687  0.4275  0.5098
 3529SOL    HW122220   3.419   1.440   4.779  0.7829  1.6569 -0.7293
 3529SOL    HW222221   3.322   1.470   4.680 -1.1816 -0.6558  1.0355
 3530SOL     OW22222   3.181   2.340   5.122  0.4834 -0.1685  0.5949
 3530SOL    HW122223   3.211   2.398   5.192  2.5219  0.7816 -1.0506
 3530SOL    HW222224   3.250   2.355   5.057 -0.6232  1.2462 -0.2471
 3531SOL     OW22225   3.652   2.231   4.328  0.0180 -0.0793  0.1889
 3531SOL    HW122226   3.625   2.266   4.413  0.4859  0.1339  0.2501
 3531SOL    HW222227   3.578   2.262   4.275 -1.8485 -4.3072  0.3512
 3532SOL     OW22228   3.931   1.744  17.148  0.3673 -0.3710  0.6517
 3532SOL    HW122229   3.963   1.680  17.211 -2.4372 -1.5040  0.9235
 3532SOL    HW222230   3.924   1.818  17.207  1.7733  0.1629  0.1388
 3533SOL     OW22231   2.313   1.783   2.669  0.5035  0.0694  0.4362
 3533SOL    HW122232   2.336   1.691   2.679 -2.7644 -0.7162  0.9406
 3533SOL    HW222233   2.387   1.806   2.614  0.5879  0.3764  0.6781
 3534SOL     OW22234   2.832   2.766  16.460 -0.4685  0.6955 -0.0559
 3534SOL    HW122235   2.865   2.815  16.534  2.6889 -0.6095 -0.6126
 3534SOL    HW222236   2.844   2.828  16.388 -0.3073 -1.4029 -1.8421
 3535SOL     OW22237   3.252   2.685  14.051  0.5735  0.1720 -0.0639
 3535SOL    HW122238   3.164   2.701  14.085 -0.0976  1.4639 -2.4213
 3535SOL    HW222239   3.253   2.590  14.062  0.4149  0.0999 -0.6763
 3536SOL     OW22240   3.025   4.322   8.761  0.2329  0.0847 -0.2910
 3536SOL    HW122241   3.113   4.359   8.763  0.6107 -0.7561 -1.3285
 3536SOL    HW222242   3.041   4.229   8.775 -1.9393 -0.2823 -0.1921
 3537SOL     OW22243   0.348   1.034   9.746  0.2649  0.2149 -0.2098
 3537SOL    HW122244   0.292   1.037   9.824 -0.1019  1.8465 -0.5319
 3537SOL    HW222245   0.404   1.111   9.758 -1.4663  1.4360  0.0371
 3538SOL     OW22246   1.053   0.154  10.765 -0.2162  0.3145  0.3160
 3538SOL    HW122247   0.995   0.146  10.689 -2.3006 -0.8375  2.0050
 3538SOL    HW222248   1.020   0.079  10.815 -1.9342  0.6549 -0.3081
 3539SOL     OW22249   3.763   2.552  15.568 -0.5173 -0.3873  0.7119
 3539SOL    HW122250   3.829   2.551  15.498  0.7340 -4.4434  1.9430
 3539SOL    HW222251   3.692   2.600  15.525  2.2953  2.2461 -1.0456
 3540SOL     OW22252   2.132   2.462   9.468  0.0589  0.0835 -0.8586
 3540SOL    HW122253   2.070   2.452   9.397  0.4487 -0.8468 -1.0677
 3540SOL    HW222254   2.184   2.382   9.467 -0.5376 -0.4435  5.1055
 3541SOL     OW22255   0.611   2.175   4.365 -0.0738 -0.0710  0.5321
 3541SOL    HW122256   0.601   2.168   4.460 -1.3778  1.1255  0.4727
 3541SOL    HW222257   0.524   2.151   4.335 -0.3860  2.2140 -0.3962
 3542SOL     OW22258   1.486   2.547   8.490 -0.0712 -0.4556 -0.0179
 3542SOL    HW122259   1.546   2.585   8.554  0.0390 -0.2527 -0.2458
 3542SOL    HW222260   1.420   2.616   8.478  1.4522  1.3648  2.1441
 3543SOL     OW22261   3.442   3.058   8.748  0.5176  0.6125  0.3435
 3543SOL    HW122262   3.493   3.064   8.829 -0.9902 -1.9082  1.4652
 3543SOL    HW222263   3.363   3.100   8.782  0.9888  2.6219 -1.0228
 3544SOL     OW22264   0.314   0.473  15.142  0.1209  0.3149  0.4225
 3544SOL    HW122265   0.352   0.397  15.097 -1.9552  0.4897 -1.5789
 3544SOL    HW222266   0.390   0.532  15.144  1.2055 -1.1343  1.9735
 3545SOL     OW22267   3.885   0.052  17.191  0.3555  0.4251  0.2615
 3545SOL    HW122268   3.849   0.103  17.119  0.2503  0.7387  0.5307
 3545SOL    HW222269   3.805   0.030  17.238 -0.2655  0.8829 -0.5805
 3546SOL     OW22270   4.702   3.440  17.242  0.3658 -0.0795  0.3065
 3546SOL    HW122271   0.039   3.452  17.181  1.1285 -1.1600  0.9789
 3546SOL    HW222272   4.679   3.530  17.264 -0.6704 -0.1029 -0.7313
 3547SOL     OW22273   3.286   4.503  14.502  0.0609 -0.2169  0.0686
 3547SOL    HW122274   3.240   4.586  14.514 -0.2046 -0.6106  1.9170
 3547SOL    HW222275   3.226   4.453  14.447 -0.2148  0.9173 -0.6613
 3548SOL     OW22276   0.397   1.168  15.968 -0.3006 -0.2664 -0.1471
 3548SOL    HW122277   0.426   1.232  15.903  1.3153 -0.1497  0.6724
 3548SOL    HW222278   0.376   1.229  16.039 -1.3690 -0.6746 -0.1154
 3549SOL     OW22279   3.750   0.178   9.302 -0.2230 -0.1079 -0.3666
 3549SOL    HW122280   3.766   0.188   9.396  2.1283 -0.4511 -0.7316
 3549SOL    HW222281   3.745   0.269   9.272 -1.2481  0.1028  0.4301
 3550SOL     OW22282   0.000   4.502   3.334  0.3174  0.0822  0.8314
 3550SOL    HW122283   4.675   4.546   3.394  0.7845  0.3462  1.1031
 3550SOL    HW222284   0.081   4.551   3.351  1.1118 -1.2892  1.0194
 3551SOL     OW22285   4.650   3.170   7.659  0.2267  0.0461  0.0868
 3551SOL    HW122286   4.627   3.177   7.752  0.6552  1.5890  0.0732
 3551SOL    HW222287   0.003   3.206   7.670 -0.2428  0.4757  2.3232
 3552SOL     OW22288   2.095   3.330   2.348 -0.3149  0.6522 -0.4219
 3552SOL    HW122289   2.187   3.323   2.374 -0.3351 -0.8064 -0.7111
 3552SOL    HW222290   2.056   3.371   2.424  0.7223  1.3936 -0.2867
 3553SOL     OW22291   1.286   3.873   5.388 -0.2424  0.3390  0.1019
 3553SOL    HW122292   1.206   3.828   5.360 -0.0693 -1.0273  1.8149
 3553SOL    HW222293   1.350   3.838   5.326 -1.1224 -0.7570 -0.1864
 3554SOL     OW22294   3.860   2.092   5.379  0.4566  0.0159 -0.2783
 3554SOL    HW122295   3.839   2.115   5.288 -0.9555 -2.3204 -0.5271
 3554SOL    HW222296   3.826   2.003   5.378 -1.7177  0.8429  1.7953
 3555SOL     OW22297   0.317   4.242   5.626 -0.0389 -0.1987 -0.4810
 3555SOL    HW122298   0.354   4.157   5.648  1.8369  0.8379  0.4602
 3555SOL    HW222299   0.348   4.284   5.707  1.7286 -1.1697 -0.6474
 3556SOL     OW22300   4.269   1.523  14.632  0.1603  0.6598  0.1072
 3556SOL    HW122301   4.174   1.519  14.624  0.4266 -1.6798 -1.6874
 3556SOL    HW222302   4.290   1.437  14.668 -2.1747  0.2390  0.4449
 3557SOL     OW22303   1.230   1.446  13.172 -0.2526  0.0156 -0.2690
 3557SOL    HW122304   1.226   1.421  13.264  0.8228 -1.7843 -0.7174
 3557SOL    HW222305   1.164   1.515  13.174 -1.1456 -0.9245  1.7256
 3558SOL     OW22306   2.912   1.180  15.923  0.7163 -0.2917  0.6697
 3558SOL    HW122307   2.861   1.160  15.845 -0.2700  0.9415  1.0047
 3558SOL    HW222308   2.970   1.103  15.923  0.8551 -0.1999 -0.8661
 3559SOL     OW22309   4.151   0.020   3.465  0.5248  0.4511 -0.1706
 3559SOL    HW122310   4.222   0.038   3.526  0.6158  0.8836 -0.4007
 3559SOL    HW222311   4.151   0.101   3.414  2.8035 -0.3737 -1.4725
 3560SOL     OW22312   1.715   0.720   7.618 -0.2529 -0.5654  0.7777
 3560SOL    HW122313   1.638   0.718   7.561  0.7745  4.1369 -0.7308
 3560SOL    HW222314   1.680   0.679   7.697  1.2465 -1.3626  1.0391
 3561SOL     OW22315   2.804   2.038   5.818 -0.1364 -0.2491 -0.0165
 3561SOL    HW122316   2.723   2.011   5.774  0.5491 -1.3779 -0.5906
 3561SOL    HW222317   2.854   2.066   5.741 -1.6383 -0.7137 -1.1680
 3562SOL     OW22318   3.776   1.177   7.388 -0.5191  0.5580 -0.4593
 3562SOL    HW122319   3.736   1.117   7.452 -1.0676  0.2096 -1.1344
 3562SOL    HW222320   3.865   1.193   7.421 -1.0230  1.2359  0.5740
 3563SOL     OW22321   1.442   3.790   2.017  0.1819 -0.0906  0.1240
 3563SOL    HW122322   1.387   3.787   1.938  2.5418  0.0695 -1.5202
 3563SOL    HW222323   1.448   3.697   2.037  0.8565 -0.0926 -0.1007
 3564SOL     OW22324   4.163   2.738   6.839 -0.1303 -0.6629  0.2041
 3564SOL    HW122325   4.250   2.777   6.835 -0.6374  0.4222 -0.1332
 3564SOL    HW222326   4.153   2.717   6.747 -0.3235 -3.7536  0.9270
 3565SOL     OW22327   2.470   0.366   7.222  0.3302  0.2739 -0.2690
 3565SOL    HW122328   2.509   0.413   7.296  0.7593 -0.5175  0.0083
 3565SOL    HW222329   2.540   0.332   7.166  0.8452  0.4896  0.2379
 3566SOL     OW22330   3.589   1.007  13.678 -0.7232 -0.0877 -0.0060
 3566SOL    HW122331   3.610   0.984  13.588  0.8307  0.6935  0.1479
 3566SOL    HW222332   3.646   1.081  13.701  0.4723 -0.9901 -0.0852
 3567SOL     OW22333   4.678   0.643   1.145 -0.1278 -0.2106 -0.1031
 3567SOL    HW122334   0.028   0.610   1.115  0.4070  1.3310 -0.2413
 3567SOL    HW222335   4.653   0.712   1.084 -0.0982  1.8962  2.2835
 3568SOL     OW22336   0.743   3.567   3.586 -1.1362 -0.1839 -0.1435
 3568SOL    HW122337   0.750   3.521   3.503 -2.5796 -0.9297  0.1346
 3568SOL    HW222338   0.759   3.658   3.564  0.9856 -0.3940  0.5231
 3569SOL     OW22339   2.333   1.687  12.995 -0.0708  0.1163  0.1056
 3569SOL    HW122340   2.302   1.699  12.905 -1.2672  1.9802  0.7665
 3569SOL    HW222341   2.263   1.717  13.053 -0.4717 -2.1061  0.8007
 3570SOL     OW22342   2.302   1.615  14.411  0.1878  0.5356 -0.0508
 3570SOL    HW122343   2.377   1.655  14.366  0.5162  1.2616  1.1295
 3570SOL    HW222344   2.242   1.689  14.408 -0.6275 -0.1925 -1.7372
 3571SOL     OW22345   1.669   1.552   3.546  0.0285 -0.0573  0.5794
 3571SOL    HW122346   1.583   1.531   3.510  0.7615  1.8305 -2.2583
 3571SOL    HW222347   1.722   1.570   3.468 -1.5563 -1.5798 -0.8757
 3572SOL     OW22348   3.179   2.917   2.872  0.0240  0.5512 -0.3778
 3572SOL    HW122349   3.270   2.941   2.887 -0.0593  0.9901 -0.5934
 3572SOL    HW222350   3.162   2.890   2.963 -0.4317  0.9288 -0.3489
 3573SOL     OW22351   4.565   2.203   1.683  0.6885 -0.7623 -0.2938
 3573SOL    HW122352   4.569   2.116   1.721 -0.1975 -0.7637 -0.1940
 3573SOL    HW222353   4.538   2.249   1.763 -1.5755 -2.4129 -0.1164
 3574SOL     OW22354   2.290   3.894   7.932  0.0674  0.1784  0.0135
 3574SOL    HW122355   2.369   3.949   7.933  0.2509 -0.1034  1.0022
 3574SOL    HW222356   2.219   3.953   7.910 -0.4665 -0.1262  0.9338
 3575SOL     OW22357   4.201   0.134   6.245 -0.6006 -0.0577  0.3249
 3575SOL    HW122358   4.217   0.137   6.150  0.4522 -1.8886  0.4410
 3575SOL    HW222359   4.182   0.228   6.252 -0.4177  0.0011  0.0673
 3576SOL     OW22360   1.027   0.854  14.208 -0.2224 -0.0171 -0.1762
 3576SOL    HW122361   1.070   0.938  14.192  0.4470 -0.6709 -1.8165
 3576SOL    HW222362   0.947   0.875  14.256  0.0531 -1.1299  0.7889
 3577SOL     OW22363   0.282   1.092   8.817  0.3203 -0.9790 -0.5824
 3577SOL    HW122364   0.215   1.131   8.873  0.1388  0.8763 -2.1064
 3577SOL    HW222365   0.345   1.072   8.887 -1.4436  0.2345  1.3664
 3578SOL     OW22366   0.623   3.582   6.521 -0.0592 -0.6540  0.8667
 3578SOL    HW122367   0.629   3.534   6.439 -0.8625 -0.6480  0.8076
 3578SOL    HW222368   0.576   3.516   6.573  0.2614 -0.2328  1.6951
 3579SOL     OW22369   0.725   2.145   3.980 -0.0450  0.2046  0.3756
 3579SOL    HW122370   0.818   2.148   4.002 -0.2119 -2.5326  1.5695
 3579SOL    HW222371   0.692   2.224   4.023  0.5076 -0.2651  1.6750
 3580SOL     OW22372   1.491   2.516   2.865  0.5673 -0.0812  0.4226
 3580SOL    HW122373   1.478   2.457   2.939 -2.2636 -0.8402 -0.6884
 3580SOL    HW222374   1.415   2.574   2.872  0.0624 -0.6898 -0.1367
 3581SOL     OW22375   1.184   0.907   0.583 -0.1671  0.5431  0.5441
 3581SOL    HW122376   1.267   0.866   0.608  0.5430  0.9601 -1.0931
 3581SOL    HW222377   1.202   0.982   0.526 -2.6529  1.0261  0.3722
 3582SOL     OW22378   1.649   3.727  16.641  0.2953  0.0455 -0.3735
 3582SOL    HW122379   1.636   3.661  16.710 -0.4691  1.0805  0.4566
 3582SOL    HW222380   1.560   3.749  16.613  0.4709 -0.3557 -1.2572
 3583SOL     OW22381   4.472   0.675   2.686  0.1268 -0.0507 -0.1293
 3583SOL    HW122382   4.436   0.602   2.635  0.0101  0.7043 -1.1392
 3583SOL    HW222383   4.468   0.750   2.626 -1.4095  0.2288  0.3047
 3584SOL     OW22384   1.232   1.619   0.934  0.4177 -0.0478 -0.1847
 3584SOL    HW122385   1.172   1.566   0.881  0.1666  1.6548 -1.6184
 3584SOL    HW222386   1.203   1.615   1.025 -1.4083 -0.2323 -0.7611
 3585SOL     OW22387   4.175   2.877   0.721  0.5985  0.5784  0.2333
 3585SOL    HW122388   4.122   2.822   0.663  0.7816 -0.6085  1.1779
 3585SOL    HW222389   4.166   2.968   0.694 -0.1526  0.1256 -1.0214
 3586SOL     OW22390   4.502   2.026   4.842  0.4904 -0.3511  0.2189
 3586SOL    HW122391   4.579   1.971   4.830  1.2027  0.5572  0.6080
 3586SOL    HW222392   4.476   1.995   4.929  3.9885 -2.1012  0.6410
 3587SOL     OW22393   2.549   0.615   6.785  0.6872  0.6582 -0.5848
 3587SOL    HW122394   2.494   0.647   6.714 -0.4916 -0.2659 -0.0887
 3587SOL    HW222395   2.519   0.668   6.859 -0.2491  1.4351 -1.5399
 3588SOL     OW22396   4.195   0.127  16.030 -0.0291 -0.3173  0.3805
 3588SOL    HW122397   4.281   0.108  15.992 -0.5187 -3.3380  0.8427
 3588SOL    HW222398   4.151   0.042  16.025  0.2670 -0.4041 -0.7483
 3589SOL     OW22399   0.044   3.775   5.336  0.9508 -0.2008 -0.0756
 3589SOL    HW122400   0.134   3.801   5.318  1.2496 -1.7725 -0.8018
 3589SOL    HW222401   0.016   3.758   5.246  3.3379 -2.2093 -0.4051
 3590SOL     OW22402   4.088   0.132  14.116 -0.0978 -0.2829 -0.6200
 3590SOL    HW122403   4.017   0.144  14.178 -1.3926 -1.3410 -1.8973
 3590SOL    HW222404   4.150   0.192  14.156 -1.5124  0.0578  1.0239
 3591SOL     OW22405   1.163   1.019   9.353  0.4173  0.4187 -0.0814
 3591SOL    HW122406   1.147   0.988   9.264 -0.0011  2.5908 -0.7539
 3591SOL    HW222407   1.079   1.052   9.384  0.4431  0.1125  0.3192
 3592SOL     OW22408   1.365   4.671   2.958 -0.5430 -0.1490 -0.1202
 3592SOL    HW122409   1.364   4.581   2.927 -1.9796  0.0370 -0.5834
 3592SOL    HW222410   1.358   4.713   2.873  0.5717 -1.1448 -0.7050
 3593SOL     OW22411   1.691   2.900  12.192  0.2315  0.0407 -0.4407
 3593SOL    HW122412   1.672   2.983  12.236  1.9652 -1.5992  3.3325
 3593SOL    HW222413   1.720   2.842  12.262 -0.6129 -0.7158 -0.7219
 3594SOL     OW22414   3.089   2.184   8.091  0.5058  0.0021  0.3107
 3594SOL    HW122415   3.061   2.195   8.000  0.1496 -0.2129  0.3968
 3594SOL    HW222416   3.123   2.095   8.101 -1.1660 -0.5472  1.1029
 3595SOL     OW22417   2.394   4.378   3.296 -0.1917 -0.1781 -1.0329
 3595SOL    HW122418   2.447   4.439   3.245  1.2204 -0.0545  0.5819
 3595SOL    HW222419   2.305   4.414   3.291 -0.6802 -1.0262  1.2331
 3596SOL     OW22420   3.027   0.936   6.481  0.7645 -0.1377 -0.1737
 3596SOL    HW122421   3.072   0.922   6.398 -0.7633  1.5955 -1.2647
 3596SOL    HW222422   2.948   0.982   6.454 -1.7623 -3.9428  0.7379
 3597SOL     OW22423   4.302   4.191   4.496 -0.0057  0.1264  0.5896
 3597SOL    HW122424   4.372   4.144   4.450 -0.3263 -0.5316  0.7796
 3597SOL    HW222425   4.294   4.129   4.568 -1.3775 -1.3253 -0.8156
 3598SOL     OW22426   1.636   4.241   7.131 -0.2859  0.0438 -0.2346
 3598SOL    HW122427   1.729   4.242   7.152 -0.1518  0.1682 -0.8248
 3598SOL    HW222428   1.618   4.334   7.119  1.9798  0.4065 -0.7237
 3599SOL     OW22429   3.456   2.430   2.679  0.2414 -0.3143  0.0469
 3599SOL    HW122430   3.393   2.358   2.684 -1.3625  1.0890  0.1059
 3599SOL    HW222431   3.489   2.415   2.590 -0.8264  0.3721 -0.4681
 3600SOL     OW22432   2.500   4.053   7.940 -0.0470  0.1803  0.2626
 3600SOL    HW122433   2.565   4.077   7.874 -0.3623  0.9851  0.2496
 3600SOL    HW222434   2.479   4.139   7.976 -0.3744  1.2434 -2.5083
 3601SOL     OW22435   3.232   4.446   4.181 -0.2785 -0.2862 -0.3197
 3601SOL    HW122436   3.205   4.506   4.250  2.6273  0.5571  0.0897
 3601SOL    HW222437   3.320   4.416   4.204 -0.6172 -0.3402  0.8913
 3602SOL     OW22438   2.988   1.386   4.103  0.3585 -0.2373 -0.0539
 3602SOL    HW122439   2.949   1.470   4.078  1.9756  0.0375 -1.6825
 3602SOL    HW222440   2.912   1.328   4.107 -0.3452  0.8465  2.1448
 3603SOL     OW22441   0.052   2.472   7.208  0.2112  0.1548 -0.6671
 3603SOL    HW122442   4.709   2.461   7.154 -0.7184  0.9661  0.5058
 3603SOL    HW222443   0.119   2.425   7.159  1.1969  0.8479  0.0063
 3604SOL     OW22444   4.553   2.183  13.976 -0.1028  0.2207 -0.3736
 3604SOL    HW122445   4.520   2.103  14.017 -0.8800  0.7870  0.0822
 3604SOL    HW222446   4.625   2.210  14.033 -0.4215 -1.0158  0.6214
 3605SOL     OW22447   1.496   0.895  14.905  0.0559  0.1622 -0.4993
 3605SOL    HW122448   1.480   0.859  14.992  1.3126  1.2813  0.2107
 3605SOL    HW222449   1.589   0.915  14.899 -0.3190  1.9928 -0.2147
 3606SOL     OW22450   4.522   2.018   0.782  0.0255 -0.4262  0.3279
 3606SOL    HW122451   4.609   1.987   0.806 -0.5982 -3.3602 -1.1716
 3606SOL    HW222452   4.477   1.940   0.750 -1.8798 -0.4516  3.0616
 3607SOL     OW22453   0.188   4.704   6.890  0.5690 -0.5138 -0.6105
 3607SOL    HW122454   0.190   0.009   6.977  0.5913  1.2517 -1.4222
 3607SOL    HW222455   0.095   4.684   6.887  0.0949  1.7037 -0.3276
 3608SOL     OW22456   1.181   3.887   5.647 -0.6469  0.1556  0.2763
 3608SOL    HW122457   1.259   3.907   5.699 -0.9823  0.2801  0.7369
 3608SOL    HW222458   1.200   3.905   5.555  0.7979  0.1695  0.5681
 3609SOL     OW22459   0.439   0.790   9.057  0.3953 -0.0291 -0.2256
 3609SOL    HW122460   0.462   0.774   8.965 -0.4936 -1.2434 -0.2387
 3609SOL    HW222461   0.349   0.758   9.049  1.3218 -2.5545 -0.7758
 3610SOL     OW22462   2.594   1.775  15.082 -0.2601  0.5089  0.8599
 3610SOL    HW122463   2.610   1.748  15.173  1.5455 -0.7175  0.1618
 3610SOL    HW222464   2.499   1.763  15.082  0.0190 -1.5713  0.7048
 3611SOL     OW22465   4.598   3.732   6.864  0.2643  0.3560  0.0701
 3611SOL    HW122466   4.510   3.696   6.878  0.7339 -0.3617  1.1760
 3611SOL    HW222467   4.648   3.692   6.935 -1.8013  2.2270  2.5789
 3612SOL     OW22468   0.148   2.290   4.991  0.0660  0.3535 -0.1877
 3612SOL    HW122469   0.114   2.229   5.057 -0.1565 -1.7142 -2.2299
 3612SOL    HW222470   0.129   2.251   4.906  0.4808 -3.2370  1.3566
 3613SOL     OW22471   4.688   3.009   2.818 -0.0555 -0.4428 -0.5196
 3613SOL    HW122472   4.726   2.954   2.887  0.1826 -0.6546 -0.8222
 3613SOL    HW222473   4.601   3.033   2.849  1.0544  0.4804  1.9139
 3614SOL     OW22474   0.885   3.763   3.359 -0.5323 -0.0602  0.0139
 3614SOL    HW122475   0.862   3.763   3.266 -0.8048  2.1091  0.0828
 3614SOL    HW222476   0.974   3.727   3.366 -0.6810 -0.0619  1.9487
 3615SOL     OW22477   2.754   2.355   7.647  0.7408 -0.2106  0.1608
 3615SOL    HW122478   2.677   2.371   7.593 -1.0867 -0.2871  2.6950
 3615SOL    HW222479   2.725   2.287   7.708 -0.7539  0.0101 -0.3047
 3616SOL     OW22480   2.254   3.281  13.470 -0.2328  0.3303  0.0216
 3616SOL    HW122481   2.176   3.257  13.521  0.7498  2.0061  2.3644
 3616SOL    HW222482   2.320   3.231  13.517 -0.5382 -1.5738 -1.6101
 3617SOL     OW22483   3.485   3.610   8.006 -0.4968  0.3571  0.0015
 3617SOL    HW122484   3.556   3.589   7.945 -1.1962 -0.3371 -0.5756
 3617SOL    HW222485   3.430   3.532   7.997 -2.5784  1.6814  1.2566
 3618SOL     OW22486   2.459   0.714  11.819 -0.3183  0.1086  0.3822
 3618SOL    HW122487   2.490   0.632  11.857 -0.6754 -0.4951 -0.6384
 3618SOL    HW222488   2.382   0.679  11.776  1.3169 -1.7968 -0.9646
 3619SOL     OW22489   4.079   1.382  12.681  0.5732  0.2844 -0.0750
 3619SOL    HW122490   4.062   1.400  12.773 -0.6828 -0.6598 -0.1277
 3619SOL    HW222491   4.033   1.456  12.642  2.0589  0.5867 -1.2553
 3620SOL     OW22492   0.033   2.583   8.777 -0.2089  0.2741  0.4136
 3620SOL    HW122493   0.050   2.490   8.794 -0.0867  0.1304 -0.4712
 3620SOL    HW222494   4.680   2.610   8.804  0.1831 -0.6281  2.6110
 3621SOL     OW22495   1.931   4.247  16.457  0.4479 -0.2115 -0.3653
 3621SOL    HW122496   1.908   4.332  16.419  0.3192 -0.0218  0.1470
 3621SOL    HW222497   1.869   4.239  16.529 -2.3312 -0.4999 -2.7940
 3622SOL     OW22498   0.627   0.677   3.270  0.3155  0.9008 -0.0653
 3622SOL    HW122499   0.643   0.754   3.325 -0.8377 -0.6198  2.4054
 3622SOL    HW222500   0.609   0.724   3.189  0.7363  0.6165 -0.3182
 3623SOL     OW22501   2.327   4.647   9.381 -0.0546 -0.3659  0.0541
 3623SOL    HW122502   2.257   4.605   9.431  0.5996 -0.0200  1.2587
 3623SOL    HW222503   2.353   4.572   9.328  1.4203 -1.5267  2.4172
 3624SOL     OW22504   2.460   0.364   6.821 -0.3871 -0.1031 -0.2036
 3624SOL    HW122505   2.424   0.341   6.736  0.1815 -2.5765  0.2082
 3624SOL    HW222506   2.497   0.451   6.807  0.5215 -0.3629  0.5464
 3625SOL     OW22507   1.834   1.722   9.226  0.0116 -0.3835 -0.1937
 3625SOL    HW122508   1.901   1.709   9.159  0.1954  5.0660 -1.0993
 3625SOL    HW222509   1.802   1.806   9.192 -0.3123 -1.5109 -2.7471
 3626SOL     OW22510   1.509   3.412  12.152 -0.1264  0.0327 -0.5122
 3626SOL    HW122511   1.497   3.462  12.232  0.6671  0.4416 -0.6522
 3626SOL    HW222512   1.421   3.425  12.117 -0.0097 -0.4742 -1.0057
 3627SOL     OW22513   0.158   2.367   3.372  0.1393 -0.5646  0.0047
 3627SOL    HW122514   0.117   2.280   3.372 -1.3939  0.1688 -1.3505
 3627SOL    HW222515   0.089   2.417   3.328  0.0184 -2.3656 -1.8676
 3628SOL     OW22516   2.260   0.173   2.305  0.1589 -1.2273 -0.2238
 3628SOL    HW122517   2.280   0.088   2.265  2.7608  0.0441 -1.5912
 3628SOL    HW222518   2.335   0.186   2.362 -0.4612  1.3847 -0.0326
 3629SOL     OW22519   2.223   1.391   2.012 -0.0523  0.6280  0.0452
 3629SOL    HW122520   2.239   1.481   2.039 -3.4614  1.3052 -0.1939
 3629SOL    HW222521   2.135   1.393   1.975  0.2278 -1.6070 -0.7429
 3630SOL     OW22522   2.989   3.606   2.599  0.1413  0.1605  0.1000
 3630SOL    HW122523   3.042   3.664   2.544 -1.4558  2.5430  1.0913
 3630SOL    HW222524   2.911   3.581   2.550  0.7552  1.3299 -1.4860
 3631SOL     OW22525   2.350   2.447   8.472  0.0017  0.2969 -0.3182
 3631SOL    HW122526   2.288   2.384   8.508  0.5361 -0.5745 -0.9039
 3631SOL    HW222527   2.290   2.507   8.429  3.0974 -0.1280 -5.3443
 3632SOL     OW22528   4.084   2.277   3.269  0.0289  0.2229  0.6983
 3632SOL    HW122529   4.134   2.329   3.205  1.9958 -1.7399  0.6435
 3632SOL    HW222530   4.143   2.254   3.340  1.1274 -1.1570 -0.6619
 3633SOL     OW22531   3.605   4.580  11.004  0.1372 -0.0977 -0.0473
 3633SOL    HW122532   3.560   4.496  10.992 -0.8339  0.2872  0.9222
 3633SOL    HW222533   3.667   4.555  11.072  1.1031 -1.1192 -1.3094
 3634SOL     OW22534   2.221   3.630   5.697 -0.1108  0.2008 -0.0844
 3634SOL    HW122535   2.203   3.721   5.721  1.3468  0.2555  0.8224
 3634SOL    HW222536   2.306   3.615   5.739 -0.2714 -1.3090 -0.2718
 3635SOL     OW22537   3.391   4.027   4.800  0.4076  0.0740  0.4223
 3635SOL    HW122538   3.309   4.022   4.752  1.5157  0.5360 -1.5388
 3635SOL    HW222539   3.374   4.016   4.893 -2.9730 -0.5319 -0.2759
 3636SOL     OW22540   4.535   0.929   3.724 -0.7470 -0.1620  0.0659
 3636SOL    HW122541   4.444   0.926   3.751 -1.1308 -0.7358 -1.2771
 3636SOL    HW222542   4.541   1.016   3.683 -1.4366 -0.2785 -0.2874
 3637SOL     OW22543   0.797   0.173   6.558  0.3997  0.6154 -0.1695
 3637SOL    HW122544   0.859   0.220   6.615 -0.0115  0.5197  0.3592
 3637SOL    HW222545   0.785   0.095   6.612  0.9925  0.3335 -0.4448
 3638SOL     OW22546   2.248   3.566   9.444  0.0086 -0.3305 -0.2138
 3638SOL    HW122547   2.180   3.529   9.387  0.2580 -2.1743  0.6681
 3638SOL    HW222548   2.286   3.488   9.485 -1.8076 -0.6557  0.9104
 3639SOL     OW22549   4.719   3.690   7.699  0.4969 -1.0337  0.0253
 3639SOL    HW122550   0.018   3.608   7.737  1.0079 -0.0568  1.6820
 3639SOL    HW222551   4.678   3.658   7.619 -2.3102 -1.3478  1.5908
 3640SOL     OW22552   3.287   0.278   4.502 -0.8717  0.0842 -0.0925
 3640SOL    HW122553   3.359   0.252   4.445  0.8236  1.0732  1.6044
 3640SOL    HW222554   3.317   0.261   4.591  0.3818  0.0538 -0.5172
 3641SOL     OW22555   0.334   4.674  17.288 -0.3435  0.1173 -0.3976
 3641SOL    HW122556   0.397   0.006  17.261 -0.6614 -0.2050 -1.9481
 3641SOL    HW222557   0.298   4.718  17.365  1.1377  1.3811 -0.4245
 3642SOL     OW22558   3.658   3.097   9.852  0.7506  0.2223 -0.2825
 3642SOL    HW122559   3.589   3.044   9.812 -2.1896  2.2724  2.0233
 3642SOL    HW222560   3.656   3.173   9.794  2.1223 -0.1788 -0.8390
 3643SOL     OW22561   2.347   1.062   1.703 -0.2211 -1.2596 -0.2738
 3643SOL    HW122562   2.400   1.142   1.696 -1.6965 -0.3959 -1.7407
 3643SOL    HW222563   2.266   1.095   1.742  0.0977 -0.2124 -0.4791
 3644SOL     OW22564   2.225   2.618   9.277  0.1107  0.7142 -0.3936
 3644SOL    HW122565   2.255   2.681   9.343  0.0453 -2.3531  2.5831
 3644SOL    HW222566   2.168   2.565   9.333  2.2052  1.5129  2.4869
 3645SOL     OW22567   0.861   1.778   8.697 -0.4189 -0.0125  0.0205
 3645SOL    HW122568   0.872   1.683   8.697 -1.2377 -0.0918 -3.5687
 3645SOL    HW222569   0.884   1.790   8.789  0.2413 -1.1260  0.0078
 3646SOL     OW22570   0.469   4.267  13.056  0.4281  0.3073  0.2655
 3646SOL    HW122571   0.456   4.320  13.135  1.5605  2.1775 -0.8032
 3646SOL    HW222572   0.527   4.199  13.089 -1.6128 -1.7411 -0.4274
 3647SOL     OW22573   3.514   2.039   5.543  0.1817 -0.5945 -0.4615
 3647SOL    HW122574   3.496   2.061   5.635  1.6941 -0.4954 -0.2017
 3647SOL    HW222575   3.527   1.945   5.545  1.4617 -0.4075  0.0967
 3648SOL     OW22576   2.176   1.099   8.373 -0.2183 -0.7218 -0.1059
 3648SOL    HW122577   2.144   1.166   8.313  1.6739  0.7366  0.5050
 3648SOL    HW222578   2.090   1.077   8.410 -1.5391  2.7149 -1.1190
 3649SOL     OW22579   2.069   0.203  11.181  0.1082 -0.1474  0.1289
 3649SOL    HW122580   2.145   0.261  11.172  1.3941 -1.8784 -0.0598
 3649SOL    HW222581   2.016   0.226  11.104 -2.5124 -0.1366  1.9237
 3650SOL     OW22582   0.106   4.397  12.499 -0.4113  0.2578 -0.0733
 3650SOL    HW122583   0.112   4.393  12.403  1.5124  1.0046  0.0311
 3650SOL    HW222584   0.027   4.452  12.505 -0.7340 -0.3698  1.2572
 3651SOL     OW22585   1.526   2.028   6.835  0.0783  0.2758 -0.0080
 3651SOL    HW122586   1.577   2.106   6.856 -0.5399  0.6204  0.2151
 3651SOL    HW222587   1.500   2.044   6.744  1.4080  1.6135 -0.1612
 3652SOL     OW22588   2.807   1.926   2.635  0.8586 -0.2103  0.6820
 3652SOL    HW122589   2.884   1.948   2.582 -0.4287  1.1730 -0.5854
 3652SOL    HW222590   2.777   2.016   2.637  0.0525 -0.5173  2.5323
 3653SOL     OW22591   2.097   2.332  16.366 -0.7643 -0.1578 -0.3257
 3653SOL    HW122592   2.051   2.393  16.309  0.2720  0.3099 -0.6647
 3653SOL    HW222593   2.151   2.277  16.310 -2.1453 -2.3637  0.4956
 3654SOL     OW22594   2.351   3.888  15.220 -0.5019 -0.2658  0.0775
 3654SOL    HW122595   2.301   3.936  15.287  0.3154 -0.5531  0.8993
 3654SOL    HW222596   2.424   3.848  15.268  0.8034  1.2690 -0.6362
 3655SOL     OW22597   3.324   0.008   2.804  0.3422 -0.5023  0.7531
 3655SOL    HW122598   3.275   4.660   2.804  0.6937 -0.7091 -0.5344
 3655SOL    HW222599   3.261   0.079   2.817 -0.6763 -1.4110  0.8432
 3656SOL     OW22600   1.972   0.603   1.004 -0.7865 -0.7827  0.3291
 3656SOL    HW122601   1.928   0.550   0.938 -1.1867 -1.2305  0.9497
 3656SOL    HW222602   2.063   0.588   0.977  0.2070  0.9964  2.6873
 3657SOL     OW22603   0.978   0.980   6.258 -0.0617  0.3853 -0.4694
 3657SOL    HW122604   0.987   0.958   6.165  1.1885  3.1137 -1.0030
 3657SOL    HW222605   0.885   0.980   6.280  0.4067  1.4724  1.4638
 3658SOL     OW22606   2.871   3.420  15.401  0.0489 -0.3573 -0.4281
 3658SOL    HW122607   2.878   3.386  15.490 -0.9906  0.5880  0.0097
 3658SOL    HW222608   2.960   3.401  15.371 -0.3638 -3.1128  0.1530
 3659SOL     OW22609   0.491   1.407   9.300 -0.3355 -0.0842 -0.3577
 3659SOL    HW122610   0.587   1.414   9.300 -0.4434  1.5993  2.2106
 3659SOL    HW222611   0.463   1.468   9.231  0.3807  0.2281 -0.3743
 3660SOL     OW22612   1.749   1.382   0.456  0.0331 -0.0352 -0.0744
 3660SOL    HW122613   1.796   1.346   0.380  0.0963  0.3497 -0.2159
 3660SOL    HW222614   1.727   1.471   0.429  0.9844  0.4785  0.8409
 3661SOL     OW22615   3.718   0.458   1.907 -0.4975 -0.5411 -0.3430
 3661SOL    HW122616   3.631   0.493   1.890 -0.2669  1.0130  1.6631
 3661SOL    HW222617   3.685   0.372   1.936  1.7832 -0.9735  1.0044
 3662SOL     OW22618   1.354   1.417   8.610 -0.6183 -0.1188  0.0663
 3662SOL    HW122619   1.281   1.430   8.672 -1.0912  0.2912 -0.5715
 3662SOL    HW222620   1.301   1.385   8.537  0.7386 -1.1283 -0.4584
 3663SOL     OW22621   1.406   0.869   1.065 -0.5978 -0.1599  0.1140
 3663SOL    HW122622   1.348   0.889   0.991 -1.3614 -0.2159  0.7004
 3663SOL    HW222623   1.465   0.943   1.070  1.6556 -1.6782 -3.6901
 3664SOL     OW22624   1.036   4.595  14.322  0.2674 -0.3337 -0.0953
 3664SOL    HW122625   1.049   4.602  14.417  3.1965  0.4987 -0.5769
 3664SOL    HW222626   1.091   4.523  14.294  0.8113 -0.8875  2.3715
 3665SOL     OW22627   3.882   4.309   4.643 -0.2863  0.0798 -0.3092
 3665SOL    HW122628   3.792   4.340   4.647 -0.1086  0.4324  1.0986
 3665SOL    HW222629   3.890   4.296   4.549  0.0658 -2.4026  0.0468
 3666SOL     OW22630   2.071   3.849   3.913 -0.5006 -0.0939  0.1509
 3666SOL    HW122631   2.017   3.920   3.880 -0.4035 -0.3785 -0.6265
 3666SOL    HW222632   2.036   3.845   4.002 -1.2613  2.0980 -0.0619
 3667SOL     OW22633   0.055   4.093   4.112  0.0823 -0.9516  0.3087
 3667SOL    HW122634   0.084   4.180   4.141  1.9034 -0.3098 -3.4838
 3667SOL    HW222635   0.104   4.038   4.173  0.3067 -1.2750 -0.1685
 3668SOL     OW22636   2.120   3.258   4.107 -0.4575 -0.0823 -0.3426
 3668SOL    HW122637   2.087   3.278   4.020  1.5519 -0.3251 -1.1525
 3668SOL    HW222638   2.106   3.164   4.117  0.8968 -0.1407  1.0656
 3669SOL     OW22639   2.384   4.362   4.939  0.0562  0.6924  0.1678
 3669SOL    HW122640   2.431   4.402   4.865 -0.4417  0.1233 -0.4639
 3669SOL    HW222641   2.429   4.278   4.948  0.9444  1.2327  0.6807
 3670SOL     OW22642   2.308   1.446   6.585 -0.2458  1.0306 -0.8245
 3670SOL    HW122643   2.270   1.514   6.641 -2.4554  0.5664 -1.7789
 3670SOL    HW222644   2.343   1.393   6.657 -2.2784 -1.1305 -1.4114
 3671SOL     OW22645   1.885   2.793  16.771  0.0968 -0.2939  0.0108
 3671SOL    HW122646   1.934   2.835  16.842 -0.3945  0.1673  0.0754
 3671SOL    HW222647   1.945   2.785  16.698 -1.4205 -1.2210 -1.1518
 3672SOL     OW22648   0.767   0.939   5.077  0.4633 -0.2900  0.1970
 3672SOL    HW122649   0.698   0.878   5.052  1.2545 -0.4011 -1.7450
 3672SOL    HW222650   0.781   0.923   5.170 -0.4546  3.1241  0.9059
 3673SOL     OW22651   2.160   3.824   5.176 -0.1174 -0.0083  0.0200
 3673SOL    HW122652   2.131   3.836   5.266  1.4398 -3.5406  0.9671
 3673SOL    HW222653   2.128   3.896   5.121 -4.3879 -1.5516  0.4438
 3674SOL     OW22654   4.483   2.174  15.624 -0.0565 -0.1890 -1.1800
 3674SOL    HW122655   4.409   2.141  15.573 -0.1908  0.5360 -1.4487
 3674SOL    HW222656   4.553   2.168  15.559  1.0359  1.5557 -0.1656
 3675SOL     OW22657   2.314   3.450   6.895 -0.3837  0.9268 -0.0781
 3675SOL    HW122658   2.273   3.417   6.975 -1.7851  1.3531 -0.6084
 3675SOL    HW222659   2.327   3.543   6.915 -1.2102  1.0036  0.1070
 3676SOL     OW22660   1.995   1.584   0.667 -0.2048 -0.2416 -0.5973
 3676SOL    HW122661   2.002   1.625   0.581  3.1616  1.0522  0.2721
 3676SOL    HW222662   2.052   1.507   0.659  1.3953  0.6915  1.9221
 3677SOL     OW22663   1.261   2.799   2.525 -0.4436  0.6530 -0.0971
 3677SOL    HW122664   1.301   2.712   2.532 -1.3197  0.4603  2.3993
 3677SOL    HW222665   1.335   2.859   2.534  0.0677  0.1221 -0.7359
 3678SOL     OW22666   0.877   1.757   3.241  0.0223 -0.2530 -0.0285
 3678SOL    HW122667   0.972   1.753   3.247  0.0179  0.6221  0.6136
 3678SOL    HW222668   0.861   1.670   3.206 -1.8341 -0.1142  0.4865
 3679SOL     OW22669   4.496   4.264  14.086 -0.6049  0.4624  0.3551
 3679SOL    HW122670   4.457   4.177  14.081  2.0049 -0.6885 -0.0314
 3679SOL    HW222671   4.419   4.315  14.110 -0.6932 -0.5357  2.2378
 3680SOL     OW22672   3.683   2.628  14.692 -0.3621  0.2798 -0.2011
 3680SOL    HW122673   3.618   2.690  14.661 -1.3994 -0.9296 -0.4561
 3680SOL    HW222674   3.761   2.657  14.645 -0.2985  0.0760 -0.2217
 3681SOL     OW22675   4.218   2.002  13.789 -0.3890 -0.5614 -0.0825
 3681SOL    HW122676   4.199   2.096  13.787 -0.2927 -0.4893  2.1782
 3681SOL    HW222677   4.211   1.979  13.882  0.4702  1.1395  0.3972
 3682SOL     OW22678   4.700   0.721  14.775 -0.1927  0.3269  0.1343
 3682SOL    HW122679   0.042   0.745  14.723 -1.3286  3.8598  0.0494
 3682SOL    HW222680   4.660   0.654  14.720  1.1072  0.1546 -0.5986
 3683SOL     OW22681   0.802   3.738   2.879  0.0551  0.0852 -0.3971
 3683SOL    HW122682   0.814   3.762   2.787 -2.3264  1.2760 -0.3958
 3683SOL    HW222683   0.726   3.792   2.901 -0.0264 -0.1338 -0.1349
 3684SOL     OW22684   0.090   1.430   4.189  0.2645  0.6308  0.0567
 3684SOL    HW122685   4.731   1.443   4.178  0.3146 -0.3675 -1.5637
 3684SOL    HW222686   0.087   1.348   4.238  2.7304  0.7735  0.4592
 3685SOL     OW22687   0.518   4.443   6.650 -0.2491  0.6516  0.2834
 3685SOL    HW122688   0.522   4.364   6.704 -1.1729  0.0854 -0.4759
 3685SOL    HW222689   0.552   4.407   6.568  0.7197  3.4860 -0.5269
 3686SOL     OW22690   3.852   1.612   8.503  0.3066  0.1146  0.7197
 3686SOL    HW122691   3.789   1.653   8.562 -1.1847 -0.0595 -0.7602
 3686SOL    HW222692   3.801   1.551   8.450  0.6319  1.0720 -0.7219
 3687SOL     OW22693   0.825   4.498   2.489 -0.0981 -0.3080  0.4636
 3687SOL    HW122694   0.786   4.536   2.568  0.5927  0.2974  0.5114
 3687SOL    HW222695   0.767   4.502   2.414  1.4975 -0.1326 -0.7638
 3688SOL     OW22696   3.485   2.195   3.289 -0.4801 -0.3619  0.3724
 3688SOL    HW122697   3.518   2.268   3.237  1.6498  0.1431  2.4477
 3688SOL    HW222698   3.549   2.127   3.269 -1.0339 -0.1762 -1.9996
 3689SOL     OW22699   1.693   1.103  13.009  0.6821 -0.2413 -0.2479
 3689SOL    HW122700   1.765   1.084  13.070  0.8192  0.1732 -0.2768
 3689SOL    HW222701   1.742   1.146  12.939  0.1054  0.3715 -0.2732
 3690SOL     OW22702   0.014   0.703   6.753 -0.1825 -0.3027  0.1400
 3690SOL    HW122703   0.106   0.686   6.731 -0.6840  0.7806 -2.7806
 3690SOL    HW222704   4.726   0.655   6.832 -1.5360  0.5917  0.2898
 3691SOL     OW22705   2.188   3.816  12.693  0.2150  0.3605 -0.2876
 3691SOL    HW122706   2.280   3.789  12.703 -0.5336 -1.4876  1.3415
 3691SOL    HW222707   2.184   3.807  12.597  0.2352  0.1684 -0.2699
 3692SOL     OW22708   0.890   1.603  16.604  0.1244  0.3148 -0.3862
 3692SOL    HW122709   0.977   1.580  16.638 -0.8512  1.6718  3.0308
 3692SOL    HW222710   0.890   1.696  16.628  0.5598 -0.3123  2.1164
 3693SOL     OW22711   4.619   4.453  16.688 -0.2148  0.0287  0.3975
 3693SOL    HW122712   4.541   4.497  16.720 -1.0566 -1.4153  0.3431
 3693SOL    HW222713   4.658   4.421  16.769  0.6711  0.4602  0.1397
 3694SOL     OW22714   1.624   0.533   7.826  0.0639  0.2459 -0.3319
 3694SOL    HW122715   1.532   0.557   7.837  0.0368 -0.1978  0.3636
 3694SOL    HW222716   1.615   0.453   7.774  0.7858  0.9297 -1.5210
 3695SOL     OW22717   2.637   2.280   4.682 -0.4261  0.1846 -0.0492
 3695SOL    HW122718   2.551   2.280   4.724 -0.0930 -4.0337  0.6871
 3695SOL    HW222719   2.649   2.185   4.680  2.2207  0.5009  0.7118
 3696SOL     OW22720   3.001   4.615   7.661  0.5916  0.0182  0.1704
 3696SOL    HW122721   3.004   4.531   7.614  1.4576 -0.6050  1.3423
 3696SOL    HW222722   3.091   4.641   7.640  0.3090 -0.7650 -2.1042
 3697SOL     OW22723   0.932   1.787   8.954 -0.1997 -0.3904 -0.2609
 3697SOL    HW122724   0.869   1.841   9.002  1.1928 -2.2743  3.6888
 3697SOL    HW222725   1.010   1.842   8.953 -0.0717 -0.6181 -2.0243
 3698SOL     OW22726   3.244   3.560   9.384  0.4190  0.0779  0.0192
 3698SOL    HW122727   3.305   3.540   9.455  1.3993  3.3359  0.0808
 3698SOL    HW222728   3.236   3.474   9.343  0.5606  0.0336  0.0853
 3699SOL     OW22729   0.781   0.675  11.066  0.2696 -0.7531  0.0690
 3699SOL    HW122730   0.792   0.686  10.972  1.4551 -0.3604  0.2499
 3699SOL    HW222731   0.747   0.585  11.064  0.2181 -0.7539  1.0118
 3700SOL     OW22732   1.921   4.536   5.443 -0.9564  0.0954  0.2634
 3700SOL    HW122733   2.012   4.507   5.454 -1.2062 -0.2620  1.4327
 3700SOL    HW222734   1.883   4.465   5.391 -0.0051 -0.3759  0.2170
 3701SOL     OW22735   0.460   3.408   7.665  0.0578 -0.0977 -0.2105
 3701SOL    HW122736   0.450   3.415   7.760 -1.2218  2.5198 -0.5337
 3701SOL    HW222737   0.553   3.428   7.660 -0.0421  0.4213 -0.0220
 3702SOL     OW22738   0.646   0.109   3.945 -0.2938  0.4915  0.0265
 3702SOL    HW122739   0.667   0.082   3.855  1.2839 -1.0063  0.8373
 3702SOL    HW222740   0.660   0.203   3.948  0.6282  0.3584  0.1441
 3703SOL     OW22741   3.568   0.278   4.698 -0.1235 -0.3215  0.7694
 3703SOL    HW122742   3.622   0.354   4.717 -2.0946  1.2127  0.2252
 3703SOL    HW222743   3.535   0.263   4.787  1.1093  0.7649  1.4030
 3704SOL     OW22744   2.646   4.646  10.206 -0.0641 -0.1091  0.4652
 3704SOL    HW122745   2.666   4.655  10.299 -0.2580 -0.5752  0.5484
 3704SOL    HW222746   2.554   4.619  10.208  0.1520 -0.8611  0.2731
 3705SOL     OW22747   4.134   1.366  13.048 -0.3359  0.0945 -0.2760
 3705SOL    HW122748   4.122   1.292  13.108  3.1012  1.8254  2.5529
 3705SOL    HW222749   4.179   1.317  12.979  0.6376  2.0601 -1.0284
 3706SOL     OW22750   1.831   2.457  17.030 -0.1315 -0.0735 -0.0351
 3706SOL    HW122751   1.917   2.473  17.068 -0.1534  0.0712 -0.0479
 3706SOL    HW222752   1.801   2.548  17.024 -0.2517 -0.0833  0.4111
 3707SOL     OW22753   2.448   1.451   3.854  0.3198  0.5026  0.2647
 3707SOL    HW122754   2.462   1.417   3.766  0.1279  0.4335  0.2617
 3707SOL    HW222755   2.379   1.390   3.881  0.7981 -0.0673  0.2206
 3708SOL     OW22756   1.010   4.190   3.279  0.1258 -0.4908  0.5073
 3708SOL    HW122757   1.004   4.246   3.202 -0.1505  1.4470  1.9192
 3708SOL    HW222758   1.022   4.106   3.236 -0.1195 -0.4647  0.3870
 3709SOL     OW22759   4.233   2.352   7.039 -0.2532 -0.7025 -0.1276
 3709SOL    HW122760   4.170   2.423   7.023  0.5043  0.0979  0.4353
 3709SOL    HW222761   4.289   2.351   6.961 -0.3660  0.7483 -0.2308
 3710SOL     OW22762   3.361   0.754   0.644  0.4006  0.1313 -0.6386
 3710SOL    HW122763   3.266   0.760   0.646  0.3894 -0.0300 -0.6773
 3710SOL    HW222764   3.385   0.687   0.708 -0.2567 -0.5435 -1.1009
 3711SOL     OW22765   4.192   3.736   9.229  0.1577 -0.0003 -0.7660
 3711SOL    HW122766   4.229   3.809   9.181 -0.3450  1.1479  0.5959
 3711SOL    HW222767   4.248   3.738   9.307 -0.3854 -1.5121 -0.3455
 3712SOL     OW22768   3.264   4.723   4.249 -0.6121 -0.7764  0.1070
 3712SOL    HW122769   3.357   4.714   4.230 -0.3972 -1.6880  1.6254
 3712SOL    HW222770   3.237   0.050   4.181 -2.4255 -1.4164  0.2459
 3713SOL     OW22771   1.518   2.008   1.029  0.2668  0.1787 -0.3804
 3713SOL    HW122772   1.442   2.002   1.087  1.6456 -1.4223  1.2332
 3713SOL    HW222773   1.481   1.971   0.949 -1.7944 -0.3651  0.8066
 3714SOL     OW22774   0.340   1.639  12.619  0.2865  0.7786  0.6716
 3714SOL    HW122775   0.298   1.714  12.577  0.6419  0.3100 -0.5184
 3714SOL    HW222776   0.327   1.653  12.713 -0.2842  1.8834  0.4243
 3715SOL     OW22777   3.967   1.621   2.941 -0.0544  0.0542  0.3471
 3715SOL    HW122778   3.898   1.642   2.878 -0.6072 -1.9436  0.2688
 3715SOL    HW222779   3.939   1.544   2.991  2.8099 -2.3194 -1.7028
 3716SOL     OW22780   4.292   2.730   8.154  0.0433  0.4974 -0.6933
 3716SOL    HW122781   4.311   2.674   8.229 -0.6227  2.1801  0.7251
 3716SOL    HW222782   4.197   2.740   8.157  0.0002 -0.1162 -0.0022
 3717SOL     OW22783   2.482   0.727  10.975  0.2515 -0.3969  0.1134
 3717SOL    HW122784   2.497   0.706  11.067 -0.3299  1.6101  0.6827
 3717SOL    HW222785   2.419   0.799  10.983  2.1452  1.1287  1.3063
 3718SOL     OW22786   4.578   2.236  11.816  0.3641  0.4174  0.2805
 3718SOL    HW122787   4.509   2.251  11.881  1.1591 -2.5276  1.8195
 3718SOL    HW222788   4.588   2.141  11.814 -1.6002  0.1907  1.3161
 3719SOL     OW22789   4.677   1.962   7.317  0.0253 -0.0982  0.0418
 3719SOL    HW122790   0.005   1.966   7.244  0.9072  2.0364  0.9041
 3719SOL    HW222791   4.643   2.051   7.313 -4.7679 -1.9658 -0.7054
 3720SOL     OW22792   0.200   2.842   2.594 -0.7833  0.5500  0.3033
 3720SOL    HW122793   0.236   2.755   2.581  1.6501  2.0084 -2.6576
 3720SOL    HW222794   0.253   2.874   2.666  2.5839 -0.4182 -1.7494
 3721SOL     OW22795   0.736   0.737   8.844  0.0873 -0.3426 -0.1376
 3721SOL    HW122796   0.775   0.797   8.781  3.2892 -1.7404  0.4703
 3721SOL    HW222797   0.654   0.722   8.798 -1.0730  0.3397  1.7274
 3722SOL     OW22798   4.288   0.842   3.057  0.0200  0.3128  1.1016
 3722SOL    HW122799   4.351   0.790   3.007 -0.9970 -0.8493  1.0321
 3722SOL    HW222800   4.202   0.814   3.027  0.6614 -0.7657  0.2488
 3723SOL     OW22801   0.745   0.932  13.006  0.1289 -0.4205 -0.1782
 3723SOL    HW122802   0.681   0.880  13.054 -0.3340 -0.4178 -0.7958
 3723SOL    HW222803   0.824   0.912  13.057 -0.7766 -0.2639  1.2875
 3724SOL     OW22804   2.678   2.305  17.648  0.0607  0.5596 -0.3062
 3724SOL    HW122805   2.737   2.333  17.718  1.3766  0.5561 -1.4329
 3724SOL    HW222806   2.641   2.393  17.632  0.0852  0.5372 -0.4817
 3725SOL     OW22807   4.621   1.611   1.242 -0.7211  0.3875 -0.5821
 3725SOL    HW122808   4.611   1.698   1.203  0.5671  0.1673 -1.3944
 3725SOL    HW222809   4.593   1.632   1.331  1.5248 -1.3426  0.5085
 3726SOL     OW22810   2.776   4.138   4.102 -0.2271 -0.3156  0.3611
 3726SOL    HW122811   2.753   4.046   4.091 -0.3518  0.1433 -3.0776
 3726SOL    HW222812   2.829   4.133   4.182 -1.8034 -1.3059  1.3555
 3727SOL     OW22813   3.265   0.347   6.649 -0.1031  0.2718 -0.0097
 3727SOL    HW122814   3.264   0.277   6.583 -0.4187  0.4642 -0.2084
 3727SOL    HW222815   3.186   0.318   6.694  0.9820  1.9457  2.9274
 3728SOL     OW22816   2.356   4.652  15.783  0.2238  0.0446  0.1355
 3728SOL    HW122817   2.422   4.702  15.830 -2.0344  1.0339  2.2417
 3728SOL    HW222818   2.399   4.626  15.701 -1.1806  1.4577 -1.0539
 3729SOL     OW22819   3.371   0.198   6.878  0.0327 -0.1330 -0.1623
 3729SOL    HW122820   3.353   0.273   6.935  0.0252  0.3294 -0.7697
 3729SOL    HW222821   3.301   0.216   6.816  0.5272  0.0866 -0.6550
 3730SOL     OW22822   1.522   1.472   7.834 -0.6110  0.1553  0.4768
 3730SOL    HW122823   1.479   1.556   7.818 -1.1405  0.2022  2.1910
 3730SOL    HW222824   1.562   1.463   7.747 -2.6522 -0.9705 -0.3591
 3731SOL     OW22825   4.263   3.150  10.209  0.1523 -0.0553 -0.3375
 3731SOL    HW122826   4.333   3.193  10.258 -0.6017  1.0184 -0.2220
 3731SOL    HW222827   4.241   3.228  10.158  1.7650  0.2630 -0.5517
 3732SOL     OW22828   2.015   0.949  14.072  0.2348  0.2251  0.0275
 3732SOL    HW122829   2.099   0.903  14.075 -0.0944 -0.2814  1.7264
 3732SOL    HW222830   2.022   1.009  13.999  0.6575 -0.8197 -0.7867
 3733SOL     OW22831   3.570   0.650  12.596 -0.0554 -0.4613 -0.2006
 3733SOL    HW122832   3.574   0.730  12.545  0.4091  1.0852  2.2875
 3733SOL    HW222833   3.528   0.685  12.674 -1.0923  2.7093 -2.1960
 3734SOL     OW22834   4.148   0.895   8.462 -0.3394  0.5126  0.3450
 3734SOL    HW122835   4.120   0.863   8.547 -3.0516 -1.3530 -1.2633
 3734SOL    HW222836   4.120   0.818   8.413 -2.2346  1.7078 -0.4117
 3735SOL     OW22837   2.049   3.494   6.404  0.1683  0.3118 -0.8504
 3735SOL    HW122838   2.057   3.551   6.327  0.3397 -0.5078 -1.4450
 3735SOL    HW222839   1.955   3.477   6.402  0.6423 -2.3675 -1.7872
 3736SOL     OW22840   3.294   1.428   5.430 -0.4014  0.3946  0.4141
 3736SOL    HW122841   3.283   1.333   5.437  0.7940  0.1797 -0.7552
 3736SOL    HW222842   3.343   1.429   5.348 -0.4794  1.5875  0.3785
 3737SOL     OW22843   0.957   2.433   7.166  0.1797  0.0164  0.0370
 3737SOL    HW122844   0.999   2.405   7.248 -0.3577  0.5739  0.5072
 3737SOL    HW222845   0.978   2.356   7.115  1.8677  1.7904 -1.9261
 3738SOL     OW22846   2.494   0.754   2.308 -0.3043  0.2833 -0.3137
 3738SOL    HW122847   2.485   0.849   2.309  0.9730  0.3722  1.2525
 3738SOL    HW222848   2.570   0.736   2.363 -0.2064 -1.4489 -1.0076
 3739SOL     OW22849   1.890   3.206   6.833 -0.2565 -0.1489 -0.8125
 3739SOL    HW122850   1.889   3.112   6.853  2.9252 -0.4017 -1.9114
 3739SOL    HW222851   1.978   3.216   6.798  0.7572 -0.9473  1.4541
 3740SOL     OW22852   2.818   1.309   0.219 -0.2959  0.0020  0.5161
 3740SOL    HW122853   2.783   1.327   0.132  1.7973  2.3313  0.1616
 3740SOL    HW222854   2.816   1.214   0.210 -1.4132  0.2873 -2.3841
 3741SOL     OW22855   2.280   1.475   7.300 -0.1247 -0.0399 -0.3862
 3741SOL    HW122856   2.302   1.408   7.365  0.2548 -0.3308 -0.8195
 3741SOL    HW222857   2.235   1.430   7.229  0.9908 -0.3474 -0.8912
 3742SOL     OW22858   2.931   0.909  12.852 -0.4555 -0.0301 -0.0412
 3742SOL    HW122859   2.856   0.942  12.901 -0.4460  0.2514 -0.2191
 3742SOL    HW222860   2.950   0.826  12.897 -0.5480  0.9231  1.7524
 3743SOL     OW22861   3.590   4.389  10.665 -0.3522 -0.3589  0.3416
 3743SOL    HW122862   3.581   4.384  10.570 -0.8088  0.6253  0.3299
 3743SOL    HW222863   3.668   4.442  10.680 -1.8015  1.4621  1.4434
 3744SOL     OW22864   1.937   3.620   1.016 -0.6053  0.9965 -0.1288
 3744SOL    HW122865   1.888   3.690   0.972  0.0293  0.9955 -0.8364
 3744SOL    HW222866   1.997   3.595   0.946 -0.3861  0.1052  0.3835
 3745SOL     OW22867   3.424   2.969  17.444  0.0661  0.1564  0.7114
 3745SOL    HW122868   3.431   3.061  17.470  0.8045  0.4544 -0.5414
 3745SOL    HW222869   3.330   2.954  17.449  0.0948  0.3243  1.8810
 3746SOL     OW22870   3.038   0.944  15.908  0.1235  0.3917  0.4037
 3746SOL    HW122871   3.086   0.900  15.977  0.1396  1.4708  1.0844
 3746SOL    HW222872   2.986   0.878  15.863 -0.5062  0.8142  0.4992
 3747SOL     OW22873   0.092   4.413   6.300 -0.2777  0.3271  0.2278
 3747SOL    HW122874   0.040   4.333   6.292  0.6349  0.2108 -4.3637
 3747SOL    HW222875   0.103   4.422   6.395 -0.5920 -2.4171  0.5417
 3748SOL     OW22876   0.637   2.893  17.309 -0.0930 -0.2306  0.3100
 3748SOL    HW122877   0.730   2.888  17.289 -0.6297 -2.4282 -1.5791
 3748SOL    HW222878   0.592   2.865  17.230 -2.0717  0.0350  1.3325
 3749SOL     OW22879   2.311   2.447   6.549 -0.0278 -0.1924 -0.2047
 3749SOL    HW122880   2.382   2.490   6.501 -0.2105  0.0201 -0.2843
 3749SOL    HW222881   2.325   2.487   6.635 -0.0323 -1.1938  0.2658
 3750SOL     OW22882   1.936   2.440   6.172 -0.2407 -0.0825 -0.5178
 3750SOL    HW122883   1.856   2.478   6.209  0.2538  1.3608 -0.9483
 3750SOL    HW222884   1.963   2.505   6.107 -0.5651 -0.0773 -0.6516
 3751SOL     OW22885   4.129   4.266   3.701 -0.3291 -0.2872  0.1588
 3751SOL    HW122886   4.146   4.317   3.781  0.4779  4.7098 -3.2354
 3751SOL    HW222887   4.219   4.245   3.677  0.1777  1.1862  0.7535
 3752SOL     OW22888   0.169   4.334   8.598  0.3394 -0.0746 -0.2742
 3752SOL    HW122889   0.172   4.387   8.518  0.4678 -1.3590 -1.1165
 3752SOL    HW222890   0.082   4.363   8.625  0.0948 -1.7707  0.7377
 3753SOL     OW22891   0.684   1.954   6.909  0.2507  0.0303 -0.2654
 3753SOL    HW122892   0.589   1.947   6.919  0.2085  0.1264 -0.6056
 3753SOL    HW222893   0.692   1.980   7.001 -0.2833 -1.8936  0.3175
 3754SOL     OW22894   0.314   3.777   6.502 -0.4079 -0.2352 -0.0322
 3754SOL    HW122895   0.269   3.816   6.427  2.0180  2.3968 -0.1340
 3754SOL    HW222896   0.289   3.685   6.502  1.8790 -0.8518  1.7804
 3755SOL     OW22897   2.202   0.903   2.426  0.3621  0.0722 -0.5647
 3755SOL    HW122898   2.285   0.945   2.405  1.2321 -0.6584  1.4268
 3755SOL    HW222899   2.140   0.947   2.366 -2.1984 -3.4327 -0.4858
 3756SOL     OW22900   0.168   0.612   1.499 -0.1416 -0.6627  0.0487
 3756SOL    HW122901   0.194   0.662   1.421  3.3419 -1.2537  0.8423
 3756SOL    HW222902   0.074   0.605   1.483 -0.1721  0.4425 -0.2581
 3757SOL     OW22903   2.878   2.223  14.573  0.1552 -0.5702  0.1226
 3757SOL    HW122904   2.818   2.209  14.646 -2.4927 -2.1872 -2.3564
 3757SOL    HW222905   2.919   2.137  14.565  2.7819  0.6733 -0.0114
 3758SOL     OW22906   4.473   3.472   9.258  0.1480  0.3840  0.6114
 3758SOL    HW122907   4.557   3.515   9.274  0.4164 -0.5834  1.7922
 3758SOL    HW222908   4.418   3.498   9.332  0.8072 -1.0962  1.6255
 3759SOL     OW22909   2.382   0.141   0.210 -0.2050 -0.2467  0.5141
 3759SOL    HW122910   2.425   0.172   0.290  1.1952  1.6591 -0.9533
 3759SOL    HW222911   2.344   0.061   0.247 -2.2959 -0.0423 -1.1917
 3760SOL     OW22912   2.349   2.784   8.883  0.2823 -0.1539  0.0783
 3760SOL    HW122913   2.264   2.751   8.854  0.3803 -0.5896  0.2738
 3760SOL    HW222914   2.387   2.810   8.799 -2.1634 -1.4033 -1.4137
 3761SOL     OW22915   0.565   0.604  15.100 -0.0754  0.5245 -0.4663
 3761SOL    HW122916   0.554   0.699  15.100  0.6809  0.6171  0.3461
 3761SOL    HW222917   0.598   0.596  15.190  1.2883 -1.2520 -1.1181
 3762SOL     OW22918   2.779   4.019   2.998  0.5307  0.5470  0.2638
 3762SOL    HW122919   2.873   4.020   3.015  0.6797 -0.6924 -0.4322
 3762SOL    HW222920   2.742   3.937   3.031  1.1330  1.3329  2.8641
 3763SOL     OW22921   2.865   2.029  14.144 -0.7207 -0.0392  0.1765
 3763SOL    HW122922   2.838   2.112  14.183 -0.0823  0.1528  0.1949
 3763SOL    HW222923   2.802   2.010  14.074 -0.8735  0.2272  0.2411
 3764SOL     OW22924   3.705   3.095   4.784  0.1286  0.0526 -0.2910
 3764SOL    HW122925   3.787   3.119   4.828 -1.1143  0.7410  1.6271
 3764SOL    HW222926   3.662   3.180   4.778 -0.5585 -0.1099  2.0624
 3765SOL     OW22927   1.002   0.884  10.296  0.0537 -0.7987 -0.7085
 3765SOL    HW122928   1.053   0.911  10.372 -0.9749  0.5510 -0.4932
 3765SOL    HW222929   0.964   0.809  10.343 -0.7139  0.4169  0.6277
 3766SOL     OW22930   0.049   2.195  11.608 -0.0866  0.4449  0.4490
 3766SOL    HW122931   0.083   2.235  11.688  2.2489 -2.7640  1.0402
 3766SOL    HW222932   0.027   2.274  11.558  1.7889  0.8983  0.3206
 3767SOL     OW22933   2.149   0.651   7.045  0.7675  0.2084 -0.5229
 3767SOL    HW122934   2.186   0.564   7.036 -0.7006 -0.2796 -1.6939
 3767SOL    HW222935   2.212   0.689   7.108  1.0935 -0.0476 -0.6955
 3768SOL     OW22936   0.207   4.151  16.153  0.7758 -0.1531 -0.1782
 3768SOL    HW122937   0.290   4.164  16.108  0.0993  0.5129 -1.2111
 3768SOL    HW222938   0.213   4.226  16.212  0.3003  0.1691 -0.5418
 3769SOL     OW22939   4.629   4.143  16.459  0.2869 -0.6299 -0.2011
 3769SOL    HW122940   4.669   4.075  16.405 -2.6359 -1.8295 -0.8311
 3769SOL    HW222941   4.645   4.128  16.552  2.5380  0.8291 -0.3404
 3770SOL     OW22942   1.898   1.050   7.524  0.0678 -0.7267  0.8014
 3770SOL    HW122943   1.945   1.110   7.466  0.2334 -1.7333 -0.1037
 3770SOL    HW222944   1.920   1.071   7.615 -0.7477 -1.4561  1.1666
 3771SOL     OW22945   4.569   0.535   5.654  0.4570  0.2499 -0.2543
 3771SOL    HW122946   4.634   0.464   5.661 -0.0408  0.1051  2.7516
 3771SOL    HW222947   4.550   0.571   5.741  0.5836 -0.7461  0.1918
 3772SOL     OW22948   2.488   0.586   1.308  0.2623 -0.5456 -0.3898
 3772SOL    HW122949   2.551   0.561   1.240 -0.5650  2.6291 -2.2891
 3772SOL    HW222950   2.433   0.508   1.310 -1.0412  0.4269  2.1413
 3773SOL     OW22951   3.960   3.706   3.273  0.0946 -0.0569 -1.1726
 3773SOL    HW122952   3.920   3.713   3.186 -0.3997 -2.6026 -1.1551
 3773SOL    HW222953   4.013   3.785   3.277  3.0415 -2.0683 -0.7600
 3774SOL     OW22954   2.262   1.662   2.150  0.6096  0.2205  0.6516
 3774SOL    HW122955   2.217   1.738   2.113 -1.1891 -1.1252  0.0788
 3774SOL    HW222956   2.353   1.690   2.143  0.7931 -0.4935  0.0817
 3775SOL     OW22957   0.897   4.713   2.026  0.4877  0.3673  0.1558
 3775SOL    HW122958   0.913   4.644   1.962 -0.9390  0.6328 -0.4797
 3775SOL    HW222959   0.880   0.054   1.970  2.3342  0.6577 -0.0219
 3776SOL     OW22960   0.196   4.085  12.809  0.3386 -0.4305 -0.5751
 3776SOL    HW122961   0.184   4.104  12.715 -1.2786 -1.1191 -0.5027
 3776SOL    HW222962   0.254   4.158  12.831 -0.2046 -0.5595  1.2903
 3777SOL     OW22963   1.885   4.165  16.167  0.1433 -0.3795 -0.0697
 3777SOL    HW122964   1.886   4.170  16.263 -1.2613 -1.5190  0.0056
 3777SOL    HW222965   1.790   4.165  16.156 -0.0073 -0.8551  1.1968
 3778SOL     OW22966   0.030   3.147  17.210  0.2881  0.2574 -0.0338
 3778SOL    HW122967   0.025   3.215  17.277  2.1824  1.6613 -1.2939
 3778SOL    HW222968   0.035   3.202  17.132 -0.2474  1.4262  0.7631
 3779SOL     OW22969   1.074   3.509   3.904  0.3768 -0.1528  0.1117
 3779SOL    HW122970   1.133   3.574   3.867 -1.3850  0.6353 -1.3068
 3779SOL    HW222971   0.992   3.550   3.878 -0.9596 -2.7586  0.1768
 3780SOL     OW22972   2.433   4.043  17.164 -0.0618  0.1121 -0.3070
 3780SOL    HW122973   2.409   3.952  17.146 -3.2354  0.5647  1.4657
 3780SOL    HW222974   2.528   4.047  17.173 -0.3284  1.1311  2.0888
 3781SOL     OW22975   0.074   0.532   2.858  0.4669 -0.0872 -0.3080
 3781SOL    HW122976   0.009   0.478   2.813 -0.8974  1.5395 -0.3284
 3781SOL    HW222977   0.035   0.524   2.945 -0.4362 -2.0824 -0.9057
 3782SOL     OW22978   3.146   0.576  11.515 -0.0161  0.0867 -0.4572
 3782SOL    HW122979   3.220   0.623  11.477 -0.4906  0.3964 -0.9974
 3782SOL    HW222980   3.187   0.540  11.594 -3.0190 -1.5147  0.3762
 3783SOL     OW22981   1.797   4.520  11.937  0.0703  0.0661 -0.2682
 3783SOL    HW122982   1.816   4.479  12.021  0.1075 -0.0193 -0.3184
 3783SOL    HW222983   1.796   4.437  11.889  2.2912 -0.3748  0.4419
 3784SOL     OW22984   1.849   1.629   1.151  0.3980 -0.6032 -0.4032
 3784SOL    HW122985   1.922   1.640   1.090 -0.9666  2.4241 -1.4548
 3784SOL    HW222986   1.795   1.703   1.125  0.5641 -1.0177 -1.8956
 3785SOL     OW22987   4.576   1.803   3.058  0.4168 -0.1880 -0.8380
 3785SOL    HW122988   4.572   1.769   3.148  1.9911  1.2989 -0.2056
 3785SOL    HW222989   4.619   1.888   3.073 -1.6171  0.7623 -0.4264
 3786SOL     OW22990   3.408   3.329   7.927 -0.0106  0.0646 -0.0028
 3786SOL    HW122991   3.445   3.291   7.847 -1.9219 -0.3674 -0.6857
 3786SOL    HW222992   3.322   3.287   7.924 -0.8135  1.7380 -0.3193
 3787SOL     OW22993   0.214   0.004   5.251  0.1942  0.1961 -0.0986
 3787SOL    HW122994   0.237   0.002   5.158  0.8762 -1.9165  0.1034
 3787SOL    HW222995   0.240   4.651   5.279 -1.1511  0.0434  0.6672
 3788SOL     OW22996   2.535   1.912   9.219 -0.0360  0.2597 -0.6893
 3788SOL    HW122997   2.532   1.822   9.251 -1.2480  0.7322  0.5596
 3788SOL    HW222998   2.474   1.900   9.146 -0.6038  0.6537 -0.2830
 3789SOL     OW22999   4.195   2.749   7.861  0.3258 -0.4690 -0.6325
 3789SOL    HW123000   4.145   2.724   7.939  2.6815 -1.8749  0.4091
 3789SOL    HW223001   4.217   2.663   7.825 -2.1213 -1.8585  1.1618
 3790SOL     OW23002   0.509   3.900   5.009  0.1986 -0.2227 -0.4674
 3790SOL    HW123003   0.571   3.841   4.966  1.2328 -0.6297  1.5746
 3790SOL    HW223004   0.496   3.838   5.081  1.0259  0.2693  0.0876
 3791SOL     OW23005   1.145   3.896   7.646  0.6343  0.3997  0.2559
 3791SOL    HW123006   1.231   3.928   7.673  2.2537 -1.4306 -2.7645
 3791SOL    HW223007   1.113   3.861   7.729  1.9449 -1.7232 -0.1420
 3792SOL     OW23008   1.612   3.537   1.865 -0.3441  0.4085 -0.2809
 3792SOL    HW123009   1.670   3.559   1.793 -1.7353  4.0042 -0.2841
 3792SOL    HW223010   1.531   3.564   1.822 -2.8338 -3.5572  1.8552
 3793SOL     OW23011   2.277   4.664   8.868  0.2968  0.0231  0.5756
 3793SOL    HW123012   2.232   4.718   8.933 -0.6016  0.4319 -0.3881
 3793SOL    HW223013   2.216   4.672   8.795  1.0633  0.1370 -0.0619
 3794SOL     OW23014   0.453   2.014   7.031  0.3649 -0.0846  0.0671
 3794SOL    HW123015   0.496   2.070   7.096  2.1555 -0.1664 -1.0550
 3794SOL    HW223016   0.367   2.001   7.071 -1.1329  1.6889 -2.4965
 3795SOL     OW23017   4.629   1.838   7.549  0.4042 -0.1828 -0.2348
 3795SOL    HW123018   4.643   1.881   7.465 -0.6902  1.7243  0.5584
 3795SOL    HW223019   4.623   1.910   7.612  0.3589 -0.1894 -0.2312
 3796SOL     OW23020   2.676   3.297   5.734 -0.8269  0.6016 -0.1490
 3796SOL    HW123021   2.600   3.333   5.689 -2.7745 -2.1568  0.9080
 3796SOL    HW223022   2.637   3.215   5.764  3.5832 -1.0197  1.1977
 3797SOL     OW23023   4.563   3.991   1.749 -0.0123 -0.2622  0.2201
 3797SOL    HW123024   4.519   3.906   1.751 -1.5664  0.5139 -1.5237
 3797SOL    HW223025   4.539   4.003   1.657 -0.9468 -1.7745  0.2670
 3798SOL     OW23026   3.991   1.192   1.811 -0.6715 -0.2358 -0.0259
 3798SOL    HW123027   3.947   1.245   1.744  0.8713  1.9032  0.6628
 3798SOL    HW223028   3.922   1.174   1.875 -1.4768  1.2256 -0.4700
 3799SOL     OW23029   1.059   0.829   1.421  0.2502 -0.3692 -0.1118
 3799SOL    HW123030   1.104   0.858   1.341  0.9041  0.1216  0.4404
 3799SOL    HW223031   1.074   0.908   1.471  1.4977 -1.2221  0.8646
 3800SOL     OW23032   4.003   3.591  10.455 -0.6186 -0.0189  0.5052
 3800SOL    HW123033   4.034   3.681  10.463  1.0991 -0.5446 -0.2441
 3800SOL    HW223034   4.003   3.578  10.360  2.2566  1.4929  0.2661
 3801SOL     OW23035   2.926   0.878   8.384 -0.3937  0.1197  0.6384
 3801SOL    HW123036   3.006   0.846   8.341 -0.1103  2.2076 -0.3638
 3801SOL    HW223037   2.969   0.929   8.453 -0.5309 -0.5386  1.2161
 3802SOL     OW23038   1.858   0.115   3.553  0.3652  0.0479 -0.1615
 3802SOL    HW123039   1.924   0.075   3.496  0.6267 -0.0593  0.2136
 3802SOL    HW223040   1.878   0.205   3.530 -4.2639  1.0040 -0.4796
 3803SOL     OW23041   3.596   1.862   2.985  0.3340 -0.7315  0.4604
 3803SOL    HW123042   3.560   1.942   2.946 -0.4799 -0.9527  0.7692
 3803SOL    HW223043   3.686   1.891   2.995 -0.1216  0.4650  1.0754
 3804SOL     OW23044   3.930   2.960   7.788 -0.0600 -0.7041 -0.0635
 3804SOL    HW123045   3.890   2.885   7.831 -1.3179 -0.0827 -0.1600
 3804SOL    HW223046   3.993   2.912   7.735  0.0029  1.1058 -1.6123
 3805SOL     OW23047   0.713   0.519   3.926  0.0718 -0.3436  0.7665
 3805SOL    HW123048   0.731   0.498   3.834 -1.0137 -1.5722  0.8335
 3805SOL    HW223049   0.651   0.592   3.925  2.0380  1.3147 -0.2069
 3806SOL     OW23050   0.236   0.463   1.823 -0.8471  0.1012 -0.1832
 3806SOL    HW123051   0.298   0.482   1.893 -2.3467  1.8722  0.6569
 3806SOL    HW223052   0.209   0.548   1.790 -1.4313  0.9479  2.4626
 3807SOL     OW23053   2.135   0.094   3.980 -0.4662 -0.5470 -0.2792
 3807SOL    HW123054   2.230   0.081   3.978 -0.3542  0.1054  0.7400
 3807SOL    HW223055   2.125   0.189   3.982 -2.4229 -0.7338 -1.1041
 3808SOL     OW23056   4.438   1.814   6.282 -0.3085 -0.2792  0.3494
 3808SOL    HW123057   4.485   1.860   6.211 -1.8996 -0.5186 -0.8447
 3808SOL    HW223058   4.454   1.722   6.263 -2.2000  0.0046 -2.6001
 3809SOL     OW23059   2.331   1.956   5.623 -0.2639 -0.2455  0.2624
 3809SOL    HW123060   2.284   1.873   5.614 -2.0200  0.6998  0.6873
 3809SOL    HW223061   2.326   2.000   5.538 -1.8587  1.3639  1.1898
 3810SOL     OW23062   4.371   2.230   0.456 -0.2578  0.5909  0.3290
 3810SOL    HW123063   4.335   2.310   0.418  1.6609  0.6822 -1.2840
 3810SOL    HW223064   4.324   2.216   0.538 -0.1709 -3.7496 -0.3402
 3811SOL     OW23065   1.473   2.347   3.075 -0.1914  0.2594 -0.6884
 3811SOL    HW123066   1.439   2.358   3.164  2.4854 -1.1738  0.5248
 3811SOL    HW223067   1.519   2.264   3.083 -3.5783 -1.6286 -0.7226
 3812SOL     OW23068   3.832   0.465   0.062 -0.4803  0.5454  0.4031
 3812SOL    HW123069   3.868   0.429   0.143 -2.4444  1.0158  1.4733
 3812SOL    HW223070   3.740   0.437   0.061 -0.8830  1.9000  0.0911
 3813SOL     OW23071   4.668   4.152   8.339  0.2004 -0.6668  1.2520
 3813SOL    HW123072   4.686   4.072   8.289  1.4535 -2.1998  4.1394
 3813SOL    HW223073   4.630   4.215   8.278  0.5815 -0.6342  1.0491
 3814SOL     OW23074   0.813   1.883   1.813  0.2773 -0.2452  0.3240
 3814SOL    HW123075   0.824   1.824   1.888  1.4139 -1.8299 -1.0780
 3814SOL    HW223076   0.717   1.882   1.816  0.1525 -2.0002 -4.3641
 3815SOL     OW23077   4.486   3.305  17.454  0.0105 -0.1742  0.4115
 3815SOL    HW123078   4.581   3.299  17.449  0.0618 -0.4181  1.6870
 3815SOL    HW223079   4.470   3.323  17.362  0.7355  1.7164  0.6430
 3816SOL     OW23080   0.437   1.797   4.140  0.1938  0.3312  0.6088
 3816SOL    HW123081   0.465   1.757   4.223  2.1321  1.4579  0.5020
 3816SOL    HW223082   0.358   1.749   4.116  0.7819 -0.8155  0.9457
 3817SOL     OW23083   1.502   1.429  13.097  0.0729  0.3573  0.5214
 3817SOL    HW123084   1.493   1.370  13.022 -2.3583  3.7215 -1.8074
 3817SOL    HW223085   1.414   1.424  13.134  0.2859  1.6356  1.2160
 3818SOL     OW23086   2.672   4.689   5.889 -0.0161 -0.4122  0.4777
 3818SOL    HW123087   2.628   4.649   5.815  1.0823  0.0575 -0.4251
 3818SOL    HW223088   2.597   4.731   5.930 -1.4912 -1.0663 -1.5960
 3819SOL     OW23089   3.568   4.490   1.036 -0.5548 -0.0679  1.0598
 3819SOL    HW123090   3.572   4.549   0.960 -1.3857 -0.0848  1.0030
 3819SOL    HW223091   3.475   4.469   1.030 -0.3351 -0.6071 -0.5456
 3820SOL     OW23092   4.458   2.591   7.355 -0.1785 -0.2268 -0.0253
 3820SOL    HW123093   4.533   2.533   7.369 -1.5535 -1.8213  0.6678
 3820SOL    HW223094   4.510   2.668   7.332  0.0351 -0.4891 -0.4246
 3821SOL     OW23095   0.229   1.931  15.822 -0.2169  0.3174  0.0788
 3821SOL    HW123096   0.235   1.951  15.916 -1.6535  1.0960  0.0097
 3821SOL    HW223097   0.149   1.974  15.790  0.2617  0.8986 -0.3347
 3822SOL     OW23098   3.589   3.061   5.357 -0.0734 -0.3920 -0.0622
 3822SOL    HW123099   3.662   3.056   5.296 -1.0134  0.4739 -1.2589
 3822SOL    HW223100   3.585   3.157   5.357  1.2299 -0.3291 -2.4206
 3823SOL     OW23101   3.002   3.236   4.946  0.4929  0.5628  0.3692
 3823SOL    HW123102   2.912   3.206   4.931  0.0557 -0.0083  3.9958
 3823SOL    HW223103   3.042   3.156   4.981  1.5045  0.2612 -1.4469
 3824SOL     OW23104   3.069   0.370   5.717  0.1503 -0.3663  0.2241
 3824SOL    HW123105   3.103   0.460   5.719 -1.1763  0.1628 -0.8194
 3824SOL    HW223106   3.007   0.372   5.790 -1.2603 -0.7046 -0.9640
 3825SOL     OW23107   4.206   1.969   5.861 -0.5959  0.1316  0.3178
 3825SOL    HW123108   4.132   1.924   5.902 -0.8167  2.6218  2.6400
 3825SOL    HW223109   4.193   2.058   5.893 -0.3681  0.2878 -0.0228
 3826SOL     OW23110   4.337   3.567  11.785 -0.1156 -0.0518  0.0792
 3826SOL    HW123111   4.426   3.548  11.813 -0.2011 -1.9790 -0.9687
 3826SOL    HW223112   4.290   3.568  11.869  1.9896  1.6454  1.2237
 3827SOL     OW23113   4.397   3.295   9.717 -0.0256 -0.1034 -0.1519
 3827SOL    HW123114   4.450   3.313   9.794 -1.1194  1.9594  0.0990
 3827SOL    HW223115   4.435   3.348   9.648  0.1994 -0.6986 -0.4886
 3828SOL     OW23116   4.694   3.959   0.479  0.0503 -0.2411  0.5867
 3828SOL    HW123117   0.008   3.960   0.396 -1.1113  0.9365 -0.0857
 3828SOL    HW223118   4.616   3.907   0.460  0.3881 -0.5518  0.0732
 3829SOL     OW23119   2.080   0.207  17.419 -0.2900 -0.0587 -0.3077
 3829SOL    HW123120   2.092   0.252  17.335  0.6326 -1.0636 -0.7000
 3829SOL    HW223121   2.053   0.120  17.392  1.4550 -1.1239  1.4062
 3830SOL     OW23122   0.698   2.173   7.104  0.2992 -0.2811  0.4689
 3830SOL    HW123123   0.686   2.206   7.015 -1.2648  0.3032  0.8981
 3830SOL    HW223124   0.763   2.235   7.137  0.9135 -0.0472 -1.1517
 3831SOL     OW23125   1.534   1.854  12.606  0.3282  0.4795 -0.3957
 3831SOL    HW123126   1.561   1.796  12.535  2.3541 -1.3670  1.9097
 3831SOL    HW223127   1.509   1.936  12.563 -0.7013  0.3931  0.0396
 3832SOL     OW23128   1.415   3.670   5.255 -0.2553  0.2076  0.2268
 3832SOL    HW123129   1.481   3.701   5.193 -0.2203  1.9744  1.1236
 3832SOL    HW223130   1.457   3.599   5.303  0.8518 -0.3527 -1.5554
 3833SOL     OW23131   4.376   2.371  13.120 -0.4065 -0.3404 -0.2499
 3833SOL    HW123132   4.313   2.356  13.190 -1.3384  1.4199 -0.7371
 3833SOL    HW223133   4.376   2.285  13.078  0.0115 -0.6856  0.4689
 3834SOL     OW23134   1.867   1.567   8.684  0.0990  0.5380 -0.1963
 3834SOL    HW123135   1.916   1.496   8.725  0.2984  1.2318  0.7702
 3834SOL    HW223136   1.779   1.530   8.681  0.3340  0.0118 -0.7089
 3835SOL     OW23137   0.475   4.321   0.630 -0.3235 -0.6680 -0.1232
 3835SOL    HW123138   0.532   4.252   0.664  0.2519 -0.9939 -1.7739
 3835SOL    HW223139   0.533   4.393   0.609 -0.4367 -0.4704  0.2343
 3836SOL     OW23140   3.206   2.682   9.425 -0.0976 -0.2304 -0.5726
 3836SOL    HW123141   3.204   2.596   9.384 -1.8495 -0.3719 -0.1701
 3836SOL    HW223142   3.289   2.686   9.472 -1.0172  3.5403  0.8069
 3837SOL     OW23143   2.157   0.111   3.501  0.6276  0.1825  0.6778
 3837SOL    HW123144   2.141   0.017   3.512 -2.7417  0.6091 -0.7604
 3837SOL    HW223145   2.222   0.123   3.571 -0.0401 -1.1069  1.5276
 3838SOL     OW23146   4.528   1.000   2.457  0.1346  0.3449  0.3276
 3838SOL    HW123147   4.464   0.944   2.500 -0.4214  1.9829  1.6328
 3838SOL    HW223148   4.528   1.076   2.515 -0.3288 -0.8585  1.9060
 3839SOL     OW23149   1.928   3.585   4.858 -0.0233 -0.0833 -0.1014
 3839SOL    HW123150   1.931   3.628   4.773 -1.8638  2.6036  1.1719
 3839SOL    HW223151   1.932   3.495   4.827  0.1717  0.1300 -0.7021
 3840SOL     OW23152   2.978   0.122   7.927 -0.3526  0.4035 -0.4559
 3840SOL    HW123153   2.997   0.042   7.976 -0.4014  1.2319  0.9213
 3840SOL    HW223154   2.983   0.195   7.990 -0.0923 -0.5845  0.6569
 3841SOL     OW23155   3.615   4.134   9.487 -0.0969 -0.0535  0.0628
 3841SOL    HW123156   3.689   4.102   9.434 -0.7393  1.0546 -1.5125
 3841SOL    HW223157   3.546   4.071   9.467 -1.1735  1.7782 -2.0895
 3842SOL     OW23158   4.613   1.145   5.397  0.5404  0.1385  0.2976
 3842SOL    HW123159   4.566   1.146   5.481 -1.3669  2.0800 -0.7907
 3842SOL    HW223160   4.694   1.101   5.422  0.3632 -1.1099 -1.2971
 3843SOL     OW23161   1.894   4.025   5.193 -0.1047 -0.0238  0.2615
 3843SOL    HW123162   1.803   4.050   5.205  0.0515  0.7495 -0.1476
 3843SOL    HW223163   1.882   3.961   5.123  0.9520 -1.5734  1.4991
 3844SOL     OW23164   0.931   4.470   6.723 -0.4820  0.4400  0.0422
 3844SOL    HW123165   0.837   4.469   6.741 -0.2372 -0.4196  1.3008
 3844SOL    HW223166   0.967   4.546   6.768 -3.1103  1.8188 -0.1734
 3845SOL     OW23167   0.197   2.701   0.050 -0.3843 -0.0954  0.5919
 3845SOL    HW123168   0.250   2.636   0.004 -1.5552 -1.1310  0.7038
 3845SOL    HW223169   0.186   2.652   0.132  0.5967 -3.4314 -1.2464
 3846SOL     OW23170   3.625   0.156   2.945  0.4673  0.0539  0.2549
 3846SOL    HW123171   3.599   0.194   2.861  1.8355  0.5549  0.0595
 3846SOL    HW223172   3.625   0.237   2.997  0.1056  0.9745 -1.1537
 3847SOL     OW23173   4.650   0.283   5.743  0.0977 -0.2016 -0.0251
 3847SOL    HW123174   4.620   0.215   5.683  0.5587 -0.8424  0.4539
 3847SOL    HW223175   0.003   0.246   5.754 -0.1439 -0.3730  1.3224
 3848SOL     OW23176   0.340   4.463   0.377 -0.4309 -0.4632  0.2266
 3848SOL    HW123177   0.350   4.500   0.464 -0.4063 -0.0023  0.0297
 3848SOL    HW223178   0.258   4.416   0.391 -1.8357  1.7860 -0.3905
 3849SOL     OW23179   2.541   1.750   2.128 -0.6448  0.4790 -0.4524
 3849SOL    HW123180   2.567   1.816   2.191  0.4021  0.9949 -1.4279
 3849SOL    HW223181   2.619   1.746   2.072 -0.4855  0.8460 -0.2526
 3850SOL     OW23182   1.864   1.594   1.566  0.0570 -0.1272  0.4377
 3850SOL    HW123183   1.913   1.610   1.646 -2.1637  0.0379  1.7530
 3850SOL    HW223184   1.935   1.594   1.501 -1.0438  3.1375 -0.7866
 3851SOL     OW23185   1.437   2.979   2.583 -0.7458  0.5921 -0.0543
 3851SOL    HW123186   1.447   3.074   2.575 -0.6838  0.6073  0.2034
 3851SOL    HW223187   1.499   2.950   2.516 -2.8613 -0.5822 -1.5047
 3852SOL     OW23188   1.756   3.242   3.062  0.0482 -0.0931 -0.0081
 3852SOL    HW123189   1.726   3.327   3.030 -3.6225 -0.7259  1.8930
 3852SOL    HW223190   1.742   3.180   2.990  0.4019  0.2713 -0.3923
 3853SOL     OW23191   1.113   3.525   4.235  0.0003  0.1120 -0.1451
 3853SOL    HW123192   1.118   3.473   4.154 -0.2149 -0.2196  0.0576
 3853SOL    HW223193   1.058   3.465   4.286  2.7833 -1.5432  0.9280
 3854SOL     OW23194   2.282   4.003   4.064  0.6480 -0.0695  0.5519
 3854SOL    HW123195   2.210   3.962   4.016  0.9155 -1.5587  1.4285
 3854SOL    HW223196   2.252   3.996   4.154  0.6917  1.0609  0.6582
 3855SOL     OW23197   3.273   2.125   1.974  0.0140 -0.2980  0.0618
 3855SOL    HW123198   3.337   2.078   2.028  1.1268 -1.7211 -2.4789
 3855SOL    HW223199   3.325   2.161   1.903  0.4145 -1.1809 -0.0943
 3856SOL     OW23200   4.399   3.562  17.516 -0.2118 -0.1572  0.4526
 3856SOL    HW123201   4.415   3.470  17.497 -0.0153 -0.2949  1.2570
 3856SOL    HW223202   4.485   3.600  17.500 -0.7450  0.3594 -1.1737
 3857SOL     OW23203   2.437   3.226  16.671  0.3007 -0.2681 -0.2442
 3857SOL    HW123204   2.378   3.300  16.657 -1.3992 -1.4814  0.5087
 3857SOL    HW223205   2.517   3.267  16.638  0.2693 -0.9965 -1.2394
 3858SOL     OW23206   3.868   1.194   5.151 -0.0196 -0.0483  0.3055
 3858SOL    HW123207   3.883   1.113   5.200 -0.1861 -0.7473 -0.7715
 3858SOL    HW223208   3.783   1.223   5.184  0.0632  0.3955  0.1232
 3859SOL     OW23209   1.477   1.711  10.410  0.2810  0.2607 -0.1776
 3859SOL    HW123210   1.424   1.781  10.374 -3.0362 -0.5626  3.0718
 3859SOL    HW223211   1.561   1.755  10.421  0.7468 -0.3689 -1.1859
 3860SOL     OW23212   1.807   0.480   1.252 -0.7701  0.4355 -0.0124
 3860SOL    HW123213   1.768   0.543   1.312  1.5726  1.8890  0.0005
 3860SOL    HW223214   1.788   0.513   1.164 -3.0207  0.3495  0.4573
 3861SOL     OW23215   4.267   2.895   9.517 -0.2634 -0.1333 -0.0546
 3861SOL    HW123216   4.312   2.812   9.504  0.7153  0.4411 -0.3011
 3861SOL    HW223217   4.282   2.940   9.434  0.8488 -1.0427 -0.3350
 3862SOL     OW23218   1.733   4.692   9.193 -0.5713 -0.4545 -0.5113
 3862SOL    HW123219   1.757   4.734   9.111  0.8333  1.7570  1.0171
 3862SOL    HW223220   1.780   0.023   9.245 -2.0872 -0.1868  0.5149
 3863SOL     OW23221   3.320   4.017   7.547 -0.5037 -0.0295 -1.3165
 3863SOL    HW123222   3.319   3.927   7.581 -1.7562  0.3012 -0.4750
 3863SOL    HW223223   3.228   4.041   7.562  0.2376  1.3317  1.1045
 3864SOL     OW23224   0.992   2.209   3.989  0.2277 -0.0022 -0.2396
 3864SOL    HW123225   1.083   2.228   4.010  0.6726 -1.4215 -0.9474
 3864SOL    HW223226   0.986   2.221   3.894  0.7284 -0.3448 -0.3118
 3865SOL     OW23227   3.902   0.625   7.125 -0.2633 -0.2450  0.2869
 3865SOL    HW123228   3.905   0.719   7.141 -0.6931 -0.2426  0.3485
 3865SOL    HW223229   3.943   0.625   7.039  1.3595 -0.2631  1.0598
 3866SOL     OW23230   3.919   3.220   2.772  0.3898 -0.8080 -0.4077
 3866SOL    HW123231   3.828   3.204   2.797  0.2506 -1.3358 -1.2541
 3866SOL    HW223232   3.933   3.306   2.811 -0.4468  0.3423 -2.6188
 3867SOL     OW23233   3.038   0.965   3.603 -0.3700 -0.3358  0.8346
 3867SOL    HW123234   3.132   0.984   3.598 -0.3554 -0.4322  0.7494
 3867SOL    HW223235   3.037   0.894   3.667 -1.3819 -2.2876 -1.3716
 3868SOL     OW23236   2.883   2.485   1.854 -0.3598 -0.0433  0.1320
 3868SOL    HW123237   2.894   2.429   1.930  0.6454 -1.1787 -0.8573
 3868SOL    HW223238   2.789   2.476   1.839  0.3596  2.4350 -5.9470
 3869SOL     OW23239   4.314   3.277   3.467  0.5648  0.1597  0.6046
 3869SOL    HW123240   4.223   3.309   3.463  0.1892 -1.0552 -0.4549
 3869SOL    HW223241   4.364   3.341   3.517  2.9739  1.6265 -3.6726
 3870SOL     OW23242   2.712   3.454   6.948 -0.2589 -0.2243 -0.1618
 3870SOL    HW123243   2.680   3.418   7.031  0.5237 -0.2773  0.1224
 3870SOL    HW223244   2.635   3.437   6.894 -0.6170  0.1217  0.2360
 3871SOL     OW23245   1.430   4.483  17.232 -0.2243  0.0147  0.5681
 3871SOL    HW123246   1.429   4.511  17.141  0.0503 -0.0775  0.5339
 3871SOL    HW223247   1.344   4.514  17.258 -1.0258 -0.7912 -1.1783
 3872SOL     OW23248   3.235   0.036   4.722 -0.2909  0.0413  0.2143
 3872SOL    HW123249   3.171   0.101   4.750  0.3036  0.2828  1.0312
 3872SOL    HW223250   3.291   0.010   4.795  0.1944 -3.1176 -1.2704
 3873SOL     OW23251   4.648   0.864  16.687 -0.3778  0.1267 -0.5725
 3873SOL    HW123252   4.671   0.794  16.625 -2.1685 -0.0557 -1.0360
 3873SOL    HW223253   4.716   0.930  16.672  0.0817  0.1259  1.5604
 3874SOL     OW23254   3.359   1.335   7.138  0.3526 -0.3867 -0.3547
 3874SOL    HW123255   3.310   1.366   7.214 -0.0059  2.8244 -1.9022
 3874SOL    HW223256   3.445   1.313   7.174  0.5745 -2.2453 -2.0248
 3875SOL     OW23257   0.071   3.102  11.931 -0.0627  0.2956 -0.4337
 3875SOL    HW123258   0.110   3.016  11.947 -1.8638 -0.5783 -0.8036
 3875SOL    HW223259   0.131   3.141  11.867  0.9563 -0.1030  0.2754
 3876SOL     OW23260   0.911   3.494   6.740  0.3722 -0.1396 -0.4987
 3876SOL    HW123261   0.931   3.507   6.647 -1.1041 -1.1214 -0.9404
 3876SOL    HW223262   0.998   3.456   6.756  1.0886  1.0961 -1.3931
 3877SOL     OW23263   2.526   0.975   5.133 -0.0935 -0.2626 -0.0749
 3877SOL    HW123264   2.440   1.017   5.128  0.3905  0.6027 -1.1376
 3877SOL    HW223265   2.555   0.955   5.045 -1.4342 -2.5655  0.0084
 3878SOL     OW23266   0.150   4.148   2.943  0.5005  0.4845  0.4467
 3878SOL    HW123267   0.128   4.153   3.036  1.5333 -1.0002  0.7840
 3878SOL    HW223268   0.129   4.056   2.926  1.4939  0.2111  0.6970
 3879SOL     OW23269   0.484   0.211   7.429 -0.1669 -0.2577 -0.1241
 3879SOL    HW123270   0.455   0.292   7.389  0.7611  1.0550  1.8464
 3879SOL    HW223271   0.552   0.249   7.484 -0.5979  0.0041  0.2304
 3880SOL     OW23272   0.980   2.471   5.746 -0.2429 -0.3483 -0.2397
 3880SOL    HW123273   0.957   2.387   5.787  0.9227 -0.0369  1.0590
 3880SOL    HW223274   0.949   2.529   5.815  1.3095 -0.8485  0.8829
 3881SOL     OW23275   4.289   1.463   6.468  0.2730  0.6359  0.0070
 3881SOL    HW123276   4.287   1.489   6.376  1.0406 -1.0813 -0.4939
 3881SOL    HW223277   4.305   1.369   6.462  1.4103  0.7439  1.1854
 3882SOL     OW23278   4.348   4.305   7.083  0.3751  0.5501 -0.0771
 3882SOL    HW123279   4.286   4.320   7.012  0.6521  0.8623 -0.2521
 3882SOL    HW223280   4.290   4.245   7.130 -1.9820  1.8601 -1.3149
 3883SOL     OW23281   2.484   2.617   4.367  0.3774 -0.2095  0.2867
 3883SOL    HW123282   2.565   2.646   4.324 -0.2875 -1.4002 -1.7632
 3883SOL    HW223283   2.496   2.673   4.443 -1.4801  1.3179 -0.5687
 3884SOL     OW23284   2.480   4.298  12.590 -0.2477 -0.5422  0.7918
 3884SOL    HW123285   2.472   4.214  12.634  0.4890 -0.5946  0.8277
 3884SOL    HW223286   2.547   4.262  12.531 -1.5229 -0.3125 -0.7992
 3885SOL     OW23287   1.592   1.862   6.332  0.0226  0.0176 -0.1540
 3885SOL    HW123288   1.666   1.891   6.280  0.7636  0.3231  1.0704
 3885SOL    HW223289   1.606   1.913   6.412  1.0239  1.9890 -1.6049
 3886SOL     OW23290   2.061   4.686  17.330 -0.2990  0.1210 -0.2273
 3886SOL    HW123291   1.985   4.681  17.389 -0.7979 -1.3404 -0.9734
 3886SOL    HW223292   2.029   4.633  17.257 -2.5432  1.6515 -0.3390
 3887SOL     OW23293   0.091   4.342  10.102  0.4988  0.1210  0.1941
 3887SOL    HW123294   0.076   4.287  10.179  3.2296 -1.0556 -0.1126
 3887SOL    HW223295   0.104   4.427  10.143  0.3089 -0.4501  1.4263
 3888SOL     OW23296   1.786   4.524   7.839 -0.1870 -0.3506 -0.6207
 3888SOL    HW123297   1.828   4.438   7.843 -2.2557 -1.4121 -1.7428
 3888SOL    HW223298   1.756   4.514   7.748  0.9852  0.9412 -1.1465
 3889SOL     OW23299   1.433   3.526   2.981  0.6279  0.4053 -0.1179
 3889SOL    HW123300   1.523   3.511   2.953  1.0255  2.4367  0.0806
 3889SOL    HW223301   1.421   3.431   2.987  0.0137  0.5046  0.1564
 3890SOL     OW23302   3.719   1.625   7.109  0.4473  0.0234  0.5753
 3890SOL    HW123303   3.805   1.652   7.078 -0.4880  2.0018 -0.2865
 3890SOL    HW223304   3.658   1.637   7.037 -0.8955 -1.6759  1.4191
 3891SOL     OW23305   2.561   4.127   6.661 -0.5539  0.4574  0.1120
 3891SOL    HW123306   2.602   4.186   6.598  0.3744 -0.0621  0.2221
 3891SOL    HW223307   2.626   4.144   6.729 -0.3692 -0.7001  0.2357
 3892SOL     OW23308   1.727   1.182   8.646  0.7816 -0.1663  0.4200
 3892SOL    HW123309   1.716   1.157   8.738 -1.6627 -1.3351 -0.2151
 3892SOL    HW223310   1.691   1.271   8.647 -0.0434 -0.5035 -0.0153
 3893SOL     OW23311   4.542   3.716  12.235  0.6337  0.3934  0.3419
 3893SOL    HW123312   4.617   3.714  12.176  0.2676 -0.0318 -0.1203
 3893SOL    HW223313   4.500   3.800  12.217 -0.5124 -0.0878  0.7695
 3894SOL     OW23314   1.848   4.623   6.236 -0.2239 -0.0336 -0.1680
 3894SOL    HW123315   1.896   4.554   6.190 -0.1500 -0.3557  0.3907
 3894SOL    HW223316   1.760   4.613   6.200  0.3282  4.3561 -2.8165
 3895SOL     OW23317   1.442   3.217   4.271 -0.1578  0.6033  0.7813
 3895SOL    HW123318   1.353   3.204   4.239 -0.3386 -0.8112  1.8497
 3895SOL    HW223319   1.468   3.125   4.271  0.8148  0.8872 -0.8589
 3896SOL     OW23320   0.723   0.883   1.883  0.0987  0.1689 -0.2917
 3896SOL    HW123321   0.738   0.890   1.788 -0.2984  0.6090 -0.3209
 3896SOL    HW223322   0.770   0.955   1.924 -1.6585  1.9122 -1.3059
 3897SOL     OW23323   2.338   0.595  10.564  0.1176 -0.0250  0.2846
 3897SOL    HW123324   2.308   0.525  10.621  2.2718  0.6798  2.2373
 3897SOL    HW223325   2.351   0.659  10.634  1.2281  0.5265 -0.4264
 3898SOL     OW23326   4.333   2.914   6.595  0.4009 -0.1328 -0.6359
 3898SOL    HW123327   4.244   2.923   6.627  1.3438 -0.4110  2.0172
 3898SOL    HW223328   4.327   2.826   6.556  0.7778 -1.5224  2.4476
 3899SOL     OW23329   4.190   2.988   2.427 -0.3325  0.5819  0.0327
 3899SOL    HW123330   4.177   3.065   2.372 -0.8971  1.1994  1.0114
 3899SOL    HW223331   4.180   2.923   2.358 -0.3176 -0.3819  0.9347
 3900SOL     OW23332   0.735   1.696   4.027  0.1858  0.1996  0.2813
 3900SOL    HW123333   0.691   1.777   4.001  0.4902  0.5248  0.7678
 3900SOL    HW223334   0.798   1.693   3.955  1.3966 -1.3159  1.3824
 3901SOL     OW23335   4.026   0.125   4.157 -0.4414 -0.8390 -0.5859
 3901SOL    HW123336   4.112   0.165   4.151  0.5496 -3.0469 -1.3317
 3901SOL    HW223337   4.068   0.055   4.208 -1.2127  0.1621  1.4222
 3902SOL     OW23338   1.406   4.023   4.927  0.1215  0.0306  0.5619
 3902SOL    HW123339   1.361   3.992   5.005 -1.1221  0.6560  0.0830
 3902SOL    HW223340   1.337   3.994   4.867  0.8868  0.1529 -0.3847
 3903SOL     OW23341   1.861   2.838  15.668 -0.5535  0.6780 -0.7892
 3903SOL    HW123342   1.843   2.931  15.652 -3.3180  0.3620  0.4929
 3903SOL    HW223343   1.789   2.807  15.723  0.7327 -1.1690 -0.1513
 3904SOL     OW23344   4.223   3.909   3.885  0.7114  0.0520  0.2499
 3904SOL    HW123345   4.144   3.951   3.918  1.2058  1.6864 -0.6551
 3904SOL    HW223346   4.211   3.922   3.791 -0.9444  1.2670  0.6265
 3905SOL     OW23347   2.434   4.114   8.314 -0.3929  0.8080  0.0177
 3905SOL    HW123348   2.358   4.141   8.367  0.9682  2.9955  0.8782
 3905SOL    HW223349   2.408   4.026   8.288  1.0338  0.4727 -0.2584
 3906SOL     OW23350   3.999   2.247   2.961 -0.4596 -0.3282 -0.9769
 3906SOL    HW123351   4.076   2.284   3.004  2.6438 -3.8100 -3.5892
 3906SOL    HW223352   3.954   2.325   2.928 -0.1555  0.9110  1.5842
 3907SOL     OW23353   4.446   1.836   5.992  0.8130 -0.0873 -0.0097
 3907SOL    HW123354   4.356   1.859   6.015  0.5218 -0.5764 -0.6483
 3907SOL    HW223355   4.458   1.896   5.918  2.9993  3.0143  2.8626
 3908SOL     OW23356   4.488   3.759   5.855 -0.6196  0.3868  0.1172
 3908SOL    HW123357   4.535   3.732   5.776 -1.6514 -0.0024 -0.3549
 3908SOL    HW223358   4.398   3.749   5.824 -0.9792  1.4595  0.8368
 3909SOL     OW23359   3.897   3.998   7.879  0.2677 -0.0995 -0.3924
 3909SOL    HW123360   3.803   4.003   7.865  0.1424  0.9004  0.8065
 3909SOL    HW223361   3.908   4.078   7.929 -0.4519  1.0492 -2.0826
 3910SOL     OW23362   3.919   3.533   7.735  0.0055 -0.4870 -0.7792
 3910SOL    HW123363   3.982   3.582   7.788 -0.5438  1.3022 -1.7835
 3910SOL    HW223364   3.964   3.450   7.723 -1.5015 -0.9028 -3.5588
 3911SOL     OW23365   0.678   3.448   8.008 -0.0855  0.0083  0.2083
 3911SOL    HW123366   0.669   3.421   8.099 -0.7776 -0.3195  0.0455
 3911SOL    HW223367   0.770   3.424   7.996 -0.0666 -0.6380  1.6779
 3912SOL     OW23368   1.512   4.603   5.857 -0.4101 -0.3637  0.6342
 3912SOL    HW123369   1.531   4.658   5.781  1.5752 -1.7107  0.1516
 3912SOL    HW223370   1.439   4.551   5.824  0.4152 -1.3006  0.2764
 3913SOL     OW23371   1.078   4.566   2.824  0.0277  0.1557 -0.2052
 3913SOL    HW123372   1.167   4.594   2.801  0.3650  0.6733  1.7350
 3913SOL    HW223373   1.035   4.631   2.768 -1.4982  0.0735  0.8583
 3914SOL     OW23374   1.169   0.206   3.736  0.2410  0.0908  0.0570
 3914SOL    HW123375   1.107   0.135   3.752  0.1462  0.5843  1.9023
 3914SOL    HW223376   1.237   0.182   3.799  0.4953  0.1109 -0.2087
 3915SOL     OW23377   0.966   2.630   8.125  0.3766  0.5906 -0.5837
 3915SOL    HW123378   0.942   2.650   8.215  0.1217 -3.3266  0.2098
 3915SOL    HW223379   0.917   2.548   8.112  1.9755  0.0540 -3.2037
 3916SOL     OW23380   4.640   2.649  10.914 -0.0287 -0.0790  0.2153
 3916SOL    HW123381   4.706   2.691  10.969  1.0044 -0.3918 -0.7972
 3916SOL    HW223382   4.643   2.703  10.836 -2.8877 -2.6396 -1.6699
 3917SOL     OW23383   3.084   0.942  17.059  0.1461  0.2110 -0.2467
 3917SOL    HW123384   2.989   0.953  17.066  0.2138  2.0886 -2.0239
 3917SOL    HW223385   3.112   0.953  17.150  0.1781 -1.4090 -0.0586
 3918SOL     OW23386   1.719   2.605   7.698  0.2163 -0.2623  0.0201
 3918SOL    HW123387   1.801   2.654   7.703  0.8447 -1.3793  0.7454
 3918SOL    HW223388   1.651   2.670   7.715  1.0362  0.6948 -0.4198
 3919SOL     OW23389   2.163   1.271   2.278 -0.4635 -0.0075 -0.7748
 3919SOL    HW123390   2.199   1.243   2.194  1.6219  1.0609 -0.2449
 3919SOL    HW223391   2.078   1.303   2.249  0.4317  2.7058 -0.4710
 3920SOL     OW23392   1.115   1.905   0.949  0.1767  0.2147  0.3169
 3920SOL    HW123393   1.203   1.871   0.963  0.7476  1.0606 -1.2246
 3920SOL    HW223394   1.063   1.832   0.981  0.5427 -1.2601 -2.4856
 3921SOL     OW23395   4.253   4.627   9.170 -0.2833  0.0567  0.6001
 3921SOL    HW123396   4.268   4.720   9.154 -0.3090 -0.0087  0.1852
 3921SOL    HW223397   4.330   4.605   9.223  0.2152  0.5148  0.0802
 3922SOL     OW23398   1.296   0.135   8.275 -0.4268  0.4452 -1.0432
 3922SOL    HW123399   1.305   0.230   8.281 -1.2999  0.5406 -1.2775
 3922SOL    HW223400   1.321   0.120   8.184 -2.4418 -3.0599 -1.0453
 3923SOL     OW23401   1.083   1.514   0.635 -0.1018  0.1994  0.2085
 3923SOL    HW123402   1.080   1.610   0.639  1.2825  0.2313  0.5241
 3923SOL    HW223403   0.991   1.493   0.653 -0.0542 -0.9253 -0.8905
 3924SOL     OW23404   2.075   1.469   4.072  0.4711 -0.7997  0.1561
 3924SOL    HW123405   2.092   1.476   4.166  2.1499  2.5625 -0.3900
 3924SOL    HW223406   1.980   1.459   4.075  0.5417 -1.5718 -0.2009
 3925SOL     OW23407   0.938   4.500   7.920  0.1580 -0.0116  0.0725
 3925SOL    HW123408   1.002   4.549   7.972 -3.0179  2.5880  1.5467
 3925SOL    HW223409   0.943   4.545   7.836 -0.0675  0.3024  0.2300
 3926SOL     OW23410   2.456   0.008   6.274  0.4593  0.5805  0.1043
 3926SOL    HW123411   2.388   0.048   6.327 -1.2767  1.1845 -2.6089
 3926SOL    HW223412   2.440   0.058   6.194  0.9488  0.5635 -0.0071
 3927SOL     OW23413   3.027   4.266  17.550  0.7274  0.2540 -0.3132
 3927SOL    HW123414   3.030   4.173  17.530  1.6588 -0.4149  2.9245
 3927SOL    HW223415   2.934   4.282  17.538  0.0050 -2.7852  1.2874
 3928SOL     OW23416   1.317   3.051   3.739 -0.2252  0.0888  0.4317
 3928SOL    HW123417   1.304   3.145   3.723  1.2335  0.5061  1.7258
 3928SOL    HW223418   1.315   3.049   3.834 -0.0391 -1.6355  0.3859
 3929SOL     OW23419   2.340   1.614  11.566 -0.2351 -0.4132 -0.3687
 3929SOL    HW123420   2.314   1.705  11.573 -0.1947 -0.2739 -2.0185
 3929SOL    HW223421   2.433   1.636  11.564 -0.3212 -0.6756 -6.5491
 3930SOL     OW23422   4.608   0.757   8.411  0.4360 -0.5601  0.3411
 3930SOL    HW123423   4.522   0.721   8.433  0.1339 -0.8271 -1.3090
 3930SOL    HW223424   4.652   0.757   8.496  0.9674  2.2593  0.0719
 3931SOL     OW23425   4.013   0.260  17.400  0.1335 -0.2642  0.2860
 3931SOL    HW123426   4.053   0.303  17.325 -0.9704  0.6666  0.2394
 3931SOL    HW223427   3.997   0.177  17.355  1.7853 -0.1996 -0.4413
 3932SOL     OW23428   2.534   2.456   8.258  0.3334 -0.1783 -0.7411
 3932SOL    HW123429   2.521   2.460   8.352  1.9384 -0.7786 -0.4902
 3932SOL    HW223430   2.443   2.478   8.237 -0.2541  1.0092  3.1402
 3933SOL     OW23431   0.715   0.901   3.774 -0.5050  0.4456  0.3395
 3933SOL    HW123432   0.700   0.984   3.729  0.9185  1.3740  1.6070
 3933SOL    HW223433   0.744   0.933   3.859 -0.2044 -0.5729  0.6180
 3934SOL     OW23434   4.676   2.553   2.677  0.1780 -0.5778 -0.5188
 3934SOL    HW123435   4.585   2.538   2.652 -1.1392  1.6420  3.1013
 3934SOL    HW223436   4.710   2.559   2.587  0.4712 -2.0580 -0.5160
 3935SOL     OW23437   1.409   0.832  15.189 -0.1573  0.2002 -0.0180
 3935SOL    HW123438   1.452   0.780  15.257 -1.4782 -3.8445 -2.2429
 3935SOL    HW223439   1.317   0.805  15.190 -0.9132  2.7041 -2.7483
 3936SOL     OW23440   0.124   0.247  12.468  0.2220  0.3542 -0.7847
 3936SOL    HW123441   0.122   0.152  12.479  1.8825  0.4487  0.3429
 3936SOL    HW223442   0.210   0.270  12.504 -0.1070 -0.8438  0.8036
 3937SOL     OW23443   0.574   3.051   0.190 -0.5412  0.1013  0.1118
 3937SOL    HW123444   0.549   3.102   0.113  3.2334  0.6566 -0.7471
 3937SOL    HW223445   0.517   3.079   0.262 -1.4654 -1.0379 -0.1760
 3938SOL     OW23446   4.327   1.283  14.385  0.0183 -0.0267 -0.0557
 3938SOL    HW123447   4.406   1.235  14.364 -0.3411 -0.3195 -0.7418
 3938SOL    HW223448   4.334   1.277  14.480 -0.1600 -2.7487 -0.1980
 3939SOL     OW23449   3.873   3.805   8.979 -0.3436  0.5218 -0.3199
 3939SOL    HW123450   3.781   3.779   8.967 -0.5113  1.4596 -1.0852
 3939SOL    HW223451   3.867   3.888   9.028  0.3115  0.0606  0.5394
 3940SOL     OW23452   1.737   2.433   1.842 -0.3296  0.9326  0.1191
 3940SOL    HW123453   1.684   2.500   1.799 -1.1898 -1.0403 -1.8634
 3940SOL    HW223454   1.763   2.472   1.926 -2.8268 -0.0431  1.3430
 3941SOL     OW23455   1.709   2.849   4.741 -0.4424 -0.2480 -0.2374
 3941SOL    HW123456   1.710   2.874   4.833  0.6710 -0.5245 -0.1707
 3941SOL    HW223457   1.798   2.816   4.724 -0.9645 -1.1681 -1.1994
 3942SOL     OW23458   2.322   4.393   2.684 -0.4963 -0.3757  0.0744
 3942SOL    HW123459   2.344   4.470   2.632  2.2760 -2.9094 -2.4706
 3942SOL    HW223460   2.245   4.418   2.735  0.8491 -1.0888  2.4595
 3943SOL     OW23461   3.821   1.489  16.767 -0.0940 -0.1216 -0.0628
 3943SOL    HW123462   3.786   1.529  16.846 -0.9276 -1.0602  0.0489
 3943SOL    HW223463   3.915   1.506  16.775  0.1191 -1.1687 -0.3554
 3944SOL     OW23464   0.582   0.893   6.536 -0.1168  0.2240 -0.0922
 3944SOL    HW123465   0.616   0.977   6.569 -2.2100  0.3305  1.8070
 3944SOL    HW223466   0.627   0.836   6.598 -1.2897 -0.6304 -0.0220
 3945SOL     OW23467   0.367   0.496   9.531  0.1483 -0.2660 -0.1632
 3945SOL    HW123468   0.375   0.502   9.436 -1.7952 -2.6009 -0.4729
 3945SOL    HW223469   0.448   0.536   9.560  1.0515 -1.9909 -0.3212
 3946SOL     OW23470   0.771   1.348  15.275  0.0887 -0.0958  0.2101
 3946SOL    HW123471   0.820   1.429  15.286 -0.5063  0.3795 -0.6490
 3946SOL    HW223472   0.741   1.332  15.364  1.3142  0.2795  0.6976
 3947SOL     OW23473   1.399   2.649   3.249 -0.1449  0.6405 -0.9278
 3947SOL    HW123474   1.386   2.620   3.339  1.3604  1.3532 -0.4753
 3947SOL    HW223475   1.329   2.608   3.198 -0.3670 -0.3241  0.1343
 3948SOL     OW23476   1.497   1.140   3.947  0.0973  0.0158 -0.5968
 3948SOL    HW123477   1.438   1.208   3.980 -1.9776 -1.6867 -0.7377
 3948SOL    HW223478   1.541   1.182   3.874  0.7809  1.0979  0.4519
 3949SOL     OW23479   2.828   3.511  13.031 -0.3561  0.3942  0.2759
 3949SOL    HW123480   2.771   3.566  13.086 -1.2648  0.2681 -0.5362
 3949SOL    HW223481   2.855   3.570  12.960 -2.5192  0.6444 -0.3363
 3950SOL     OW23482   3.691   2.422   7.610 -0.7992 -0.6153  0.2760
 3950SOL    HW123483   3.687   2.372   7.528 -0.3454 -2.9202  1.6617
 3950SOL    HW223484   3.643   2.364   7.669  0.0922  0.0502  1.6367
 3951SOL     OW23485   1.779   1.240  15.662  0.0960  0.3315 -0.1879
 3951SOL    HW123486   1.717   1.313  15.659 -3.9455 -3.0266  0.7472
 3951SOL    HW223487   1.792   1.226  15.569  0.3138  1.3429 -0.3065
 3952SOL     OW23488   2.326   3.613   2.779 -0.2566 -0.1720  0.0142
 3952SOL    HW123489   2.308   3.584   2.869 -0.2480 -1.8398 -0.5123
 3952SOL    HW223490   2.353   3.533   2.733 -0.7806 -0.2436 -0.1688
 3953SOL     OW23491   4.685   1.761  14.478 -0.2843  0.2681  0.0051
 3953SOL    HW123492   4.705   1.836  14.533 -1.6980  0.1646  0.6637
 3953SOL    HW223493   0.036   1.748  14.437  0.4125 -0.1721  1.6156
 3954SOL     OW23494   4.656   0.471   3.866  0.0892  0.3208  0.1862
 3954SOL    HW123495   4.717   0.528   3.913  1.0876 -1.9121  1.5830
 3954SOL    HW223496   4.674   0.382   3.894  1.9409 -0.3702 -3.1898
 3955SOL     OW23497   3.995   0.040   3.167  0.3054  0.1095 -0.3318
 3955SOL    HW123498   3.923   4.734   3.119 -0.6053 -0.1573  1.2700
 3955SOL    HW223499   3.966   0.131   3.175  1.2702  0.1922  2.4063
 3956SOL     OW23500   3.758   3.937  13.638  0.4067  0.1704 -0.2769
 3956SOL    HW123501   3.840   3.974  13.608  0.5406  0.9370  1.0506
 3956SOL    HW223502   3.701   4.014  13.638 -0.7799 -0.6888 -3.1836
 3957SOL     OW23503   0.702   2.679   0.940 -0.0980 -0.2397  0.0200
 3957SOL    HW123504   0.744   2.716   1.018  0.1377 -0.6370  0.0866
 3957SOL    HW223505   0.623   2.733   0.938 -1.5801 -2.3835  0.5962
 3958SOL     OW23506   2.423   3.537  15.872  0.0275 -0.0095  0.0682
 3958SOL    HW123507   2.395   3.465  15.927 -0.7560  0.3844  0.1849
 3958SOL    HW223508   2.340   3.585  15.864  0.2769  0.1442 -1.6020
 3959SOL     OW23509   0.179   2.864  11.976 -0.2689 -0.6842 -0.1978
 3959SOL    HW123510   0.237   2.827  11.910  0.9097 -1.5180  1.2897
 3959SOL    HW223511   0.219   2.832  12.057  1.3372 -1.2037 -1.1905
 3960SOL     OW23512   0.911   4.228   8.099 -0.3125 -0.0850  0.9948
 3960SOL    HW123513   0.948   4.145   8.130  1.6122  1.3503  2.6015
 3960SOL    HW223514   0.890   4.273   8.181  0.2704  0.0670  1.0612
 3961SOL     OW23515   4.109   0.585   5.161 -0.1299 -0.4432 -0.2202
 3961SOL    HW123516   4.086   0.513   5.101  0.3217 -1.5820  0.9703
 3961SOL    HW223517   4.041   0.646   5.133  0.2377 -0.4718 -1.1747
 3962SOL     OW23518   0.002   2.681  11.337  0.1689  0.3883  0.5467
 3962SOL    HW123519   4.726   2.767  11.377  0.0972 -0.0591  1.4978
 3962SOL    HW223520   4.653   2.648  11.368 -0.1838  0.8784  0.0941
 3963SOL     OW23521   4.165   4.571  10.165  0.2439  0.1224 -0.1677
 3963SOL    HW123522   4.069   4.565  10.174  0.2118  1.8671  0.6055
 3963SOL    HW223523   4.192   4.580  10.256  0.3002 -1.4527 -0.0300
 3964SOL     OW23524   3.960   1.583  17.344 -0.6877  0.4385  0.4717
 3964SOL    HW123525   4.002   1.553  17.426  0.0691  2.4097  0.8079
 3964SOL    HW223526   3.871   1.554  17.366 -1.4768  1.5021 -1.3961
 3965SOL     OW23527   1.407   1.284   4.201  0.1652  0.4068 -0.1422
 3965SOL    HW123528   1.384   1.192   4.195 -0.3092  0.4481  1.1696
 3965SOL    HW223529   1.323   1.324   4.176 -0.4237 -0.2943  0.7350
 3966SOL     OW23530   1.839   1.414   1.315  0.6340  0.0082  0.7839
 3966SOL    HW123531   1.909   1.465   1.358 -0.0684 -0.7839  2.8869
 3966SOL    HW223532   1.822   1.470   1.240  1.0251  1.7672  1.9970
 3967SOL     OW23533   1.913   1.697  12.977  0.1174 -0.4097 -0.0119
 3967SOL    HW123534   1.957   1.712  12.893  0.6312 -0.6733  0.2094
 3967SOL    HW223535   1.957   1.762  13.033  0.8143  1.0819 -2.2599
 3968SOL     OW23536   1.407   3.811   4.152 -0.2127 -0.2733 -0.1480
 3968SOL    HW123537   1.339   3.791   4.217  0.2695  1.1660  0.7923
 3968SOL    HW223538   1.413   3.905   4.169  1.8116 -0.1715 -1.4167
 3969SOL     OW23539   1.670   4.066  15.993 -0.1098  0.1106 -1.0182
 3969SOL    HW123540   1.649   4.043  15.903  0.5752 -1.2781 -0.8169
 3969SOL    HW223541   1.721   3.990  16.021 -0.2361 -0.2220 -1.6956
 3970SOL     OW23542   3.137   1.212  10.707  0.3955  0.2506  0.8067
 3970SOL    HW123543   3.096   1.145  10.761 -1.5476  0.1266 -0.8321
 3970SOL    HW223544   3.160   1.159  10.631 -0.7346  0.8178  0.0740
 3971SOL     OW23545   0.366   2.983   1.608 -0.2996  1.0189  0.1840
 3971SOL    HW123546   0.447   3.033   1.617  0.3558  0.1392 -0.8001
 3971SOL    HW223547   0.312   3.039   1.552 -0.5405  1.5794  0.9787
 3972SOL     OW23548   2.274   0.061   6.470  0.1098  0.2797 -0.0412
 3972SOL    HW123549   2.195   0.013   6.445  0.1822 -0.5232  1.2907
 3972SOL    HW223550   2.245   0.151   6.480  2.1486  1.0232 -0.7940
 3973SOL     OW23551   2.451   4.642   3.494 -0.0920  0.2234  0.1632
 3973SOL    HW123552   2.520   4.610   3.553 -0.0502 -1.1676 -0.6238
 3973SOL    HW223553   2.376   4.607   3.542  1.7217 -2.6092  0.9304
 3974SOL     OW23554   3.483   0.045   8.686 -0.2532  0.1915 -0.5161
 3974SOL    HW123555   3.417   0.048   8.617 -0.8371  3.8561  0.2181
 3974SOL    HW223556   3.562   0.077   8.641  0.5138  0.3732  0.9738
 3975SOL     OW23557   4.688   2.805   4.244 -0.3592 -0.0895  0.1332
 3975SOL    HW123558   4.630   2.867   4.290  0.0829  1.0298 -0.8169
 3975SOL    HW223559   4.684   2.731   4.305  1.2073  0.4952  0.9433
 3976SOL     OW23560   1.805   3.121   1.424  0.0821  0.0632 -0.0081
 3976SOL    HW123561   1.799   3.035   1.383  0.8715 -0.3349  0.7272
 3976SOL    HW223562   1.710   3.133   1.430 -0.1616 -2.6866  1.5806
 3977SOL     OW23563   1.807   0.727  17.489 -0.0334  0.3889 -0.5354
 3977SOL    HW123564   1.875   0.776  17.536 -1.0744  0.8594  0.4863
 3977SOL    HW223565   1.776   0.675  17.563  0.2245 -0.0119 -0.7081
 3978SOL     OW23566   2.829   1.379   1.839 -0.1246 -0.2886 -0.1950
 3978SOL    HW123567   2.896   1.348   1.900  0.6572 -1.5305 -1.6803
 3978SOL    HW223568   2.833   1.297   1.790 -0.0233 -1.6606  2.0963
 3979SOL     OW23569   1.452   0.374   1.819 -0.2844  0.4343  0.9182
 3979SOL    HW123570   1.502   0.364   1.900  0.0858 -2.0542  0.3679
 3979SOL    HW223571   1.430   0.282   1.807  0.4502  0.3804 -0.0191
 3980SOL     OW23572   3.612   0.486   2.305  0.4118 -0.4306 -0.0527
 3980SOL    HW123573   3.637   0.421   2.240  2.2735 -0.1834  0.4116
 3980SOL    HW223574   3.635   0.442   2.387 -4.0088  0.8978  1.9076
 3981SOL     OW23575   4.655   3.924   7.354 -0.0527 -0.4498 -0.0745
 3981SOL    HW123576   4.667   3.830   7.342 -1.3444 -0.2828 -2.7142
 3981SOL    HW223577   4.668   3.943   7.447  1.2787  0.9961 -0.5366
 3982SOL     OW23578   2.936   1.700   8.293 -0.1980 -0.3452  0.1965
 3982SOL    HW123579   2.864   1.639   8.276 -0.2245 -0.0248 -0.8653
 3982SOL    HW223580   2.939   1.720   8.386 -0.2643  1.6674 -0.2251
 3983SOL     OW23581   2.571   4.235   3.000  0.0707 -0.4591  0.3143
 3983SOL    HW123582   2.633   4.162   3.001  0.8358  0.1945 -0.4849
 3983SOL    HW223583   2.626   4.296   2.951  0.2200 -0.5142  0.4147
 3984SOL     OW23584   0.605   2.346   4.177 -0.9456 -0.5053 -0.0976
 3984SOL    HW123585   0.614   2.273   4.239  2.4249 -1.0407 -1.1957
 3984SOL    HW223586   0.511   2.363   4.183 -0.9148 -0.5011  0.3786
 3985SOL     OW23587   1.634   2.681   7.127  0.0727  0.7535  0.0985
 3985SOL    HW123588   1.551   2.672   7.080  0.4295  0.4569 -0.4816
 3985SOL    HW223589   1.640   2.774   7.149  0.6749  0.5636  0.7320
 3986SOL     OW23590   2.205   2.654   4.110 -0.4982 -0.0952 -0.2278
 3986SOL    HW123591   2.155   2.628   4.188  0.0409 -0.6636 -0.0815
 3986SOL    HW223592   2.144   2.712   4.064 -2.4455 -1.7163  0.3165
 3987SOL     OW23593   2.423   0.925   2.084 -0.0545 -0.1451  0.7604
 3987SOL    HW123594   2.395   1.014   2.061 -0.9273 -0.2261  1.5255
 3987SOL    HW223595   2.344   0.875   2.067 -0.4623  0.8885 -0.3849
 3988SOL     OW23596   1.074   1.938   4.889  0.1088 -0.2179 -0.4720
 3988SOL    HW123597   1.070   1.855   4.936  1.7263 -1.9892 -3.5269
 3988SOL    HW223598   1.155   1.923   4.841 -0.3871 -0.5812 -1.1774
 3989SOL     OW23599   1.927   2.338  14.790  0.4978 -0.1274 -0.7989
 3989SOL    HW123600   1.846   2.292  14.771  1.2731 -0.8583 -2.3702
 3989SOL    HW223601   1.995   2.297  14.736 -0.4485 -1.4662 -0.9852
 3990SOL     OW23602   3.909   0.329   9.026 -0.2449  0.7616 -0.2260
 3990SOL    HW123603   3.837   0.365   9.078 -0.3286  0.3460 -0.0498
 3990SOL    HW223604   3.946   0.264   9.086 -0.8808 -0.7293 -1.4631
 3991SOL     OW23605   1.664   2.682  15.871  0.1068 -0.2011 -0.3634
 3991SOL    HW123606   1.644   2.761  15.921 -3.1660 -0.2292 -1.6298
 3991SOL    HW223607   1.741   2.649  15.918 -1.0331 -1.4699  0.6098
 3992SOL     OW23608   2.212   0.387   3.003 -0.0659 -0.1371 -0.1036
 3992SOL    HW123609   2.116   0.379   2.998  0.3578 -3.5515 -3.1038
 3992SOL    HW223610   2.245   0.302   2.974 -0.9990 -0.7851  0.6908
 3993SOL     OW23611   0.589   2.645   5.957 -0.1984 -0.5718  0.0930
 3993SOL    HW123612   0.636   2.707   5.901  1.9592 -1.0389  1.3859
 3993SOL    HW223613   0.600   2.687   6.043  1.2210 -0.1138 -0.3182
 3994SOL     OW23614   4.713   2.546   1.587  0.3645  0.8567 -0.5710
 3994SOL    HW123615   4.682   2.552   1.677 -2.3836 -0.7025 -1.3993
 3994SOL    HW223616   0.064   2.588   1.586 -0.0731  1.7471 -0.5335
 3995SOL     OW23617   2.519   2.484   2.573  0.8883 -0.0394  0.1576
 3995SOL    HW123618   2.438   2.467   2.621 -0.0244  0.8851 -1.0580
 3995SOL    HW223619   2.548   2.567   2.609 -0.3111 -0.1899  1.4705
 3996SOL     OW23620   4.246   1.434   3.822  0.3198 -0.0856  0.3596
 3996SOL    HW123621   4.255   1.364   3.758  3.6580 -1.5760  2.4565
 3996SOL    HW223622   4.194   1.390   3.890  0.3856  0.0022  0.4663
 3997SOL     OW23623   2.612   0.271  10.441 -0.4806 -0.2014  0.0931
 3997SOL    HW123624   2.603   0.271  10.536 -0.6378  4.0347  0.0764
 3997SOL    HW223625   2.566   0.350  10.414  0.4383  0.0791 -0.6530
 3998SOL     OW23626   4.075   1.673   8.275 -0.0278  0.2087 -0.1697
 3998SOL    HW123627   4.006   1.661   8.210 -0.9083 -2.1241  1.1719
 3998SOL    HW223628   4.038   1.617   8.344  0.3780 -1.9955 -1.7480
 3999SOL     OW23629   0.230   0.075   9.083 -0.3668  0.0757  0.3034
 3999SOL    HW123630   0.181   0.140   9.134 -1.4132  0.0822 -0.7250
 3999SOL    HW223631   0.268   0.036   9.162  2.3777  0.0072 -1.0515
 4000SOL     OW23632   4.013   0.708   8.641  0.4961  0.1134  0.4549
 4000SOL    HW123633   3.927   0.671   8.656 -0.3521  1.8345 -0.2047
 4000SOL    HW223634   4.055   0.698   8.727 -0.6424  1.8184  1.2226
 4001SOL     OW23635   3.513   4.047  14.728  0.2285  0.5207 -0.0247
 4001SOL    HW123636   3.433   4.016  14.769 -0.1714  2.5517  0.7034
 4001SOL    HW223637   3.581   4.045  14.795 -0.2225  0.5017  0.4257
 4002SOL     OW23638   3.955   0.299   2.133 -0.6642 -0.2309 -0.2096
 4002SOL    HW123639   3.991   0.345   2.057 -1.6137  0.8615  0.0005
 4002SOL    HW223640   3.866   0.336   2.135 -1.4748 -2.1354 -1.2218
 4003SOL     OW23641   2.705   2.878  17.508  0.5068 -0.1023  0.0948
 4003SOL    HW123642   2.710   2.974  17.508  0.6872 -0.1112  0.5294
 4003SOL    HW223643   2.675   2.851  17.595 -0.0038  2.5308  0.7355
 4004SOL     OW23644   2.044   3.313   4.474  0.2010  0.2697  0.5070
 4004SOL    HW123645   1.969   3.335   4.529  0.7027  0.6882  1.0203
 4004SOL    HW223646   2.001   3.245   4.422 -1.1364  1.4465  0.0560
 4005SOL     OW23647   0.616   4.339   0.903  0.3589 -0.1466  0.9227
 4005SOL    HW123648   0.535   4.291   0.918 -0.6266  0.9154 -1.0840
 4005SOL    HW223649   0.639   4.314   0.814 -1.1476  1.0788  0.2036
 4006SOL     OW23650   0.778   0.596  10.051 -0.2803 -0.3879 -0.3908
 4006SOL    HW123651   0.845   0.557  10.107  0.4797 -1.0443 -1.7642
 4006SOL    HW223652   0.706   0.537  10.072  0.4850 -0.5662  1.7808
 4007SOL     OW23653   4.408   1.774   4.097 -0.4270 -0.0796  0.5126
 4007SOL    HW123654   4.364   1.724   4.166  0.1488 -3.0253 -1.2409
 4007SOL    HW223655   4.397   1.729   4.013 -0.8243 -0.8071  0.9473
 4008SOL     OW23656   3.803   3.652   3.041  0.2917  0.1727  0.0287
 4008SOL    HW123657   3.758   3.594   3.103 -1.5937  1.2799 -0.2818
 4008SOL    HW223658   3.739   3.683   2.976 -0.3106  0.4839  0.7573
 4009SOL     OW23659   2.682   1.690  12.063  0.3201 -0.2108 -0.1008
 4009SOL    HW123660   2.667   1.771  12.112  0.1138 -0.0963 -0.3556
 4009SOL    HW223661   2.610   1.628  12.076  0.4185  0.2120  2.4697
 4010SOL     OW23662   0.690   3.886   0.657  0.2172 -0.3554  0.5708
 4010SOL    HW123663   0.634   3.817   0.621 -1.8472  2.4974 -1.6465
 4010SOL    HW223664   0.776   3.864   0.621 -1.2036 -1.5586 -2.0963
 4011SOL     OW23665   0.327   1.352   2.742  0.7169 -0.5045 -0.5870
 4011SOL    HW123666   0.297   1.396   2.662  0.4140  0.6665  0.1747
 4011SOL    HW223667   0.303   1.414   2.812  3.3443  0.4684 -0.5521
 4012SOL     OW23668   0.400   3.476   7.992  0.0074 -0.7652  0.0166
 4012SOL    HW123669   0.399   3.402   8.053  2.2262 -0.3613  0.5378
 4012SOL    HW223670   0.495   3.484   7.986  0.0346 -1.0384  0.0750
 4013SOL     OW23671   2.890   2.701   2.384 -0.0574 -0.5230  0.1347
 4013SOL    HW123672   2.879   2.794   2.407 -0.8282 -0.1261 -1.8291
 4013SOL    HW223673   2.958   2.700   2.316  0.5420 -1.2355  0.7499
 4014SOL     OW23674   1.642   2.872  16.066 -0.0997 -0.5676  0.4348
 4014SOL    HW123675   1.654   2.826  16.149 -1.2371  0.9578  1.4253
 4014SOL    HW223676   1.591   2.952  16.080  2.6403  1.7432 -2.8033
 4015SOL     OW23677   1.384   2.013   3.042 -0.2631 -0.1528 -0.1880
 4015SOL    HW123678   1.323   2.072   3.086 -1.2468 -1.2468 -0.0658
 4015SOL    HW223679   1.431   1.985   3.121 -0.6586  0.1629  0.1601
 4016SOL     OW23680   3.596   2.865   3.121 -0.1008  0.0904 -0.2998
 4016SOL    HW123681   3.628   2.776   3.137  0.5535  0.3664 -0.1166
 4016SOL    HW223682   3.674   2.912   3.095  1.2945 -2.2153 -0.2552
 4017SOL     OW23683   3.520   4.273   2.651  0.1192  0.7837  0.3752
 4017SOL    HW123684   3.499   4.366   2.643  0.5010  0.9154  0.8926
 4017SOL    HW223685   3.525   4.246   2.559 -2.5145 -0.5984  0.6467
 4018SOL     OW23686   2.843   0.299   5.918  0.3087  0.1040 -0.3983
 4018SOL    HW123687   2.763   0.350   5.908  0.3822  0.3970  0.5418
 4018SOL    HW223688   2.894   0.369   5.958  2.7509 -1.1698 -1.2591
 4019SOL     OW23689   3.212   4.611   3.916 -0.1534  0.0828 -0.4360
 4019SOL    HW123690   3.208   4.554   3.993  1.7260 -0.6291 -0.8825
 4019SOL    HW223691   3.306   4.615   3.902 -0.0470 -0.1119  0.2341
 4020SOL     OW23692   1.207   0.867   3.123 -0.0306 -0.0435 -0.2791
 4020SOL    HW123693   1.186   0.917   3.202 -1.2909 -0.0925 -0.5920
 4020SOL    HW223694   1.121   0.834   3.098  1.3089 -1.6313 -2.7955
 4021SOL     OW23695   4.303   0.288  14.139  0.0190  0.0714  0.5234
 4021SOL    HW123696   4.350   0.269  14.058 -1.6516  0.0710 -0.4670
 4021SOL    HW223697   4.268   0.376  14.127  1.1768  0.0093 -3.1532
 4022SOL     OW23698   0.297   0.818   6.252  0.0972  0.2452  0.4379
 4022SOL    HW123699   0.293   0.831   6.347 -1.3860  4.1735 -0.1867
 4022SOL    HW223700   0.207   0.787   6.237  0.3609 -0.1582 -0.2939
 4023SOL     OW23701   1.997   4.596   2.567 -0.1460  0.0060 -0.1286
 4023SOL    HW123702   1.955   4.593   2.652 -4.2668 -1.4064 -2.2112
 4023SOL    HW223703   2.048   4.515   2.563  3.0642  1.9213  1.6230
 4024SOL     OW23704   2.254   2.447  15.746 -0.1340 -0.4761 -0.5282
 4024SOL    HW123705   2.311   2.434  15.670 -0.8403 -1.1481 -0.9431
 4024SOL    HW223706   2.209   2.364  15.729 -0.8189 -0.8281  2.9865
 4025SOL     OW23707   0.551   0.863  14.398 -0.1168 -0.1772 -0.7546
 4025SOL    HW123708   0.511   0.919  14.464  1.0277  0.5747 -0.6836
 4025SOL    HW223709   0.533   0.773  14.425  0.9442  0.1776  1.1562
 4026SOL     OW23710   2.888   1.087  15.275 -0.0988  0.0303 -0.0207
 4026SOL    HW123711   2.956   1.118  15.334  0.7718 -0.0390 -0.9887
 4026SOL    HW223712   2.808   1.109  15.323  1.0356  3.1266  0.4497
 4027SOL     OW23713   1.016   1.404   7.222  0.0746  0.0110  0.1820
 4027SOL    HW123714   1.049   1.434   7.307  1.1574 -1.3709  0.2467
 4027SOL    HW223715   1.004   1.484   7.171  1.8415 -2.2124 -3.7145
 4028SOL     OW23716   3.498   3.390   8.841 -0.2906  1.0583  0.0935
 4028SOL    HW123717   3.567   3.340   8.884 -0.7730  2.4368  2.4662
 4028SOL    HW223718   3.531   3.480   8.846  0.1681  0.9249 -0.6594
 4029SOL     OW23719   3.546   2.951   4.975 -0.4580  0.2032  0.6768
 4029SOL    HW123720   3.587   2.991   4.898 -2.0338 -0.6712 -0.6340
 4029SOL    HW223721   3.618   2.907   5.020  0.8475  0.4720 -1.1448
 4030SOL     OW23722   4.641   3.823   2.681  0.0570  0.1500  0.4570
 4030SOL    HW123723   4.589   3.745   2.664  1.1456 -0.3592 -0.5974
 4030SOL    HW223724   4.728   3.784   2.689 -0.5772 -0.4857  4.0073
 4031SOL     OW23725   1.506   1.464   8.130 -0.2935  0.0048  0.2259
 4031SOL    HW123726   1.559   1.400   8.177  0.2908 -0.7231 -1.4379
 4031SOL    HW223727   1.569   1.499   8.067 -0.1971 -2.2109 -0.9043
 4032SOL     OW23728   1.141   0.763  17.457 -0.3404  0.2094  0.2590
 4032SOL    HW123729   1.078   0.826  17.491 -0.7372  1.6270 -3.1590
 4032SOL    HW223730   1.124   0.773  17.364 -2.4355  0.4499  0.6845
 4033SOL     OW23731   1.798   1.247  14.957 -0.0232  0.0714  0.1373
 4033SOL    HW123732   1.883   1.275  14.923 -0.4924  2.5861  1.0321
 4033SOL    HW223733   1.743   1.303  14.903  2.7191  1.7161 -0.9721
 4034SOL     OW23734   0.556   3.818   2.183  0.3655  0.7177 -0.4457
 4034SOL    HW123735   0.513   3.871   2.251  1.4717  0.3450  0.5475
 4034SOL    HW223736   0.606   3.760   2.240  0.0172 -0.6009 -1.4952
 4035SOL     OW23737   4.463   0.364   5.318  0.1286 -0.9600  0.9658
 4035SOL    HW123738   4.476   0.455   5.344 -2.1474  0.3316 -2.3756
 4035SOL    HW223739   4.479   0.366   5.224 -1.5262 -2.1576  0.6580
 4036SOL     OW23740   1.530   2.429   4.013 -0.1647 -0.5450  0.0580
 4036SOL    HW123741   1.611   2.460   4.053 -0.0677  0.5605 -0.9995
 4036SOL    HW223742   1.561   2.424   3.922  0.8412 -1.2210  0.4275
 4037SOL     OW23743   0.802   2.148   2.359 -0.6097  0.1139  0.5066
 4037SOL    HW123744   0.751   2.211   2.309 -2.6634 -1.5253  0.5456
 4037SOL    HW223745   0.811   2.197   2.440  1.1974 -0.2735  0.5574
 4038SOL     OW23746   1.583   2.448   8.234 -0.3346 -0.2080 -0.5256
 4038SOL    HW123747   1.575   2.467   8.328 -0.6426  1.2028 -0.8419
 4038SOL    HW223748   1.614   2.533   8.202 -0.7320 -0.1510 -0.7670
 4039SOL     OW23749   1.152   3.103   7.953 -0.7786  0.4689  0.6678
 4039SOL    HW123750   1.200   3.185   7.968  0.5836  0.2224 -2.4803
 4039SOL    HW223751   1.081   3.131   7.896 -0.4567 -1.8729 -0.8812
 4040SOL     OW23752   4.001   3.453   2.294  0.2196  0.5502 -0.5130
 4040SOL    HW123753   3.917   3.416   2.268 -0.5349 -0.2105  2.9209
 4040SOL    HW223754   3.994   3.457   2.390  1.1201 -0.5228 -0.4098
 4041SOL     OW23755   3.583   4.171   4.194 -0.2245  0.6754 -0.1131
 4041SOL    HW123756   3.556   4.128   4.113  0.0753 -1.1447  0.7720
 4041SOL    HW223757   3.531   4.125   4.259  0.4907 -0.5963 -0.4542
 4042SOL     OW23758   4.345   1.752   6.524 -0.5181  0.1372 -0.3849
 4042SOL    HW123759   4.258   1.716   6.509  0.8302 -2.4640 -2.0600
 4042SOL    HW223760   4.380   1.767   6.436 -0.7296  0.5208 -0.4024
 4043SOL     OW23761   2.208   4.024  17.325 -0.2576 -0.0468 -0.0781
 4043SOL    HW123762   2.178   4.105  17.366 -0.2608  0.7840 -1.7377
 4043SOL    HW223763   2.291   4.058  17.290 -0.9663  1.7047 -0.0252
 4044SOL     OW23764   0.749   0.655   0.452  0.8997  0.5051 -0.1758
 4044SOL    HW123765   0.693   0.706   0.510  2.1929  2.5626 -0.7321
 4044SOL    HW223766   0.825   0.642   0.508  0.9745  0.8913 -0.1858
 4045SOL     OW23767   0.919   4.173   3.561 -0.1627 -0.3668  0.4185
 4045SOL    HW123768   0.885   4.089   3.593  0.5836 -1.2524 -1.1729
 4045SOL    HW223769   0.937   4.160   3.468  0.6829 -1.0285  0.6849
 4046SOL     OW23770   1.913   2.822   7.405  0.8323  0.1426  0.4754
 4046SOL    HW123771   1.858   2.900   7.408 -1.9662 -1.7771 -0.2471
 4046SOL    HW223772   1.893   2.788   7.493  0.8205  0.5477  0.6298
 4047SOL     OW23773   0.419   2.373   8.308  0.2195  0.1743  0.3398
 4047SOL    HW123774   0.385   2.450   8.261 -0.4623  0.1713  0.8278
 4047SOL    HW223775   0.337   2.362   8.355 -0.1755 -0.4729 -0.5001
 4048SOL     OW23776   4.437   2.701  16.280 -0.0052  0.1880  0.0555
 4048SOL    HW123777   4.469   2.627  16.229 -0.8793 -1.3642  1.7768
 4048SOL    HW223778   4.344   2.695  16.257 -0.2235 -2.2234  1.6470
 4049SOL     OW23779   3.893   2.403   4.740  0.2337  0.1110  0.2709
 4049SOL    HW123780   3.961   2.336   4.732 -0.6697 -0.9375  1.3167
 4049SOL    HW223781   3.905   2.415   4.834 -2.6843  2.7890  0.2840
 4050SOL     OW23782   1.498   1.116   8.095 -0.0886 -0.2436  0.0608
 4050SOL    HW123783   1.415   1.160   8.078  0.5266  0.5942 -0.7543
 4050SOL    HW223784   1.551   1.166   8.033 -0.5925 -0.9188 -0.9313
 4051SOL     OW23785   3.391   1.529   1.775  0.3922 -0.1441  0.1661
 4051SOL    HW123786   3.464   1.590   1.771 -1.7024  2.4508  1.5992
 4051SOL    HW223787   3.314   1.579   1.801  1.5670  0.3693  2.6264
 4052SOL     OW23788   0.155   2.938   4.037 -0.1360  0.3495 -0.2465
 4052SOL    HW123789   0.074   2.913   4.082  0.9498  0.5205  1.7987
 4052SOL    HW223790   0.211   2.956   4.113  0.1476 -0.9390 -0.1485
 4053SOL     OW23791   0.157   1.651   6.917 -0.2089 -0.1793  0.2593
 4053SOL    HW123792   0.070   1.684   6.942 -0.4285 -0.4444 -0.1563
 4053SOL    HW223793   0.189   1.617   7.001 -0.0070 -1.7479 -0.4611
 4054SOL     OW23794   2.122   1.595  16.947 -0.0692 -0.0843 -0.6470
 4054SOL    HW123795   2.119   1.499  16.951  1.5510 -0.1053  0.1708
 4054SOL    HW223796   2.210   1.600  16.983 -0.2626  1.5290 -0.4331
 4055SOL     OW23797   0.100   1.887   1.934 -0.6307 -0.0946 -0.1996
 4055SOL    HW123798   0.062   1.807   1.896 -0.8852  0.7654 -1.7692
 4055SOL    HW223799   0.126   1.857   2.021 -1.9706 -1.1256 -0.1499
 4056SOL     OW23800   0.675   3.308   4.527  0.3719  0.6284  0.0905
 4056SOL    HW123801   0.744   3.272   4.583 -0.1239 -0.5335 -0.0425
 4056SOL    HW223802   0.667   3.401   4.545  1.8990  0.7403  0.1992
 4057SOL     OW23803   0.284   4.654   4.981  0.4108  0.2463  0.2786
 4057SOL    HW123804   0.236   4.616   4.908 -0.4298  0.2983  0.7974
 4057SOL    HW223805   0.375   4.636   4.958 -0.6477  1.3803 -4.7373
 4058SOL     OW23806   4.415   0.297   9.543 -0.4351 -0.5925  0.6702
 4058SOL    HW123807   4.470   0.375   9.547  0.5994 -1.2592 -0.5303
 4058SOL    HW223808   4.378   0.292   9.631 -0.5058  0.8101  0.7192
 4059SOL     OW23809   1.183   1.930   8.314 -0.6407 -0.2962  0.3774
 4059SOL    HW123810   1.260   1.974   8.349  0.5713 -0.8860 -1.5870
 4059SOL    HW223811   1.205   1.839   8.328  2.0893  0.4180  0.5888
 4060SOL     OW23812   2.430   4.160  12.212 -0.2950 -0.2205  0.3665
 4060SOL    HW123813   2.385   4.196  12.136  0.4629 -1.1757 -0.5213
 4060SOL    HW223814   2.386   4.076  12.222  2.6906 -1.8278 -0.1113
 4061SOL     OW23815   3.559   1.285   2.258 -0.1451  0.1334 -0.6649
 4061SOL    HW123816   3.638   1.279   2.312 -0.2729 -0.0052 -0.4923
 4061SOL    HW223817   3.559   1.378   2.236 -1.7633  0.1802 -0.4918
 4062SOL     OW23818   1.387   1.810   0.824 -0.3903 -0.1896 -0.0177
 4062SOL    HW123819   1.331   1.737   0.849  0.9965 -0.9464  0.9007
 4062SOL    HW223820   1.409   1.781   0.736  2.2437  0.0598  0.5273
 4063SOL     OW23821   3.005   4.664  15.495  0.2800 -0.0528 -0.1080
 4063SOL    HW123822   2.999   0.007  15.551  1.7662 -0.5509  0.7575
 4063SOL    HW223823   3.101   4.663  15.496  0.2840  1.1707  1.8138
 4064SOL     OW23824   1.810   1.270   3.668  0.3995 -0.0470  0.3556
 4064SOL    HW123825   1.807   1.335   3.598 -2.9676  0.5577  1.0442
 4064SOL    HW223826   1.718   1.277   3.694 -0.0523 -0.5807 -1.1262
 4065SOL     OW23827   0.938   2.218   0.271 -0.0268 -0.4986 -0.0282
 4065SOL    HW123828   0.961   2.201   0.179 -0.2866 -0.3137 -0.1281
 4065SOL    HW223829   0.892   2.137   0.294  0.0819  0.0992  2.2654
 4066SOL     OW23830   3.827   0.126   8.354  0.5837  0.2241 -0.2339
 4066SOL    HW123831   3.893   0.184   8.316  0.6757  0.1189 -0.2364
 4066SOL    HW223832   3.758   0.191   8.367  0.8887  0.5105 -0.0429
 4067SOL     OW23833   0.054   4.271   4.628 -0.6650 -0.9232 -0.3374
 4067SOL    HW123834   0.127   4.281   4.567 -0.2525  0.1179  0.3385
 4067SOL    HW223835   0.106   4.265   4.708 -1.3155  2.0268  0.3128
 4068SOL     OW23836   2.231   0.717   1.428  0.1008  0.0410  0.2421
 4068SOL    HW123837   2.247   0.811   1.434  1.1943 -0.2777  2.2109
 4068SOL    HW223838   2.316   0.678   1.406 -0.0319  0.3105 -0.7637
 4069SOL     OW23839   4.236   4.274   0.800  0.5682  0.2997  0.1033
 4069SOL    HW123840   4.171   4.327   0.847  0.7929 -1.6020  2.5112
 4069SOL    HW223841   4.239   4.317   0.715 -3.1100 -1.2894 -0.8436
 4070SOL     OW23842   2.430   3.839   6.005  0.0792 -0.3019 -0.0648
 4070SOL    HW123843   2.418   3.758   6.054 -0.1451 -0.2185  0.0202
 4070SOL    HW223844   2.428   3.894   6.084  0.6058 -0.5665  0.1341
 4071SOL     OW23845   0.538   1.077   5.249 -0.1817  0.3373  0.1773
 4071SOL    HW123846   0.495   0.996   5.276  1.6940 -0.6283  0.2244
 4071SOL    HW223847   0.583   1.098   5.331 -0.6819  1.3129  0.2053
 4072SOL     OW23848   1.753   1.860   9.710  0.2072 -0.3955  0.0639
 4072SOL    HW123849   1.701   1.897   9.781 -0.7650 -1.7974  0.0757
 4072SOL    HW223850   1.779   1.770   9.732 -0.6963 -0.6067  0.2634
 4073SOL     OW23851   3.464   3.239  17.518  0.1017 -0.1062 -0.0454
 4073SOL    HW123852   3.398   3.300  17.549  1.3779  1.2223  0.0521
 4073SOL    HW223853   3.511   3.301  17.463  0.0241 -0.8301 -0.9237
 4074SOL     OW23854   0.425   2.180   4.877 -0.2457 -0.4116 -0.2244
 4074SOL    HW123855   0.392   2.257   4.925  0.0607  0.0988 -0.8324
 4074SOL    HW223856   0.415   2.120   4.951  0.6168  2.7181  2.4306
 4075SOL     OW23857   2.721   4.073   7.776 -0.7621 -0.2342  0.6311
 4075SOL    HW123858   2.766   4.153   7.803  0.4430 -0.6935 -0.0292
 4075SOL    HW223859   2.731   4.055   7.683  2.5946 -0.7176  1.0614
 4076SOL     OW23860   3.450   0.281   9.222 -0.1277  0.5089 -0.1192
 4076SOL    HW123861   3.356   0.295   9.215 -0.1947  0.8634  1.6455
 4076SOL    HW223862   3.454   0.198   9.269 -0.3704 -0.5934 -2.0087
 4077SOL     OW23863   2.904   4.367  17.239  0.0102 -0.0495 -0.3790
 4077SOL    HW123864   2.873   4.288  17.283  0.6214  0.1256  0.3695
 4077SOL    HW223865   2.998   4.350  17.241  0.1466  1.0256  3.0602
 4078SOL     OW23866   4.010   0.476  14.072  0.1080  0.1998 -0.1045
 4078SOL    HW123867   4.039   0.475  13.981  2.2840  0.3219  0.5897
 4078SOL    HW223868   4.088   0.506  14.119 -0.4442  0.3182  0.7239
 4079SOL     OW23869   2.731   3.673   9.233 -0.1935  0.4560 -0.6191
 4079SOL    HW123870   2.697   3.657   9.145  0.7060 -3.6628 -0.1982
 4079SOL    HW223871   2.651   3.684   9.286 -0.1393 -0.1955 -0.4069
 4080SOL     OW23872   3.071   1.403   4.542 -0.0672  0.0205  0.1636
 4080SOL    HW123873   3.051   1.430   4.632 -0.5467 -1.0977  0.3998
 4080SOL    HW223874   3.053   1.486   4.497  0.3378  0.3129  0.5469
 4081SOL     OW23875   4.095   0.368  15.953 -0.6997 -0.2768  0.0301
 4081SOL    HW123876   4.006   0.343  15.931 -0.7449  2.0538 -2.4972
 4081SOL    HW223877   4.133   0.282  15.971 -1.3431 -1.0354 -2.2374
 4082SOL     OW23878   4.172   0.430  11.715 -0.0636 -0.0312  0.3718
 4082SOL    HW123879   4.245   0.484  11.744 -0.5534  0.6194  0.3801
 4082SOL    HW223880   4.222   0.375  11.654 -1.7547  0.3613 -1.3630
 4083SOL     OW23881   2.293   2.519   2.735  0.3313 -0.2675  0.5208
 4083SOL    HW123882   2.265   2.600   2.778 -0.2028 -0.1181 -0.1068
 4083SOL    HW223883   2.321   2.457   2.802  2.4826  2.0893  1.8142
 4084SOL     OW23884   4.577   4.571  11.185 -0.2247 -0.4965 -0.7744
 4084SOL    HW123885   4.637   4.612  11.247 -0.0137  0.7921 -1.8197
 4084SOL    HW223886   4.640   4.516  11.139 -0.5148 -2.5708  1.3311
 4085SOL     OW23887   3.096   3.849   4.702  0.1338 -0.0800 -0.1032
 4085SOL    HW123888   3.133   3.909   4.637  1.7167 -1.5698 -0.6073
 4085SOL    HW223889   3.028   3.903   4.741 -0.8592 -0.9859 -0.5900
 4086SOL     OW23890   0.777   1.024   9.565 -0.8569  0.0193  0.5039
 4086SOL    HW123891   0.742   1.103   9.606 -0.6384  0.7811 -0.8002
 4086SOL    HW223892   0.699   0.992   9.520 -1.2844  1.7039  0.0647
 4087SOL     OW23893   1.797   1.844   1.432 -0.7278 -0.0114 -0.0217
 4087SOL    HW123894   1.769   1.827   1.342 -1.2286  0.1567  0.0987
 4087SOL    HW223895   1.790   1.757   1.471 -1.0476 -0.5758 -1.3521
 4088SOL     OW23896   0.403   0.982   3.819 -0.8214 -0.3197  0.4942
 4088SOL    HW123897   0.334   1.010   3.759 -0.4074  0.0910  0.2190
 4088SOL    HW223898   0.480   0.971   3.763 -0.1992  2.1606  0.8440
 4089SOL     OW23899   1.082   2.916   7.004 -0.0790  0.3381 -0.0209
 4089SOL    HW123900   1.099   2.925   7.098  0.1936 -1.5742  0.1210
 4089SOL    HW223901   0.987   2.929   7.015 -0.4426 -1.0214 -1.5333
 4090SOL     OW23902   2.047   0.748   4.588  0.2229  0.7872  0.4520
 4090SOL    HW123903   2.138   0.721   4.579 -0.0734 -0.4243  1.0428
 4090SOL    HW223904   2.063   0.841   4.572 -1.0126  1.0083  0.4530
 4091SOL     OW23905   3.319   4.655  12.028 -0.1749  0.0159  0.3492
 4091SOL    HW123906   3.389   4.716  12.004 -0.2535  0.1123  0.3648
 4091SOL    HW223907   3.284   4.704  12.103  1.2388 -0.2166  1.1663
 4092SOL     OW23908   0.897   0.104   4.841 -0.3227  0.3450 -0.4733
 4092SOL    HW123909   0.985   0.109   4.880 -0.7387 -0.8951  0.6119
 4092SOL    HW223910   0.917   0.123   4.749 -2.3662 -1.4217 -1.2802
 4093SOL     OW23911   0.129   4.697   0.968  0.5724  0.1965 -0.4243
 4093SOL    HW123912   0.094   4.609   0.960  0.6045  0.2084 -0.7014
 4093SOL    HW223913   0.141   4.687   1.062 -0.3513 -0.4064 -0.3685
 4094SOL     OW23914   4.643   0.601   1.421  0.0495 -0.2360 -0.4274
 4094SOL    HW123915   4.643   0.606   1.325 -1.2546  1.7552 -0.3099
 4094SOL    HW223916   4.584   0.672   1.443 -1.0019  0.1148 -4.3854
 4095SOL     OW23917   2.490   1.184  12.130 -0.4234 -0.2888 -0.5743
 4095SOL    HW123918   2.415   1.243  12.120 -0.5797 -0.3535  0.2056
 4095SOL    HW223919   2.514   1.188  12.223 -0.1383  1.0411 -0.7038
 4096SOL     OW23920   2.336   2.321   6.016 -0.2157  0.8983  0.7011
 4096SOL    HW123921   2.313   2.247   5.959  2.0727 -0.2929  1.3491
 4096SOL    HW223922   2.422   2.353   5.991  0.0265 -0.2192  0.0843
 4097SOL     OW23923   4.477   1.585   5.894  0.1695  0.2405 -0.5675
 4097SOL    HW123924   4.487   1.662   5.949 -1.2731  0.4636 -0.6188
 4097SOL    HW223925   4.382   1.587   5.885  0.3076 -0.4424 -2.1419
 4098SOL     OW23926   3.351   1.668   4.390 -0.2625  0.0882 -0.3373
 4098SOL    HW123927   3.265   1.695   4.419 -0.3166 -1.3920  0.8871
 4098SOL    HW223928   3.363   1.590   4.444 -3.5664  0.0883  0.3756
 4099SOL     OW23929   3.081   1.822   6.214 -0.0245  0.2582 -0.3235
 4099SOL    HW123930   3.072   1.836   6.309  1.6065 -0.9346  0.0019
 4099SOL    HW223931   3.018   1.886   6.179 -1.5248 -0.1538  1.6409
 4100SOL     OW23932   0.926   3.815   9.970  0.0150  0.3043  0.5732
 4100SOL    HW123933   0.980   3.801   9.893 -0.0263  1.1832  0.3890
 4100SOL    HW223934   0.962   3.753  10.033  0.4338 -0.3163 -0.2870
 4101SOL     OW23935   1.329   0.841  11.149 -0.9525  0.4768  0.0907
 4101SOL    HW123936   1.268   0.796  11.208  0.6568 -0.9937  0.6331
 4101SOL    HW223937   1.332   0.923  11.199  1.7817  0.7595 -0.5410
 4102SOL     OW23938   2.922   4.020   9.864 -0.6218 -0.5486  0.5741
 4102SOL    HW123939   3.010   4.040   9.834 -0.4352 -2.7045 -0.3011
 4102SOL    HW223940   2.914   4.097   9.920  0.5635  0.7265 -1.0027
 4103SOL     OW23941   0.091   3.304   3.180  0.7652  0.2583 -0.4288
 4103SOL    HW123942   0.025   3.329   3.115 -0.5551  1.0674  1.2512
 4103SOL    HW223943   0.044   3.318   3.262 -1.1967 -1.2292 -1.3177
 4104SOL     OW23944   0.255   3.640   4.218  0.7195 -0.0620 -0.4094
 4104SOL    HW123945   0.195   3.587   4.165 -1.2762 -0.2114  2.0091
 4104SOL    HW223946   0.217   3.727   4.231  1.5027  0.0098  1.2581
 4105SOL     OW23947   4.597   2.200   8.706  0.9566 -0.9509  0.5385
 4105SOL    HW123948   4.550   2.144   8.769 -0.3108 -1.2365 -0.6704
 4105SOL    HW223949   4.655   2.237   8.773 -1.2221  1.7010  0.9312
 4106SOL     OW23950   4.344   0.348   3.839 -0.0258 -0.1209  0.4164
 4106SOL    HW123951   4.387   0.362   3.754 -1.0959  1.1369  0.0833
 4106SOL    HW223952   4.282   0.420   3.846 -0.6856 -0.4992 -1.5986
 4107SOL     OW23953   4.697   0.367   6.377 -0.7395 -0.5017  0.0022
 4107SOL    HW123954   4.628   0.301   6.376 -0.3144 -0.9781  2.6808
 4107SOL    HW223955   0.022   0.338   6.445 -1.5727 -0.5508  0.7169
 4108SOL     OW23956   0.393   3.508  14.195  0.2819 -0.5869 -0.0362
 4108SOL    HW123957   0.452   3.438  14.221  4.0030  1.4531 -2.8459
 4108SOL    HW223958   0.318   3.453  14.172  0.7213 -0.3594 -2.0869
 4109SOL     OW23959   1.925   0.101  16.611  0.1212 -0.0950 -0.0424
 4109SOL    HW123960   1.990   0.144  16.667 -1.5635  2.0235  0.2934
 4109SOL    HW223961   1.964   0.084  16.525  0.3184  0.9729 -0.1695
 4110SOL     OW23962   2.569   1.872   1.341  0.2287 -0.3366  0.4931
 4110SOL    HW123963   2.620   1.818   1.402  0.0417 -0.5751  0.4382
 4110SOL    HW223964   2.486   1.855   1.385  1.2879  0.4089  2.7490
 4111SOL     OW23965   1.191   4.454  15.540 -0.6410  0.4140 -0.5180
 4111SOL    HW123966   1.239   4.533  15.562  1.1822 -1.0098  0.6039
 4111SOL    HW223967   1.222   4.439  15.451  1.8808  0.5427  0.3321
 4112SOL     OW23968   1.192   2.997   7.291  1.0894  0.3108  0.2754
 4112SOL    HW123969   1.249   2.928   7.325 -0.3075 -0.4265  1.1115
 4112SOL    HW223970   1.251   3.043   7.231 -0.6165  0.6843 -1.1162
 4113SOL     OW23971   3.312   4.361   1.013 -0.0369  0.2028  0.4500
 4113SOL    HW123972   3.228   4.342   0.971  0.4258 -0.0708 -0.3543
 4113SOL    HW223973   3.351   4.276   1.033  0.9423  0.4295 -0.4441
 4114SOL     OW23974   1.700   1.412   3.172 -0.4812 -0.9283  0.1880
 4114SOL    HW123975   1.764   1.417   3.101 -3.0306 -0.6499 -2.1122
 4114SOL    HW223976   1.707   1.318   3.190 -4.2269 -1.4459 -1.0271
 4115SOL     OW23977   3.831   3.971   6.887  0.7246 -0.4483 -0.2271
 4115SOL    HW123978   3.805   3.999   6.974 -0.2131 -1.7427 -0.1013
 4115SOL    HW223979   3.746   3.977   6.844 -0.6904 -2.2390  2.4037
 4116SOL     OW23980   2.989   4.539   2.449  0.2360  0.5614  0.5532
 4116SOL    HW123981   2.975   4.487   2.370  1.1718  0.0908  0.6985
 4116SOL    HW223982   3.061   4.500   2.501  0.6450 -2.6529 -2.4237
 4117SOL     OW23983   1.056   4.410   7.073 -0.2639  0.2363  0.7453
 4117SOL    HW123984   0.965   4.395   7.048 -0.2263  0.1164  0.6837
 4117SOL    HW223985   1.099   4.380   6.993 -0.5816 -1.3078  1.1573
 4118SOL     OW23986   0.456   0.484   3.339  0.0410  0.5994 -0.3025
 4118SOL    HW123987   0.410   0.509   3.259  0.4638  2.2053 -0.0425
 4118SOL    HW223988   0.527   0.548   3.332  1.6185 -1.1850 -0.7366
 4119SOL     OW23989   0.712   1.981   7.942 -0.3171 -0.1504  0.2062
 4119SOL    HW123990   0.737   1.900   7.896 -1.8558  0.4900 -1.7766
 4119SOL    HW223991   0.788   2.039   7.933  1.5581 -2.7499 -0.8326
 4120SOL     OW23992   2.653   0.800   4.012  0.1017  0.1992 -0.5410
 4120SOL    HW123993   2.705   0.722   3.995 -0.3829 -0.3487  0.5060
 4120SOL    HW223994   2.624   0.775   4.100 -0.2294 -2.3812 -1.3979
 4121SOL     OW23995   2.718   0.644   7.906 -0.3447 -0.1623  0.3455
 4121SOL    HW123996   2.793   0.591   7.877 -0.0289 -0.8037  2.3157
 4121SOL    HW223997   2.662   0.571   7.933 -1.6770  0.8136  0.2014
 4122SOL     OW23998   1.221   0.484   1.983  0.2307 -0.2505 -0.1743
 4122SOL    HW123999   1.311   0.511   2.001  0.6062 -1.6241  0.0085
 4122SOL    HW224000   1.186   0.455   2.068 -0.5390 -0.4175 -0.5425
 4123SOL     OW24001   2.377   4.500  10.216 -0.3040 -0.0343 -0.3997
 4123SOL    HW124002   2.313   4.437  10.181 -0.1023 -0.1961 -0.4814
 4123SOL    HW224003   2.355   4.574  10.160  2.6591  1.3140  0.2233
 4124SOL     OW24004   3.434   1.326   1.998  0.0469 -0.0379 -0.0468
 4124SOL    HW124005   3.530   1.326   1.987  0.1071  1.0491  0.4631
 4124SOL    HW224006   3.422   1.383   1.923 -1.0198 -1.4334 -0.9255
 4125SOL     OW24007   0.819   3.915   6.986  0.5762  0.5158  0.8709
 4125SOL    HW124008   0.873   3.983   6.946  0.3561  0.2490  0.1299
 4125SOL    HW224009   0.861   3.840   6.943 -0.2810  0.3792  0.2754
 4126SOL     OW24010   1.650   0.179   8.189 -0.1808 -0.1911  0.2174
 4126SOL    HW124011   1.565   0.170   8.147  1.0132  0.2793 -2.2925
 4126SOL    HW224012   1.657   0.270   8.216 -0.3491  0.0538 -0.5644
 4127SOL     OW24013   2.869   1.442   5.092 -0.3048  0.1320 -0.3249
 4127SOL    HW124014   2.941   1.446   5.155 -1.2825 -0.1417  0.8160
 4127SOL    HW224015   2.812   1.511   5.126 -0.3233 -0.7366  1.4120
 4128SOL     OW24016   1.155   1.750  17.341 -0.8579 -0.2898  0.1271
 4128SOL    HW124017   1.176   1.669  17.294 -0.6136 -0.9206  1.3157
 4128SOL    HW224018   1.190   1.715  17.423  0.6191 -1.6452 -1.0657
 4129SOL     OW24019   3.440   1.117   8.409  0.5408  0.0465  0.4157
 4129SOL    HW124020   3.529   1.095   8.380 -1.2656 -2.1835 -3.4040
 4129SOL    HW224021   3.459   1.178   8.480  0.0722 -1.9502  2.2503
 4130SOL     OW24022   4.413   0.679   0.014  0.1938 -0.3935  0.0142
 4130SOL    HW124023   4.461   0.752  17.711  0.4297 -0.1048  0.8020
 4130SOL    HW224024   4.405   0.620  17.678  0.9062  0.9216 -1.1218
 4131SOL     OW24025   1.143   2.439  10.852 -0.0968  0.6239  0.0799
 4131SOL    HW124026   1.186   2.437  10.938  0.3378 -0.7127 -0.1618
 4131SOL    HW224027   1.225   2.434  10.803  0.1996  0.9638  0.5449
 4132SOL     OW24028   3.377   3.667   4.354 -0.5672 -0.0710  0.0148
 4132SOL    HW124029   3.297   3.714   4.329 -0.3878  0.7705  1.0630
 4132SOL    HW224030   3.357   3.599   4.289  2.4640 -0.3693 -0.6060
 4133SOL     OW24031   2.608   0.479   8.517 -0.4943  0.6683  0.1904
 4133SOL    HW124032   2.610   0.508   8.425 -3.2239 -1.1897 -0.4456
 4133SOL    HW224033   2.592   0.564   8.557 -0.9366  1.0274 -0.7353
 4134SOL     OW24034   2.093   1.861   2.077  0.0130  0.0811 -0.1785
 4134SOL    HW124035   2.005   1.830   2.099 -0.2019  0.0313 -1.1081
 4134SOL    HW224036   2.095   1.956   2.086  2.6868  0.1035 -0.9885
 4135SOL     OW24037   4.326   4.363   8.439 -0.2370 -0.7701  0.3221
 4135SOL    HW124038   4.315   4.435   8.377  1.6737 -0.6532  0.1368
 4135SOL    HW224039   4.285   4.394   8.520 -1.9954  1.0351 -1.2443
 4136SOL     OW24040   1.115   0.898   2.125  0.0418 -0.0939 -0.3283
 4136SOL    HW124041   1.022   0.879   2.136 -0.1704  1.1200  0.0055
 4136SOL    HW224042   1.121   0.875   2.032 -0.0280 -1.9363  0.1280
 4137SOL     OW24043   2.540   4.228   7.467  0.2207 -0.5713  0.0339
 4137SOL    HW124044   2.627   4.255   7.437 -0.3564  2.0356  0.7198
 4137SOL    HW224045   2.509   4.161   7.406 -1.6876 -0.9610  1.4331
 4138SOL     OW24046   0.623   0.160   2.820 -0.2210 -0.0193 -0.3448
 4138SOL    HW124047   0.550   0.135   2.764  0.8984 -0.4322 -1.6182
 4138SOL    HW224048   0.592   0.243   2.858  1.3787  1.3092 -1.9200
 4139SOL     OW24049   1.287   1.625   8.075 -0.2753  0.1665  0.0485
 4139SOL    HW124050   1.233   1.606   8.152 -0.6488  0.4688 -0.1361
 4139SOL    HW224051   1.370   1.582   8.096  0.7588  2.2536  0.1897
 4140SOL     OW24052   3.407   3.284   7.071 -0.7868 -0.8374  0.4231
 4140SOL    HW124053   3.461   3.271   7.149 -1.5181 -1.9191  0.7366
 4140SOL    HW224054   3.457   3.245   6.999  2.1742  0.1006  1.9693
 4141SOL     OW24055   0.799   4.425  16.765 -0.0532  0.0717 -0.1195
 4141SOL    HW124056   0.797   4.419  16.669  0.6078 -0.4053 -0.1005
 4141SOL    HW224057   0.758   4.511  16.772  0.8967  0.6293 -1.3340
 4142SOL     OW24058   2.509   0.815  16.559 -0.5481 -0.5667 -0.1469
 4142SOL    HW124059   2.508   0.887  16.496 -1.5104 -0.1686  0.3313
 4142SOL    HW224060   2.600   0.786  16.554 -0.7238 -0.9977 -0.9890
 4143SOL     OW24061   2.271   3.632   3.833  0.0841  0.0818  0.0202
 4143SOL    HW124062   2.360   3.659   3.855 -0.3666  0.7666  0.9850
 4143SOL    HW224063   2.233   3.720   3.835  0.3408  0.2074 -0.6903
 4144SOL     OW24064   1.544   2.612  16.189  0.2720  0.1073  0.2690
 4144SOL    HW124065   1.492   2.531  16.193 -3.2698  2.3641 -0.5467
 4144SOL    HW224066   1.625   2.568  16.214  0.8827  0.8436 -0.4530
 4145SOL     OW24067   3.579   1.127   4.601 -0.3935  0.6460  0.0687
 4145SOL    HW124068   3.589   1.032   4.593  0.5675  0.8114 -0.6426
 4145SOL    HW224069   3.570   1.149   4.508 -1.9996 -1.8876 -0.4061
 4146SOL     OW24070   4.732   0.700   3.129 -0.4139 -0.2823  0.1826
 4146SOL    HW124071   4.676   0.736   3.060 -0.3651 -0.5134  0.0201
 4146SOL    HW224072   4.708   0.752   3.205 -1.3535  0.1355 -0.3982
 4147SOL     OW24073   1.788   2.539   4.064  0.3077  0.3124  0.0004
 4147SOL    HW124074   1.833   2.579   4.138  2.2823 -2.2144  0.1519
 4147SOL    HW224075   1.785   2.613   4.004  2.8256  1.7180  1.6033
 4148SOL     OW24076   4.021   0.448  17.158  0.2049 -0.3016  0.1403
 4148SOL    HW124077   3.943   0.414  17.115 -0.5144  1.9153 -0.3147
 4148SOL    HW224078   4.001   0.541  17.166 -1.6253 -0.7638  0.7150
 4149SOL     OW24079   3.352   4.016  13.939  0.5176 -0.4896 -0.5012
 4149SOL    HW124080   3.446   4.031  13.933  0.6232 -0.2294  1.8538
 4149SOL    HW224081   3.325   4.014  13.847 -1.8738  1.3460  0.1611
 4150SOL     OW24082   1.129   1.320   8.168  0.7569 -0.0501  0.0599
 4150SOL    HW124083   1.045   1.362   8.155  0.4570 -0.6799 -0.0303
 4150SOL    HW224084   1.167   1.326   8.080  0.2641 -1.0025 -0.2174
 4151SOL     OW24085   2.554   0.191   9.032  0.1393 -0.1972 -0.0950
 4151SOL    HW124086   2.526   0.103   9.006  0.6602 -0.3795 -0.0564
 4151SOL    HW224087   2.625   0.211   8.970 -0.3009  2.3063  0.2074
 4152SOL     OW24088   1.022   1.058   8.426 -0.3356 -0.6467 -0.0575
 4152SOL    HW124089   0.970   1.105   8.491  0.3362 -0.9172  0.6716
 4152SOL    HW224090   1.006   1.113   8.349  0.0405  1.1462  1.1647
 4153SOL     OW24091   2.082   2.923  16.888  0.2124 -0.0604  0.6851
 4153SOL    HW124092   2.069   3.007  16.931 -0.9548  0.4188 -0.6071
 4153SOL    HW224093   2.143   2.947  16.818 -0.5304  0.5123  0.2363
 4154SOL     OW24094   4.501   3.996  11.004  0.5279 -0.6469 -0.8026
 4154SOL    HW124095   4.475   4.088  11.007 -0.7661 -1.0429  0.2729
 4154SOL    HW224096   4.594   4.009  10.988  0.9174 -0.6835  1.5684
 4155SOL     OW24097   4.340   4.216   2.687 -0.1641 -0.1601 -0.1228
 4155SOL    HW124098   4.383   4.296   2.657 -2.3398  1.4559  1.1320
 4155SOL    HW224099   4.310   4.245   2.773  1.2171  1.8125 -0.3206
 4156SOL     OW24100   0.983   4.263  11.088 -0.0176 -0.2338  0.1378
 4156SOL    HW124101   0.930   4.236  11.013  0.1633  1.9235 -0.7709
 4156SOL    HW224102   1.061   4.306  11.051 -0.8460  0.7591 -0.4323
 4157SOL     OW24103   1.952   3.373   9.048  0.8121  0.0263  0.5919
 4157SOL    HW124104   1.912   3.359   8.962 -2.2100  1.1344  1.8158
 4157SOL    HW224105   1.952   3.285   9.084 -3.1977 -0.5268 -0.7594
 4158SOL     OW24106   1.077   3.002   2.566  0.2629 -0.1202 -0.5269
 4158SOL    HW124107   1.140   3.026   2.634  1.4819  3.0138 -2.7523
 4158SOL    HW224108   1.128   2.938   2.515  0.5518  0.4494 -0.9569
 4159SOL     OW24109   3.462   2.619   9.494  0.1282 -0.0846 -0.6658
 4159SOL    HW124110   3.494   2.573   9.571 -0.8396  0.7398  0.2247
 4159SOL    HW224111   3.522   2.693   9.487  1.1644 -0.7823  0.8882
 4160SOL     OW24112   1.788   1.242  15.388  0.5436  0.1616  0.5796
 4160SOL    HW124113   1.824   1.189  15.316  1.3758  2.2150 -0.5040
 4160SOL    HW224114   1.702   1.258  15.348  1.0495 -0.7030 -0.8585
 4161SOL     OW24115   3.964   2.576   7.516 -0.7150 -0.4514 -0.3995
 4161SOL    HW124116   3.966   2.661   7.561  2.4288 -0.6461 -0.1996
 4161SOL    HW224117   3.890   2.532   7.559 -0.0174 -1.0144  0.2309
 4162SOL     OW24118   2.150   1.149   0.030  0.1134  0.2401  0.0236
 4162SOL    HW124119   2.187   1.081   0.086 -1.0903  0.5565  1.2024
 4162SOL    HW224120   2.157   1.100  17.686  1.7295 -0.1727  0.3943
 4163SOL     OW24121   1.683   4.630   4.714  0.4095  0.0424  0.3510
 4163SOL    HW124122   1.747   4.587   4.657 -2.8452 -0.5824 -2.7891
 4163SOL    HW224123   1.737   4.671   4.781  0.9369 -3.0374  1.8469
 4164SOL     OW24124   3.245   2.085   6.200 -0.0640 -0.1900  0.3930
 4164SOL    HW124125   3.201   2.001   6.187  0.2725 -0.0478 -1.6916
 4164SOL    HW224126   3.171   2.145   6.211 -0.1535 -0.0789 -0.8426
 4165SOL     OW24127   4.659   3.647   8.356 -0.1291  0.1812  0.8091
 4165SOL    HW124128   4.600   3.572   8.362  1.2567 -1.0042 -0.5455
 4165SOL    HW224129   4.613   3.708   8.414  0.0129  0.5104  0.5740
 4166SOL     OW24130   2.351   2.920   6.118 -0.0824  0.4893 -0.1851
 4166SOL    HW124131   2.426   2.925   6.059  1.1415  0.5233  1.3814
 4166SOL    HW224132   2.295   2.992   6.090 -0.0448  1.0518  1.1640
 4167SOL     OW24133   4.356   1.684   7.514 -0.3341  0.1613 -0.1839
 4167SOL    HW124134   4.433   1.686   7.457 -1.1868 -0.4224 -1.3595
 4167SOL    HW224135   4.373   1.602   7.560 -1.0868  0.2997  0.3534
 4168SOL     OW24136   3.427   0.207   8.157  0.3295 -0.8957 -0.6989
 4168SOL    HW124137   3.354   0.144   8.157 -0.0481 -0.4473 -2.1776
 4168SOL    HW224138   3.403   0.268   8.227  1.1339 -1.7475  0.3242
 4169SOL     OW24139   0.657   3.914   9.884  0.1238 -0.1895  0.0318
 4169SOL    HW124140   0.684   3.829   9.921  1.5574 -0.3595 -1.4146
 4169SOL    HW224141   0.701   3.977   9.941  0.4094  1.6606 -2.2701
 4170SOL     OW24142   3.857   2.642   4.344 -0.6821 -0.0842  0.4070
 4170SOL    HW124143   3.877   2.729   4.378 -1.6885  1.7571 -3.7608
 4170SOL    HW224144   3.829   2.598   4.424 -1.9229  0.5924  0.3314
 4171SOL     OW24145   4.002   2.748   0.150  0.0852  0.0613 -0.1596
 4171SOL    HW124146   3.931   2.697   0.113  0.0575  0.6428 -0.9091
 4171SOL    HW224147   3.987   2.838   0.119  2.7178  1.0209  1.3218
 4172SOL     OW24148   3.769   3.921   1.311  0.4609 -0.3610  0.0213
 4172SOL    HW124149   3.715   4.000   1.311  0.7542 -0.1641 -0.0381
 4172SOL    HW224150   3.707   3.862   1.354  0.1194 -0.0649 -0.0635
 4173SOL     OW24151   1.411   3.896   5.769  0.2883 -0.3513  0.1392
 4173SOL    HW124152   1.492   3.903   5.720 -0.7979 -1.7093 -1.8471
 4173SOL    HW224153   1.427   3.868   5.860 -2.5726 -0.6880  0.5609
 4174SOL     OW24154   3.250   2.402   4.627  0.6240  0.6133  0.1112
 4174SOL    HW124155   3.160   2.374   4.646  1.4216 -3.2069 -1.5576
 4174SOL    HW224156   3.277   2.438   4.711  0.4501 -0.1869  0.5091
 4175SOL     OW24157   4.327   4.003   0.825  0.4708  0.2859  0.1399
 4175SOL    HW124158   4.276   4.085   0.826 -0.8826 -0.5380 -1.6430
 4175SOL    HW224159   4.281   3.953   0.757  0.4967  0.7680 -0.2293
 4176SOL     OW24160   2.438   2.570   1.700  0.0237  0.4864  0.4024
 4176SOL    HW124161   2.432   2.491   1.646 -0.6171  0.0902  1.0556
 4176SOL    HW224162   2.381   2.621   1.642 -0.6054  0.7838  1.2887
 4177SOL     OW24163   0.196   0.475  16.213 -0.2161  0.4269  0.0651
 4177SOL    HW124164   0.115   0.486  16.262  0.0902  1.9538  0.2212
 4177SOL    HW224165   0.167   0.403  16.156 -0.3126  1.7746 -1.5832
 4178SOL     OW24166   2.443   0.803   1.664  0.4117  0.2688  0.1363
 4178SOL    HW124167   2.421   0.872   1.726 -0.7635  0.5777 -0.6207
 4178SOL    HW224168   2.357   0.773   1.633  1.5013 -2.1128 -0.6014
 4179SOL     OW24169   0.518   3.425   5.657  0.1966 -0.2122  0.1773
 4179SOL    HW124170   0.588   3.473   5.613 -0.6927 -1.7488 -2.9489
 4179SOL    HW224171   0.538   3.424   5.751 -1.1303 -1.3612  0.4537
 4180SOL     OW24172   3.338   3.761   7.628 -0.2477  0.2106 -0.3616
 4180SOL    HW124173   3.410   3.722   7.579  0.2425  0.8064 -0.1127
 4180SOL    HW224174   3.271   3.695   7.613  0.2129 -0.3398 -0.0012
 4181SOL     OW24175   2.694   1.821   5.434 -1.0907  0.1691  0.3059
 4181SOL    HW124176   2.661   1.849   5.519  2.0364 -0.1868  1.6431
 4181SOL    HW224177   2.735   1.901   5.401 -1.6537  0.5087  0.4258
 4182SOL     OW24178   3.301   0.054   8.465  0.6492 -0.7544  0.2781
 4182SOL    HW124179   3.237   0.070   8.396  0.0032 -1.4849  0.7151
 4182SOL    HW224180   3.374   0.023   8.410 -1.1925  1.5999 -3.5062
 4183SOL     OW24181   3.556   0.152  13.111 -0.3105 -0.3107  0.8599
 4183SOL    HW124182   3.648   0.128  13.123 -0.2317 -0.1946  0.4783
 4183SOL    HW224183   3.530   0.181  13.198  0.1613  0.4356  0.7509
 4184SOL     OW24184   4.407   4.228  16.729  0.0692  0.2839 -0.1876
 4184SOL    HW124185   4.482   4.176  16.757  0.6524  0.7094 -0.9670
 4184SOL    HW224186   4.430   4.311  16.771  2.1280 -0.3774 -0.0464
 4185SOL     OW24187   2.970   0.914   7.234 -0.0278 -0.3749 -0.0517
 4185SOL    HW124188   2.998   0.966   7.159 -1.0778 -0.1173 -0.2681
 4185SOL    HW224189   3.024   0.835   7.233  2.1052  1.0643  2.0302
 4186SOL     OW24190   1.333   3.533   2.035  0.5413  0.5947 -0.2291
 4186SOL    HW124191   1.371   3.447   2.013 -0.9486  0.1011 -0.9263
 4186SOL    HW224192   1.240   3.510   2.026  0.7306 -1.0273  2.0595
 4187SOL     OW24193   3.045   4.069   8.828 -0.1479 -0.4114  0.0963
 4187SOL    HW124194   3.137   4.042   8.825  0.4416  1.5200  0.6243
 4187SOL    HW224195   3.018   4.011   8.757  1.1722 -0.3557 -0.4423
 4188SOL     OW24196   1.608   0.461   3.985 -0.1478  0.3967  0.3735
 4188SOL    HW124197   1.558   0.524   3.932 -0.1989 -0.3571 -0.4782
 4188SOL    HW224198   1.668   0.434   3.915 -1.2920  0.0359 -0.4703
 4189SOL     OW24199   1.292   3.659   7.633  0.0580  0.1350  0.0418
 4189SOL    HW124200   1.310   3.721   7.704 -1.9276 -0.1456  0.7953
 4189SOL    HW224201   1.200   3.637   7.648 -0.2166  0.6077 -0.9715
 4190SOL     OW24202   0.132   0.174   8.105  0.4645  0.3010 -1.0126
 4190SOL    HW124203   0.181   0.220   8.038 -0.0285  0.6340 -1.1494
 4190SOL    HW224204   0.189   0.174   8.182  1.3227  0.2400 -1.6567
 4191SOL     OW24205   1.193   0.957   0.865 -0.2300  0.3219  0.2106
 4191SOL    HW124206   1.169   0.947   0.773  1.1998 -1.1222 -0.0015
 4191SOL    HW224207   1.131   0.902   0.914 -1.0122  2.8967  2.0999
 4192SOL     OW24208   2.427   0.044  12.280 -0.0846 -0.2484 -0.3476
 4192SOL    HW124209   2.367   4.718  12.323 -1.7237  0.4850 -1.6148
 4192SOL    HW224210   2.497   4.722  12.246  2.6856  1.0047  3.2987
 4193SOL     OW24211   2.715   4.276   9.033  0.0835 -0.1040 -0.4380
 4193SOL    HW124212   2.797   4.230   9.051 -0.4141 -0.9431 -0.3224
 4193SOL    HW224213   2.715   4.366   9.066  0.3407  0.0465 -0.8478
 4194SOL     OW24214   0.969   1.939   4.233  0.8133 -0.2802  0.0923
 4194SOL    HW124215   0.917   2.013   4.264 -0.3334 -1.0581  0.0237
 4194SOL    HW224216   0.962   1.875   4.304  1.1267  1.3380  1.5841
 4195SOL     OW24217   1.988   0.756   3.224  0.0840  0.0265  0.4481
 4195SOL    HW124218   1.926   0.745   3.296 -0.5908  0.1041 -0.1194
 4195SOL    HW224219   2.026   0.668   3.227 -0.0906  0.0223  2.5495
 4196SOL     OW24220   2.587   2.618   2.189 -0.1981  1.0243  0.3665
 4196SOL    HW124221   2.533   2.690   2.159 -0.7295  0.8783  0.9524
 4196SOL    HW224222   2.512   2.567   2.222  3.1076 -2.4552  2.4717
 4197SOL     OW24223   3.251   2.469   4.245 -0.0889  0.3993  0.0772
 4197SOL    HW124224   3.248   2.464   4.341  0.1354  0.0082  0.0623
 4197SOL    HW224225   3.305   2.392   4.228  1.0825  1.1084  0.5870
 4198SOL     OW24226   3.377   1.996   6.708  0.1092 -0.7428  0.3549
 4198SOL    HW124227   3.338   2.071   6.753 -0.2746 -0.6763 -0.0887
 4198SOL    HW224228   3.469   2.020   6.698 -0.0059 -2.0410 -3.6306
 4199SOL     OW24229   3.066   0.660  10.872 -0.3359  0.4343  0.4723
 4199SOL    HW124230   3.073   0.565  10.864  2.9481  0.8061 -0.9165
 4199SOL    HW224231   3.000   0.669  10.803  0.8146 -0.9792 -0.8087
 4200SOL     OW24232   0.029   3.958   2.441 -0.6065  0.2752  0.1466
 4200SOL    HW124233   4.728   4.045   2.458 -0.8928  0.3356 -0.7607
 4200SOL    HW224234   0.003   3.914   2.522  0.9767 -1.0985 -0.0841
 4201SOL     OW24235   4.305   0.878   2.554 -0.9203 -0.1354  0.5935
 4201SOL    HW124236   4.274   0.824   2.627 -1.6377 -0.0479  0.3558
 4201SOL    HW224237   4.289   0.805   2.493  2.1006 -0.3612  0.0444
 4202SOL     OW24238   4.056   4.588   1.429 -0.0435  0.3672 -0.1071
 4202SOL    HW124239   4.116   4.657   1.398  0.8771 -0.1415  0.5302
 4202SOL    HW224240   3.987   4.650   1.454 -2.4413 -3.2921  2.2676
 4203SOL     OW24241   1.383   0.074   6.920  0.2199  0.7896  0.5872
 4203SOL    HW124242   1.462   0.022   6.935 -0.3058 -0.6017 -1.4810
 4203SOL    HW224243   1.329   0.061   6.998  1.3147 -0.5294  1.1215
 4204SOL     OW24244   3.994   4.612   9.070  0.4084  0.6144  0.0860
 4204SOL    HW124245   3.939   4.614   9.148 -3.3248  1.8859 -2.6112
 4204SOL    HW224246   4.070   4.646   9.119 -0.7245  1.9255  0.9448
 4205SOL     OW24247   3.984   1.392  14.656 -0.1582  0.3202  0.6261
 4205SOL    HW124248   3.898   1.381  14.696 -1.2961  0.2297 -1.9014
 4205SOL    HW224249   3.982   1.471  14.602 -0.4827 -1.0911 -1.4223
 4206SOL     OW24250   0.469   4.041   5.726  0.0845  0.2881  0.7062
 4206SOL    HW124251   0.547   3.997   5.691  0.9004  0.5883  2.1368
 4206SOL    HW224252   0.487   4.044   5.820  2.0849  1.7188  0.2916
 4207SOL     OW24253   3.656   0.930   5.739  0.0356  0.4745 -0.5303
 4207SOL    HW124254   3.596   0.856   5.749  0.7550 -0.2743 -1.7587
 4207SOL    HW224255   3.614   0.978   5.810 -0.6272 -0.5875 -0.2095
 4208SOL     OW24256   1.465   3.108  16.072 -0.0868 -0.3867 -1.2708
 4208SOL    HW124257   1.385   3.058  16.058 -0.0825 -0.5647 -0.6584
 4208SOL    HW224258   1.434   3.186  16.118  1.2692  1.4957 -3.5262
 4209SOL     OW24259   4.616   4.560   9.453  0.2970  0.5490  0.4688
 4209SOL    HW124260   4.557   4.549   9.378 -2.3188 -0.6280  2.6887
 4209SOL    HW224261   4.643   4.475   9.487 -0.5795  0.1314  0.1203
 4210SOL     OW24262   1.452   3.335   7.373 -0.5227  0.1346 -0.3619
 4210SOL    HW124263   1.405   3.419   7.376 -0.0091  0.3328  2.4393
 4210SOL    HW224264   1.403   3.286   7.439 -0.4193 -0.2589 -0.5791
 4211SOL     OW24265   4.197   3.361   8.864 -0.2926 -0.0386  0.1681
 4211SOL    HW124266   4.198   3.417   8.942 -0.8702 -0.1011  0.2214
 4211SOL    HW224267   4.286   3.372   8.833 -0.8451 -2.1671 -2.1301
 4212SOL     OW24268   0.037   3.823   3.666 -0.1072 -0.4052 -0.4075
 4212SOL    HW124269   0.013   3.911   3.695  2.0024 -0.9357  2.8334
 4212SOL    HW224270   0.117   3.809   3.716 -0.5325 -0.3968  0.2789
 4213SOL     OW24271   2.574   2.200   5.716  0.5450 -0.0627 -0.2018
 4213SOL    HW124272   2.585   2.291   5.742 -1.1497  0.4201 -1.1395
 4213SOL    HW224273   2.512   2.171   5.784  0.7837  0.5641  0.2862
 4214SOL     OW24274   1.675   0.817   1.369 -0.6787  0.1054  0.3540
 4214SOL    HW124275   1.708   0.822   1.279  2.4833 -0.3333  1.5178
 4214SOL    HW224276   1.743   0.771   1.417 -0.3590  1.2484  1.0063
 4215SOL     OW24277   0.608   1.721  15.230  0.2044 -0.4365 -0.4430
 4215SOL    HW124278   0.662   1.642  15.241  0.1667 -0.2634  0.9703
 4215SOL    HW224279   0.537   1.695  15.172  0.1801 -1.5497  0.0891
 4216SOL     OW24280   4.463   4.522  16.902 -0.2224  0.2344  0.9775
 4216SOL    HW124281   4.455   4.456  16.971  0.4808  0.1142  0.9390
 4216SOL    HW224282   4.428   4.601  16.944 -0.1817  0.0103  1.4345
 4217SOL     OW24283   1.998   1.747   6.906  0.3620 -0.3029  0.7022
 4217SOL    HW124284   2.005   1.747   7.001 -1.4003  4.5189  0.8269
 4217SOL    HW224285   2.011   1.841   6.894  1.3175 -0.2759  2.0445
 4218SOL     OW24286   4.588   4.020   8.576  1.0479  0.0743  0.3379
 4218SOL    HW124287   4.638   4.065   8.508 -0.4069  0.1371 -0.6963
 4218SOL    HW224288   4.529   3.966   8.523 -0.8323  1.4782  0.9796
 4219SOL     OW24289   2.771   2.500  16.516 -0.5675  0.3106  0.4261
 4219SOL    HW124290   2.839   2.507  16.583 -0.9513  3.2253  0.5179
 4219SOL    HW224291   2.783   2.588  16.482 -1.7054  0.9608  1.7130
 4220SOL     OW24292   2.634   1.711   8.032  0.0541  0.3487 -0.0802
 4220SOL    HW124293   2.661   1.639   8.088  1.3215  1.3266  0.5674
 4220SOL    HW224294   2.710   1.768   8.046 -0.8030  1.1525  1.2755
 4221SOL     OW24295   4.658   3.329  16.838  0.4467 -0.9055 -0.1201
 4221SOL    HW124296   4.626   3.377  16.762  1.0992 -0.9097 -0.3909
 4221SOL    HW224297   4.575   3.311  16.883  0.7195 -0.6264  0.4961
 4222SOL     OW24298   3.511   4.169   3.740  0.2596 -0.3011 -0.8392
 4222SOL    HW124299   3.595   4.212   3.758 -0.7527  0.5562  1.8204
 4222SOL    HW224300   3.446   4.236   3.762 -1.2578 -1.2610 -2.4273
 4223SOL     OW24301   0.290   1.383   8.136  0.1878 -0.4322  0.4246
 4223SOL    HW124302   0.300   1.376   8.231 -0.7600  2.0025  0.7046
 4223SOL    HW224303   0.213   1.439   8.138  1.3498  1.1388  0.6230
 4224SOL     OW24304   1.300   1.918   1.218 -0.5616  0.2856 -0.5918
 4224SOL    HW124305   1.206   1.919   1.233 -0.0782 -0.2131  2.5124
 4224SOL    HW224306   1.334   1.835   1.250 -1.6657 -0.6104 -1.7386
 4225SOL     OW24307   0.299   3.650   7.799 -0.4649 -0.0547  0.0643
 4225SOL    HW124308   0.338   3.598   7.869  3.1618  0.5228 -1.5208
 4225SOL    HW224309   0.224   3.596   7.775  0.3609 -1.7154  1.2569
 4226SOL     OW24310   3.937   1.415   6.225  0.3031 -0.0120  0.1267
 4226SOL    HW124311   3.916   1.497   6.270 -2.4618 -0.9964  0.6602
 4226SOL    HW224312   3.946   1.447   6.135 -0.8400 -1.5170 -0.5334
 4227SOL     OW24313   4.320   3.957   5.949 -0.1176  0.1476  0.1838
 4227SOL    HW124314   4.379   3.911   5.890  0.2634  0.8376  0.0289
 4227SOL    HW224315   4.324   4.045   5.910 -0.9302  0.1389  0.0890
 4228SOL     OW24316   1.113   1.692   5.031  0.2577 -0.4800 -0.4473
 4228SOL    HW124317   1.060   1.614   5.053  0.2818 -0.3062  0.2487
 4228SOL    HW224318   1.121   1.738   5.115 -0.6034 -2.0334  0.4918
 4229SOL     OW24319   3.982   2.542  11.229  0.1477  0.1417 -0.2159
 4229SOL    HW124320   3.894   2.544  11.268  0.1654 -0.1470 -0.1628
 4229SOL    HW224321   3.968   2.463  11.178  0.5603  1.7726 -2.8383
 4230SOL     OW24322   1.114   0.172  11.914 -0.3807 -0.5939  0.0539
 4230SOL    HW124323   1.127   0.133  12.000 -1.5639  0.8303  0.8723
 4230SOL    HW224324   1.178   0.243  11.918  0.2695 -1.1322 -0.7739
 4231SOL     OW24325   0.193   3.688   8.319 -0.1959  0.6126  0.9629
 4231SOL    HW124326   0.101   3.671   8.339  0.2274 -1.4993  1.1090
 4231SOL    HW224327   0.218   3.753   8.385  4.1809 -0.7401  0.6364
 4232SOL     OW24328   1.141   1.897  16.830  0.0248 -0.3511 -0.4665
 4232SOL    HW124329   1.131   1.992  16.844  1.4131 -0.5139  1.5664
 4232SOL    HW224330   1.065   1.884  16.773 -0.7643 -1.0981  0.7581
 4233SOL     OW24331   2.239   3.188   7.820 -0.4011 -0.4548 -0.2320
 4233SOL    HW124332   2.303   3.187   7.749  1.3983 -0.1885  1.4165
 4233SOL    HW224333   2.278   3.248   7.883  0.4483 -0.6637 -0.5568
 4234SOL     OW24334   1.862   1.980  11.142  0.4158 -0.5857 -0.0956
 4234SOL    HW124335   1.869   1.976  11.237 -2.7968  1.9386  0.2318
 4234SOL    HW224336   1.834   1.895  11.108  0.8639 -1.1427  0.9287
 4235SOL     OW24337   2.247   0.131   2.897  0.7322 -0.0224 -0.3778
 4235SOL    HW124338   2.284   0.156   2.813  3.9196 -1.3967  0.6376
 4235SOL    HW224339   2.313   0.071   2.933  0.8319 -0.1953 -0.8483
 4236SOL     OW24340   4.067   2.241   9.105  0.2086  0.6938 -0.2677
 4236SOL    HW124341   4.009   2.168   9.082  1.7203 -0.8753  0.8822
 4236SOL    HW224342   4.012   2.295   9.162 -0.2380  1.5290 -1.4826
 4237SOL     OW24343   2.401   1.189   0.237  0.1099 -0.0941 -0.5678
 4237SOL    HW124344   2.413   1.272   0.283 -0.2088 -0.1700 -0.3478
 4237SOL    HW224345   2.491   1.159   0.246 -0.2811 -0.8398  0.8303
 4238SOL     OW24346   4.151   1.796   4.794 -0.2532  0.1779  0.2227
 4238SOL    HW124347   4.074   1.845   4.825  0.0699 -0.3710  1.8974
 4238SOL    HW224348   4.220   1.858   4.817 -1.0431  0.9987  0.3704
 4239SOL     OW24349   3.033   2.244  16.348 -0.0001 -0.2851  0.2411
 4239SOL    HW124350   2.960   2.300  16.323  0.6037  1.1983  1.7802
 4239SOL    HW224351   3.032   2.197  16.265 -1.8729  0.9480 -0.4312
 4240SOL     OW24352   1.735   2.487   7.296 -0.1980 -1.1393  0.3194
 4240SOL    HW124353   1.673   2.472   7.367  0.4595  0.3891  1.2102
 4240SOL    HW224354   1.679   2.525   7.228  0.7234 -1.0188 -0.3712
 4241SOL     OW24355   1.963   4.041   5.446 -0.4957 -0.0982  0.3137
 4241SOL    HW124356   1.993   3.951   5.453  0.6327  0.2435 -0.2747
 4241SOL    HW224357   1.944   4.051   5.353  0.0991  0.5808  0.2629
 4242SOL     OW24358   4.226   2.347   3.055  0.2445 -0.3073  0.2744
 4242SOL    HW124359   4.269   2.272   3.014 -0.8114 -1.2842  0.9627
 4242SOL    HW224360   4.291   2.413   3.030 -0.2903 -0.1105 -0.6030
 4243SOL     OW24361   4.640   4.274   5.812 -0.0178  0.0617  0.3733
 4243SOL    HW124362   4.684   4.201   5.855  0.5258 -0.5229 -1.1792
 4243SOL    HW224363   4.603   4.324   5.886 -0.6791 -0.1393  0.1802
 4244SOL     OW24364   0.933   1.981   6.158  0.7236  0.4032 -0.3217
 4244SOL    HW124365   0.916   2.074   6.173 -1.7086 -0.1840  0.5384
 4244SOL    HW224366   1.019   1.985   6.115  0.7743  0.0151 -0.2584
 4245SOL     OW24367   1.136   2.423   8.710 -0.3123 -0.3043  0.0659
 4245SOL    HW124368   1.210   2.362   8.699  1.3703  2.1090 -2.0389
 4245SOL    HW224369   1.108   2.410   8.620  0.1116  0.9645 -0.2561
 4246SOL     OW24370   3.921   0.527   8.429 -0.6548 -0.4782 -0.3025
 4246SOL    HW124371   3.997   0.548   8.482 -1.5720 -1.5514  1.4392
 4246SOL    HW224372   3.857   0.519   8.500 -1.3370  0.0967 -0.8473
 4247SOL     OW24373   3.230   1.597  14.552  0.0145  0.2850 -0.1786
 4247SOL    HW124374   3.194   1.509  14.543  0.9657 -0.2448  1.2412
 4247SOL    HW224375   3.269   1.601  14.639 -0.9655  0.8285  0.2355
 4248SOL     OW24376   3.813   1.136   4.878 -0.0538  0.2967 -0.5293
 4248SOL    HW124377   3.832   1.042   4.882  0.1311  0.3956  1.0325
 4248SOL    HW224378   3.862   1.169   4.954  0.2351  0.8795 -0.9704
 4249SOL     OW24379   0.022   0.349  15.539  0.2314  0.0708 -0.1955
 4249SOL    HW124380   0.084   0.393  15.480 -0.4079  0.3845 -0.6342
 4249SOL    HW224381   0.050   0.259  15.522  2.5051  0.3612  2.1275
 4250SOL     OW24382   2.045   0.353   3.497  0.1534 -1.3817 -0.8524
 4250SOL    HW124383   2.125   0.397   3.467 -0.4734  0.2743 -0.1063
 4250SOL    HW224384   2.074   0.262   3.486  1.2989 -1.0023 -1.0395
 4251SOL     OW24385   4.665   1.343   2.510  0.0928 -0.0928  0.3398
 4251SOL    HW124386   4.705   1.371   2.593  2.1805  1.0274 -1.0277
 4251SOL    HW224387   4.591   1.298   2.550  1.0828 -1.3891  0.7025
 4252SOL     OW24388   3.442   1.834   2.666  0.3342 -0.2443  0.0462
 4252SOL    HW124389   3.415   1.798   2.751 -3.0342 -0.1259 -0.9501
 4252SOL    HW224390   3.355   1.849   2.628 -0.6485  0.6169  2.6475
 4253SOL     OW24391   4.070   0.744  10.057  0.5923 -0.0251  0.1865
 4253SOL    HW124392   3.999   0.682  10.076 -0.0938  1.0873  1.2430
 4253SOL    HW224393   4.030   0.822  10.094 -3.0335 -1.0731 -1.5275
 4254SOL     OW24394   4.720   3.712   5.065 -0.3630  0.0241 -0.2011
 4254SOL    HW124395   4.662   3.786   5.082  0.4778  0.5874  0.2196
 4254SOL    HW224396   4.674   3.662   4.998  0.6447 -2.9607  1.3228
 4255SOL     OW24397   2.817   1.064   6.365 -0.0851  0.7217 -0.0967
 4255SOL    HW124398   2.788   1.022   6.284  3.2886 -0.3384 -0.7528
 4255SOL    HW224399   2.801   1.159   6.368  0.7586  0.7827  2.4219
 4256SOL     OW24400   0.050   1.923   0.766  0.0328 -0.0466  0.5441
 4256SOL    HW124401   0.145   1.926   0.777 -0.0268 -1.1300  1.3979
 4256SOL    HW224402   0.031   1.831   0.782  0.6534  0.0451  1.7553
 4257SOL     OW24403   1.118   1.035   1.609  0.4156  0.1407 -0.2531
 4257SOL    HW124404   1.118   1.130   1.605  0.5802  0.0525 -2.1674
 4257SOL    HW224405   1.204   1.004   1.578 -0.2499 -3.2375  1.1866
 4258SOL     OW24406   1.546   0.272  15.733  0.1246 -0.1946 -0.0276
 4258SOL    HW124407   1.641   0.263  15.738 -0.0968 -3.3046 -1.3837
 4258SOL    HW224408   1.522   0.347  15.679 -2.8758 -1.6249 -0.6615
 4259SOL     OW24409   1.520   1.409   2.435 -0.1562 -0.1660  0.4996
 4259SOL    HW124410   1.517   1.410   2.531 -1.6302  3.4832  0.4171
 4259SOL    HW224411   1.430   1.411   2.404  0.0433  1.5659  0.0361
 4260SOL     OW24412   4.713   0.975   4.319  0.0379 -0.0807  0.3332
 4260SOL    HW124413   4.689   0.966   4.227  1.0035  3.7169 -0.2866
 4260SOL    HW224414   4.639   1.024   4.356 -0.7517 -1.5903  0.7416
 4261SOL     OW24415   4.682   4.105   4.936  0.0036  0.2968  0.6833
 4261SOL    HW124416   0.029   4.056   4.942 -0.4527 -0.5486 -0.1146
 4261SOL    HW224417   4.711   4.196   4.932 -2.3544  1.0578  0.9672
 4262SOL     OW24418   0.257   2.028   6.703 -0.0793 -0.3661  0.6589
 4262SOL    HW124419   0.200   2.058   6.632  1.5457  1.7468  0.2719
 4262SOL    HW224420   0.199   1.968   6.749 -3.1931  0.1538 -2.5659
 4263SOL     OW24421   2.734   0.168  12.222 -0.4634 -0.5087 -0.8154
 4263SOL    HW124422   2.730   0.132  12.311 -3.1233  0.1253 -0.6805
 4263SOL    HW224423   2.778   0.098  12.175  0.4223  1.5071 -3.0023
 4264SOL     OW24424   4.561   3.522   3.753 -0.0349 -0.1419 -0.4981
 4264SOL    HW124425   4.523   3.540   3.667 -1.2349  1.1120  0.3022
 4264SOL    HW224426   4.546   3.605   3.797  0.7886 -0.4093  0.2889
 4265SOL     OW24427   1.659   2.137   7.875  0.2466 -0.3504  0.6654
 4265SOL    HW124428   1.691   2.218   7.835 -2.3704 -0.8783 -2.5297
 4265SOL    HW224429   1.642   2.163   7.965  1.1450 -0.3539  0.8392
 4266SOL     OW24430   4.594   1.573   6.875 -0.0720 -0.3922 -0.1266
 4266SOL    HW124431   4.533   1.537   6.811  0.2589 -3.9186  1.5452
 4266SOL    HW224432   4.664   1.508   6.880 -0.0681 -0.3136  0.9575
 4267SOL     OW24433   2.311   2.249   3.322  0.1296  0.5015  0.4392
 4267SOL    HW124434   2.226   2.264   3.364 -0.5653  0.4276 -0.9750
 4267SOL    HW224435   2.290   2.166   3.279 -2.5017  1.5914 -0.3666
 4268SOL     OW24436   3.356   2.949   5.624  0.1608 -0.1579  0.3591
 4268SOL    HW124437   3.341   3.008   5.698  1.2477 -0.7658  1.0547
 4268SOL    HW224438   3.308   2.872   5.654  0.4748 -0.8066 -0.8229
 4269SOL     OW24439   0.922   4.599   8.972 -0.3850  0.4719 -0.2067
 4269SOL    HW124440   0.863   4.536   8.932  1.0683  0.2828 -2.0915
 4269SOL    HW224441   0.884   4.597   9.060 -2.2143  1.2723 -0.9751
 4270SOL     OW24442   4.386   1.780   7.813 -0.0896  0.5232 -0.2819
 4270SOL    HW124443   4.430   1.814   7.735  0.4552  0.1353 -0.1378
 4270SOL    HW224444   4.322   1.851   7.823  0.7447  1.2418  0.0305
 4271SOL     OW24445   4.265   1.161   4.032 -0.2647  0.1612  0.5066
 4271SOL    HW124446   4.238   1.160   4.124 -0.3158  0.4604  0.4955
 4271SOL    HW224447   4.190   1.208   3.996 -0.4287 -0.1547  0.4384
 4272SOL     OW24448   3.878   3.700   5.672 -0.6891 -0.0952  0.1698
 4272SOL    HW124449   3.786   3.676   5.662 -0.7804  0.4819 -0.3453
 4272SOL    HW224450   3.873   3.791   5.699  0.2112 -0.2213  0.7414
 4273SOL     OW24451   1.659   3.161   3.490  0.6045 -0.0114  0.0396
 4273SOL    HW124452   1.686   3.100   3.421  2.1249  0.9847 -0.2351
 4273SOL    HW224453   1.684   3.109   3.566 -0.0762  1.3248  1.1834
 4274SOL     OW24454   1.564   3.147   6.504  0.0052 -0.0291  0.0330
 4274SOL    HW124455   1.642   3.149   6.449 -0.4089 -1.0553 -0.5642
 4274SOL    HW224456   1.493   3.135   6.441 -0.9816 -0.6681  1.2575
 4275SOL     OW24457   4.716   1.233   6.940 -0.4656  0.5557  0.0444
 4275SOL    HW124458   0.055   1.247   6.881 -0.7634 -3.0336 -1.1918
 4275SOL    HW224459   4.699   1.140   6.921 -1.7674  0.6390  0.7930
 4276SOL     OW24460   1.463   0.607   7.529  0.6619  0.2601 -0.2947
 4276SOL    HW124461   1.511   0.525   7.540  3.2221  1.4931 -2.2916
 4276SOL    HW224462   1.374   0.576   7.544  1.3863 -0.9197  1.4405
 4277SOL     OW24463   0.621   0.103   8.527 -0.7175  0.2813 -0.2583
 4277SOL    HW124464   0.595   0.048   8.453  0.0844 -0.1807 -0.1975
 4277SOL    HW224465   0.635   0.051   8.606 -1.7133  0.2507 -0.0991
 4278SOL     OW24466   3.362   4.392   3.243  0.0408 -0.0920 -0.0628
 4278SOL    HW124467   3.389   4.307   3.209 -1.7727 -1.6777  2.4908
 4278SOL    HW224468   3.327   4.364   3.328  0.7084  2.6328  1.1355
 4279SOL     OW24469   2.837   3.245   5.418  0.3295 -0.0446 -0.2558
 4279SOL    HW124470   2.841   3.330   5.463  1.8276 -0.1392 -0.2268
 4279SOL    HW224471   2.928   3.216   5.427 -0.0035 -0.8085  0.6007
 4280SOL     OW24472   4.369   1.640   1.938 -0.2322 -0.0432 -0.1198
 4280SOL    HW124473   4.445   1.603   1.984  0.3695  2.6910  1.0591
 4280SOL    HW224474   4.405   1.699   1.872 -0.4981  2.6561  2.1813
 4281SOL     OW24475   3.037   2.967   8.607 -0.2770  0.0850  0.1112
 4281SOL    HW124476   3.077   2.881   8.621 -1.7191 -0.2735  1.9646
 4281SOL    HW224477   3.052   3.015   8.689  3.0940  0.5746 -0.7644
 4282SOL     OW24478   2.333   2.284  16.562 -0.7783  0.1727  0.4049
 4282SOL    HW124479   2.393   2.264  16.489 -1.7208 -0.4228 -0.2112
 4282SOL    HW224480   2.260   2.325  16.515  0.2345 -1.0221 -2.2292
 4283SOL     OW24481   1.747   4.132   4.919 -0.4052 -0.5472  0.2380
 4283SOL    HW124482   1.712   4.051   4.958 -0.5283 -0.3134  0.6102
 4283SOL    HW224483   1.806   4.096   4.853 -0.3376 -0.6642  0.3633
 4284SOL     OW24484   1.008   4.119   6.913 -0.2602 -0.6857 -0.5534
 4284SOL    HW124485   1.068   4.118   6.838  0.2986  1.4035 -0.1456
 4284SOL    HW224486   1.052   4.084   6.990 -0.2802  3.0760  1.1761
 4285SOL     OW24487   2.519   0.549   2.898 -0.2855 -0.2700  0.0501
 4285SOL    HW124488   2.450   0.528   2.961 -1.5299 -1.0762 -1.5737
 4285SOL    HW224489   2.562   0.464   2.887 -0.0550 -0.2368  0.7078
 4286SOL     OW24490   4.066   0.161   9.177  0.6982  0.7119 -1.1039
 4286SOL    HW124491   4.016   0.130   9.252  0.0194  1.7193 -1.1442
 4286SOL    HW224492   4.149   0.183   9.219  0.8152 -0.5040 -0.6868
 4287SOL     OW24493   1.172   0.812   6.564  0.0337 -0.6351  0.5119
 4287SOL    HW124494   1.205   0.763   6.488  1.1942  0.0165  0.6085
 4287SOL    HW224495   1.077   0.807   6.555  0.0445  1.1842 -0.4629
 4288SOL     OW24496   0.216   1.672  12.884 -0.2264  0.3679  0.5021
 4288SOL    HW124497   0.196   1.744  12.943  2.4121  2.3063 -0.9731
 4288SOL    HW224498   0.239   1.609  12.952  0.5964 -0.2147 -0.3133
 4289SOL     OW24499   3.404   3.443   3.242 -0.4431  0.0192  0.4939
 4289SOL    HW124500   3.414   3.422   3.335 -1.6086 -0.7712  0.4451
 4289SOL    HW224501   3.417   3.537   3.232 -0.1105 -0.1589 -0.7359
 4290SOL     OW24502   2.569   0.538  17.664 -0.3397  0.6981 -0.7666
 4290SOL    HW124503   2.607   0.464  17.616 -1.6407 -0.9978  0.8340
 4290SOL    HW224504   2.491   0.559  17.613  0.4380 -0.6193 -2.4787
 4291SOL     OW24505   1.629   4.713   2.946 -0.1747  0.2993  0.0995
 4291SOL    HW124506   1.534   4.704   2.954 -0.2353  0.7345 -0.1195
 4291SOL    HW224507   1.637   0.042   3.017 -0.6109 -0.9608  1.2822
 4292SOL     OW24508   3.994   0.740   0.307  0.0832  0.6928 -0.4120
 4292SOL    HW124509   4.036   0.807   0.362  1.4822  1.3550 -2.3254
 4292SOL    HW224510   4.070   0.699   0.267 -0.9917 -0.8219 -0.9100
 4293SOL     OW24511   4.545   1.345   0.675  0.3091 -0.5803  0.4365
 4293SOL    HW124512   4.575   1.435   0.666 -1.1415 -0.3164 -1.9274
 4293SOL    HW224513   4.576   1.313   0.590  0.0107 -2.2221  0.9480
 4294SOL     OW24514   2.487   1.028   6.478  0.1799 -0.2745 -0.3229
 4294SOL    HW124515   2.454   1.098   6.422  0.1753 -0.1975 -0.2240
 4294SOL    HW224516   2.580   1.039   6.457  0.1973 -1.0238 -0.6201
 4295SOL     OW24517   2.643   2.183   6.366 -0.6923  0.1714 -0.5944
 4295SOL    HW124518   2.680   2.260   6.408 -1.9291  0.9910 -0.9820
 4295SOL    HW224519   2.654   2.205   6.273  0.2610  1.1942 -0.2317
 4296SOL     OW24520   2.733   4.619  15.681  0.0692 -0.6128 -0.6907
 4296SOL    HW124521   2.763   4.660  15.763  1.1994  1.2188 -2.0255
 4296SOL    HW224522   2.817   4.605  15.638  1.1605  0.1559  1.1668
 4297SOL     OW24523   2.408   2.321  16.301 -0.2388 -0.4746  0.0232
 4297SOL    HW124524   2.502   2.322  16.318 -0.1887  0.0104 -0.2792
 4297SOL    HW224525   2.407   2.361  16.214 -1.3665 -0.1100  0.2052
 4298SOL     OW24526   0.642   2.456   2.821  0.1823 -0.0212 -0.0928
 4298SOL    HW124527   0.640   2.536   2.873 -0.3532  0.2189 -0.4908
 4298SOL    HW224528   0.566   2.409   2.856  2.0631 -3.2582 -0.3637
 4299SOL     OW24529   0.510   2.897   0.644  0.5317  0.1873  0.4887
 4299SOL    HW124530   0.511   2.923   0.552 -1.4748  0.6817  0.5966
 4299SOL    HW224531   0.602   2.875   0.658  0.1947 -0.8622  1.0202
 4300SOL     OW24532   3.938   0.044   2.251 -0.1784 -0.4856  0.1057
 4300SOL    HW124533   4.033   0.045   2.267 -0.0077  2.3697 -1.0981
 4300SOL    HW224534   3.924   0.132   2.215 -2.0849 -0.2211  1.4916
 4301SOL     OW24535   3.177   2.723   6.493  0.0031  0.6306 -0.2419
 4301SOL    HW124536   3.184   2.752   6.584  0.8408 -0.6273  0.0849
 4301SOL    HW224537   3.254   2.755   6.446 -0.0550 -0.2444 -0.9312
 4302SOL     OW24538   3.057   1.285  11.098  0.0669  0.2522 -0.4820
 4302SOL    HW124539   3.003   1.225  11.047  2.0133 -2.0567  0.1570
 4302SOL    HW224540   3.052   1.357  11.035 -0.5196  2.0776  1.6377
 4303SOL     OW24541   3.161   3.760   8.034  0.5592 -0.1741 -0.2750
 4303SOL    HW124542   3.213   3.799   8.105 -0.4270 -1.4388  1.1326
 4303SOL    HW224543   3.142   3.829   7.971 -1.3666 -1.1189 -0.7109
 4304SOL     OW24544   0.841   0.455   1.350 -0.3359 -0.1049  0.1920
 4304SOL    HW124545   0.891   0.420   1.424 -1.2846  4.5326  3.0686
 4304SOL    HW224546   0.759   0.412   1.371  0.8240 -1.9106  1.0288
 4305SOL     OW24547   0.344   0.994   4.768  0.4445 -0.0080 -0.1529
 4305SOL    HW124548   0.373   1.035   4.849  0.9435 -1.0329  0.1925
 4305SOL    HW224549   0.403   0.918   4.763 -1.2143 -1.3074  0.1341
 4306SOL     OW24550   1.300   3.294   8.618 -0.1850  0.1775  0.1711
 4306SOL    HW124551   1.274   3.209   8.582  0.3268 -0.0517  0.3461
 4306SOL    HW224552   1.214   3.312   8.656  0.1143 -4.2068  3.0201
 4307SOL     OW24553   1.549   1.453   1.180 -0.8154  0.0750 -0.1495
 4307SOL    HW124554   1.522   1.424   1.092  0.1861 -2.3946  0.3303
 4307SOL    HW224555   1.618   1.391   1.203  0.5918  1.5442 -0.4050
 4308SOL     OW24556   3.619   4.539   9.422  0.2796  0.0237  0.1387
 4308SOL    HW124557   3.548   4.477   9.410 -0.5019  0.7361  1.0325
 4308SOL    HW224558   3.668   4.497   9.494  0.3710  1.0997  0.7075
 4309SOL     OW24559   3.535   0.930  14.572 -0.4629  0.4096  0.1219
 4309SOL    HW124560   3.538   0.835  14.586  0.0151  0.2297 -1.2044
 4309SOL    HW224561   3.477   0.942  14.497 -0.6499  0.0937  0.2146
 4310SOL     OW24562   3.678   3.255  11.513 -0.6314  0.0874 -0.2127
 4310SOL    HW124563   3.620   3.244  11.437 -0.2129 -1.7258 -0.2754
 4310SOL    HW224564   3.635   3.316  11.573 -2.2849 -0.2155 -1.0826
 4311SOL     OW24565   3.356   4.189  16.010  0.2749  0.7484 -0.4907
 4311SOL    HW124566   3.316   4.151  16.088 -0.0908 -0.2931 -1.1724
 4311SOL    HW224567   3.394   4.110  15.970 -1.7184 -0.9456  0.9699
 4312SOL     OW24568   1.827   3.287   2.415  0.1895 -0.3076 -0.2122
 4312SOL    HW124569   1.804   3.376   2.390  1.4137  0.0901  0.1129
 4312SOL    HW224570   1.838   3.261   2.323 -0.0976  1.7934 -0.8461
 4313SOL     OW24571   3.361   3.522   5.359 -0.2277 -0.4324  0.0157
 4313SOL    HW124572   3.285   3.566   5.321 -0.3071  0.7049  1.4649
 4313SOL    HW224573   3.389   3.470   5.284  0.6309 -1.4670  1.0500
 4314SOL     OW24574   1.672   1.772   4.559  0.1563 -0.3919  0.1344
 4314SOL    HW124575   1.579   1.751   4.549 -0.0594  0.8681 -0.4782
 4314SOL    HW224576   1.702   1.684   4.582 -1.6322 -1.6482 -2.4330
 4315SOL     OW24577   1.160   0.303   5.106 -0.3252 -0.0648 -0.1786
 4315SOL    HW124578   1.070   0.295   5.135 -0.1135  2.7199  1.2909
 4315SOL    HW224579   1.189   0.382   5.152 -0.0180 -0.0806 -0.3400
 4316SOL     OW24580   4.363   2.933  14.201 -0.1466  0.5800 -0.3287
 4316SOL    HW124581   4.349   2.970  14.114 -2.0839 -0.6770 -0.5390
 4316SOL    HW224582   4.372   3.014  14.252  2.9521 -0.2066  0.4284
 4317SOL     OW24583   1.154   0.094   9.765 -0.1850 -0.4114  0.1365
 4317SOL    HW124584   1.177   0.001   9.767  0.5551 -0.2410 -0.1487
 4317SOL    HW224585   1.243   0.130   9.764 -0.4671  0.4039  2.3461
 4318SOL     OW24586   4.108   1.671   1.915 -0.5182 -0.3885 -0.3590
 4318SOL    HW124587   4.201   1.655   1.925 -0.4763 -0.1158 -0.3044
 4318SOL    HW224588   4.101   1.697   1.823 -1.6273  1.5299  0.2580
 4319SOL     OW24589   3.197   2.028  17.263  0.7736 -0.0837 -0.3718
 4319SOL    HW124590   3.203   2.062  17.352 -1.6903 -2.0816  0.5615
 4319SOL    HW224591   3.280   1.982  17.255 -1.0413 -3.3660 -0.4278
 4320SOL     OW24592   3.503   1.481   2.733  0.3252  0.0285  0.8427
 4320SOL    HW124593   3.544   1.422   2.795  1.7322  1.5243  1.3286
 4320SOL    HW224594   3.407   1.480   2.743  0.3296 -0.3701  0.8541
 4321SOL     OW24595   0.518   0.131  17.215  0.1084 -0.1013 -0.2666
 4321SOL    HW124596   0.598   0.109  17.167 -1.3029 -0.7156 -2.3417
 4321SOL    HW224597   0.554   0.171  17.294 -1.0704 -1.8286  1.1446
 4322SOL     OW24598   2.725   1.589   7.121 -0.4529  0.3906 -0.4263
 4322SOL    HW124599   2.819   1.581   7.110 -0.9773 -2.9495 -2.4338
 4322SOL    HW224600   2.713   1.684   7.116 -1.2964  0.1176 -3.7328
 4323SOL     OW24601   0.637   0.126   8.998  0.1428  0.5610  0.4257
 4323SOL    HW124602   0.605   0.046   8.954 -0.7854  1.1880 -0.0368
 4323SOL    HW224603   0.726   0.126   8.963 -0.6863 -0.7807 -1.7442
 4324SOL     OW24604   1.079   4.172   7.674 -0.4614 -0.0917  1.0773
 4324SOL    HW124605   0.990   4.191   7.705  0.3508  0.5847  2.9976
 4324SOL    HW224606   1.102   4.086   7.710 -0.0137 -0.8314 -1.0124
 4325SOL     OW24607   3.760   0.161   4.098 -0.3606  0.1426  0.1570
 4325SOL    HW124608   3.853   0.160   4.123 -0.7241 -2.0878  1.3661
 4325SOL    HW224609   3.765   0.207   4.014  2.6083 -0.1742  0.1354
 4326SOL     OW24610   4.458   2.583   8.387  0.0058  0.1595 -0.3539
 4326SOL    HW124611   4.452   2.652   8.453 -1.7398  1.2989 -1.7310
 4326SOL    HW224612   4.396   2.521   8.426  1.1035 -0.4768  0.3938
 4327SOL     OW24613   1.886   0.855   5.150  0.1246 -0.1457 -0.0120
 4327SOL    HW124614   1.865   0.807   5.069 -3.1550  2.2960 -0.6117
 4327SOL    HW224615   1.981   0.863   5.142  0.2494 -2.9940 -1.4390
 4328SOL     OW24616   1.103   1.000   9.097  0.0581 -0.6018  0.4207
 4328SOL    HW124617   1.010   0.985   9.078 -0.3974  0.2146  2.0632
 4328SOL    HW224618   1.138   0.932   9.039 -4.1756 -3.0379  0.7221
 4329SOL     OW24619   0.336   0.627  14.837  0.6602  0.2437  0.1693
 4329SOL    HW124620   0.341   0.642  14.931  1.0460  0.9923  0.0315
 4329SOL    HW224621   0.411   0.572  14.813  0.3036 -0.6605  1.1521
 4330SOL     OW24622   1.867   0.374   2.987 -0.0892  0.2143 -0.0940
 4330SOL    HW124623   1.838   0.370   3.078  1.7994 -0.5477  0.4724
 4330SOL    HW224624   1.794   0.428   2.953  0.7065 -0.6221 -3.1538
 4331SOL     OW24625   4.559   2.714   0.452 -0.1204 -0.4740 -0.0810
 4331SOL    HW124626   4.520   2.773   0.517  0.7424  1.1348 -1.0406
 4331SOL    HW224627   4.555   2.770   0.375 -1.0198 -1.4717 -0.7617
 4332SOL     OW24628   2.449   3.334   9.339  0.4378 -0.2569  0.3581
 4332SOL    HW124629   2.466   3.240   9.344  0.3794 -0.2717  0.2759
 4332SOL    HW224630   2.411   3.340   9.252  0.8258 -0.3954  0.1776
 4333SOL     OW24631   2.114   0.779   8.087  0.1178 -0.3850 -0.7301
 4333SOL    HW124632   2.161   0.717   8.143  0.1148  1.0465  0.8790
 4333SOL    HW224633   2.037   0.781   8.143 -0.4054 -0.7952 -1.4449
 4334SOL     OW24634   3.058   1.526   5.281  0.3246 -0.3842 -0.5652
 4334SOL    HW124635   3.027   1.591   5.344  3.5988 -0.3435  1.0012
 4334SOL    HW224636   3.130   1.484   5.327  1.1794  1.6961 -0.0039
 4335SOL     OW24637   2.546   0.837   0.250 -0.1548  0.7056  0.1064
 4335SOL    HW124638   2.514   0.746   0.246  2.7199 -0.2709 -0.5432
 4335SOL    HW224639   2.562   0.851   0.157  1.6671 -0.0411  0.3100
 4336SOL     OW24640   3.654   0.717   5.161  0.5860 -0.1375  1.1281
 4336SOL    HW124641   3.624   0.720   5.252  2.8217  2.1769  1.7858
 4336SOL    HW224642   3.725   0.653   5.171  0.5145 -0.4093 -0.1040
 4337SOL     OW24643   0.137   2.734   4.607  0.1036  0.1534  0.1193
 4337SOL    HW124644   0.127   2.645   4.641  0.1835  0.7340  1.6747
 4337SOL    HW224645   0.057   2.744   4.556 -0.0694  0.2809  0.4133
 4338SOL     OW24646   1.701   4.169   8.808  0.0057  0.7351 -0.2324
 4338SOL    HW124647   1.660   4.138   8.889  2.3305  2.6062  1.6706
 4338SOL    HW224648   1.749   4.096   8.770 -2.1211 -0.7093 -0.1335
 4339SOL     OW24649   1.691   4.700   5.397  0.4948  0.4224  0.4444
 4339SOL    HW124650   1.714   0.024   5.325 -0.7532 -1.2239 -1.2963
 4339SOL    HW224651   1.764   4.651   5.435  0.3126 -0.6487 -0.5700
 4340SOL     OW24652   0.080   2.573  15.694  0.0372 -0.8485  0.6582
 4340SOL    HW124653   0.118   2.657  15.670 -1.3211  0.4781  3.1580
 4340SOL    HW224654   4.730   2.597  15.731  0.6571  0.7870  1.0199
 4341SOL     OW24655   0.975   1.660   8.219 -0.6182 -0.4839  0.3581
 4341SOL    HW124656   1.067   1.661   8.245 -0.8903 -1.8509  1.3420
 4341SOL    HW224657   0.926   1.698   8.292  0.4965  1.0561  0.3073
 4342SOL     OW24658   1.215   3.783   5.067 -0.2918  0.3388 -0.0583
 4342SOL    HW124659   1.263   3.736   5.135  1.5268  3.7407  0.9798
 4342SOL    HW224660   1.225   3.711   5.005  1.4198  0.3727  0.1823
 4343SOL     OW24661   2.872   3.221  12.854  0.1937  0.4581  0.0227
 4343SOL    HW124662   2.864   3.248  12.762 -3.6630 -0.6269  0.0379
 4343SOL    HW224663   2.790   3.171  12.854 -0.5295  1.6498  2.4435
 4344SOL     OW24664   0.428   4.359  16.774  0.5271  0.2877 -0.0258
 4344SOL    HW124665   0.366   4.330  16.840  1.1370  0.2849  0.5432
 4344SOL    HW224666   0.447   4.448  16.803  2.5881 -0.5405  1.1843
 4345SOL     OW24667   2.071   4.293  10.309 -0.2275  0.1207 -0.3514
 4345SOL    HW124668   2.111   4.258  10.388  1.2160  1.4780 -0.4842
 4345SOL    HW224669   2.144   4.280  10.248 -0.0484  2.8965 -0.7512
 4346SOL     OW24670   2.934   1.786   8.558 -0.3236  0.4773 -0.2315
 4346SOL    HW124671   2.938   1.727   8.633  0.5551  0.3771 -0.3603
 4346SOL    HW224672   2.940   1.873   8.598  1.5783  0.9494 -1.5605
 4347SOL     OW24673   2.302   3.140  17.022 -0.1992 -0.2075  0.7568
 4347SOL    HW124674   2.322   3.233  17.016 -2.4551  0.2575  0.7009
 4347SOL    HW224675   2.278   3.119  16.932 -1.0382  2.4211  0.3587
 4348SOL     OW24676   2.988   2.290   4.398 -0.1067  0.6139 -0.7815
 4348SOL    HW124677   2.977   2.378   4.435  2.2758  0.9212 -0.7961
 4348SOL    HW224678   3.003   2.250   4.483 -0.5096  2.1296  0.0054
 4349SOL     OW24679   3.338   1.080  13.808  0.0590 -0.0121  0.1753
 4349SOL    HW124680   3.281   1.100  13.734  0.4586  0.1944 -0.0784
 4349SOL    HW224681   3.407   1.044  13.752 -0.5303 -1.4467  0.3667
 4350SOL     OW24682   2.393   0.949   8.780 -0.4806  0.3012  0.4456
 4350SOL    HW124683   2.301   0.925   8.769 -0.2533  0.8369 -2.4509
 4350SOL    HW224684   2.428   0.859   8.783 -0.2512  0.3272 -1.7140
 4351SOL     OW24685   1.343   2.523   7.264  0.1930 -0.6301 -0.5501
 4351SOL    HW124686   1.287   2.456   7.225 -1.0604  0.6845 -1.0158
 4351SOL    HW224687   1.359   2.575   7.185  1.2036  1.0755  0.7709
 4352SOL     OW24688   4.131   0.925   2.803  0.2143 -0.0673  0.0288
 4352SOL    HW124689   4.090   0.846   2.768  2.1762  0.2589 -3.0499
 4352SOL    HW224690   4.075   0.991   2.763  0.1486  0.0804  0.3659
 4353SOL     OW24691   1.355   1.208   0.763  0.1316 -0.1133 -0.1422
 4353SOL    HW124692   1.277   1.210   0.707  1.4673  0.3952 -1.9738
 4353SOL    HW224693   1.367   1.118   0.793  1.1301  0.7061  1.9421
 4354SOL     OW24694   2.162   2.537  14.726 -0.2757 -0.4403  0.0246
 4354SOL    HW124695   2.070   2.547  14.751 -0.2400 -1.5948  0.6317
 4354SOL    HW224696   2.168   2.586  14.644 -0.1958  2.9973  2.0850
 4355SOL     OW24697   3.862   2.903   8.964  0.4227 -0.5438 -0.0680
 4355SOL    HW124698   3.897   2.991   8.978  2.2537 -1.9351  4.1123
 4355SOL    HW224699   3.818   2.909   8.879  0.7319  1.7822 -0.0647
 4356SOL     OW24700   2.024   1.427   6.444  0.3809  0.2414 -0.3498
 4356SOL    HW124701   2.032   1.332   6.448 -0.5961  0.1545 -0.5845
 4356SOL    HW224702   2.110   1.454   6.478 -0.1256  0.2664  0.9084
 4357SOL     OW24703   1.575   2.289  13.581  0.5043  0.1004  0.4510
 4357SOL    HW124704   1.498   2.234  13.563  1.7791 -0.8877 -1.9033
 4357SOL    HW224705   1.553   2.383  13.582 -2.5255 -0.6062  1.8513
 4358SOL     OW24706   1.923   3.618   7.578 -0.2404  0.7067 -0.3290
 4358SOL    HW124707   1.931   3.523   7.582 -0.3879  0.7396  0.6429
 4358SOL    HW224708   1.985   3.635   7.649 -3.5307 -1.3884  3.0109
 4359SOL     OW24709   2.703   4.014  17.137 -0.2832  0.5221  0.4219
 4359SOL    HW124710   2.720   3.929  17.177 -0.7703  1.3331  2.3276
 4359SOL    HW224711   2.723   3.994  17.045  0.1240  0.8339  0.4456
 4360SOL     OW24712   2.664   2.297  16.357  0.5833 -0.5550  0.2995
 4360SOL    HW124713   2.711   2.369  16.399 -1.1703 -0.2174  1.6851
 4360SOL    HW224714   2.692   2.226  16.415 -1.5716 -0.1563  1.8358
 4361SOL     OW24715   4.585   0.465   3.034 -0.0034 -0.1645 -0.5396
 4361SOL    HW124716   4.626   0.485   3.118  0.0661  1.1778 -0.8906
 4361SOL    HW224717   4.515   0.404   3.057 -0.5396  0.4021 -0.6438
 4362SOL     OW24718   0.739   0.488   8.989 -0.2706  0.0337 -0.1445
 4362SOL    HW124719   0.737   0.582   8.969 -0.7954 -0.0102 -0.2907
 4362SOL    HW224720   0.749   0.465   8.897  1.8758  0.9433 -0.1306
 4363SOL     OW24721   1.926   1.981   3.161  0.3568  0.3703 -0.8482
 4363SOL    HW124722   1.924   2.030   3.079 -0.8444  1.1382 -0.3582
 4363SOL    HW224723   1.881   1.900   3.140 -0.6181  0.4381  0.9450
 4364SOL     OW24724   4.486   1.017   4.066 -0.7981  0.1640  0.0199
 4364SOL    HW124725   4.469   1.097   4.017 -0.0845  0.6236  0.5270
 4364SOL    HW224726   4.400   0.975   4.057 -0.5576 -0.4068  0.3792
 4365SOL     OW24727   3.071   0.314   8.161  1.1655  0.0900  0.2345
 4365SOL    HW124728   3.130   0.330   8.088 -0.6864  1.5684 -0.9157
 4365SOL    HW224729   3.088   0.391   8.214 -0.2046  0.6945 -0.2216
 4366SOL     OW24730   2.424   4.377   6.877 -0.5763 -0.0952  0.1944
 4366SOL    HW124731   2.392   4.296   6.836 -0.0058 -0.9746  1.4697
 4366SOL    HW224732   2.482   4.411   6.810 -0.5643  1.6103  1.0801
 4367SOL     OW24733   3.808   0.980   9.439 -0.2624  0.0440 -0.5656
 4367SOL    HW124734   3.790   1.064   9.397 -0.1947 -0.2798 -1.2400
 4367SOL    HW224735   3.841   0.927   9.366 -0.5817 -0.2187 -0.5200
 4368SOL     OW24736   0.497   4.109   3.239 -0.1205  0.2879 -0.1787
 4368SOL    HW124737   0.568   4.045   3.236 -2.6277 -2.5007  1.1719
 4368SOL    HW224738   0.416   4.060   3.227  0.7357 -1.3443  0.8496
 4369SOL     OW24739   3.440   2.790  13.884 -0.1615  0.3687  0.7730
 4369SOL    HW124740   3.434   2.716  13.823  0.0882  0.3524  0.7677
 4369SOL    HW224741   3.379   2.757  13.950 -1.4746  2.2395  0.4633
 4370SOL     OW24742   3.642   3.950  14.943 -0.2200  0.3544 -0.0097
 4370SOL    HW124743   3.714   3.969  15.003  0.5124 -1.0367 -0.4607
 4370SOL    HW224744   3.568   3.960  15.003  1.5379 -0.6379  2.3078
 4371SOL     OW24745   1.906   2.892   5.238 -0.0296  0.1206 -0.5842
 4371SOL    HW124746   1.992   2.934   5.241  1.0881 -2.4951  3.2743
 4371SOL    HW224747   1.848   2.967   5.255  0.6505  0.7756 -1.1565
 4372SOL     OW24748   2.062   0.971   5.783 -0.0968  0.4313  0.3382
 4372SOL    HW124749   2.035   1.031   5.713  0.5457  1.1216  0.6802
 4372SOL    HW224750   2.142   0.926   5.753  1.6861  4.6596 -1.3226
 4373SOL     OW24751   1.964   2.051  13.766  1.0388 -0.5063 -0.1786
 4373SOL    HW124752   1.998   2.005  13.690 -1.1234 -0.7495 -0.9879
 4373SOL    HW224753   1.886   1.999  13.787  1.8567 -0.7848  2.1981
 4374SOL     OW24754   2.109   1.242  10.589  0.2706  0.3031 -0.0328
 4374SOL    HW124755   2.173   1.215  10.523  1.0307 -1.0101  1.2436
 4374SOL    HW224756   2.042   1.174  10.583 -0.3858  1.1058 -1.8766
 4375SOL     OW24757   2.552   4.630   8.232  0.3421 -0.2467  0.2834
 4375SOL    HW124758   2.564   4.710   8.282  0.6691  0.0020 -0.1939
 4375SOL    HW224759   2.501   4.575   8.292 -2.4947  2.1273  0.0675
 4376SOL     OW24760   4.076   0.076   8.611 -0.3800  0.2468  0.1603
 4376SOL    HW124761   4.056   0.169   8.617 -0.9802  0.1292 -0.0452
 4376SOL    HW224762   4.019   0.035   8.676 -1.1012  2.1384  0.7183
 4377SOL     OW24763   2.869   3.321   6.585 -0.2483 -0.1792 -0.0115
 4377SOL    HW124764   2.783   3.335   6.546 -0.0592 -0.2227 -0.4448
 4377SOL    HW224765   2.874   3.405   6.630 -0.3854 -1.2137  1.9062
 4378SOL     OW24766   2.032   2.060   4.997 -0.0246  0.5047  0.2643
 4378SOL    HW124767   2.003   2.125   4.934  0.1724 -0.5954 -0.9667
 4378SOL    HW224768   2.124   2.049   4.971  0.0159  1.8809 -0.1638
 4379SOL     OW24769   1.767   3.262   7.086 -0.3193 -0.2651 -0.1132
 4379SOL    HW124770   1.822   3.220   7.020  2.4909  1.4034  1.1995
 4379SOL    HW224771   1.800   3.350   7.103 -0.6582  0.5081 -3.3383
 4380SOL     OW24772   2.485   2.754   2.970  0.3928 -0.3151  0.5666
 4380SOL    HW124773   2.551   2.699   2.928 -0.8131 -2.3607  1.3578
 4380SOL    HW224774   2.411   2.696   2.987 -0.1262  0.6719  1.6948
 4381SOL     OW24775   2.174   1.593   9.367  0.4828  0.6020 -0.0818
 4381SOL    HW124776   2.156   1.576   9.275 -2.6765 -1.6369  0.9218
 4381SOL    HW224777   2.094   1.555   9.404 -0.8449  2.3912 -1.1199
 4382SOL     OW24778   0.876   2.806   7.931 -0.3971  0.1693  0.3727
 4382SOL    HW124779   0.923   2.735   7.974 -2.2947 -2.4211 -1.7859
 4382SOL    HW224780   0.790   2.790   7.970 -0.6753 -0.2126 -0.3988
 4383SOL     OW24781   1.759   4.591   4.233  0.1278 -0.6266 -0.2429
 4383SOL    HW124782   1.708   4.639   4.298  0.3562  0.6667 -1.0079
 4383SOL    HW224783   1.746   4.651   4.159 -0.9364  0.6807  0.9943
 4384SOL     OW24784   3.100   4.354  14.354  0.3325 -0.5798  0.1047
 4384SOL    HW124785   3.087   4.291  14.283 -1.8190 -1.8479  1.6072
 4384SOL    HW224786   3.082   4.439  14.314 -1.8608 -1.2573 -0.3756
 4385SOL     OW24787   0.047   1.812   6.429 -0.0558  0.0208 -0.4404
 4385SOL    HW124788   0.116   1.840   6.370  1.0435 -1.8755 -0.0651
 4385SOL    HW224789   0.102   1.786   6.503  0.1522 -0.5707 -0.7987
 4386SOL     OW24790   0.978   2.298   4.270  0.0073 -0.2365  0.3836
 4386SOL    HW124791   0.919   2.365   4.305  1.3857 -0.0797  2.4218
 4386SOL    HW224792   0.942   2.285   4.183  1.3976  1.3987 -0.4343
 4387SOL     OW24793   1.706   1.857   1.168  0.5808 -1.2142  0.1321
 4387SOL    HW124794   1.649   1.783   1.192 -0.5352 -0.3546  0.1589
 4387SOL    HW224795   1.646   1.910   1.115 -0.9080 -0.6524  2.3461
 4388SOL     OW24796   2.508   3.849   3.159 -0.4058 -0.1038 -0.0437
 4388SOL    HW124797   2.516   3.935   3.202  0.6190 -0.2620  0.0913
 4388SOL    HW224798   2.597   3.819   3.141 -1.6978 -2.5982 -2.2673
 4389SOL     OW24799   3.307   0.014   1.540 -0.5263 -0.0613  0.5468
 4389SOL    HW124800   3.353   4.721   1.620  0.4175 -0.8609 -0.2801
 4389SOL    HW224801   3.264   0.097   1.561  0.9581  1.2838 -1.6918
 4390SOL     OW24802   1.293   2.583  12.087 -0.3479  0.2825 -0.8017
 4390SOL    HW124803   1.339   2.499  12.083 -1.0044 -0.2434  2.0684
 4390SOL    HW224804   1.366   2.642  12.100 -1.1340  1.0723  0.0116
 4391SOL     OW24805   1.997   3.129   8.214  0.1777  0.4053 -0.6130
 4391SOL    HW124806   1.951   3.213   8.206  1.9120  1.1090 -3.2854
 4391SOL    HW224807   2.025   3.108   8.124 -0.4926  0.0100 -0.7235
 4392SOL     OW24808   0.881   0.074  17.303 -0.0275  0.3536  0.5770
 4392SOL    HW124809   0.961   0.052  17.257 -0.2621  2.8955 -1.0525
 4392SOL    HW224810   0.822   0.073  17.228  0.4069  0.8550  0.2333
 4393SOL     OW24811   1.078   1.402  12.897  0.5374  0.1473 -0.3657
 4393SOL    HW124812   1.093   1.478  12.840 -0.6780  1.3332  0.9036
 4393SOL    HW224813   1.111   1.328  12.846 -1.4404 -1.0570  0.1398
 4394SOL     OW24814   3.304   1.389   8.165 -0.7214 -0.2418 -0.3225
 4394SOL    HW124815   3.255   1.337   8.229 -2.2925  0.5854 -0.8377
 4394SOL    HW224816   3.314   1.324   8.096  1.1202 -0.4512  0.1466
 4395SOL     OW24817   4.674   3.183  13.371  0.2904  0.0694 -0.2347
 4395SOL    HW124818   4.664   3.124  13.446  0.8499  1.2045  0.7410
 4395SOL    HW224819   4.588   3.226  13.373  0.1410 -0.2902  1.2376
 4396SOL     OW24820   2.105   1.285  16.904 -0.4975  0.4846  0.1243
 4396SOL    HW124821   2.170   1.247  16.962 -0.4209 -1.1107 -0.9912
 4396SOL    HW224822   2.037   1.307  16.967 -0.8962  0.4358 -0.2866
 4397SOL     OW24823   1.462   0.230   9.091  0.1312  0.3629  0.2645
 4397SOL    HW124824   1.391   0.278   9.048 -0.8671  1.0947  2.7102
 4397SOL    HW224825   1.424   0.237   9.179 -1.1161  2.5938 -0.4499
 4398SOL     OW24826   4.601   2.739  17.040  0.7165  0.2250 -0.8472
 4398SOL    HW124827   4.540   2.669  17.016  0.1147  0.3952  0.1766
 4398SOL    HW224828   4.648   2.727  16.958  1.4134 -0.2612 -0.3823
 4399SOL     OW24829   3.443   1.025   0.610 -0.0109  0.4567  0.0013
 4399SOL    HW124830   3.401   0.942   0.631 -1.2693  0.8005 -1.1813
 4399SOL    HW224831   3.503   1.031   0.685 -0.9823  0.1917  0.7958
 4400SOL     OW24832   0.317   0.358   0.201 -0.5238  0.3023  0.1417
 4400SOL    HW124833   0.333   0.441   0.155  0.4348 -0.6372 -1.2296
 4400SOL    HW224834   0.237   0.374   0.251 -0.5496 -0.5185  0.3640
 4401SOL     OW24835   4.252   4.377   4.163  0.4284 -0.0552  0.1320
 4401SOL    HW124836   4.329   4.433   4.165  0.4512 -0.0621 -0.6045
 4401SOL    HW224837   4.215   4.378   4.252 -3.2429  1.2836 -1.4025
 4402SOL     OW24838   1.284   3.908   2.821 -0.3846 -0.0638 -0.0981
 4402SOL    HW124839   1.237   3.988   2.796 -1.6880 -0.2783  1.6550
 4402SOL    HW224840   1.376   3.924   2.802 -1.3407  3.0777 -2.2044
 4403SOL     OW24841   1.485   3.006   6.715  0.1667  0.7372  0.0181
 4403SOL    HW124842   1.572   2.978   6.744  1.0222  2.0134 -1.2699
 4403SOL    HW224843   1.505   3.084   6.662  0.4114 -0.4430 -1.6432
 4404SOL     OW24844   3.707   4.679   6.227 -0.2184 -0.2742  0.0736
 4404SOL    HW124845   3.672   4.592   6.203  0.3662 -0.7545  0.9796
 4404SOL    HW224846   3.632   4.731   6.199 -0.2829  0.0375  0.8369
 4405SOL     OW24847   4.212   1.987   8.939  0.1212  0.2520  0.0155
 4405SOL    HW124848   4.204   2.079   8.966 -0.7402  0.1028  0.2693
 4405SOL    HW224849   4.255   1.952   9.017 -2.0509 -2.0969  0.1743
 4406SOL     OW24850   0.150   0.693   7.359  0.2052  0.0680  0.4623
 4406SOL    HW124851   0.153   0.599   7.380  0.9610 -0.1838 -0.7763
 4406SOL    HW224852   0.243   0.704   7.340 -0.2489  0.3607 -1.6199
 4407SOL     OW24853   0.608   4.189   3.674  0.0421 -0.3745  0.0676
 4407SOL    HW124854   0.555   4.243   3.733 -0.1684  0.0197 -0.4908
 4407SOL    HW224855   0.685   4.245   3.661 -0.7839  0.6174 -0.5040
 4408SOL     OW24856   1.103   2.666   2.227  0.0303  0.0681  0.0353
 4408SOL    HW124857   1.178   2.622   2.266 -0.7345 -1.0094  0.2633
 4408SOL    HW224858   1.053   2.695   2.303  0.3389  0.3432  0.1376
 4409SOL     OW24859   1.813   4.718  17.411 -0.1512  0.0752  0.3800
 4409SOL    HW124860   1.754   0.048  17.450 -0.5051  0.3728 -0.6389
 4409SOL    HW224861   1.769   4.713  17.326 -0.7339 -0.8488  0.7352
 4410SOL     OW24862   4.274   3.897  14.132 -0.6193 -0.2244 -0.4897
 4410SOL    HW124863   4.220   3.976  14.135  1.8241  1.3088  2.7861
 4410SOL    HW224864   4.340   3.929  14.070 -0.0509 -2.3224 -0.9752
 4411SOL     OW24865   2.191   1.705   3.183 -0.8548 -0.0101 -0.1995
 4411SOL    HW124866   2.276   1.685   3.145 -1.3341  0.5048 -1.5124
 4411SOL    HW224867   2.153   1.619   3.167 -0.2339  0.0410 -1.8674
 4412SOL     OW24868   0.045   1.773  12.656 -0.0175  0.1121  0.2548
 4412SOL    HW124869   0.090   1.718  12.721  0.1760 -0.1642 -0.1126
 4412SOL    HW224870   0.110   1.792  12.588 -0.5172  0.6273 -0.0780
 4413SOL     OW24871   0.961   3.516   4.629 -0.0169 -1.0880 -0.0828
 4413SOL    HW124872   0.898   3.548   4.564  0.3286 -2.2200 -0.9703
 4413SOL    HW224873   0.915   3.435   4.650 -1.1901 -0.4596 -0.1823
 4414SOL     OW24874   2.909   1.452   3.338  0.0934 -0.7517  0.5119
 4414SOL    HW124875   2.841   1.385   3.337  0.2824 -0.9304 -1.0697
 4414SOL    HW224876   2.908   1.482   3.429  2.8640 -0.3001  0.4006
 4415SOL     OW24877   1.550   1.920   7.576 -0.2494 -0.6433  0.0861
 4415SOL    HW124878   1.577   2.010   7.560 -1.1044 -0.3261  0.3896
 4415SOL    HW224879   1.461   1.940   7.606  0.6517 -0.3876  2.5404
 4416SOL     OW24880   3.668   0.609   4.546 -0.4811 -0.5364  0.7087
 4416SOL    HW124881   3.737   0.586   4.609  0.1106 -3.1579 -0.9139
 4416SOL    HW224882   3.637   0.530   4.503 -0.4905 -0.1582  0.0310
 4417SOL     OW24883   4.155   4.560   3.187  0.5723 -0.9351  0.3727
 4417SOL    HW124884   4.071   4.604   3.175  1.7353  0.5507 -2.4079
 4417SOL    HW224885   4.191   4.612   3.259 -0.7060  0.3276  0.0843
 4418SOL     OW24886   2.006   2.256   2.152 -0.4546 -0.4093  0.0789
 4418SOL    HW124887   1.999   2.333   2.208  2.0305 -0.3707  0.3307
 4418SOL    HW224888   2.072   2.200   2.192 -0.0501  0.0001 -0.0204
 4419SOL     OW24889   0.002   2.119   8.200  0.5987 -0.1114  0.6838
 4419SOL    HW124890   0.052   2.109   8.281  2.5938 -0.0605 -0.5118
 4419SOL    HW224891   0.078   2.153   8.152 -0.9079 -1.2914 -2.4852
 4420SOL     OW24892   0.627   0.948   7.084  0.8263  0.8122 -0.0254
 4420SOL    HW124893   0.721   0.950   7.067  0.4326 -0.1642 -2.3346
 4420SOL    HW224894   0.617   0.855   7.066  1.8168  0.2838  2.2272
 4421SOL     OW24895   3.233   2.587   2.548 -0.5075 -0.1235 -0.3587
 4421SOL    HW124896   3.274   2.582   2.634 -0.4484  1.1809 -0.3132
 4421SOL    HW224897   3.168   2.653   2.573  1.7480  1.6666  0.8019
 4422SOL     OW24898   2.157   2.315   8.578 -0.0706 -0.0121 -0.0656
 4422SOL    HW124899   2.131   2.350   8.663 -2.5469 -0.1154 -0.7838
 4422SOL    HW224900   2.110   2.233   8.581  1.1616 -0.8352 -2.7408
 4423SOL     OW24901   0.001   4.211   6.740 -0.3688  0.1749 -0.6292
 4423SOL    HW124902   4.668   4.253   6.793  0.0372  1.8008 -1.4311
 4423SOL    HW224903   4.709   4.119   6.750 -0.0148 -0.1945 -3.2214
 4424SOL     OW24904   3.797   0.462   4.267  0.1139  0.7384  0.0545
 4424SOL    HW124905   3.717   0.432   4.222  0.2478 -1.3125  1.1910
 4424SOL    HW224906   3.795   0.407   4.345 -0.7801  1.0556  0.2574
 4425SOL     OW24907   3.671   2.102  16.292  0.0189 -0.3329  0.0148
 4425SOL    HW124908   3.725   2.175  16.321 -1.1188  0.0823  1.1059
 4425SOL    HW224909   3.732   2.042  16.249 -0.5085 -0.1614 -0.9616
 4426SOL     OW24910   3.901   2.215   9.587  0.3051 -0.1966 -0.0493
 4426SOL    HW124911   3.855   2.225   9.504  2.5056 -4.2239 -1.7602
 4426SOL    HW224912   3.969   2.282   9.591 -1.7015  1.7691  0.9650
 4427SOL     OW24913   3.831   1.236   6.542  0.1218 -0.4294 -0.1414
 4427SOL    HW124914   3.846   1.228   6.636 -0.4389 -0.1017 -0.0233
 4427SOL    HW224915   3.908   1.206   6.495 -0.3986 -2.9611  0.6069
 4428SOL     OW24916   0.496   3.342   3.944 -0.7688 -0.1093  0.3835
 4428SOL    HW124917   0.446   3.423   3.954  3.0264  2.3475 -0.4726
 4428SOL    HW224918   0.446   3.288   4.005 -2.4465 -0.5628 -1.3855
 4429SOL     OW24919   4.380   1.901   0.213 -0.1966  0.0266 -0.5755
 4429SOL    HW124920   4.303   1.956   0.198 -0.1725  0.3412  0.4282
 4429SOL    HW224921   4.388   1.860   0.127 -0.8026  0.4479 -0.8350
 4430SOL     OW24922   0.930   2.042  12.764 -0.0130 -0.1182  0.3382
 4430SOL    HW124923   0.905   2.131  12.738 -2.8844 -0.7382  0.9761
 4430SOL    HW224924   0.915   2.034  12.858  0.7121 -1.4858  0.3405
 4431SOL     OW24925   0.129   3.022   8.062  0.2370 -0.3033 -0.4541
 4431SOL    HW124926   0.208   3.059   8.021 -0.5286 -0.2497 -1.8611
 4431SOL    HW224927   0.107   2.951   8.001 -0.1214  0.3618 -1.1001
 4432SOL     OW24928   4.276   1.555   4.492  0.4687  0.3870  0.0866
 4432SOL    HW124929   4.299   1.648   4.481 -0.2660  0.4606 -0.8074
 4432SOL    HW224930   4.196   1.556   4.545  0.1266  1.0679 -0.4413
 4433SOL     OW24931   0.960   3.320  14.671 -0.2264 -0.1412  0.2051
 4433SOL    HW124932   0.950   3.357  14.583  2.2264 -0.7881 -0.3577
 4433SOL    HW224933   1.052   3.292  14.667 -0.5873 -1.5452  1.8745
 4434SOL     OW24934   2.588   3.083   9.665 -0.2131  0.1290 -0.3739
 4434SOL    HW124935   2.659   3.125   9.617  0.9379  0.0576  1.2747
 4434SOL    HW224936   2.599   2.990   9.647  0.1818 -0.5472  3.3072
 4435SOL     OW24937   3.466   3.749   9.741 -0.3118  0.1550  0.1488
 4435SOL    HW124938   3.510   3.667   9.719  0.0297  0.2254  0.5794
 4435SOL    HW224939   3.479   3.804   9.663 -3.0940 -1.3828 -1.4234
 4436SOL     OW24940   2.679   1.876   7.041  0.2124 -0.9032 -0.2977
 4436SOL    HW124941   2.689   1.942   7.110 -0.8573 -0.0365 -0.9936
 4436SOL    HW224942   2.728   1.914   6.969 -1.8489  2.2913 -0.0211
 4437SOL     OW24943   1.468   3.623   3.931 -0.4006 -0.2927  0.0355
 4437SOL    HW124944   1.440   3.657   4.016 -2.0583  0.2767 -0.7354
 4437SOL    HW224945   1.517   3.541   3.945  0.7643  0.4102  0.0286
 4438SOL     OW24946   3.878   3.955  12.752  0.1186  0.3794 -0.2120
 4438SOL    HW124947   3.974   3.953  12.755  0.1546  0.7931 -1.2965
 4438SOL    HW224948   3.860   3.861  12.761  1.0936  0.1170 -0.9131
 4439SOL     OW24949   1.961   2.318   7.087  0.1052 -0.3401 -0.6102
 4439SOL    HW124950   2.019   2.345   7.158 -0.9268 -0.6087  0.3299
 4439SOL    HW224951   1.894   2.264   7.129  0.0977 -0.7115 -1.1022
 4440SOL     OW24952   0.891   4.092   4.784 -0.0110 -0.4197 -0.0011
 4440SOL    HW124953   0.803   4.066   4.813  0.5856 -1.4125  0.8926
 4440SOL    HW224954   0.914   4.011   4.739  0.5746  0.4212 -1.2225
 4441SOL     OW24955   0.886   1.883  16.695 -0.1855 -0.0416 -0.4848
 4441SOL    HW124956   0.838   1.829  16.758 -0.3574 -0.0818 -0.6484
 4441SOL    HW224957   0.838   1.966  16.690 -1.4228 -0.6714  1.0352
 4442SOL     OW24958   1.471   1.738   2.421  0.0521 -0.1224 -0.4635
 4442SOL    HW124959   1.497   1.676   2.490 -1.6940 -0.9400 -0.5470
 4442SOL    HW224960   1.484   1.827   2.454  0.8042 -1.0018  1.6212
 4443SOL     OW24961   2.627   4.323  16.423 -0.2701  0.1208  0.6489
 4443SOL    HW124962   2.623   4.404  16.475 -0.4919 -0.9031  2.2319
 4443SOL    HW224963   2.546   4.278  16.446  0.3882 -0.6154  1.5249
 4444SOL     OW24964   0.384   3.619   3.054  0.0920 -0.0506  0.0696
 4444SOL    HW124965   0.329   3.683   3.008 -1.4890 -1.9165 -0.5961
 4444SOL    HW224966   0.343   3.626   3.141  0.3246  0.9917  0.0977
 4445SOL     OW24967   4.513   1.092   8.364 -0.0807 -0.0049 -0.1529
 4445SOL    HW124968   4.507   1.186   8.384 -0.3343 -0.3216  1.2041
 4445SOL    HW224969   4.445   1.053   8.418  1.0222 -0.4520  0.9104
 4446SOL     OW24970   0.689   0.997   0.252 -0.1851 -0.1718  0.2429
 4446SOL    HW124971   0.669   0.904   0.251  0.5435 -0.3255  0.4182
 4446SOL    HW224972   0.685   1.017   0.346 -2.3986 -1.8668  0.5214
 4447SOL     OW24973   3.219   3.957   3.642  0.4987  0.1122  0.0841
 4447SOL    HW124974   3.248   4.005   3.564  3.2029 -1.8241 -0.1308
 4447SOL    HW224975   3.301   3.912   3.665  1.2886  1.4123 -0.1905
 4448SOL     OW24976   2.335   2.402   7.740 -0.1282 -0.2024 -0.0495
 4448SOL    HW124977   2.390   2.369   7.669  1.2286  0.8323  0.5143
 4448SOL    HW224978   2.247   2.385   7.706 -0.6786  0.4351  1.0678
 4449SOL     OW24979   1.847   0.758   8.258  0.1254 -0.2366 -0.3685
 4449SOL    HW124980   1.835   0.698   8.331  0.8338 -0.7195 -0.6479
 4449SOL    HW224981   1.814   0.840   8.296 -0.0398 -0.1404 -0.7134
 4450SOL     OW24982   0.798   2.769   4.105  0.0328 -0.1075  0.1849
 4450SOL    HW124983   0.790   2.848   4.158  2.1800  1.0681 -1.2422
 4450SOL    HW224984   0.750   2.796   4.027 -0.4973  4.2019  2.0102
 4451SOL     OW24985   0.269   2.481   9.249 -0.4497  0.5931  0.9471
 4451SOL    HW124986   0.290   2.474   9.342 -1.7472 -1.3304  1.0960
 4451SOL    HW224987   0.346   2.436   9.212 -1.1264 -0.9610  1.4489
 4452SOL     OW24988   0.054   1.286   6.173 -0.0494 -0.2289 -0.2389
 4452SOL    HW124989   0.076   1.379   6.177  0.2610 -0.2636 -1.1593
 4452SOL    HW224990   0.120   1.247   6.115 -1.1307  0.4815 -1.9406
 4453SOL     OW24991   3.656   4.008  17.191 -0.6048  0.0916  0.2866
 4453SOL    HW124992   3.574   4.055  17.175 -0.9110  0.2824  2.3412
 4453SOL    HW224993   3.708   4.081  17.226  0.0649 -0.6946  0.9437
 4454SOL     OW24994   2.202   3.322  10.555 -0.7462  0.4437  0.3967
 4454SOL    HW124995   2.191   3.358  10.643 -1.4823  0.8104  0.1473
 4454SOL    HW224996   2.255   3.390  10.513 -0.9647  1.7517  2.2350
 4455SOL     OW24997   2.404   0.037   4.044  0.0710  0.2497 -0.1223
 4455SOL    HW124998   2.488   0.008   4.008 -0.3910 -0.3795 -0.6862
 4455SOL    HW224999   2.386   4.698   4.102 -1.0814  0.1779 -0.5842
 4456SOL     OW25000   2.723   1.490   2.942  0.1860 -0.5570  0.5737
 4456SOL    HW125001   2.789   1.557   2.958 -1.2474  1.2499 -0.9798
 4456SOL    HW225002   2.729   1.494   2.846  1.5202 -1.0004  0.6424
 4457SOL     OW25003   0.466   3.509   7.096 -0.0220 -0.6517 -0.2401
 4457SOL    HW125004   0.499   3.552   7.017 -1.6987 -1.6509 -1.4845
 4457SOL    HW225005   0.394   3.567   7.120  2.1461  1.3920  1.2655
 4458SOL     OW25006   3.253   3.484   4.187  0.5040  0.0534  0.5575
 4458SOL    HW125007   3.245   3.467   4.093 -0.4999  0.2297  0.6074
 4458SOL    HW225008   3.162   3.502   4.210 -0.1713  1.2333 -3.0226
 4459SOL     OW25009   2.981   2.274   5.350  0.4148 -0.4241 -0.2085
 4459SOL    HW125010   3.026   2.291   5.267 -0.9444  0.3809 -0.7816
 4459SOL    HW225011   2.909   2.337   5.353  1.8118  1.1471  0.1417
 4460SOL     OW25012   0.603   2.045  12.286 -0.7328  0.5038 -0.6845
 4460SOL    HW125013   0.652   1.981  12.235  0.3351  2.3687 -1.9886
 4460SOL    HW225014   0.560   2.105  12.225 -1.5350 -0.0295 -0.6423
 4461SOL     OW25015   4.053   2.716   9.516 -0.2018  0.1801 -0.3074
 4461SOL    HW125016   4.127   2.773   9.535 -0.6034  1.0817 -1.4032
 4461SOL    HW225017   4.014   2.708   9.603 -4.7399  0.3633 -2.3236
 4462SOL     OW25018   2.904   2.886   9.723  0.0414 -0.8690  0.1921
 4462SOL    HW125019   2.924   2.976   9.748 -0.0483 -1.4003  2.2238
 4462SOL    HW225020   2.949   2.884   9.639 -0.6432 -0.8395 -0.1687
 4463SOL     OW25021   0.426   1.738   1.992  0.0811 -0.3147  0.3111
 4463SOL    HW125022   0.425   1.774   2.080  0.0266  0.3345  0.0424
 4463SOL    HW225023   0.464   1.810   1.943 -1.3605 -2.0609 -3.3953
 4464SOL     OW25024   4.145   1.195  16.746 -0.1483  0.2144  0.6628
 4464SOL    HW125025   4.166   1.123  16.686  0.9165  1.8560 -0.9402
 4464SOL    HW225026   4.226   1.244  16.738 -1.7803  2.3065 -3.2473
 4465SOL     OW25027   3.791   0.466   9.260 -0.2627  0.3626 -0.2334
 4465SOL    HW125028   3.823   0.494   9.346 -2.1736 -0.3717  0.6955
 4465SOL    HW225029   3.746   0.549   9.244 -1.2979 -0.4186 -1.3212
 4466SOL     OW25030   4.009   3.333   3.528 -0.0156  0.2340 -0.6127
 4466SOL    HW125031   3.944   3.400   3.549  0.3601 -0.4380  2.6659
 4466SOL    HW225032   3.997   3.273   3.601 -0.0852  0.6334 -0.2940
 4467SOL     OW25033   1.964   0.261   5.885  0.0119  0.0390  0.2293
 4467SOL    HW125034   1.974   0.194   5.817  1.4113  0.4218  0.0544
 4467SOL    HW225035   1.869   0.261   5.896  0.1832  0.8760  1.7130
 4468SOL     OW25036   3.082   0.983   3.241 -0.1944  0.2659 -0.3963
 4468SOL    HW125037   3.127   0.917   3.293 -0.1385  0.3817 -0.2967
 4468SOL    HW225038   3.000   0.934   3.241  0.2022 -0.3926 -0.9489
 4469SOL     OW25039   1.253   3.296   5.844 -0.1119  0.3611 -0.3749
 4469SOL    HW125040   1.194   3.224   5.821 -1.2611  0.2685  2.9905
 4469SOL    HW225041   1.234   3.357   5.772 -2.7054  1.9943  1.7198
 4470SOL     OW25042   1.934   1.772   2.568  1.0175 -0.3482 -0.0625
 4470SOL    HW125043   1.995   1.710   2.528  0.6214 -0.6504 -0.2053
 4470SOL    HW225044   1.920   1.834   2.496 -0.8797 -2.1291 -1.2203
 4471SOL     OW25045   2.832   3.965  15.387 -0.5841  0.3179 -0.1870
 4471SOL    HW125046   2.808   4.056  15.406 -0.5482  0.7036 -1.9488
 4471SOL    HW225047   2.905   3.961  15.449 -0.1063  0.0138 -0.7674
 4472SOL     OW25048   1.909   3.805   5.750 -0.4375  0.8379  0.0396
 4472SOL    HW125049   1.891   3.899   5.746  0.5880  1.0741  0.8176
 4472SOL    HW225050   1.874   3.776   5.666  0.4541 -2.0414  0.6529
 4473SOL     OW25051   2.870   0.137   2.082 -0.2534 -0.1110 -0.1523
 4473SOL    HW125052   2.939   0.110   2.022  0.3724  0.6827  0.2013
 4473SOL    HW225053   2.910   0.199   2.144 -2.7559 -1.4687  2.8415
 4474SOL     OW25054   0.351   3.806   7.408  0.2028  0.2045 -0.1322
 4474SOL    HW125055   0.326   3.898   7.400 -0.7620 -0.2230 -2.0159
 4474SOL    HW225056   0.408   3.816   7.485 -0.9228 -0.6531  0.8002
 4475SOL     OW25057   4.448   4.145   6.259 -0.2262  0.2200 -0.2325
 4475SOL    HW125058   4.365   4.107   6.288  0.0820 -1.6729 -1.8114
 4475SOL    HW225059   4.488   4.169   6.343 -1.5926 -0.2582  0.5726
 4476SOL     OW25060   4.376   1.488   3.517  0.2001  0.4449  1.1108
 4476SOL    HW125061   4.383   1.477   3.423  2.9788 -0.8550  1.4869
 4476SOL    HW225062   4.282   1.504   3.531 -0.6963 -2.2285 -2.0065
 4477SOL     OW25063   4.437   2.217   8.485 -0.2530 -0.4175 -0.2943
 4477SOL    HW125064   4.408   2.308   8.490 -0.1292 -0.3440 -0.9509
 4477SOL    HW225065   4.495   2.202   8.561 -1.5904 -2.1562  0.3936
 4478SOL     OW25066   1.225   2.250   6.521 -0.1935 -0.3000  0.3996
 4478SOL    HW125067   1.278   2.329   6.508 -1.0175  0.4926  1.8102
 4478SOL    HW225068   1.202   2.236   6.430  1.1163  0.3801 -0.0342
 4479SOL     OW25069   2.116   2.302   2.692 -0.1648 -0.0289  0.6654
 4479SOL    HW125070   2.152   2.255   2.767  0.8729 -2.0506 -1.1212
 4479SOL    HW225071   2.172   2.379   2.679  0.9920 -0.9860 -0.0051
 4480SOL     OW25072   2.016   1.222  13.476 -0.0766 -0.6794 -0.0019
 4480SOL    HW125073   2.078   1.282  13.517  0.5937 -1.4610  0.1234
 4480SOL    HW225074   2.037   1.144  13.528 -1.9841 -1.3310 -0.2261
 4481SOL     OW25075   0.891   2.541  10.783 -0.3597 -0.1076 -1.4714
 4481SOL    HW125076   0.972   2.492  10.800 -0.7966 -1.0238 -2.0221
 4481SOL    HW225077   0.836   2.476  10.740 -1.4504  0.9808 -1.7170
 4482SOL     OW25078   1.659   1.548   2.207  0.3933 -0.0017  0.0015
 4482SOL    HW125079   1.586   1.609   2.194  1.4219  1.5710  1.6065
 4482SOL    HW225080   1.624   1.486   2.270  0.8537  0.5752  0.8316
 4483SOL     OW25081   2.598   4.088   2.703  0.3734 -0.1270 -0.5399
 4483SOL    HW125082   2.543   4.026   2.751  0.3290 -0.0029 -0.4291
 4483SOL    HW225083   2.557   4.081   2.618  0.4550 -0.1092 -0.5808
 4484SOL     OW25084   2.718   4.568   7.665 -0.4349 -0.0966 -0.4489
 4484SOL    HW125085   2.803   4.608   7.684 -0.2350 -0.6223 -0.2285
 4484SOL    HW225086   2.664   4.615   7.729 -2.9498 -1.3370 -1.6665
 4485SOL     OW25087   0.537   2.241  17.410 -0.4248 -0.1869 -0.5894
 4485SOL    HW125088   0.586   2.323  17.406 -1.2617  0.3986  1.1968
 4485SOL    HW225089   0.526   2.242  17.505  0.2537  1.8276 -0.5390
 4486SOL     OW25090   1.457   2.266   2.214  0.1079  0.2280  0.2687
 4486SOL    HW125091   1.546   2.301   2.206  0.5914 -0.8980  0.6600
 4486SOL    HW225092   1.467   2.197   2.280  0.0795 -1.3512 -1.3603
 4487SOL     OW25093   3.930   3.692  17.410  0.2659  0.0565 -0.6261
 4487SOL    HW125094   3.864   3.740  17.361 -1.0032 -1.2554 -0.2065
 4487SOL    HW225095   3.892   3.604  17.407 -0.0941  0.1708  0.5207
 4488SOL     OW25096   1.052   0.157   9.055  0.1905  0.0955  0.5119
 4488SOL    HW125097   1.107   0.108   9.116 -0.6009 -1.3732  0.0292
 4488SOL    HW225098   1.029   0.092   8.989 -2.4562  1.5447  0.0024
 4489SOL     OW25099   0.078   1.590   7.533 -0.3622  0.1848  0.2822
 4489SOL    HW125100   0.017   1.658   7.561 -0.2465  0.1320  0.6572
 4489SOL    HW225101   0.150   1.649   7.510 -2.3395  2.8335  0.9192
 4490SOL     OW25102   3.125   0.429   3.676 -0.1174  0.3221  0.2209
 4490SOL    HW125103   3.141   0.345   3.633  0.5206  0.6589 -0.1963
 4490SOL    HW225104   3.212   0.468   3.673  0.0269 -0.0165 -0.1289
 4491SOL     OW25105   3.755   0.069  10.654  0.2329 -0.3817  1.3038
 4491SOL    HW125106   3.837   0.048  10.610 -0.3591 -0.4944  0.2525
 4491SOL    HW225107   3.693   0.078  10.581  0.8781  1.3740  0.9839
 4492SOL     OW25108   3.150   4.521   6.635 -0.2042  0.0348 -0.1833
 4492SOL    HW125109   3.233   4.482   6.608 -0.6156 -1.2595  0.3907
 4492SOL    HW225110   3.135   4.454   6.702  0.2236 -1.5853 -1.6854
 4493SOL     OW25111   0.646   3.973   4.033  0.0366 -0.0254 -0.1507
 4493SOL    HW125112   0.696   4.052   4.054  1.6399 -1.1181  0.0990
 4493SOL    HW225113   0.643   3.961   3.938 -1.2224 -0.0848 -0.1036
 4494SOL     OW25114   0.455   3.174   0.470  0.0357  0.1773  0.3358
 4494SOL    HW125115   0.429   3.236   0.402 -1.2511 -2.3522 -1.4853
 4494SOL    HW225116   0.368   3.138   0.488 -0.5079 -0.0338 -2.6114
 4495SOL     OW25117   4.150   1.233   9.323 -0.0493 -0.3052 -0.3413
 4495SOL    HW125118   4.242   1.213   9.303  0.2201  1.6033 -1.0604
 4495SOL    HW225119   4.129   1.271   9.237  1.6802  1.6171  0.0769
 4496SOL     OW25120   2.986   3.652   3.789 -0.3600  0.4326 -0.1939
 4496SOL    HW125121   3.023   3.665   3.876 -0.4866  0.2345 -0.1107
 4496SOL    HW225122   2.995   3.557   3.776 -1.5047  0.1926  0.8058
 4497SOL     OW25123   2.775   3.488   3.421 -0.0577 -0.2235 -0.4392
 4497SOL    HW125124   2.719   3.416   3.449 -1.6430  1.3135  0.3854
 4497SOL    HW225125   2.774   3.467   3.328  1.0330  1.2748 -0.7936
 4498SOL     OW25126   2.533   1.181   8.545  0.4445  0.1997  0.1967
 4498SOL    HW125127   2.538   1.207   8.637  0.4403  2.4414 -0.4289
 4498SOL    HW225128   2.527   1.267   8.502  0.7692  0.9029  1.5591
 4499SOL     OW25129   4.634   2.983  13.935  0.1197  0.0743 -0.2654
 4499SOL    HW125130   4.570   3.004  13.867  0.1695  0.8689 -0.0701
 4499SOL    HW225131   4.623   3.064  13.985 -1.5736  0.1795 -0.8059
 4500SOL     OW25132   1.992   2.327   5.680 -0.7328 -0.8723  0.0853
 4500SOL    HW125133   1.977   2.247   5.731 -0.2855 -1.5823 -0.8939
 4500SOL    HW225134   2.086   2.318   5.660  0.2889  1.2470  3.9330
 4501SOL     OW25135   3.633   3.792   4.300 -0.6466  0.1818  0.0558
 4501SOL    HW125136   3.553   3.739   4.305 -0.4671 -0.0761  0.2385
 4501SOL    HW225137   3.675   3.786   4.386  3.3965  2.9638 -1.7622
 4502SOL     OW25138   2.253   1.362  16.344  0.4154  0.1248 -0.0775
 4502SOL    HW125139   2.211   1.447  16.336 -0.2633 -0.1661  0.3364
 4502SOL    HW225140   2.326   1.376  16.283 -0.3385  1.8478 -0.5795
 4503SOL     OW25141   1.253   3.749   9.171 -0.7985  0.1188 -0.5694
 4503SOL    HW125142   1.285   3.732   9.260  1.5412  1.7810 -1.0987
 4503SOL    HW225143   1.163   3.780   9.182 -1.6436 -2.6731  0.3711
 4504SOL     OW25144   0.065   0.942   0.276 -0.0982  0.2168 -0.0042
 4504SOL    HW125145   0.082   1.035   0.259 -1.3892  0.0797 -2.1720
 4504SOL    HW225146   0.105   0.906   0.196  0.3528  0.9314 -0.0976
 4505SOL     OW25147   2.073   2.503   3.188 -0.2381  0.1113 -0.0505
 4505SOL    HW125148   2.070   2.550   3.271 -2.5270  0.9223 -0.6062
 4505SOL    HW225149   1.995   2.447   3.188 -2.0015  2.5924  2.4696
 4506SOL     OW25150   1.665   4.193  14.420  0.0904  0.5029 -0.2608
 4506SOL    HW125151   1.598   4.127  14.404 -2.2365  2.6119  0.8292
 4506SOL    HW225152   1.690   4.222  14.333 -1.7505 -3.0729 -1.9884
 4507SOL     OW25153   3.104   3.864   2.661 -0.0766 -0.5571 -0.0306
 4507SOL    HW125154   3.042   3.934   2.644 -0.3428 -1.2709 -1.9814
 4507SOL    HW225155   3.127   3.834   2.573  1.1756 -1.1067  0.4790
 4508SOL     OW25156   3.974   0.997  16.577 -0.4607 -0.6590  0.2645
 4508SOL    HW125157   4.046   1.005  16.515  0.9010  0.0279  1.9462
 4508SOL    HW225158   3.976   1.088  16.606  0.0055 -0.6685  0.2592
 4509SOL     OW25159   0.490   0.735   3.892 -0.2960 -0.3984 -0.0039
 4509SOL    HW125160   0.554   0.762   3.958 -0.1164 -5.2314  1.7671
 4509SOL    HW225161   0.459   0.822   3.865 -0.4057 -0.8491 -1.3375
 4510SOL     OW25162   0.921   0.660  10.431 -0.0517 -0.1682 -0.2617
 4510SOL    HW125163   0.832   0.627  10.440  0.1731 -0.6767  0.0838
 4510SOL    HW225164   0.954   0.636  10.517  0.3323  2.7539  0.4329
 4511SOL     OW25165   1.739   1.292   6.213 -0.3170  0.4456 -0.0136
 4511SOL    HW125166   1.812   1.339   6.253 -1.9031  1.8834  1.2061
 4511SOL    HW225167   1.660   1.345   6.221 -0.8430 -0.1874 -1.0088
 4512SOL     OW25168   3.998   3.419   8.662 -0.0375 -0.2161  0.0283
 4512SOL    HW125169   4.064   3.399   8.729 -0.8757  1.8904  1.4687
 4512SOL    HW225170   3.943   3.487   8.700  1.7624  0.3277  1.6343
 4513SOL     OW25171   1.872   3.645   4.332  0.3084 -0.4323  0.4141
 4513SOL    HW125172   1.841   3.573   4.387 -2.8030  2.2107  2.0593
 4513SOL    HW225173   1.792   3.673   4.288  0.2845  0.9238  1.3276
 4514SOL     OW25174   2.865   2.955   7.529 -0.3621 -0.0606  0.0405
 4514SOL    HW125175   2.823   2.956   7.443  1.9149  2.4545 -1.0509
 4514SOL    HW225176   2.941   3.011   7.514 -0.1327  0.0353  1.5773
 4515SOL     OW25177   0.762   0.498   8.647  0.1930  0.2139 -0.4285
 4515SOL    HW125178   0.855   0.513   8.662  0.8118 -1.9159 -2.1529
 4515SOL    HW225179   0.774   0.408   8.618 -0.1249 -0.0719  0.3307
 4516SOL     OW25180   4.164   2.120  12.508 -0.3596  0.3822  0.3928
 4516SOL    HW125181   4.200   2.196  12.555  2.7441  0.6352 -2.3748
 4516SOL    HW225182   4.250   2.083  12.487  0.1335  1.8612 -0.1799
 4517SOL     OW25183   1.825   2.971   0.700  0.0582  0.2270 -0.0686
 4517SOL    HW125184   1.864   3.017   0.626 -0.5759 -1.3414 -1.3770
 4517SOL    HW225185   1.773   3.042   0.737  1.5760  0.4671  1.6226
 4518SOL     OW25186   3.977   0.284   5.789  0.3043  0.0380  0.5743
 4518SOL    HW125187   4.006   0.370   5.817 -0.2024  1.2853 -2.6929
 4518SOL    HW225188   4.056   0.255   5.743 -1.2298 -2.2097 -0.6402
 4519SOL     OW25189   0.337   0.784   2.077  0.2448 -0.1394  0.2930
 4519SOL    HW125190   0.257   0.793   2.025 -1.2363  0.2459  2.6724
 4519SOL    HW225191   0.404   0.843   2.041  0.0852  0.6474  1.2905
 4520SOL     OW25192   0.548   1.681   7.548  0.1959 -0.4555 -0.2420
 4520SOL    HW125193   0.551   1.627   7.627 -0.4301 -2.5790 -1.6564
 4520SOL    HW225194   0.604   1.637   7.484  0.8319  0.6121 -0.4298
 4521SOL     OW25195   0.569   2.622   7.735 -0.7779  0.1006  0.5605
 4521SOL    HW125196   0.632   2.550   7.730 -0.5205  0.2780  1.2179
 4521SOL    HW225197   0.504   2.591   7.672  1.8118 -0.9502 -1.5903
 4522SOL     OW25198   2.898   2.967   3.561  0.1792  0.5622  0.4138
 4522SOL    HW125199   2.958   2.991   3.490 -0.4613 -2.8934 -1.2679
 4522SOL    HW225200   2.923   3.028   3.630  0.1609  0.5261  0.4525
 4523SOL     OW25201   2.348   2.582   3.769  0.0290 -0.7162 -0.5699
 4523SOL    HW125202   2.410   2.555   3.701 -0.9129 -2.4607 -0.7211
 4523SOL    HW225203   2.383   2.555   3.853  1.9199  2.5821 -0.3031
 4524SOL     OW25204   0.894   1.935  11.814 -0.3348  0.4502  0.2084
 4524SOL    HW125205   0.871   2.015  11.767  3.6553  0.3086 -1.9861
 4524SOL    HW225206   0.936   1.881  11.747 -1.3308  1.2818 -1.0803
 4525SOL     OW25207   2.003   4.363  14.225  0.1550  0.1750 -0.4608
 4525SOL    HW125208   1.908   4.365  14.213  0.1568  2.0430 -0.1923
 4525SOL    HW225209   2.013   4.416  14.305 -0.9407 -0.0959 -0.1452
 4526SOL     OW25210   1.519   0.894  11.888  0.3693 -0.2620  0.2705
 4526SOL    HW125211   1.507   0.958  11.818 -0.0624 -1.5707 -0.8671
 4526SOL    HW225212   1.614   0.902  11.896  0.3323  0.1232  0.3007
 4527SOL     OW25213   2.517   0.381   6.457  0.2241 -0.0970 -0.2122
 4527SOL    HW125214   2.422   0.381   6.467  0.3014  0.4463  0.4859
 4527SOL    HW225215   2.539   0.461   6.505 -1.5743 -1.3033  2.6239
 4528SOL     OW25216   4.415   1.699   2.798  0.1808  0.8931  0.3580
 4528SOL    HW125217   4.474   1.708   2.873 -0.0125 -0.9579  0.7312
 4528SOL    HW225218   4.328   1.719   2.834  0.0055 -0.2286  0.5423
 4529SOL     OW25219   3.772   2.344   8.988  0.4051 -0.3622  0.2707
 4529SOL    HW125220   3.802   2.280   9.053 -0.0194 -0.5314  0.3059
 4529SOL    HW225221   3.677   2.329   8.993  0.0362  0.8851 -2.7695
 4530SOL     OW25222   3.420   1.219  14.877  0.0742 -0.6005  0.1149
 4530SOL    HW125223   3.356   1.148  14.885  0.5625 -0.8294  1.9551
 4530SOL    HW225224   3.490   1.172  14.831 -0.4150 -0.0919 -1.1640
 4531SOL     OW25225   0.922   3.751   7.225 -0.4477 -0.4826 -0.0235
 4531SOL    HW125226   0.916   3.792   7.139  3.5628 -0.5284 -0.3299
 4531SOL    HW225227   0.926   3.831   7.278  1.0929 -0.5281 -0.0735
 4532SOL     OW25228   2.661   4.416   4.004  0.4838 -0.3109  0.1710
 4532SOL    HW125229   2.575   4.377   3.986  0.1553  2.0896 -3.4462
 4532SOL    HW225230   2.710   4.348   4.051  1.3388 -0.3830 -0.8457
 4533SOL     OW25231   4.001   3.560  10.184  0.4515  0.5257  0.8371
 4533SOL    HW125232   4.045   3.615  10.119 -1.7945  0.9360 -0.3402
 4533SOL    HW225233   4.021   3.471  10.154 -0.1390  0.7873 -0.3054
 4534SOL     OW25234   3.787   4.251   5.744 -0.1227 -0.0782  0.0282
 4534SOL    HW125235   3.846   4.204   5.803 -1.1505 -1.1455  0.2200
 4534SOL    HW225236   3.781   4.335   5.789  0.2332 -1.0960  1.9525
 4535SOL     OW25237   4.431   0.120   4.441 -0.3737 -0.1951  0.8560
 4535SOL    HW125238   4.442   0.028   4.465 -0.3425 -0.0047  1.5702
 4535SOL    HW225239   4.508   0.138   4.388 -0.3085 -3.0265 -0.0203
 4536SOL     OW25240   1.697   2.434   1.436 -0.3084  0.3992 -0.0450
 4536SOL    HW125241   1.718   2.353   1.389 -0.1120  0.9388 -0.8903
 4536SOL    HW225242   1.762   2.433   1.506 -0.7158 -1.9124  0.2875
 4537SOL     OW25243   0.362   3.441  10.063 -0.0047  0.2478 -0.1452
 4537SOL    HW125244   0.331   3.373  10.122 -1.3913 -1.0311 -2.3345
 4537SOL    HW225245   0.331   3.403   9.980 -1.0456  1.9763 -0.5577
 4538SOL     OW25246   0.474   2.280   5.906  0.3624  0.3023  0.2138
 4538SOL    HW125247   0.510   2.210   5.960  2.3291  1.4013  0.3300
 4538SOL    HW225248   0.417   2.329   5.966  0.3801  1.6222 -0.8389
 4539SOL     OW25249   1.839   0.082  10.643 -0.0160  0.0488 -0.1445
 4539SOL    HW125250   1.750   0.118  10.635 -1.1448 -2.3772  1.4305
 4539SOL    HW225251   1.828   0.052  10.734  0.2862 -2.3957 -0.9270
 4540SOL     OW25252   2.903   1.104   6.792  0.3733  0.2294 -0.4251
 4540SOL    HW125253   2.974   1.066   6.740  0.3214  0.2140 -0.4847
 4540SOL    HW225254   2.858   1.025   6.824 -0.4780  1.1023  0.5463
 4541SOL     OW25255   0.700   1.988  11.983 -0.4294  0.5648  0.1700
 4541SOL    HW125256   0.780   1.977  11.932 -1.5705 -0.3938 -1.3961
 4541SOL    HW225257   0.631   2.009  11.920  0.7786  0.5491 -1.1536
 4542SOL     OW25258   0.614   0.526   9.791 -0.3930  0.7705 -0.2115
 4542SOL    HW125259   0.633   0.563   9.704  0.0095  0.9734 -0.0411
 4542SOL    HW225260   0.524   0.557   9.799 -0.4711  0.4440  0.1632
 4543SOL     OW25261   2.802   0.654   2.228  0.1120  0.6467 -0.1950
 4543SOL    HW125262   2.897   0.648   2.234 -0.0232 -1.1061  0.1652
 4543SOL    HW225263   2.776   0.689   2.313  1.0347  1.4472 -0.2422
 4544SOL     OW25264   1.342   1.072   8.386  0.2213  0.6504  0.2295
 4544SOL    HW125265   1.352   1.031   8.301  0.1745 -0.5781  0.8104
 4544SOL    HW225266   1.259   1.032   8.412  2.2290 -4.4984 -1.4004
 4545SOL     OW25267   4.193   2.967   4.547  0.1641  0.2144 -0.0610
 4545SOL    HW125268   4.150   3.049   4.572  1.3542 -0.5340  4.4535
 4545SOL    HW225269   4.142   2.935   4.473 -0.2588 -0.9148  0.7107
 4546SOL     OW25270   1.172   2.081   8.767 -0.2696  0.1585 -0.0208
 4546SOL    HW125271   1.178   1.991   8.735 -0.1965  0.1428  0.0381
 4546SOL    HW225272   1.239   2.131   8.722  0.7137 -0.4361  0.7844
 4547SOL     OW25273   0.516   1.248   9.816  0.0535 -0.0003  0.3213
 4547SOL    HW125274   0.610   1.246   9.796 -0.1163  2.4573 -0.7292
 4547SOL    HW225275   0.501   1.321   9.756  0.1398  1.8316  2.5557
 4548SOL     OW25276   1.249   1.614   9.105  0.4272 -0.3102  0.1349
 4548SOL    HW125277   1.234   1.531   9.060 -0.8796  0.1534 -0.2689
 4548SOL    HW225278   1.182   1.618   9.173  1.6282 -0.2405  1.3232
 4549SOL     OW25279   0.789   3.617   3.852  0.3928  0.0716 -0.0036
 4549SOL    HW125280   0.744   3.698   3.827 -0.6426 -0.4806  0.0471
 4549SOL    HW225281   0.770   3.565   3.774  0.4136 -0.4265  0.3222
 4550SOL     OW25282   1.899   1.953  12.240  0.5185 -0.6907  0.0169
 4550SOL    HW125283   1.862   2.038  12.262  0.5198 -1.1876  1.9406
 4550SOL    HW225284   1.824   1.909  12.200  2.1368 -3.8943  0.4738
 4551SOL     OW25285   1.837   2.714   5.619 -0.5223 -0.2506 -0.2257
 4551SOL    HW125286   1.901   2.772   5.576 -0.2163 -0.5410 -0.1675
 4551SOL    HW225287   1.894   2.646   5.656  2.7232  1.5778 -1.7602
 4552SOL     OW25288   2.475   1.106   8.037 -0.4747  0.6548  0.2196
 4552SOL    HW125289   2.390   1.075   8.005 -0.3357  0.2876  0.2083
 4552SOL    HW225290   2.515   1.019   8.041 -1.9970 -0.1416 -1.6224
 4553SOL     OW25291   1.518   1.526   7.352 -0.4538  0.3067  0.1904
 4553SOL    HW125292   1.535   1.435   7.331  0.0395 -0.1811  2.6127
 4553SOL    HW225293   1.424   1.530   7.371 -0.8738  1.6464 -2.2754
 4554SOL     OW25294   3.862   1.932   8.211 -0.2161  0.1571  0.0335
 4554SOL    HW125295   3.888   1.863   8.272 -0.3739 -1.1810 -1.4371
 4554SOL    HW225296   3.876   1.895   8.124  0.1939  1.1691 -0.3328
 4555SOL     OW25297   3.956   4.455   5.145 -0.3719  0.0703 -0.0218
 4555SOL    HW125298   3.938   4.408   5.063  1.9265  0.2569 -0.6352
 4555SOL    HW225299   3.964   4.379   5.202 -0.8265 -1.1349 -1.5718
 4556SOL     OW25300   2.051   2.525   6.713 -0.0566 -0.1297 -0.1229
 4556SOL    HW125301   2.141   2.497   6.726  0.5375  1.1796 -1.3118
 4556SOL    HW225302   2.008   2.442   6.732 -1.3695  0.3736 -0.9001
 4557SOL     OW25303   2.899   4.705   8.410 -0.5826  0.6277  0.6418
 4557SOL    HW125304   2.935   4.718   8.322  1.8902  2.5267  1.9580
 4557SOL    HW225305   2.834   4.636   8.396 -0.9136  0.8561  1.0532
 4558SOL     OW25306   1.485   3.654   8.852 -0.4574 -0.7393 -0.7533
 4558SOL    HW125307   1.527   3.635   8.936 -0.8223  1.6804 -0.0080
 4558SOL    HW225308   1.484   3.571   8.806 -0.6293  0.8226 -3.5707
 4559SOL     OW25309   3.421   1.103   4.136 -0.2918 -0.2497  0.6046
 4559SOL    HW125310   3.331   1.124   4.109 -0.4519 -3.0636 -1.0325
 4559SOL    HW225311   3.418   1.011   4.161 -1.2044  0.1876  2.0515
 4560SOL     OW25312   2.628   1.010   3.204  0.0384 -0.4704  0.3730
 4560SOL    HW125313   2.548   1.061   3.206  1.1432  1.2738  0.1952
 4560SOL    HW225314   2.582   0.931   3.176 -1.8792  1.3314 -1.5486
 4561SOL     OW25315   3.389   2.940   2.469 -0.0055  0.0120 -0.3618
 4561SOL    HW125316   3.463   2.964   2.524  1.0578  0.4365 -1.9629
 4561SOL    HW225317   3.338   2.882   2.525 -0.4355  1.9134  1.2076
 4562SOL     OW25318   1.252   1.468   5.622  0.3515  0.6359 -0.1194
 4562SOL    HW125319   1.292   1.386   5.595  1.6433  0.7457  1.4180
 4562SOL    HW225320   1.275   1.469   5.715 -0.5394 -2.7758  0.1194
 4563SOL     OW25321   0.200   2.701   1.624 -0.4897 -0.4330  0.8670
 4563SOL    HW125322   0.238   2.754   1.693 -0.5478  0.8521 -0.0791
 4563SOL    HW225323   0.216   2.740   1.537  0.1608  0.9504  1.6068
 4564SOL     OW25324   1.565   3.420   4.095  0.1001 -0.5149  0.2230
 4564SOL    HW125325   1.650   3.375   4.092  0.0017 -0.6682 -0.2457
 4564SOL    HW225326   1.517   3.352   4.142 -0.1423 -0.4158  0.1154
 4565SOL     OW25327   1.009   1.327   5.327  0.5625 -0.1817 -0.4362
 4565SOL    HW125328   0.985   1.395   5.264 -1.1871  0.7175  1.1996
 4565SOL    HW225329   1.102   1.327   5.304  1.3335  0.4320  2.6824
 4566SOL     OW25330   1.251   4.314  16.277 -0.3370 -0.3375  0.2008
 4566SOL    HW125331   1.294   4.250  16.220  0.0733  0.4775 -0.3901
 4566SOL    HW225332   1.318   4.326  16.344 -0.2252  2.9989 -0.5470
 4567SOL     OW25333   2.910   0.588   3.769 -0.4174  0.7658  0.7495
 4567SOL    HW125334   2.928   0.535   3.691 -0.7562  0.3592  0.9447
 4567SOL    HW225335   2.989   0.642   3.776  0.6800 -0.9349  1.4891
 4568SOL     OW25336   0.081   3.523   3.864  0.0904 -0.3927 -0.3493
 4568SOL    HW125337   0.107   3.443   3.818 -0.2664 -0.3357 -0.6568
 4568SOL    HW225338   0.000   3.547   3.818  1.0904  2.0759 -0.7756
 4569SOL     OW25339   0.296   2.331   3.589 -0.0699 -0.6600  0.1301
 4569SOL    HW125340   0.360   2.401   3.579  0.3279 -0.8754  1.2159
 4569SOL    HW225341   0.261   2.330   3.499 -3.2941  0.3005  1.3590
 4570SOL     OW25342   4.418   4.625  12.186  0.5526  0.1278 -0.9819
 4570SOL    HW125343   4.475   4.622  12.109  1.6046 -0.6343 -0.1779
 4570SOL    HW225344   4.331   4.608  12.148  1.3701 -1.8786 -2.0089
 4571SOL     OW25345   4.301   2.904   5.160  0.2471 -0.0771  0.1328
 4571SOL    HW125346   4.312   2.930   5.251  0.7469 -0.6763  0.2402
 4571SOL    HW225347   4.382   2.853   5.151  0.2362 -0.1376  0.3889
 4572SOL     OW25348   1.855   3.848  16.504  0.0751  0.8075 -0.3902
 4572SOL    HW125349   1.780   3.810  16.549  0.4909 -1.3208 -1.4754
 4572SOL    HW225350   1.809   3.910  16.448  1.2035  2.8933  0.9752
 4573SOL     OW25351   3.111   1.972   1.847 -0.0933  0.2471  0.0022
 4573SOL    HW125352   3.031   2.025   1.844 -0.3430 -0.1425 -0.1838
 4573SOL    HW225353   3.171   2.036   1.886  0.7537 -0.5979  0.0926
 4574SOL     OW25354   0.081   2.999   1.695 -0.4995  0.0160 -0.4224
 4574SOL    HW125355   0.136   2.975   1.770 -0.4272  1.8960  0.1081
 4574SOL    HW225356   0.102   3.092   1.692  2.3443 -0.5843  0.5152
 4575SOL     OW25357   3.609   0.068   0.326  0.1992  0.2050  0.1993
 4575SOL    HW125358   3.551   0.016   0.270  1.1872 -0.2342 -0.4162
 4575SOL    HW225359   3.600   0.159   0.297  1.4809  0.3642  0.2943
 4576SOL     OW25360   0.360   0.960   7.354  0.3286  0.1342 -0.6388
 4576SOL    HW125361   0.413   1.014   7.295 -0.0254  0.4379 -0.6817
 4576SOL    HW225362   0.277   0.965   7.307 -0.4316  1.6097  0.8612
 4577SOL     OW25363   4.372   2.427   4.930  0.3799 -0.3688  0.0600
 4577SOL    HW125364   4.408   2.451   5.015  0.0069 -0.8107  0.3450
 4577SOL    HW225365   4.336   2.341   4.949 -1.7157  0.2485 -1.0177
 4578SOL     OW25366   0.125   0.423   9.023  0.3109 -0.1237  0.0661
 4578SOL    HW125367   0.138   0.329   9.035 -0.1414 -0.3725 -1.3684
 4578SOL    HW225368   0.119   0.447   8.930  1.3955  2.3521  0.6354
 4579SOL     OW25369   3.183   4.290   3.444 -0.1235  0.2953  0.3066
 4579SOL    HW125370   3.136   4.370   3.423  0.2093  0.7245  1.1889
 4579SOL    HW225371   3.110   4.235   3.471 -0.4587 -0.1346 -1.4932
 4580SOL     OW25372   2.659   2.205  15.231 -0.0930  0.0080 -0.6849
 4580SOL    HW125373   2.663   2.243  15.143  3.9713  0.5424 -0.2641
 4580SOL    HW225374   2.748   2.172  15.239 -0.1549 -0.6527 -2.6408
 4581SOL     OW25375   0.181   2.941  17.494  0.8785 -0.3584  0.5181
 4581SOL    HW125376   0.134   3.024  17.505  1.9472  0.5381 -1.6779
 4581SOL    HW225377   0.120   2.892  17.439  0.7628 -1.2605  1.4355
 4582SOL     OW25378   1.425   2.353   5.480  0.2030 -0.2844  0.1699
 4582SOL    HW125379   1.462   2.383   5.564 -0.6015  0.2342  0.3327
 4582SOL    HW225380   1.397   2.265   5.506 -1.2603  0.5320  1.3244
 4583SOL     OW25381   3.082   3.805   3.159  0.1608  0.2567 -0.2109
 4583SOL    HW125382   3.065   3.819   3.066 -2.3362 -0.0092  0.1974
 4583SOL    HW225383   3.024   3.729   3.170  1.6124 -0.7167  0.7617
 4584SOL     OW25384   1.384   0.311   6.545 -0.1080 -0.5699 -0.1144
 4584SOL    HW125385   1.372   0.274   6.457 -0.1947 -2.1750  0.5723
 4584SOL    HW225386   1.441   0.247   6.587  2.2376  1.7900  0.3091
 4585SOL     OW25387   2.181   4.057   7.290 -0.0894 -0.0296  0.1511
 4585SOL    HW125388   2.199   4.132   7.347 -1.6667  0.5840 -0.1705
 4585SOL    HW225389   2.194   4.099   7.205  1.5835  2.9528  1.8579
 4586SOL     OW25390   4.683   1.955  10.386 -0.3708 -0.1375 -0.2352
 4586SOL    HW125391   4.598   1.954  10.342 -0.2566 -2.3917 -0.4027
 4586SOL    HW225392   4.685   1.871  10.432  2.0152  0.4380  0.6958
 4587SOL     OW25393   4.224   4.455   6.031  0.0495  0.0307 -0.2963
 4587SOL    HW125394   4.145   4.504   6.056 -1.1591 -0.8358 -2.4948
 4587SOL    HW225395   4.265   4.442   6.117 -2.7506  0.1534  1.0643
 4588SOL     OW25396   3.720   0.976   6.210  0.1683 -0.1606 -0.0613
 4588SOL    HW125397   3.761   0.952   6.293 -1.2210 -1.2781  0.3128
 4588SOL    HW225398   3.664   0.899   6.202 -0.2979  0.0526  1.0598
 4589SOL     OW25399   1.877   3.979   4.741 -0.3169 -0.1567 -0.2873
 4589SOL    HW125400   1.884   3.887   4.713  0.6530 -0.6950  1.7036
 4589SOL    HW225401   1.913   4.031   4.669  1.0420 -3.2899 -1.8669
 4590SOL     OW25402   4.198   1.767   2.934 -0.1971 -0.1619  0.0920
 4590SOL    HW125403   4.113   1.725   2.945  0.8631 -2.0294  1.0898
 4590SOL    HW225404   4.174   1.853   2.899  0.2065  0.6599  1.8249
 4591SOL     OW25405   2.018   0.511  10.836 -0.2879 -0.1439 -0.0083
 4591SOL    HW125406   2.008   0.533  10.743  2.0318  1.7953  0.1832
 4591SOL    HW225407   2.000   0.593  10.883  0.4240  1.6827 -2.8786
 4592SOL     OW25408   2.187   1.176   9.877 -0.2513 -0.4464  0.1744
 4592SOL    HW125409   2.102   1.132   9.875 -1.1772  1.4266 -1.8389
 4592SOL    HW225410   2.218   1.160   9.788 -0.5844 -0.0928 -0.0077
 4593SOL     OW25411   0.583   4.031   5.979 -0.2226 -0.2968 -0.5082
 4593SOL    HW125412   0.552   4.039   6.070  0.5200  0.8950 -0.3577
 4593SOL    HW225413   0.677   4.048   5.985 -0.6292  2.2565 -1.1462
 4594SOL     OW25414   4.555   3.858   3.495  0.3797  0.0832  0.0629
 4594SOL    HW125415   4.618   3.830   3.562 -0.6100  0.2348  1.0498
 4594SOL    HW225416   4.589   3.947   3.485 -1.6318  0.8148 -0.2350
 4595SOL     OW25417   4.498   1.716   0.923  0.3162  0.3681  0.1114
 4595SOL    HW125418   4.510   1.754   1.010  1.1651 -3.0488  1.4848
 4595SOL    HW225419   4.591   1.702   0.904 -0.4350 -0.4031 -2.9896
 4596SOL     OW25420   0.421   0.170   6.593 -0.3118  0.0645  0.4296
 4596SOL    HW125421   0.443   0.125   6.511 -3.0187  0.3472 -0.4641
 4596SOL    HW225422   0.391   0.092   6.638  0.6134 -0.3319  0.3672
 4597SOL     OW25423   0.593   3.719  10.136  0.2844  0.0679  0.3125
 4597SOL    HW125424   0.662   3.756  10.190 -0.5014 -0.1205  1.4401
 4597SOL    HW225425   0.537   3.676  10.201 -0.2325 -0.0227 -0.1888
 4598SOL     OW25426   0.829   2.762  10.602  0.5373 -0.3752  0.3005
 4598SOL    HW125427   0.917   2.790  10.576  1.0130 -1.3500  0.8782
 4598SOL    HW225428   0.847   2.692  10.664  2.1779 -0.3909 -0.1949
 4599SOL     OW25429   2.276   3.403   7.154 -0.5460 -0.0205 -0.2765
 4599SOL    HW125430   2.251   3.322   7.198  1.9143 -1.3750 -1.3937
 4599SOL    HW225431   2.217   3.470   7.189 -1.2596 -0.2618 -1.0208
 4600SOL     OW25432   2.366   1.886   1.903  0.7534 -0.0603 -0.9298
 4600SOL    HW125433   2.430   1.957   1.902 -2.7488  3.1293  1.9210
 4600SOL    HW225434   2.327   1.893   1.990  1.6487  0.4500 -0.5683
 4601SOL     OW25435   1.241   2.514   7.561  0.3460 -0.7867  0.2297
 4601SOL    HW125436   1.205   2.441   7.511 -0.7734  0.7500 -1.1936
 4601SOL    HW225437   1.275   2.461   7.634 -0.3192 -1.9583 -0.3097
 4602SOL     OW25438   3.339   4.024   8.908  0.3101 -0.2259 -0.2309
 4602SOL    HW125439   3.302   3.986   8.987 -0.8975 -1.5077 -1.4116
 4602SOL    HW225440   3.409   3.962   8.887 -0.7956 -0.6937 -2.5678
 4603SOL     OW25441   2.741   0.814   4.733  0.1256 -0.1491  0.1119
 4603SOL    HW125442   2.783   0.728   4.735 -2.7328 -1.4723  3.2322
 4603SOL    HW225443   2.818   0.865   4.759  0.5649 -1.2701  1.0285
 4604SOL     OW25444   4.309   3.314  11.613  0.3090  0.3367 -0.0855
 4604SOL    HW125445   4.218   3.341  11.606 -0.5302 -1.6941  3.2352
 4604SOL    HW225446   4.345   3.380  11.671  1.8998  0.5225 -1.2588
 4605SOL     OW25447   3.173   0.720   4.055 -0.5841  0.1032 -0.4279
 4605SOL    HW125448   3.228   0.775   4.109 -0.3710  0.2619 -0.8063
 4605SOL    HW225449   3.102   0.707   4.118  0.9781 -2.2545  0.8099
 4606SOL     OW25450   2.366   0.469  13.006  0.4505  0.0733 -0.4016
 4606SOL    HW125451   2.363   0.553  13.051  0.3769 -1.0252  1.6549
 4606SOL    HW225452   2.274   0.442  13.014 -0.2051  1.7565 -2.3410
 4607SOL     OW25453   2.264   0.967   0.187  0.5281  0.1392  0.0096
 4607SOL    HW125454   2.300   0.902   0.248  2.3477 -1.2849 -2.5671
 4607SOL    HW225455   2.299   1.050   0.217  1.3398 -0.0876 -0.3094
 4608SOL     OW25456   3.595   3.252  16.868  0.7187 -0.3991 -0.1083
 4608SOL    HW125457   3.614   3.303  16.947 -0.3669 -2.0546  1.2273
 4608SOL    HW225458   3.527   3.308  16.830  2.6351  1.5900 -0.5924
 4609SOL     OW25459   0.429   1.572   9.066 -0.0934  0.0863  0.1145
 4609SOL    HW125460   0.359   1.507   9.059 -0.4139  0.6371 -1.7005
 4609SOL    HW225461   0.429   1.604   8.976  2.5649 -1.7763 -0.5587
 4610SOL     OW25462   0.507   3.393   2.930  0.1372 -0.2339 -0.2861
 4610SOL    HW125463   0.479   3.458   2.994  0.5635  1.4233 -1.7744
 4610SOL    HW225464   0.470   3.423   2.847 -1.2640 -0.3259  0.3007
 4611SOL     OW25465   1.258   1.500  17.186 -0.3800  0.2450  0.0576
 4611SOL    HW125466   1.347   1.482  17.216  0.4184  2.5764 -0.9388
 4611SOL    HW225467   1.270   1.537  17.099 -2.4642 -1.6753 -1.0279
 4612SOL     OW25468   1.885   0.025   6.825  0.1130 -0.0885  0.0901
 4612SOL    HW125469   1.901   4.691   6.760  0.9828  0.3354 -0.1345
 4612SOL    HW225470   1.793   0.005   6.846  0.1554  2.8446  3.0883
 4613SOL     OW25471   2.857   4.039   5.887  0.6733  0.6208 -0.7170
 4613SOL    HW125472   2.869   4.000   5.800  3.3015  0.3256 -0.2198
 4613SOL    HW225473   2.948   4.053   5.913  0.2619  0.4198  0.8257
 4614SOL     OW25474   0.856   4.018   0.341  0.2439  0.3102 -0.2548
 4614SOL    HW125475   0.876   4.022   0.435 -0.4052  1.8096 -0.1789
 4614SOL    HW225476   0.943   3.984   0.319 -0.2881 -0.1855 -1.5574
 4615SOL     OW25477   2.602   3.282   3.529  0.2032  0.2209  0.6600
 4615SOL    HW125478   2.668   3.258   3.464  0.5494  0.7815  0.8075
 4615SOL    HW225479   2.614   3.213   3.595  3.1642  2.3338  2.3250
 4616SOL     OW25480   0.514   3.462   3.379  0.2744 -0.0728 -0.1085
 4616SOL    HW125481   0.502   3.444   3.472 -0.5988 -1.3850 -0.4857
 4616SOL    HW225482   0.422   3.481   3.360  0.5805  0.8925 -0.6610
 4617SOL     OW25483   3.935   3.211   4.887 -0.1345 -0.0927  0.1287
 4617SOL    HW125484   4.004   3.145   4.901 -0.0626 -0.0534 -0.0466
 4617SOL    HW225485   3.974   3.274   4.827 -0.7809  1.1340  1.0024
 4618SOL     OW25486   4.379   2.126  13.001  0.1535 -0.3860 -0.5579
 4618SOL    HW125487   4.439   2.075  13.055 -0.0501  1.0587  1.0557
 4618SOL    HW225488   4.408   2.092  12.917 -1.3833 -2.2914 -0.3100
 4619SOL     OW25489   0.745   2.479  14.068 -0.0948  0.4439  0.1193
 4619SOL    HW125490   0.805   2.553  14.070  0.6416 -0.1074 -1.6588
 4619SOL    HW225491   0.756   2.464  13.975  1.2560 -0.5406  0.4347
 4620SOL     OW25492   2.752   3.883   8.625 -0.1315  0.4373  0.2338
 4620SOL    HW125493   2.839   3.844   8.624 -0.3746 -0.0897 -1.0743
 4620SOL    HW225494   2.743   3.899   8.531 -0.8465 -0.4344  0.1508
 4621SOL     OW25495   3.836   4.206   4.073  0.5523 -0.2211 -0.1856
 4621SOL    HW125496   3.815   4.258   3.995  0.6494  1.2757  0.7789
 4621SOL    HW225497   3.750   4.183   4.107  1.5001 -3.5365 -0.0399
 4622SOL     OW25498   1.959   1.447  13.989  0.0014 -0.1622 -0.4048
 4622SOL    HW125499   1.928   1.496  13.913 -1.5351  1.6322  1.3852
 4622SOL    HW225500   2.044   1.486  14.007 -0.9588  2.0920 -0.8280
 4623SOL     OW25501   0.700   4.198   2.637  0.5370  0.5546  0.0716
 4623SOL    HW125502   0.784   4.241   2.620 -0.6300  2.4726 -0.7746
 4623SOL    HW225503   0.724   4.156   2.720 -0.0860 -0.9656 -0.5205
 4624SOL     OW25504   1.557   4.083   8.474  0.4780  0.3777 -0.1266
 4624SOL    HW125505   1.558   4.164   8.423  1.1835  0.2610 -0.3017
 4624SOL    HW225506   1.483   4.096   8.533  1.4876 -2.0555  1.6921
 4625SOL     OW25507   1.967   4.714   7.082 -0.0046 -0.3908  0.0436
 4625SOL    HW125508   1.955   4.703   6.988 -0.5211  0.1931  0.0369
 4625SOL    HW225509   1.983   0.074   7.082  0.4132 -0.4649 -0.4271
 4626SOL     OW25510   3.115   3.129   6.156  0.2140  0.3170  0.0569
 4626SOL    HW125511   3.104   3.173   6.240  0.6687 -0.4404  0.5096
 4626SOL    HW225512   3.084   3.197   6.096  0.9004  0.4509 -0.1463
 4627SOL     OW25513   0.468   0.030   7.900  0.1451  0.6938 -0.0472
 4627SOL    HW125514   0.417   4.711   7.961  2.3592  1.0035  2.0789
 4627SOL    HW225515   0.555   0.015   7.936  0.6442  0.8531 -1.2016
 4628SOL     OW25516   2.185   3.168   7.286  0.0261  0.2763  0.1773
 4628SOL    HW125517   2.131   3.166   7.365 -1.4904 -1.6272 -0.8977
 4628SOL    HW225518   2.170   3.079   7.255  1.7328 -0.4635  1.4424
 4629SOL     OW25519   1.575   1.170   9.350  0.2466 -0.2490 -0.5966
 4629SOL    HW125520   1.599   1.244   9.405  0.8470 -2.3494  2.0015
 4629SOL    HW225521   1.650   1.168   9.290  1.0977  1.2418  0.4176
 4630SOL     OW25522   1.964   4.713  16.038 -0.5729 -0.0494  0.1676
 4630SOL    HW125523   2.048   4.671  16.021 -0.6207 -0.0272 -0.1176
 4630SOL    HW225524   1.970   0.066  16.000  0.9441  0.7515  2.2609
 4631SOL     OW25525   0.698   3.305   8.704  0.0862 -0.2383  0.4199
 4631SOL    HW125526   0.714   3.235   8.641 -1.0355  0.0843 -0.2165
 4631SOL    HW225527   0.728   3.377   8.649 -1.7550  0.9842  1.0103
 4632SOL     OW25528   0.281   3.818   2.904 -0.2673  0.1260  0.2755
 4632SOL    HW125529   0.360   3.856   2.866 -0.7948 -0.1071 -1.0379
 4632SOL    HW225530   0.246   3.780   2.824 -3.3383 -0.9654  2.1215
 4633SOL     OW25531   1.810   0.338   3.259  0.0921 -0.2946 -0.0202
 4633SOL    HW125532   1.816   0.405   3.327  0.7164 -0.1569 -0.2074
 4633SOL    HW225533   1.716   0.329   3.246  0.1027 -1.3860  0.6222
 4634SOL     OW25534   3.018   3.851   8.683  0.0373 -0.0026 -0.3858
 4634SOL    HW125535   3.097   3.831   8.633  0.4295 -0.0343  0.2498
 4634SOL    HW225536   3.027   3.802   8.764 -1.5045 -1.2745 -0.9950
 4635SOL     OW25537   2.500   2.836   6.659 -0.2395  0.8388 -0.3901
 4635SOL    HW125538   2.533   2.795   6.739 -2.0190  1.1103  0.4723
 4635SOL    HW225539   2.584   2.860   6.619  0.8453 -4.2956 -1.2313
 4636SOL     OW25540   4.296   3.228   8.282 -0.6974  0.2419  0.0262
 4636SOL    HW125541   4.314   3.136   8.301  0.6970  1.3564  3.9964
 4636SOL    HW225542   4.234   3.252   8.352 -0.9921 -2.3231  0.6604
 4637SOL     OW25543   2.417   0.083   3.297  0.6552  0.1362 -0.6333
 4637SOL    HW125544   2.326   0.110   3.303  0.4686  0.0299 -3.1840
 4637SOL    HW225545   2.428   0.025   3.372 -1.3418 -0.0090 -0.4612
 4638SOL     OW25546   1.650   4.165  17.471 -0.7445 -0.0632 -0.2279
 4638SOL    HW125547   1.567   4.165  17.423 -0.2365 -2.3621 -1.0768
 4638SOL    HW225548   1.679   4.250  17.438  0.3694 -0.6775 -0.8111
 4639SOL     OW25549   1.827   2.076  10.817 -0.1648  0.0303 -0.1293
 4639SOL    HW125550   1.759   2.140  10.840  1.0286  1.1810  0.1888
 4639SOL    HW225551   1.903   2.113  10.862  0.2968  0.0665 -0.9470
 4640SOL     OW25552   2.691   1.268   6.902 -0.2659 -0.1114 -0.3430
 4640SOL    HW125553   2.750   1.202   6.868  0.7719  0.6226  0.0531
 4640SOL    HW225554   2.715   1.276   6.994  3.0052  2.2997 -1.4233
 4641SOL     OW25555   4.150   3.868   0.641 -0.0810  0.1511  0.2151
 4641SOL    HW125556   4.059   3.883   0.665 -0.6851  0.0671 -2.0475
 4641SOL    HW225557   4.127   3.784   0.601 -1.9321 -0.9331  3.4830
 4642SOL     OW25558   0.965   2.199  16.096 -0.0642  0.0045  0.0465
 4642SOL    HW125559   0.915   2.161  16.024  1.4713 -0.9848 -0.4725
 4642SOL    HW225560   0.900   2.236  16.157 -3.5644 -2.9733 -1.9212
 4643SOL     OW25561   3.708   1.068  15.368 -0.0745 -0.7996  0.0372
 4643SOL    HW125562   3.698   1.066  15.463  3.4934 -0.3686  0.4316
 4643SOL    HW225563   3.641   1.122  15.326  0.1647 -0.9316 -0.5117
 4644SOL     OW25564   4.557   0.366  10.565 -0.1853  0.3811  0.0171
 4644SOL    HW125565   4.538   0.437  10.627 -0.6184 -0.2724  0.6353
 4644SOL    HW225566   4.597   0.407  10.488  2.1326  0.2843  1.1600
 4645SOL     OW25567   4.357   4.514  12.424  0.4165 -0.0940  0.4513
 4645SOL    HW125568   4.272   4.553  12.445  0.7896  1.3578 -0.7563
 4645SOL    HW225569   4.383   4.546  12.338 -0.4715  0.5770  0.4232
 4646SOL     OW25570   2.547   1.615   6.761 -0.2568 -0.2036 -0.1097
 4646SOL    HW125571   2.527   1.591   6.852  0.6431  0.0171  0.1544
 4646SOL    HW225572   2.478   1.678   6.738  0.6864  0.4560 -1.1093
 4647SOL     OW25573   1.685   1.019   7.305 -0.0169  0.2413  0.6102
 4647SOL    HW125574   1.753   1.018   7.373  0.9654  0.4011 -0.3771
 4647SOL    HW225575   1.616   0.959   7.334 -2.0288  2.0122 -0.4861
 4648SOL     OW25576   1.912   1.070   8.456 -0.5707 -0.2704 -0.0710
 4648SOL    HW125577   1.841   1.073   8.392 -0.9672 -0.7762  0.3447
 4648SOL    HW225578   1.866   1.106   8.531 -1.0326 -2.4443  0.6970
 4649SOL     OW25579   1.299   1.630   5.387 -0.0680 -0.3229  0.2984
 4649SOL    HW125580   1.222   1.665   5.432 -1.1851 -1.9169 -0.3632
 4649SOL    HW225581   1.328   1.563   5.449 -0.2439  0.1489  0.8844
 4650SOL     OW25582   0.908   1.830   1.571  0.5330 -0.4012 -0.7272
 4650SOL    HW125583   0.987   1.884   1.577  0.4274 -0.3318 -0.0423
 4650SOL    HW225584   0.867   1.855   1.653 -0.5587 -0.1767 -1.3337
 4651SOL     OW25585   4.231   3.242  17.467  0.8756  0.5244 -0.0557
 4651SOL    HW125586   4.204   3.223  17.557 -1.9003  2.6577 -0.4208
 4651SOL    HW225587   4.326   3.251  17.463  0.8294  0.8514 -0.3963
 4652SOL     OW25588   4.019   3.809  14.763  0.3314  0.0105  0.8118
 4652SOL    HW125589   4.093   3.825  14.704 -0.3557 -1.0749 -0.3630
 4652SOL    HW225590   4.039   3.869  14.835  2.3091 -0.5006  0.6829
 4653SOL     OW25591   2.835   3.714   9.647  0.9577 -0.1726 -0.1196
 4653SOL    HW125592   2.857   3.725   9.739  1.4352  0.4029 -0.3063
 4653SOL    HW225593   2.888   3.786   9.614  0.2491  0.4498  0.1106
 4654SOL     OW25594   4.295   3.521  16.735 -0.6216 -0.3982 -0.2401
 4654SOL    HW125595   4.381   3.511  16.694 -0.8703  1.5413 -1.2245
 4654SOL    HW225596   4.256   3.433  16.728 -0.2463 -0.5072 -1.0190
 4655SOL     OW25597   1.242   3.823  10.208  0.1679  0.1691  0.1335
 4655SOL    HW125598   1.185   3.760  10.165 -1.9478 -0.2006  3.4793
 4655SOL    HW225599   1.200   3.908  10.192 -1.8040 -0.9393 -0.4978
 4656SOL     OW25600   2.838   1.849   4.702  0.8843 -0.4046 -0.0323
 4656SOL    HW125601   2.787   1.769   4.714 -0.9417  0.7910  0.2504
 4656SOL    HW225602   2.858   1.869   4.794 -1.1142  1.3990  0.0183
 4657SOL     OW25603   2.736   4.431  10.040  0.1783  0.4078  0.1510
 4657SOL    HW125604   2.695   4.499  10.093 -0.1047  1.0380 -0.8805
 4657SOL    HW225605   2.796   4.395  10.105 -1.5809 -0.6224  1.2342
 4658SOL     OW25606   3.147   0.491   8.363  0.6062  0.4769  0.1848
 4658SOL    HW125607   3.224   0.443   8.395 -1.5069 -2.1336  1.3949
 4658SOL    HW225608   3.096   0.514   8.440  0.2128 -0.1896  0.1214
 4659SOL     OW25609   1.511   0.665   5.501  0.0608  0.6742  0.7694
 4659SOL    HW125610   1.599   0.678   5.539  0.5290 -0.8360  0.1840
 4659SOL    HW225611   1.543   0.648   5.413  0.0629 -2.5326  1.4034
 4660SOL     OW25612   0.825   1.733   2.053 -0.0457  0.1162  0.3400
 4660SOL    HW125613   0.826   1.786   2.133  0.6340 -0.4657  0.7200
 4660SOL    HW225614   0.742   1.687   2.059 -0.3538  0.5520 -0.5880
 4661SOL     OW25615   2.576   3.021  14.320  0.1159 -0.1393  0.1640
 4661SOL    HW125616   2.530   2.947  14.359  0.1092 -0.2520 -0.0570
 4661SOL    HW225617   2.512   3.055  14.257 -0.2276  1.0325  1.1497
 4662SOL     OW25618   0.827   4.455   7.339  1.0188  0.0242  0.5604
 4662SOL    HW125619   0.786   4.427   7.257  0.9490 -0.7119  0.8559
 4662SOL    HW225620   0.762   4.420   7.399  0.5166  0.5930  0.3605
 4663SOL     OW25621   3.444   1.062   9.473  0.8090 -0.3231 -0.0607
 4663SOL    HW125622   3.457   0.980   9.520 -2.4388  0.1361  1.5865
 4663SOL    HW225623   3.402   1.108   9.545 -0.2532 -0.6621 -0.4645
 4664SOL     OW25624   1.024   3.890   9.121  0.3326 -0.0891 -0.3491
 4664SOL    HW125625   1.023   3.927   9.210  0.6561 -0.0268 -0.3715
 4664SOL    HW225626   0.932   3.867   9.107 -0.1942  2.7042 -1.5205
 4665SOL     OW25627   4.551   0.662   3.431 -0.4242  0.5313  0.1818
 4665SOL    HW125628   4.601   0.738   3.460  1.2126  0.2579 -1.8712
 4665SOL    HW225629   4.520   0.623   3.513 -0.7407 -1.4573 -0.8896
 4666SOL     OW25630   2.289   4.124   1.541  0.1315  0.2559 -0.0265
 4666SOL    HW125631   2.379   4.146   1.516  0.3357  0.1496  0.6043
 4666SOL    HW225632   2.256   4.198   1.591 -0.8454 -0.6356  0.6555
 4667SOL     OW25633   2.501   1.733   7.316 -0.2667  0.4874 -0.2241
 4667SOL    HW125634   2.533   1.802   7.374  0.0106 -0.1616  0.3936
 4667SOL    HW225635   2.580   1.700   7.273  0.6686  0.5464  1.4476
 4668SOL     OW25636   3.871   0.856   2.196  0.0446  0.3341 -0.1404
 4668SOL    HW125637   3.779   0.874   2.180  0.6004  1.6062 -1.9166
 4668SOL    HW225638   3.875   0.766   2.165 -2.7585  0.2402 -0.2288
 4669SOL     OW25639   0.691   0.261   4.916 -0.3940  0.2255  0.4080
 4669SOL    HW125640   0.758   0.324   4.889  0.0300  0.0690  1.0997
 4669SOL    HW225641   0.751   0.189   4.897 -1.6195  0.0232 -2.7633
 4670SOL     OW25642   1.899   1.458   8.114  0.2677  0.3901 -0.0815
 4670SOL    HW125643   1.866   1.462   8.204 -0.7668 -1.0701 -0.3897
 4670SOL    HW225644   1.953   1.536   8.106 -0.9380  1.3520  1.2404
 4671SOL     OW25645   3.578   2.711   5.778 -0.0489 -0.2367 -0.2641
 4671SOL    HW125646   3.635   2.735   5.704 -1.3860  0.0589 -1.1903
 4671SOL    HW225647   3.638   2.734   5.849  2.1786 -2.8721 -1.2763
 4672SOL     OW25648   3.788   4.329   1.076 -0.3515 -0.2951 -0.2573
 4672SOL    HW125649   3.716   4.392   1.071 -0.3533 -0.4015 -1.4327
 4672SOL    HW225650   3.797   4.328   1.171  0.0074 -1.9144 -0.3113
 4673SOL     OW25651   3.732   2.850   5.987 -0.0916 -0.2099  0.3700
 4673SOL    HW125652   3.722   2.906   5.910  2.0970 -0.2904  0.0275
 4673SOL    HW225653   3.787   2.910   6.037  0.1452 -0.2209  0.1283
 4674SOL     OW25654   2.494   1.494  12.068 -0.2750 -0.3953 -0.5115
 4674SOL    HW125655   2.451   1.438  12.133 -1.3656 -1.0333 -1.7865
 4674SOL    HW225656   2.441   1.472  11.991  0.6402  1.7949 -1.7654
 4675SOL     OW25657   2.970   3.682   6.063  0.4059 -0.3603 -0.9255
 4675SOL    HW125658   2.929   3.663   6.147  1.1758  0.5571 -0.3390
 4675SOL    HW225659   2.917   3.744   6.014 -0.1943  1.8357  2.4659
 4676SOL     OW25660   0.304   0.850   6.530  0.2536 -0.4029  0.1415
 4676SOL    HW125661   0.400   0.852   6.521  0.0123  2.7843 -1.8876
 4676SOL    HW225662   0.304   0.779   6.595 -0.2419  1.2724  1.9871
 4677SOL     OW25663   0.839   3.665   4.258 -0.1081  0.5591 -0.5481
 4677SOL    HW125664   0.839   3.570   4.269  0.4993  0.5956 -0.2056
 4677SOL    HW225665   0.752   3.684   4.223 -2.0355  1.5435  4.7600
 4678SOL     OW25666   4.534   3.081   5.142 -0.2309  0.6650 -0.5872
 4678SOL    HW125667   4.508   3.153   5.084  1.9668  1.0832 -1.0385
 4678SOL    HW225668   4.484   3.094   5.222  0.7368  0.9967 -0.0362
 4679SOL     OW25669   2.052   3.337  10.975  0.3676  0.7404  0.3814
 4679SOL    HW125670   2.053   3.406  11.040 -1.1261 -0.3775  1.5923
 4679SOL    HW225671   2.001   3.369  10.901 -1.1304  0.5170  1.3068
 4680SOL     OW25672   4.421   3.272  13.457  0.3622 -0.0211 -0.1430
 4680SOL    HW125673   4.350   3.308  13.511 -0.0759 -3.7806  1.7595
 4680SOL    HW225674   4.386   3.286  13.369 -0.3883 -1.2814 -0.0481
 4681SOL     OW25675   2.962   1.677   2.649 -0.1937 -0.0481  0.7420
 4681SOL    HW125676   2.920   1.640   2.572  1.5888  3.8295 -2.1039
 4681SOL    HW225677   2.897   1.747   2.664  1.4081  1.2803  1.4906
 4682SOL     OW25678   2.782   3.318  12.562 -0.1620  0.4667  0.0730
 4682SOL    HW125679   2.832   3.297  12.483  0.0449 -0.9511  0.5904
 4682SOL    HW225680   2.778   3.413  12.549 -0.3107  0.0190 -3.2528
 4683SOL     OW25681   0.995   0.719  17.207 -0.2684  0.3241  0.5662
 4683SOL    HW125682   0.929   0.653  17.185 -2.0026  2.2307 -0.0000
 4683SOL    HW225683   1.071   0.692  17.156 -1.0162  0.0490 -0.4014
 4684SOL     OW25684   1.313   2.973   3.997  0.2449 -0.6221  0.1981
 4684SOL    HW125685   1.388   2.978   4.056  0.6913  0.9496 -0.5018
 4684SOL    HW225686   1.238   2.954   4.054 -1.9923  0.3359 -2.4156
 4685SOL     OW25687   4.581   0.899  15.004 -0.1567 -0.3779 -0.5160
 4685SOL    HW125688   4.600   0.906  15.098 -2.1207  2.8719 -0.3409
 4685SOL    HW225689   4.666   0.917  14.965 -0.5556  0.5398 -0.9723
 4686SOL     OW25690   4.581   0.959   4.858  0.1123  0.0618 -0.3056
 4686SOL    HW125691   4.594   0.931   4.768 -0.4254  1.0705 -0.6998
 4686SOL    HW225692   4.596   1.054   4.859 -2.3740  0.4400  1.6685
 4687SOL     OW25693   4.107   0.617   6.947 -0.0827 -0.0952  0.5447
 4687SOL    HW125694   4.101   0.524   6.924 -1.6158  0.0809  0.2116
 4687SOL    HW225695   4.196   0.615   6.982  0.9148  1.2754 -1.8982
 4688SOL     OW25696   1.562   4.546   6.173  0.1384  0.5944  0.2931
 4688SOL    HW125697   1.568   4.621   6.114  0.1315  1.4524  1.3834
 4688SOL    HW225698   1.487   4.497   6.137  1.4573 -0.2217 -1.3569
 4689SOL     OW25699   1.589   4.728  10.602  0.4318  0.4408 -0.4308
 4689SOL    HW125700   1.528   4.731  10.676  1.6288  1.0089  0.5295
 4689SOL    HW225701   1.611   4.635  10.602 -1.1115  0.0585  0.2945
 4690SOL     OW25702   1.231   3.700   7.134 -0.0425 -0.4743  0.1959
 4690SOL    HW125703   1.224   3.722   7.226  1.2254  0.6778  0.0029
 4690SOL    HW225704   1.196   3.610   7.133 -2.5801  0.5038  1.2091
 4691SOL     OW25705   0.890   4.460  11.249 -0.0175 -0.0090  0.4233
 4691SOL    HW125706   0.922   4.383  11.202 -0.7322  0.1962 -0.3906
 4691SOL    HW225707   0.971   4.508  11.232  1.3918 -2.9578 -1.1871
 4692SOL     OW25708   2.757   1.684  11.774  0.3764  0.5777  1.3386
 4692SOL    HW125709   2.739   1.665  11.866  0.0036  0.4814  1.2466
 4692SOL    HW225710   2.850   1.669  11.760  0.2977  1.1606  0.2214
 4693SOL     OW25711   0.628   2.727   6.209  0.0756  0.0710 -0.2842
 4693SOL    HW125712   0.698   2.788   6.186 -0.2959  1.8080  3.1319
 4693SOL    HW225713   0.659   2.687   6.290  0.9177  0.8843 -0.2061
 4694SOL     OW25714   1.459   3.059   6.276  0.1031  0.0704  0.0749
 4694SOL    HW125715   1.520   3.005   6.225  0.4378  0.9254 -0.4244
 4694SOL    HW225716   1.411   3.115   6.214  2.8739  0.9025 -1.3086
 4695SOL     OW25717   4.016   1.792  16.850  0.2655 -0.3998 -0.5063
 4695SOL    HW125718   4.013   1.790  16.945 -0.8943  0.4887 -0.5153
 4695SOL    HW225719   3.922   1.794  16.834  0.7764 -1.1579 -3.6209
 4696SOL     OW25720   2.695   0.352   9.791  0.1546 -0.3508  0.4496
 4696SOL    HW125721   2.713   0.276   9.846 -0.7069 -1.4789 -0.8291
 4696SOL    HW225722   2.731   0.323   9.707 -0.6215 -1.4935  0.5119
 4697SOL     OW25723   4.306   3.551  12.285  0.0830 -0.4647  0.2205
 4697SOL    HW125724   4.395   3.586  12.283  0.1986 -0.7495  0.3157
 4697SOL    HW225725   4.305   3.496  12.363  0.3242  1.0877  1.3186
 4698SOL     OW25726   4.083   3.392   8.190  0.0988  0.2995 -0.3184
 4698SOL    HW125727   4.042   3.436   8.264 -1.0411 -1.6363  0.1781
 4698SOL    HW225728   4.175   3.418   8.196 -0.0050  0.6665 -0.3023
 4699SOL     OW25729   3.625   0.532  11.220 -0.2505  0.4077  0.5164
 4699SOL    HW125730   3.717   0.518  11.244 -0.3953 -3.6845 -1.2767
 4699SOL    HW225731   3.611   0.624  11.243 -0.0572  0.0000  2.2630
 4700SOL     OW25732   2.074   2.239   0.995 -0.5033  0.0242  0.0153
 4700SOL    HW125733   2.151   2.295   0.987 -0.8206  0.3726 -0.6190
 4700SOL    HW225734   2.023   2.273   0.921 -0.7448 -1.6142 -0.5727
 4701SOL     OW25735   0.156   1.532   2.599 -0.0714 -0.0577  0.4441
 4701SOL    HW125736   0.117   1.490   2.676 -1.6549  0.3472 -0.1315
 4701SOL    HW225737   0.082   1.585   2.568  1.2067  0.4484 -1.7312
 4702SOL     OW25738   4.556   3.663   3.184 -0.3188 -0.1857  0.5072
 4702SOL    HW125739   4.522   3.744   3.148 -1.0854  0.0443  1.7566
 4702SOL    HW225740   4.552   3.601   3.110  1.7839  1.9365 -1.3969
 4703SOL     OW25741   4.296   2.293   2.598  0.2816 -0.0655 -0.1098
 4703SOL    HW125742   4.226   2.234   2.573  1.0391 -0.2907 -1.6864
 4703SOL    HW225743   4.293   2.301   2.694  0.2117  1.9120 -0.2790
 4704SOL     OW25744   3.812   1.631   3.793 -0.4607  0.3667 -0.7591
 4704SOL    HW125745   3.807   1.570   3.719  0.4610  2.6211 -2.6885
 4704SOL    HW225746   3.889   1.687   3.781 -1.3661  1.4225 -1.5891
 4705SOL     OW25747   2.369   3.655   4.918  0.1112 -0.3179  0.4466
 4705SOL    HW125748   2.415   3.735   4.893  0.0619 -0.0498  1.2210
 4705SOL    HW225749   2.363   3.614   4.832 -2.2765 -0.3882  0.6365
 4706SOL     OW25750   1.488   3.304   3.360 -0.0883  0.1254  0.5823
 4706SOL    HW125751   1.547   3.239   3.398 -0.5778 -1.4607 -1.3420
 4706SOL    HW225752   1.430   3.244   3.312 -0.2791  2.5906 -2.2944
 4707SOL     OW25753   3.678   2.590   6.645  0.4460  0.3970  0.3487
 4707SOL    HW125754   3.637   2.596   6.559 -0.6911 -2.0902  0.7277
 4707SOL    HW225755   3.702   2.682   6.657  1.9604  0.1034 -0.4417
 4708SOL     OW25756   3.589   3.384   4.832  0.2857  0.2076  0.0100
 4708SOL    HW125757   3.631   3.462   4.869  3.2657 -0.8402 -1.1938
 4708SOL    HW225758   3.623   3.316   4.891  0.4759  2.4538  2.4774
 4709SOL     OW25759   3.737   1.929   6.082  0.0563  0.4372  0.0213
 4709SOL    HW125760   3.702   1.845   6.053  1.7508 -1.0214  2.1495
 4709SOL    HW225761   3.653   1.973   6.094 -2.8296 -4.8325 -1.2990
 4710SOL     OW25762   2.629   2.688   7.701 -0.3341  0.6022 -0.0571
 4710SOL    HW125763   2.714   2.665   7.663 -0.0878  1.3840  0.0148
 4710SOL    HW225764   2.632   2.782   7.683 -0.5449  1.1370  2.6826
 4711SOL     OW25765   0.615   0.603   6.471 -0.2287  0.0466 -0.3496
 4711SOL    HW125766   0.627   0.577   6.563 -0.7338 -1.1035 -0.6047
 4711SOL    HW225767   0.602   0.521   6.423  1.8039  0.3148 -1.3664
 4712SOL     OW25768   2.715   2.955   2.408 -0.2354  0.0619 -0.3015
 4712SOL    HW125769   2.746   3.044   2.429 -1.0299  0.3242 -0.2519
 4712SOL    HW225770   2.625   2.970   2.381  0.6574  1.3294 -2.5691
 4713SOL     OW25771   1.408   4.733   8.511 -0.3761  0.1436  0.1755
 4713SOL    HW125772   1.463   4.707   8.437  1.4556 -0.6041  1.7929
 4713SOL    HW225773   1.365   0.074   8.473 -0.9564 -0.2707  0.0041
 4714SOL     OW25774   0.671   2.131   5.653  0.6887 -0.0179 -0.2958
 4714SOL    HW125775   0.652   2.213   5.697 -3.4051 -1.8158  1.2958
 4714SOL    HW225776   0.724   2.081   5.714 -1.8879 -0.4893  1.5416
 4715SOL     OW25777   2.932   3.236   5.973  0.4043 -0.1303 -0.1677
 4715SOL    HW125778   2.919   3.325   5.942 -3.1000 -0.0325  1.5838
 4715SOL    HW225779   2.876   3.231   6.050  0.8005  0.9313  0.1816
 4716SOL     OW25780   3.179   0.141  12.222  0.3952  0.0474 -0.6382
 4716SOL    HW125781   3.132   0.102  12.296  0.4986 -2.3242 -1.8162
 4716SOL    HW225782   3.245   0.198  12.262  0.5949  0.3588 -1.4102
 4717SOL     OW25783   1.123   0.289   1.374 -0.0822 -0.0529  0.7358
 4717SOL    HW125784   1.175   0.296   1.294 -1.4780 -1.3675 -0.2896
 4717SOL    HW225785   1.148   0.367   1.424  0.6253 -0.7551  1.4743
 4718SOL     OW25786   2.918   1.992   3.701  0.2598 -0.1130  0.3960
 4718SOL    HW125787   2.916   2.007   3.795 -2.8685  2.6695 -0.1295
 4718SOL    HW225788   2.952   1.903   3.700 -0.9168 -0.5575  0.0905
 4719SOL     OW25789   1.216   0.554   6.419  0.1527 -0.1355 -0.1640
 4719SOL    HW125790   1.196   0.618   6.351 -0.3451 -1.4587 -1.2685
 4719SOL    HW225791   1.228   0.482   6.357 -1.8494 -0.2290 -0.4409
 4720SOL     OW25792   2.349   3.384   3.305  0.6367 -0.2573 -0.2404
 4720SOL    HW125793   2.390   3.318   3.250 -1.4556 -0.1153 -1.9466
 4720SOL    HW225794   2.372   3.467   3.263  0.3523  1.1376  2.3180
 4721SOL     OW25795   1.429   3.144   4.717  0.4492 -0.1699 -0.6430
 4721SOL    HW125796   1.394   3.111   4.800  2.1055  1.4560  0.6996
 4721SOL    HW225797   1.369   3.219   4.713 -0.0398 -0.5531 -0.5114
 4722SOL     OW25798   2.403   0.262  10.105  0.2567  0.4881  0.3172
 4722SOL    HW125799   2.479   0.235  10.157  0.2610 -1.4288 -0.7127
 4722SOL    HW225800   2.373   0.181  10.065 -0.9172  1.1224 -0.1023
 4723SOL     OW25801   2.669   3.047  13.844  0.5022  0.1578 -0.1692
 4723SOL    HW125802   2.727   2.971  13.850  0.2172 -0.0170  0.3863
 4723SOL    HW225803   2.669   3.052  13.749 -1.7588  1.9078 -0.1025
 4724SOL     OW25804   2.567   3.185   2.653 -0.0337  0.4406  0.4523
 4724SOL    HW125805   2.625   3.220   2.721 -2.2636 -0.7414  2.9632
 4724SOL    HW225806   2.523   3.112   2.697  0.4724 -0.3152 -0.3006
 4725SOL     OW25807   0.200   3.574   0.367 -0.3873  0.3021  0.0812
 4725SOL    HW125808   0.202   3.491   0.415 -0.1916  0.1928 -0.1182
 4725SOL    HW225809   0.109   3.589   0.342 -0.6751  3.2334  2.9025
 4726SOL     OW25810   4.101   0.468   2.310 -0.2339  0.0947 -0.5916
 4726SOL    HW125811   4.043   0.415   2.256 -0.2536 -0.8273  0.3175
 4726SOL    HW225812   4.182   0.476   2.259 -0.3486  0.6629 -0.6737
 4727SOL     OW25813   2.549   0.458  16.384  0.5581 -0.2360 -0.4529
 4727SOL    HW125814   2.639   0.487  16.368 -0.0861  0.3158 -3.0207
 4727SOL    HW225815   2.509   0.453  16.297  2.8283 -1.0531 -1.4679
 4728SOL     OW25816   1.551   0.619   7.155  0.0324 -0.0152 -0.7661
 4728SOL    HW125817   1.524   0.530   7.130  0.1070 -0.3699  0.4083
 4728SOL    HW225818   1.612   0.599   7.227 -0.2749 -0.2032 -0.5571
 4729SOL     OW25819   1.087   2.255  13.800  0.2528  0.2127  0.0157
 4729SOL    HW125820   1.109   2.163  13.784 -2.1208 -0.3563  0.1354
 4729SOL    HW225821   0.992   2.262  13.806  0.5501  1.6422  3.1733
 4730SOL     OW25822   4.416   3.070  16.573  0.0289  0.3638 -0.3923
 4730SOL    HW125823   4.445   3.089  16.485 -2.6839 -1.9968 -1.8197
 4730SOL    HW225824   4.494   3.044  16.622  2.3467  4.7711 -1.8585
 4731SOL     OW25825   0.087   2.353  11.872 -0.4744 -0.2470 -0.1036
 4731SOL    HW125826   4.730   2.327  11.861 -0.7072  0.6396 -0.2389
 4731SOL    HW225827   0.077   2.446  11.890  4.7866  0.3822 -0.7439
 4732SOL     OW25828   3.486   4.334  15.382  0.0901  0.0140  0.2381
 4732SOL    HW125829   3.438   4.290  15.312 -1.5731  0.5919  1.0129
 4732SOL    HW225830   3.548   4.385  15.330 -0.1938  1.0031  0.8511
 4733SOL     OW25831   3.887   1.116  12.816  0.0945  0.4320  0.6959
 4733SOL    HW125832   3.846   1.193  12.854 -3.0334  0.7143 -3.2101
 4733SOL    HW225833   3.858   1.136  12.727 -0.5767  0.5006  0.9351
 4734SOL     OW25834   2.615   3.485   4.690 -0.1425 -0.5723 -0.2795
 4734SOL    HW125835   2.553   3.513   4.622 -1.2923 -0.3374  0.8683
 4734SOL    HW225836   2.697   3.469   4.642  0.1666 -2.0788  0.7610
 4735SOL     OW25837   0.737   0.413   1.776  0.0803  0.1500 -0.2092
 4735SOL    HW125838   0.695   0.328   1.760  2.8921 -1.4064  0.6577
 4735SOL    HW225839   0.680   0.462   1.835  0.5821 -0.8643  1.1158
 4736SOL     OW25840   2.883   3.830   6.337  0.2176  1.1240  0.0210
 4736SOL    HW125841   2.966   3.799   6.374  0.1822 -0.3092 -1.0744
 4736SOL    HW225842   2.850   3.743   6.313  0.3681  0.9404  0.4633
 4737SOL     OW25843   2.769   3.148   6.782 -0.5280  0.0706  0.4162
 4737SOL    HW125844   2.785   3.065   6.736 -1.6075 -0.4684  0.9926
 4737SOL    HW225845   2.789   3.208   6.711  1.7842 -1.7874 -0.5044
 4738SOL     OW25846   1.020   3.033  15.675 -0.0344 -0.4340  1.0482
 4738SOL    HW125847   1.084   2.963  15.661  1.3520  1.2039 -0.8150
 4738SOL    HW225848   0.942   2.987  15.644  2.0496 -2.1053 -1.7364
 4739SOL     OW25849   1.305   2.530   2.341  0.4369  0.1351  0.0944
 4739SOL    HW125850   1.249   2.469   2.388  1.6662 -2.3949 -1.7202
 4739SOL    HW225851   1.375   2.547   2.404 -1.8563  3.6574  1.7017
 4740SOL     OW25852   2.969   1.999   2.402 -0.3854  0.4877 -0.4429
 4740SOL    HW125853   2.945   2.092   2.397 -2.9457 -0.0819  1.0410
 4740SOL    HW225854   2.995   1.985   2.312  1.8220  1.6549  0.0234
 4741SOL     OW25855   1.377   0.470  11.536 -0.0845  0.2383  0.1499
 4741SOL    HW125856   1.447   0.457  11.599  1.1532 -0.1256 -1.3017
 4741SOL    HW225857   1.302   0.497  11.589  0.9564 -0.2063  1.8334
 4742SOL     OW25858   3.177   0.662  15.654 -0.0256 -0.0180 -0.7991
 4742SOL    HW125859   3.118   0.690  15.724 -0.8957 -3.2395 -0.2343
 4742SOL    HW225860   3.258   0.707  15.677 -0.1435 -0.2681  0.1060
 4743SOL     OW25861   0.058   1.883   3.312  0.0002 -0.0029  0.4086
 4743SOL    HW125862   0.025   1.971   3.331 -1.8403 -1.0915  2.3439
 4743SOL    HW225863   4.723   1.829   3.350  0.1388  0.1690  0.8988
 4744SOL     OW25864   4.647   1.668  11.075  0.4542 -0.0601  0.7257
 4744SOL    HW125865   4.718   1.655  11.137  1.1372 -0.4522 -0.1482
 4744SOL    HW225866   4.614   1.751  11.110  0.1388  0.3337 -0.5278
 4745SOL     OW25867   0.323   1.919   8.601 -0.1389 -0.4582 -0.0719
 4745SOL    HW125868   0.415   1.945   8.608  0.1429 -1.0369 -1.6267
 4745SOL    HW225869   0.314   1.859   8.676  1.6341 -0.4757  0.1193
 4746SOL     OW25870   4.596   3.170  10.679  0.0952 -0.4737 -0.4068
 4746SOL    HW125871   4.615   3.088  10.634 -0.4950 -1.0987  0.4790
 4746SOL    HW225872   4.580   3.138  10.768 -0.3728 -1.2699 -0.7752
 4747SOL     OW25873   2.763   4.487   8.373  0.7880 -0.2576 -0.2849
 4747SOL    HW125874   2.704   4.514   8.303  1.2819  0.4337 -0.4351
 4747SOL    HW225875   2.743   4.394   8.384 -2.2375  0.2970 -1.2364
 4748SOL     OW25876   4.672   0.117   4.300 -0.2284 -0.0206  0.0258
 4748SOL    HW125877   4.691   0.082   4.213 -0.4115 -0.7761  0.2905
 4748SOL    HW225878   0.020   0.102   4.346  0.3334 -1.5207 -1.4964
 4749SOL     OW25879   3.891   1.590   9.053  0.1455 -0.0373 -0.0694
 4749SOL    HW125880   3.908   1.647   9.127  0.3873 -1.2611  0.8300
 4749SOL    HW225881   3.978   1.558   9.029  1.4506  3.2531  0.4442
 4750SOL     OW25882   2.301   4.346   9.612 -0.1185  0.4622 -0.0256
 4750SOL    HW125883   2.269   4.256   9.617 -0.7377  0.6674 -0.2627
 4750SOL    HW225884   2.222   4.394   9.584 -1.6520 -1.1299  1.5568
 4751SOL     OW25885   0.653   2.193   2.004  0.5731  0.6523 -0.3151
 4751SOL    HW125886   0.748   2.185   2.014  0.8826  3.4265 -1.0203
 4751SOL    HW225887   0.630   2.264   2.065 -0.0729 -0.6611  0.9658
 4752SOL     OW25888   2.317   2.253   8.849  0.4922 -0.7794  0.6800
 4752SOL    HW125889   2.300   2.222   8.760  0.4403 -0.9340  0.7445
 4752SOL    HW225890   2.231   2.289   8.869  0.9293  1.2966 -1.1460
 4753SOL     OW25891   0.687   3.994   7.574  0.5883  0.2885  0.6352
 4753SOL    HW125892   0.668   4.056   7.644 -0.5839 -0.8557  1.3080
 4753SOL    HW225893   0.715   3.920   7.627  1.2757 -0.0550 -0.1973
 4754SOL     OW25894   0.912   0.327   5.253  0.6425 -0.2945 -0.2185
 4754SOL    HW125895   0.906   0.289   5.341 -1.7080 -0.0018 -0.2457
 4754SOL    HW225896   0.818   0.335   5.236  0.3271  2.3833  2.8475
 4755SOL     OW25897   3.552   3.596   9.222 -0.9618 -0.3036  0.5597
 4755SOL    HW125898   3.554   3.680   9.177 -1.0294 -0.6796 -0.1429
 4755SOL    HW225899   3.642   3.578   9.249 -0.1702  2.9702  0.0866
 4756SOL     OW25900   1.121   1.066   5.500  0.0105 -0.1444  0.6455
 4756SOL    HW125901   1.116   0.975   5.531  0.2517  0.3751  2.2106
 4756SOL    HW225902   1.031   1.089   5.520 -0.0818 -0.6568  0.8324
 4757SOL     OW25903   2.870   2.238   2.392 -0.0015  0.1381  0.0957
 4757SOL    HW125904   2.785   2.239   2.437 -2.2522  1.0331 -4.1088
 4757SOL    HW225905   2.864   2.320   2.342 -1.7506 -0.3055 -0.4187
 4758SOL     OW25906   3.428   2.253   4.178 -0.1384 -0.0153  0.0769
 4758SOL    HW125907   3.398   2.162   4.187  0.7560 -0.3915 -0.7600
 4758SOL    HW225908   3.404   2.269   4.087 -2.3201 -0.9221  0.4864
 4759SOL     OW25909   3.699   0.651   6.598 -0.1300 -0.3818  0.1204
 4759SOL    HW125910   3.610   0.616   6.587  0.3013 -2.1356  2.1144
 4759SOL    HW225911   3.738   0.588   6.658  1.1067 -0.2337 -0.5095
 4760SOL     OW25912   3.846   2.716  10.372  0.3805 -0.2236 -0.5281
 4760SOL    HW125913   3.871   2.781  10.306  2.4560 -0.4719  0.0363
 4760SOL    HW225914   3.787   2.765  10.429 -0.9599 -1.1509 -1.1128
 4761SOL     OW25915   1.798   1.508   7.248 -0.1664  0.1510  0.2928
 4761SOL    HW125916   1.728   1.516   7.313 -1.3077  0.1266 -0.9278
 4761SOL    HW225917   1.768   1.432   7.197 -0.7703  0.9834 -0.5870
 4762SOL     OW25918   1.765   4.161   9.427  0.1591  0.1017  0.2980
 4762SOL    HW125919   1.770   4.199   9.340  0.7943 -3.2062 -1.1257
 4762SOL    HW225920   1.851   4.119   9.427  0.8999  1.6058  0.6013
 4763SOL     OW25921   1.944   4.106  13.604 -0.0013 -0.6779  0.0358
 4763SOL    HW125922   1.850   4.089  13.603 -0.0333 -0.3202 -2.6037
 4763SOL    HW225923   1.982   4.027  13.565  0.2777  0.2807 -1.6093
 4764SOL     OW25924   4.049   3.119   8.930  0.0006 -0.0194 -0.2504
 4764SOL    HW125925   4.027   3.089   8.842  2.0450 -1.6981 -0.1921
 4764SOL    HW225926   4.112   3.188   8.910 -1.3139  1.5704  1.1345
 4765SOL     OW25927   2.841   1.537   5.991 -0.2891 -0.1924 -0.0108
 4765SOL    HW125928   2.876   1.589   6.063  2.9004 -0.6806 -1.1793
 4765SOL    HW225929   2.874   1.593   5.920  1.5171 -1.2635 -0.0332
 4766SOL     OW25930   3.772   2.632   3.199  0.4853 -0.3368  0.0760
 4766SOL    HW125931   3.724   2.655   3.279 -0.2957  0.5414 -0.6388
 4766SOL    HW225932   3.850   2.687   3.207  0.4642 -0.2737 -0.1740
 4767SOL     OW25933   2.729   0.282   9.264 -0.0667 -0.4938  0.2309
 4767SOL    HW125934   2.719   0.377   9.257  0.1677 -0.2611  2.7778
 4767SOL    HW225935   2.706   0.242   9.180 -0.7049  2.0659 -0.8058
 4768SOL     OW25936   4.310   2.617   4.196 -0.8230  0.1787 -0.8355
 4768SOL    HW125937   4.289   2.534   4.240 -1.0853 -0.0145 -1.3249
 4768SOL    HW225938   4.239   2.666   4.237 -1.1924 -0.1576 -1.0657
 4769SOL     OW25939   2.532   1.538   5.444  0.4062 -0.9484 -0.2993
 4769SOL    HW125940   2.438   1.550   5.450  0.5017 -1.0241  1.3844
 4769SOL    HW225941   2.576   1.622   5.458  1.5520 -1.4421 -0.9175
 4770SOL     OW25942   1.160   3.386   2.636 -0.7348 -0.0894  0.1913
 4770SOL    HW125943   1.086   3.344   2.679 -1.4372 -2.2155 -3.1884
 4770SOL    HW225944   1.134   3.478   2.647  2.8079  0.8556  0.8884
 4771SOL     OW25945   4.649   1.439   1.659  0.3805 -0.5280 -0.4441
 4771SOL    HW125946   4.612   1.351   1.667  1.6028 -0.7090  3.1237
 4771SOL    HW225947   0.006   1.417   1.645  0.2212  0.0996 -2.5300
 4772SOL     OW25948   2.449   0.375   8.253 -0.4204 -0.2360 -0.0924
 4772SOL    HW125949   2.432   0.373   8.347 -0.6349 -0.0268 -0.1252
 4772SOL    HW225950   2.358   0.353   8.233 -0.3807  0.7681 -1.3513
 4773SOL     OW25951   2.397   2.285  13.214  0.2992 -0.4756 -0.0270
 4773SOL    HW125952   2.312   2.261  13.251 -1.1078  0.2588 -2.7710
 4773SOL    HW225953   2.375   2.275  13.122  1.7737  1.0892 -0.5557
 4774SOL     OW25954   4.696   1.669   2.445  0.3845  0.3612  0.1966
 4774SOL    HW125955   4.621   1.628   2.402  1.3007  0.6616 -1.6846
 4774SOL    HW225956   4.665   1.759   2.435 -1.6097 -0.2526  0.9507
 4775SOL     OW25957   3.124   0.014   7.308  0.5838  0.7525 -0.7174
 4775SOL    HW125958   3.143   0.081   7.242 -0.1335  2.0195  0.3522
 4775SOL    HW225959   3.039   4.719   7.275 -0.0564  0.2317  1.4411
 4776SOL     OW25960   2.562   3.376   7.167 -0.1736 -0.8017  0.0296
 4776SOL    HW125961   2.574   3.307   7.232 -0.9316 -1.5077 -0.5935
 4776SOL    HW225962   2.471   3.363   7.141  1.2757 -0.3791 -5.2307
 4777SOL     OW25963   0.885   3.752   7.974  0.0353 -0.9004  0.5431
 4777SOL    HW125964   0.892   3.832   8.027  1.9682 -0.5967 -0.1705
 4777SOL    HW225965   0.978   3.741   7.956  0.5378  1.0618  1.8961
 4778SOL     OW25966   1.292   0.208   3.103  0.5508  0.2109 -0.2208
 4778SOL    HW125967   1.286   0.230   3.010 -0.8614 -0.3694 -0.2664
 4778SOL    HW225968   1.252   0.285   3.143 -0.1977  0.1102 -0.7836
 4779SOL     OW25969   1.458   2.575   2.105  0.5491 -0.4197  0.6567
 4779SOL    HW125970   1.399   2.563   2.179 -0.7532 -3.4021 -0.8499
 4779SOL    HW225971   1.428   2.495   2.062 -0.2288  0.2788 -0.0906
 4780SOL     OW25972   3.132   2.912   3.829 -0.7997 -0.0407 -0.4517
 4780SOL    HW125973   3.136   2.823   3.792 -1.3926 -0.1719 -0.1940
 4780SOL    HW225974   3.086   2.967   3.766 -2.2603  2.2097  2.6188
 4781SOL     OW25975   2.306   1.978   1.641 -0.1615  0.1783  0.0845
 4781SOL    HW125976   2.329   1.940   1.725  3.1945  2.1229  0.0259
 4781SOL    HW225977   2.225   1.933   1.616  0.0292  0.4158 -0.9681
 4782SOL     OW25978   0.307   0.625   5.679  0.3475 -0.0874  0.1339
 4782SOL    HW125979   0.297   0.537   5.717  3.0045 -0.7433 -0.6701
 4782SOL    HW225980   0.223   0.635   5.634  1.0885 -4.4894 -2.2071
 4783SOL     OW25981   1.385   0.683   3.051  0.2610  0.1035  0.1539
 4783SOL    HW125982   1.314   0.746   3.064 -0.6991 -1.1211  0.8895
 4783SOL    HW225983   1.331   0.623   3.000  1.4128 -0.2888 -0.6182
 4784SOL     OW25984   0.299   3.616   5.662  0.3790  0.2129  0.2932
 4784SOL    HW125985   0.363   3.563   5.709  0.0697 -0.0119  0.4635
 4784SOL    HW225986   0.248   3.545   5.624  0.2047 -0.1508  1.2136
 4785SOL     OW25987   0.766   2.795   5.332  0.3929 -0.2508  0.1089
 4785SOL    HW125988   0.689   2.841   5.299  0.8622  0.0992 -0.5020
 4785SOL    HW225989   0.735   2.721   5.385  0.2025 -0.4779 -0.3244
 4786SOL     OW25990   3.345   1.597   4.109  0.0758  0.0235  0.5288
 4786SOL    HW125991   3.344   1.506   4.140 -0.1492 -0.6958 -1.6015
 4786SOL    HW225992   3.360   1.645   4.190  2.2457 -0.8136  0.6350
 4787SOL     OW25993   2.888   2.877  15.248 -0.6206  0.0876  0.1964
 4787SOL    HW125994   2.810   2.926  15.274  1.3857  2.7265  1.3495
 4787SOL    HW225995   2.891   2.909  15.158  0.9239 -1.3755 -0.2644
 4788SOL     OW25996   2.801   0.846   6.639  0.0241 -0.0497 -0.3117
 4788SOL    HW125997   2.886   0.863   6.599  0.1051  0.4297  0.0631
 4788SOL    HW225998   2.825   0.820   6.728 -1.3818 -2.3128 -0.6102
 4789SOL     OW25999   3.262   2.050   7.153 -0.2737  0.2111 -0.3190
 4789SOL    HW126000   3.198   1.984   7.180  1.2653 -0.7845  0.9359
 4789SOL    HW226001   3.299   1.992   7.085 -2.8063 -1.6926 -0.0580
 4790SOL     OW26002   3.889   1.563  13.789 -0.4177  0.3920 -0.1705
 4790SOL    HW126003   3.836   1.497  13.834 -1.3418  2.8397  2.3486
 4790SOL    HW226004   3.978   1.530  13.797  0.1272  1.4650 -1.6569
 4791SOL     OW26005   1.881   2.012  11.406  0.2035 -0.4721 -0.5410
 4791SOL    HW126006   1.841   2.071  11.470 -0.3860  0.1071 -1.4368
 4791SOL    HW226007   1.914   1.946  11.467 -1.3933  0.6420  1.5259
 4792SOL     OW26008   0.952   4.058   0.598  0.5691  0.0322  0.0492
 4792SOL    HW126009   0.976   3.966   0.603  2.6681  0.5139 -0.9918
 4792SOL    HW226010   1.017   4.106   0.649 -1.8854  1.0243  2.2221
 4793SOL     OW26011   3.661   2.784  11.568  0.1821 -0.1458 -0.0770
 4793SOL    HW126012   3.598   2.716  11.544 -1.0596  0.5137  1.2466
 4793SOL    HW226013   3.719   2.728  11.619 -0.2492  0.2827  0.8870
 4794SOL     OW26014   0.365   3.894   9.717  0.6591 -0.4218 -0.3805
 4794SOL    HW126015   0.369   3.845   9.799  0.2554  0.0007 -0.1029
 4794SOL    HW226016   0.457   3.921   9.709  0.5152 -0.0037 -0.6389
 4795SOL     OW26017   1.967   4.496   1.837  0.2289 -0.4042  0.1310
 4795SOL    HW126018   2.045   4.548   1.857  0.7347 -0.5791 -1.3881
 4795SOL    HW226019   1.924   4.496   1.922 -0.2821  2.0707 -0.1233
 4796SOL     OW26020   1.120   3.044   5.823 -0.0242  0.1473  0.1171
 4796SOL    HW126021   1.091   2.977   5.761 -0.4701  2.1990 -1.8786
 4796SOL    HW226022   1.203   3.007   5.853 -0.4969 -0.2801  0.9133
 4797SOL     OW26023   0.411   2.819  17.557  0.4790 -0.0778 -0.1964
 4797SOL    HW126024   0.388   2.726  17.566 -0.4014  0.2650  0.9965
 4797SOL    HW226025   0.330   2.850  17.517  0.2421  0.2890  0.5697
 4798SOL     OW26026   3.734   0.062   9.042  0.3512 -0.6415 -0.2309
 4798SOL    HW126027   3.767   0.150   9.022  0.2990 -0.3320  1.0629
 4798SOL    HW226028   3.756   0.019   8.959 -0.5856 -0.5298 -0.5349
 4799SOL     OW26029   3.099   1.490   8.982 -0.3162 -0.1223  0.5860
 4799SOL    HW126030   3.127   1.580   8.966 -0.3340 -0.5649 -1.8045
 4799SOL    HW226031   3.028   1.498   9.046 -1.4059 -0.7926 -0.5560
 4800SOL     OW26032   4.471   0.567  10.756  0.4510  0.0018  0.0627
 4800SOL    HW126033   4.417   0.500  10.799 -1.0128  2.0224  1.3400
 4800SOL    HW226034   4.418   0.594  10.681  1.4282  0.4019 -0.4823
 4801SOL     OW26035   2.688   2.985  13.164 -0.0725  0.2187  0.1816
 4801SOL    HW126036   2.644   3.060  13.204  0.4346 -0.0265  1.1943
 4801SOL    HW226037   2.778   3.017  13.159  0.8142 -2.0957  1.8079
 4802SOL     OW26038   0.941   0.603   2.003 -0.0155  0.1295 -0.1357
 4802SOL    HW126039   0.984   0.655   1.935  1.5197 -0.2267  0.5415
 4802SOL    HW226040   1.019   0.554   2.031  1.9885  2.1220 -2.1892
 4803SOL     OW26041   3.865   3.641   6.039  0.0681  0.8807 -0.0110
 4803SOL    HW126042   3.880   3.610   6.128 -0.2522  2.3270  0.5539
 4803SOL    HW226043   3.834   3.555   6.012 -1.3597  0.7757  1.9286
 4804SOL     OW26044   3.790   1.230   8.644 -0.2171 -0.2086  0.0314
 4804SOL    HW126045   3.698   1.236   8.672 -0.5127  1.7833 -1.3622
 4804SOL    HW226046   3.814   1.140   8.625 -0.0495 -0.1494 -0.0311
 4805SOL     OW26047   1.808   0.062  10.909 -0.1982 -0.6950  0.0265
 4805SOL    HW126048   1.767   0.078  10.994  1.4605  1.2338  0.4549
 4805SOL    HW226049   1.883   0.119  10.922 -1.6161  0.5394  2.6231
 4806SOL     OW26050   2.157   1.486   9.134 -0.1982  0.6908 -0.1315
 4806SOL    HW126051   2.164   1.393   9.153  0.6318  0.8186  0.2032
 4806SOL    HW226052   2.069   1.498   9.099  0.8975  1.9248 -2.4276
 4807SOL     OW26053   3.217   2.156   6.873  0.1453 -0.3369 -0.5840
 4807SOL    HW126054   3.184   2.243   6.894  0.2073 -0.6332  0.7395
 4807SOL    HW226055   3.241   2.113   6.955  0.9515  0.5491 -0.3576
 4808SOL     OW26056   0.211   3.547   2.441  0.2996 -0.0884  0.2197
 4808SOL    HW126057   0.129   3.536   2.393 -0.2714  0.0345  1.1504
 4808SOL    HW226058   0.250   3.460   2.431 -0.1063 -0.2310 -0.1257
 4809SOL     OW26059   4.514   2.095   8.057 -0.2912 -0.5657 -0.6820
 4809SOL    HW126060   4.472   2.171   8.098 -0.0089 -0.6371 -0.2564
 4809SOL    HW226061   4.594   2.082   8.109 -0.0377  0.6810 -0.7635
 4810SOL     OW26062   1.885   1.160   1.248 -0.4160 -0.1058  0.3780
 4810SOL    HW126063   1.872   1.254   1.251  1.6632  0.1441  1.2621
 4810SOL    HW226064   1.792   1.145   1.264 -0.6477  1.7941  0.7810
 4811SOL     OW26065   1.035   2.168  16.839  0.0547 -0.5178 -0.5938
 4811SOL    HW126066   0.956   2.166  16.784 -0.3706  0.0181  0.0002
 4811SOL    HW226067   1.087   2.233  16.790 -0.7645 -0.5157 -1.4716
 4812SOL     OW26068   1.266   3.635  13.149  0.1137 -0.1672  0.0826
 4812SOL    HW126069   1.172   3.652  13.155 -0.0906 -1.9274  1.8490
 4812SOL    HW226070   1.266   3.540  13.149 -0.0087 -0.1603 -0.7753
 4813SOL     OW26071   0.780   4.706   2.990  0.6190 -0.6248  0.2201
 4813SOL    HW126072   0.707   4.696   2.929  0.7140  0.2087 -0.0213
 4813SOL    HW226073   0.833   0.039   2.948  3.9868 -2.9363  0.7172
 4814SOL     OW26074   1.782   1.185  17.569  0.1808  0.0583 -0.5397
 4814SOL    HW126075   1.822   1.271  17.556  1.5596 -0.5520 -0.3633
 4814SOL    HW226076   1.833   1.130  17.510  0.9660 -0.3898  0.5534
 4815SOL     OW26077   3.072   4.167   3.104  0.4150  0.0873 -0.1586
 4815SOL    HW126078   3.065   4.147   3.198 -1.1368 -3.4588 -1.0573
 4815SOL    HW226079   3.162   4.143   3.084 -0.3420 -2.1984 -0.7372
 4816SOL     OW26080   1.446   2.805   8.848  0.4352 -0.5330  0.2324
 4816SOL    HW126081   1.392   2.882   8.864  1.8247  0.7357 -1.1487
 4816SOL    HW226082   1.383   2.752   8.799 -1.9880  0.3615  2.3888
 4817SOL     OW26083   0.844   0.726   9.822  0.0718  0.5910  0.3370
 4817SOL    HW126084   0.825   0.672   9.899  0.4434 -2.7116 -1.9221
 4817SOL    HW226085   0.756   0.765   9.818  0.3761  1.1129 -1.3391
 4818SOL     OW26086   3.969   1.053   3.832 -0.1436 -0.0228  0.1437
 4818SOL    HW126087   3.935   1.143   3.824 -1.2801 -0.6535 -2.2934
 4818SOL    HW226088   3.922   1.028   3.752 -1.3385 -0.7955  1.0929
 4819SOL     OW26089   0.593   0.830   0.588  0.2113 -0.1258 -0.3838
 4819SOL    HW126090   0.513   0.879   0.568 -0.5472 -1.5032 -0.7225
 4819SOL    HW226091   0.556   0.770   0.652 -0.4289  0.6951  0.0036
 4820SOL     OW26092   2.784   1.613  17.569 -0.0377  0.3794 -0.2104
 4820SOL    HW126093   2.763   1.529  17.610 -0.7096  0.0823 -1.1491
 4820SOL    HW226094   2.796   1.588  17.477  1.6301  3.7484 -0.8690
 4821SOL     OW26095   4.190   4.108   5.237 -0.1251  0.2440  0.7985
 4821SOL    HW126096   4.225   4.195   5.219  2.2286 -0.5866  1.3646
 4821SOL    HW226097   4.099   4.134   5.253 -1.7514 -4.5866 -0.8839
 4822SOL     OW26098   4.671   4.623   1.922  0.3652 -0.4946  0.0557
 4822SOL    HW126099   4.594   4.571   1.899  0.5301 -0.6778 -0.0744
 4822SOL    HW226100   4.709   4.555   1.978  1.7856  0.5516  0.3592
 4823SOL     OW26101   0.709   1.971   8.306  0.6132 -0.5489  0.2338
 4823SOL    HW126102   0.734   2.004   8.219  0.2306 -0.1186  0.2870
 4823SOL    HW226103   0.623   2.012   8.308 -0.6699 -3.3676  2.8792
 4824SOL     OW26104   3.065   3.644   4.949 -0.0216  0.0556 -0.4344
 4824SOL    HW126105   3.004   3.665   4.879 -2.5599 -1.6425  1.2623
 4824SOL    HW226106   3.144   3.618   4.902 -0.7288 -1.0365 -1.0179
 4825SOL     OW26107   0.233   2.018   5.905  0.4658 -0.2372 -0.3121
 4825SOL    HW126108   0.232   2.096   5.850  0.2517 -0.0291 -0.0092
 4825SOL    HW226109   0.252   2.045   5.994  2.9843 -0.8480 -0.6682
 4826SOL     OW26110   1.832   0.352   1.879  0.0368 -0.5003  0.2115
 4826SOL    HW126111   1.778   0.297   1.937 -1.6448 -0.0077 -0.9028
 4826SOL    HW226112   1.818   0.442   1.911 -0.7246  0.5230 -3.0198
 4827SOL     OW26113   2.795   3.884   2.692  0.2590  0.3970  0.1445
 4827SOL    HW126114   2.731   3.955   2.699  1.1564  1.1459  0.8240
 4827SOL    HW226115   2.845   3.908   2.614 -0.0814 -0.2531 -0.2725
 4828SOL     OW26116   3.417   3.324   2.992 -0.2206 -0.1986  0.0894
 4828SOL    HW126117   3.396   3.355   3.080 -0.1324  1.6766 -0.5452
 4828SOL    HW226118   3.390   3.398   2.936  0.5006 -0.6498 -0.8615
 4829SOL     OW26119   0.586   4.428   5.559 -0.2509  0.2310 -0.0665
 4829SOL    HW126120   0.570   4.365   5.628  0.2682 -1.3017 -1.3579
 4829SOL    HW226121   0.509   4.485   5.562 -1.1241 -0.9304 -0.6368
 4830SOL     OW26122   1.906   0.774   9.295  0.0621  0.2826 -0.3932
 4830SOL    HW126123   1.863   0.808   9.374  2.5212 -1.1759  1.5794
 4830SOL    HW226124   1.891   0.845   9.234 -0.9282 -0.5520 -1.1148
 4831SOL     OW26125   3.712   0.798   9.642  0.4690  0.3798 -0.1747
 4831SOL    HW126126   3.703   0.854   9.565 -0.3780  1.2828  0.5780
 4831SOL    HW226127   3.807   0.802   9.642  0.5428 -1.3729  0.3592
 4832SOL     OW26128   4.526   2.766   8.019 -0.8135 -0.4228  0.3249
 4832SOL    HW126129   4.451   2.774   8.077 -1.5772  2.5252 -1.0813
 4832SOL    HW226130   4.495   2.711   7.946 -0.1219 -1.3626  0.7360
 4833SOL     OW26131   4.588   2.355  13.774 -0.4872  0.2277  0.3138
 4833SOL    HW126132   4.554   2.304  13.848  0.6121 -1.9400 -0.6835
 4833SOL    HW226133   4.508   2.391  13.735 -0.2525  0.5001  0.0840
 4834SOL     OW26134   2.407   2.940   4.911 -0.1433 -0.0292 -0.3840
 4834SOL    HW126135   2.369   2.982   4.988 -0.3238 -0.9911  0.0444
 4834SOL    HW226136   2.492   2.985   4.908 -0.5100  0.6434 -0.7570
 4835SOL     OW26137   3.500   1.889   8.675 -0.2837 -0.0005 -0.1926
 4835SOL    HW126138   3.424   1.916   8.727 -0.2060  0.5398 -0.3561
 4835SOL    HW226139   3.546   1.823   8.727  0.6797 -0.1777 -1.2827
 4836SOL     OW26140   2.274   2.578   3.038 -0.5214 -0.1586 -0.3528
 4836SOL    HW126141   2.211   2.612   2.974 -1.5481  2.2592  1.9536
 4836SOL    HW226142   2.215   2.536   3.101 -0.3674  0.8183  0.4365
 4837SOL     OW26143   0.285   4.410   3.504  0.0103 -0.5297  0.0554
 4837SOL    HW126144   0.274   4.505   3.515  0.1786 -0.4017 -0.8316
 4837SOL    HW226145   0.380   4.400   3.491  0.3838 -0.3620  2.6427
 4838SOL     OW26146   2.664   3.437   3.125 -0.3091  0.4661  0.0772
 4838SOL    HW126147   2.609   3.506   3.087 -0.1160  0.0329 -1.0079
 4838SOL    HW226148   2.606   3.361   3.131  1.0514 -0.6597 -0.9688
 4839SOL     OW26149   4.006   2.517   8.527  0.1738 -0.3230 -0.2811
 4839SOL    HW126150   3.974   2.600   8.561  1.2733 -0.6977  1.6950
 4839SOL    HW226151   3.992   2.455   8.599 -1.1013  0.8834  0.5099
 4840SOL     OW26152   3.871   1.314   3.800 -0.5073 -0.4798 -0.3872
 4840SOL    HW126153   3.779   1.295   3.814 -0.1278 -3.4928 -2.0425
 4840SOL    HW226154   3.865   1.379   3.730 -0.6638  0.8669  0.8731
 4841SOL     OW26155   2.815   4.368  12.318 -0.0793 -0.2820  0.0569
 4841SOL    HW126156   2.899   4.331  12.293  0.3403  0.4199  0.4241
 4841SOL    HW226157   2.768   4.284  12.323 -4.1153  1.8206 -2.7759
 4842SOL     OW26158   0.641   0.363   2.335 -0.0344  0.0649  0.5798
 4842SOL    HW126159   0.663   0.365   2.242  1.6597  0.9067  0.9927
 4842SOL    HW226160   0.602   0.276   2.346 -1.5911  0.7331  0.3018
 4843SOL     OW26161   3.922   3.044  10.768 -0.5012 -0.2095 -0.1055
 4843SOL    HW126162   3.878   2.979  10.821 -2.6827  1.4071  0.0653
 4843SOL    HW226163   3.887   3.027  10.681  2.0799  2.8761 -1.7809
 4844SOL     OW26164   4.612   1.030  16.910  0.1092 -0.5786 -0.3339
 4844SOL    HW126165   4.579   0.977  16.837  1.5793 -2.7348  0.5642
 4844SOL    HW226166   4.706   1.032  16.889  0.4651 -1.3772  1.1890
 4845SOL     OW26167   1.506   1.555  14.492  0.0902  0.1768  0.0432
 4845SOL    HW126168   1.506   1.462  14.515 -0.7390 -0.2867 -1.7788
 4845SOL    HW226169   1.434   1.590  14.544 -0.4185  0.7518 -1.0440
 4846SOL     OW26170   1.364   3.157  11.886  0.0490 -0.0159  0.1697
 4846SOL    HW126171   1.409   3.177  11.968  0.4346 -0.3336  0.0367
 4846SOL    HW226172   1.272   3.149  11.913 -1.0293 -0.1137 -3.4512
 4847SOL     OW26173   0.244   0.910   4.064 -0.3093 -0.3877  0.0083
 4847SOL    HW126174   0.308   0.981   4.064 -0.2984 -0.3965 -2.4782
 4847SOL    HW226175   0.230   0.894   3.970 -0.4195 -1.4865  0.2124
 4848SOL     OW26176   0.853   3.378   4.306 -0.2985  0.0997 -0.2744
 4848SOL    HW126177   0.790   3.320   4.348  1.5418 -0.6064  1.5268
 4848SOL    HW226178   0.828   3.382   4.214 -1.7782  0.5140  0.1416
 4849SOL     OW26179   2.388   0.750  16.788 -0.0224 -0.0472  0.3491
 4849SOL    HW126180   2.434   0.782  16.710 -1.7103 -0.4220 -0.7973
 4849SOL    HW226181   2.463   0.718  16.838  1.7642  1.2283 -1.4787
 4850SOL     OW26182   0.746   1.176  14.220 -0.3568 -0.0298  0.1764
 4850SOL    HW126183   0.746   1.121  14.298 -0.0807 -0.5826 -0.2170
 4850SOL    HW226184   0.783   1.256  14.258  1.9658 -0.9482 -0.1460
 4851SOL     OW26185   0.503   3.674   4.145 -0.8904  0.0751  0.3692
 4851SOL    HW126186   0.487   3.635   4.058  0.8985 -0.9646  0.5073
 4851SOL    HW226187   0.415   3.663   4.183 -0.7785  1.5440  1.0421
 4852SOL     OW26188   0.464   0.373   2.892 -0.4291 -0.4284  0.3225
 4852SOL    HW126189   0.378   0.369   2.934 -1.0276  1.1318 -0.7652
 4852SOL    HW226190   0.452   0.458   2.849  0.0854 -0.8099 -0.5728
 4853SOL     OW26191   3.219   1.122   2.725  0.5153  0.2297  0.1708
 4853SOL    HW126192   3.230   1.142   2.818  1.2460 -0.2387  0.1803
 4853SOL    HW226193   3.125   1.138   2.713  0.6900 -1.3580 -3.1878
 4854SOL     OW26194   1.269   3.526  16.630  0.6130 -0.0461  0.1824
 4854SOL    HW126195   1.291   3.459  16.696  1.2846 -0.8507 -0.8663
 4854SOL    HW226196   1.173   3.518  16.631  0.4593  1.8809  1.0188
 4855SOL     OW26197   0.977   4.680   6.891 -0.2791 -0.0457 -0.0599
 4855SOL    HW126198   1.034   4.722   6.956 -0.6342  1.4254 -0.6996
 4855SOL    HW226199   0.889   4.705   6.920 -0.9876 -0.1108 -2.1762
 4856SOL     OW26200   4.234   3.866   9.864 -0.2791 -0.6363 -0.3829
 4856SOL    HW126201   4.200   3.943   9.910  1.6656 -0.0750  0.1322
 4856SOL    HW226202   4.309   3.840   9.918 -1.1145 -0.5991  0.7984
 4857SOL     OW26203   4.625   2.476   4.188  0.5812  0.3871 -0.0146
 4857SOL    HW126204   4.672   2.455   4.269 -0.1502  0.3821  0.4105
 4857SOL    HW226205   4.589   2.561   4.214  0.5344  0.4872 -0.4080
 4858SOL     OW26206   2.281   2.357  12.953 -0.1444 -0.3374 -0.1236
 4858SOL    HW126207   2.243   2.385  12.870 -0.4928 -1.5107 -0.3647
 4858SOL    HW226208   2.359   2.411  12.958 -0.3557 -0.1400  1.1854
 4859SOL     OW26209   2.155   2.743   2.864 -0.2255  0.2724 -0.3515
 4859SOL    HW126210   2.146   2.814   2.927  2.0239  0.1087  0.1631
 4859SOL    HW226211   2.119   2.787   2.787 -0.9499  0.6297  0.1988
 4860SOL     OW26212   4.500   4.379  13.235  0.2387 -0.4164  0.1005
 4860SOL    HW126213   4.475   4.410  13.322 -0.1597 -0.8811  0.1470
 4860SOL    HW226214   4.595   4.368  13.236  0.2716 -0.2135 -1.2200
 4861SOL     OW26215   2.883   1.016   4.428  0.2664  0.0681 -0.5568
 4861SOL    HW126216   2.931   1.025   4.511 -0.8285 -1.8890  0.2988
 4861SOL    HW226217   2.923   1.081   4.371  2.3134  1.1611  2.1040
 4862SOL     OW26218   1.054   3.769   2.306  0.0816 -0.7175 -0.2145
 4862SOL    HW126219   1.118   3.703   2.333 -1.2728 -0.8332  2.7970
 4862SOL    HW226220   0.999   3.713   2.252 -1.5651 -0.1078  0.8240
 4863SOL     OW26221   4.335   3.423   4.127 -0.4770 -0.1263  0.4761
 4863SOL    HW126222   4.254   3.445   4.174 -0.0010 -1.3214  1.8752
 4863SOL    HW226223   4.312   3.433   4.035  1.1268 -0.5239  0.0321
 4864SOL     OW26224   1.397   3.101  16.961 -0.0997  0.0154  0.4787
 4864SOL    HW126225   1.321   3.121  16.906 -1.0421 -1.9946  1.0534
 4864SOL    HW226226   1.356   3.037  17.019 -0.3037  0.0792  0.4043
 4865SOL     OW26227   2.434   4.573  16.731 -0.6826 -0.2997  0.0339
 4865SOL    HW126228   2.474   4.520  16.800 -2.9689 -0.8991  0.9253
 4865SOL    HW226229   2.344   4.583  16.761  0.3323  0.2601  2.8553
 4866SOL     OW26230   3.465   2.004  13.487 -0.0767 -0.6938  0.3392
 4866SOL    HW126231   3.455   2.054  13.569 -3.3130 -1.0294  0.1532
 4866SOL    HW226232   3.543   1.949  13.497  0.8248  0.0566 -2.8241
 4867SOL     OW26233   3.424   2.142  13.724 -0.1482 -0.6391  0.1085
 4867SOL    HW126234   3.504   2.134  13.776  0.7477 -0.9350 -1.3207
 4867SOL    HW226235   3.356   2.136  13.792 -0.9957  0.5708 -0.6177
 4868SOL     OW26236   3.316   2.948   3.302  0.4044 -0.0144  0.0861
 4868SOL    HW126237   3.355   3.025   3.343  0.9064  0.0350 -0.4857
 4868SOL    HW226238   3.396   2.897   3.286 -0.2440 -1.4294  1.3410
 4869SOL     OW26239   4.391   3.324   3.107  0.1939 -0.2748 -0.4454
 4869SOL    HW126240   4.391   3.338   3.012  0.0334 -0.2973 -0.4499
 4869SOL    HW226241   4.368   3.413   3.135  0.6470  0.6534 -2.9771
 4870SOL     OW26242   0.832   3.010   7.065  0.4469  0.0423  0.1085
 4870SOL    HW126243   0.766   2.946   7.090 -0.1930  1.1126  1.1612
 4870SOL    HW226244   0.787   3.047   6.990 -0.3899  2.9267  2.0378
 4871SOL     OW26245   3.594   0.385   4.434  0.0533  0.6349 -0.4683
 4871SOL    HW126246   3.595   0.308   4.492 -1.2991  1.7695  1.0495
 4871SOL    HW226247   3.560   0.336   4.359 -1.6388  1.3443 -0.1645
 4872SOL     OW26248   2.149   2.283   6.212  0.4520  0.2494 -0.0192
 4872SOL    HW126249   2.076   2.338   6.185  1.0012  0.3922 -1.2194
 4872SOL    HW226250   2.211   2.319   6.148 -1.4749 -0.5527 -2.3414
 4873SOL     OW26251   2.884   2.726   8.974 -0.1294  0.0240 -0.1234
 4873SOL    HW126252   2.889   2.709   9.068 -0.6777  0.6045  0.0069
 4873SOL    HW226253   2.845   2.813   8.963 -1.8354 -0.5225  1.6105
 4874SOL     OW26254   2.168   1.727   5.574  0.4944  0.5902  0.5019
 4874SOL    HW126255   2.141   1.648   5.620  0.9493  1.0849  1.6175
 4874SOL    HW226256   2.186   1.692   5.487 -2.6213 -1.0845  0.5372
 4875SOL     OW26257   2.989   3.319   9.571 -0.4195 -0.2201 -0.0361
 4875SOL    HW126258   2.950   3.405   9.554  0.9463  0.0405 -1.7660
 4875SOL    HW226259   2.913   3.271   9.537 -2.4011  2.8615  0.0663
 4876SOL     OW26260   0.207   2.083  15.082 -1.4081 -0.1827 -0.3209
 4876SOL    HW126261   0.185   2.035  15.161 -0.0278  1.1766  0.9010
 4876SOL    HW226262   0.303   2.086  15.079 -1.4324 -0.0926 -1.1098
 4877SOL     OW26263   3.120   1.421   3.555 -0.6705 -0.4553  0.2509
 4877SOL    HW126264   3.103   1.352   3.491 -0.2315  0.6751 -1.0826
 4877SOL    HW226265   3.152   1.374   3.632 -2.0115  0.7984  1.5650
 4878SOL     OW26266   3.341   0.791   1.954 -0.0129  0.1810  0.1428
 4878SOL    HW126267   3.376   0.721   1.900 -2.1540 -1.4425  0.8551
 4878SOL    HW226268   3.257   0.757   1.987  0.2408  0.4699  1.1004
 4879SOL     OW26269   3.482   2.644   2.075 -0.0703  0.8617  0.3868
 4879SOL    HW126270   3.573   2.673   2.083  0.0829 -0.0373  1.9352
 4879SOL    HW226271   3.445   2.680   2.155  1.6919  0.2184  1.4883
 4880SOL     OW26272   0.566   1.823   8.487 -0.4558  0.7304 -0.0046
 4880SOL    HW126273   0.596   1.861   8.570  0.8162  1.1390 -0.6450
 4880SOL    HW226274   0.636   1.862   8.434  1.0330 -0.8932  0.7535
 4881SOL     OW26275   1.864   2.316   3.793  0.8293 -0.4029  0.4525
 4881SOL    HW126276   1.819   2.232   3.783  1.5526 -0.7115 -0.1596
 4881SOL    HW226277   1.938   2.302   3.734 -0.8433  0.5770 -1.8494
 4882SOL     OW26278   1.391   2.281   4.444 -0.1498 -0.4061  0.0512
 4882SOL    HW126279   1.366   2.188   4.440  1.2201 -0.8496  2.0507
 4882SOL    HW226280   1.437   2.281   4.528  0.9677 -0.2242 -0.5720
 4883SOL     OW26281   3.595   4.389   5.342 -0.0151  0.5445 -0.0808
 4883SOL    HW126282   3.510   4.364   5.306  1.0044 -0.9616 -1.4551
 4883SOL    HW226283   3.648   4.309   5.341  0.7330  1.0458 -0.0766
 4884SOL     OW26284   4.177   2.381  11.366  0.3193  0.1855 -0.1296
 4884SOL    HW126285   4.088   2.365  11.399 -0.1247 -0.1738 -1.4901
 4884SOL    HW226286   4.180   2.476  11.376 -0.0501  0.2017 -0.1710
 4885SOL     OW26287   4.464   0.100   5.345  0.6202 -0.0705  0.0750
 4885SOL    HW126288   4.389   0.089   5.286  1.3625  2.9030 -1.4312
 4885SOL    HW226289   4.472   0.195   5.356 -1.5608  0.1053  0.2610
 4886SOL     OW26290   1.648   0.302   5.895  0.6182  0.0553 -0.4296
 4886SOL    HW126291   1.576   0.241   5.915  2.2541 -1.5352  0.6426
 4886SOL    HW226292   1.626   0.366   5.962  0.2885  0.7062 -1.1646
 4887SOL     OW26293   1.676   2.383  14.912 -0.3464  0.1419  0.4086
 4887SOL    HW126294   1.648   2.316  14.850  0.6548 -1.3465  1.5516
 4887SOL    HW226295   1.672   2.352  15.003  0.7161 -0.8548  0.1167
 4888SOL     OW26296   2.162   2.418  13.349  0.3286  0.6934  0.2050
 4888SOL    HW126297   2.069   2.400  13.335  0.1420  0.5801  1.6491
 4888SOL    HW226298   2.158   2.506  13.386 -1.9805  0.0906  1.4081
 4889SOL     OW26299   3.308   1.128   2.261 -0.0744 -0.0494  0.8294
 4889SOL    HW126300   3.336   1.072   2.333 -2.3538  1.2304  2.7266
 4889SOL    HW226301   3.386   1.183   2.256 -0.7164  0.7369 -0.6317
 4890SOL     OW26302   3.078   4.380   7.013 -0.0026 -0.5901 -0.1707
 4890SOL    HW126303   3.153   4.320   7.009 -1.9951 -3.0598 -0.5724
 4890SOL    HW226304   3.089   4.431   7.093 -1.5983 -0.7958  0.1689
 4891SOL     OW26305   1.001   3.660  13.172  0.0045 -0.2531 -0.4416
 4891SOL    HW126306   0.980   3.716  13.246 -2.3209 -3.8578  1.6126
 4891SOL    HW226307   0.992   3.724  13.102  0.4868 -1.3469 -1.5196
 4892SOL     OW26308   1.716   2.309   6.839 -0.3415 -0.4636  0.4674
 4892SOL    HW126309   1.754   2.234   6.792  0.5461 -0.1535  0.7039
 4892SOL    HW226310   1.780   2.336   6.904 -0.2512 -0.2554  0.2930
 4893SOL     OW26311   0.728   2.801   8.896 -0.6527 -0.4880  0.1064
 4893SOL    HW126312   0.722   2.788   8.990 -1.0832  0.1581  0.1677
 4893SOL    HW226313   0.675   2.880   8.890 -1.2308 -0.8359  0.7326
 4894SOL     OW26314   1.832   1.746   3.967 -0.2802 -0.2084 -0.5790
 4894SOL    HW126315   1.772   1.820   3.974 -0.2296 -0.2343  0.1227
 4894SOL    HW226316   1.919   1.787   3.969 -1.1417  1.6251 -0.6992
 4895SOL     OW26317   1.022   4.718   6.306  0.4794 -0.5523  0.1658
 4895SOL    HW126318   1.051   4.722   6.397 -0.8207  1.3254  0.5044
 4895SOL    HW226319   0.984   4.630   6.302 -1.2634  0.2534 -1.5167
 4896SOL     OW26320   4.425   4.620   7.003  0.0758  0.3007  0.0734
 4896SOL    HW126321   4.367   4.576   7.065 -0.8179  2.6833  0.9147
 4896SOL    HW226322   4.362   4.676   6.957  1.1604 -0.3240 -2.1860
 4897SOL     OW26323   4.269   4.224   5.893 -0.2916 -0.2004  0.3365
 4897SOL    HW126324   4.258   4.301   5.948  0.9100 -0.5774  1.0954
 4897SOL    HW226325   4.288   4.265   5.809  0.6246 -0.6669  0.3084
 4898SOL     OW26326   0.367   0.627  15.925 -0.7624  0.2772 -0.0303
 4898SOL    HW126327   0.367   0.615  16.020 -1.4009 -0.6856 -0.1457
 4898SOL    HW226328   0.317   0.703  15.897  2.0801  1.7062 -1.1994
 4899SOL     OW26329   0.697   1.788   6.695  0.0439  0.0896  0.2122
 4899SOL    HW126330   0.777   1.757   6.737  0.1160  0.1138  0.0933
 4899SOL    HW226331   0.675   1.855   6.760  1.5930  1.1134 -0.3224
 4900SOL     OW26332   3.881   0.161  11.124 -0.2229 -0.0267 -0.4260
 4900SOL    HW126333   3.850   0.202  11.043  0.5409 -1.7480 -1.6064
 4900SOL    HW226334   3.927   0.230  11.171 -0.2161  0.1121 -0.6334
 4901SOL     OW26335   2.232   1.343   8.635  0.4132  0.6874 -0.0412
 4901SOL    HW126336   2.215   1.307   8.548  0.2689 -1.0966  0.7318
 4901SOL    HW226337   2.283   1.272   8.674  1.2656 -0.5770 -3.4859
 4902SOL     OW26338   3.219   1.189   6.538 -0.5521  0.2224 -0.8395
 4902SOL    HW126339   3.203   1.282   6.521 -1.1630  0.5194  1.4671
 4902SOL    HW226340   3.186   1.142   6.461 -1.8680 -1.5226  0.8040
 4903SOL     OW26341   4.642   4.609   6.252  0.2794 -0.0261 -0.2122
 4903SOL    HW126342   4.712   4.545   6.266  1.9715  1.8014 -0.2360
 4903SOL    HW226343   4.692   4.685   6.282 -0.1630 -0.2718  1.1666
 4904SOL     OW26344   0.430   4.665   9.646  0.2908 -0.1397  0.4171
 4904SOL    HW126345   0.365   4.717   9.694  0.2935  0.9889 -0.8065
 4904SOL    HW226346   0.431   4.708   9.561  0.6903 -1.3856 -0.2041
 4905SOL     OW26347   0.857   1.802   3.791  0.2832 -0.3756 -0.6336
 4905SOL    HW126348   0.786   1.836   3.737 -0.3149 -1.2090 -0.3925
 4905SOL    HW226349   0.915   1.761   3.727  0.3699 -1.8326  0.3614
 4906SOL     OW26350   0.220   2.197   8.621 -0.3131  0.1619  0.1575
 4906SOL    HW126351   0.207   2.106   8.598  1.5977  0.2777 -1.3899
 4906SOL    HW226352   0.180   2.228   8.540  0.0043  1.0383  0.3340
 4907SOL     OW26353   2.103   1.777   3.438 -0.0054 -0.3599 -0.4915
 4907SOL    HW126354   2.186   1.821   3.452  0.1645 -0.3549 -1.5947
 4907SOL    HW226355   2.102   1.777   3.343  1.8436  1.8206 -0.4902
 4908SOL     OW26356   0.949   3.956   8.149  0.2831  0.5694 -0.0850
 4908SOL    HW126357   0.893   3.914   8.215 -0.6611 -1.2707 -2.0364
 4908SOL    HW226358   1.024   3.960   8.208 -0.3893 -1.7141  0.9563
 4909SOL     OW26359   0.835   2.905   6.107  0.1299 -0.6318  0.4869
 4909SOL    HW126360   0.878   2.953   6.178 -1.7104 -0.4891  1.5192
 4909SOL    HW226361   0.911   2.851   6.085  0.7122  0.2280  0.4089
 4910SOL     OW26362   1.480   3.415   6.336  0.3014  0.1516 -0.2602
 4910SOL    HW126363   1.407   3.354   6.335  0.2792  0.1731  0.0102
 4910SOL    HW226364   1.443   3.472   6.404  0.7579  0.7365 -0.4955
 4911SOL     OW26365   4.418   1.123   6.507 -0.3334  0.2641 -0.0578
 4911SOL    HW126366   4.429   1.094   6.597  1.6705 -1.2230 -0.8051
 4911SOL    HW226367   4.481   1.189   6.479  0.0666 -0.0200  0.1848
 4912SOL     OW26368   2.613   3.116   4.796 -0.3668 -0.2843 -0.6658
 4912SOL    HW126369   2.599   3.119   4.701  0.2826 -4.3148 -0.8568
 4912SOL    HW226370   2.581   3.200   4.831 -0.5222 -0.0834 -1.2756
 4913SOL     OW26371   0.795   0.951   3.205 -0.3640  0.0066  0.2873
 4913SOL    HW126372   0.788   1.020   3.140  0.0629  0.5301  0.7995
 4913SOL    HW226373   0.708   0.960   3.244  0.0109  0.5490  0.9927
 4914SOL     OW26374   0.959   4.390   1.173 -0.7086 -0.7562  0.3141
 4914SOL    HW126375   0.956   4.314   1.115 -1.5922 -1.6581  1.5450
 4914SOL    HW226376   0.867   4.415   1.182 -0.4955 -0.5222  1.8751
 4915SOL     OW26377   4.354   0.295   3.516 -0.8662 -0.3953 -0.5464
 4915SOL    HW126378   4.432   0.238   3.517  0.1458  0.9525 -1.6516
 4915SOL    HW226379   4.397   0.380   3.507 -1.4264  0.0583  1.1085
 4916SOL     OW26380   4.512   0.712  15.795  1.1107 -0.4190  0.0448
 4916SOL    HW126381   4.537   0.804  15.809  2.6895 -0.5911 -1.5474
 4916SOL    HW226382   4.601   0.677  15.782  0.7298 -1.1852 -0.4738
 4917SOL     OW26383   3.789   2.224   3.428 -0.2775 -0.0550  0.0954
 4917SOL    HW126384   3.802   2.188   3.340 -0.0544  0.3855 -0.0507
 4917SOL    HW226385   3.848   2.299   3.436  1.2440 -1.2121 -0.2497
 4918SOL     OW26386   0.088   3.970   0.236  0.3196 -0.7770 -0.1779
 4918SOL    HW126387   0.174   3.950   0.272  0.0768  1.2038  1.5216
 4918SOL    HW226388   0.109   4.036   0.171 -2.0676  0.6600  0.5027
 4919SOL     OW26389   0.992   1.814  17.101  0.7031 -0.0694  0.2086
 4919SOL    HW126390   1.027   1.902  17.091 -1.3534  0.7926  0.5663
 4919SOL    HW226391   1.003   1.792  17.193  2.7288  0.9462  0.2050
 4920SOL     OW26392   4.214   1.434   4.942 -0.2920  0.8068  0.3337
 4920SOL    HW126393   4.274   1.359   4.940 -0.7108  0.5227 -1.7910
 4920SOL    HW226394   4.237   1.465   4.854  1.6226 -0.1320  0.4978
 4921SOL     OW26395   3.912   1.174  14.528  0.2886 -0.3064 -0.3626
 4921SOL    HW126396   3.838   1.149  14.582  1.7795 -1.2147  1.2674
 4921SOL    HW226397   3.938   1.251  14.578  0.6473  0.5289 -1.8440
 4922SOL     OW26398   3.379   0.616   6.846 -0.0439 -0.0989 -0.3416
 4922SOL    HW126399   3.411   0.575   6.766  0.2057  1.4726 -1.0437
 4922SOL    HW226400   3.388   0.702   6.806  1.3526 -0.9136 -1.7434
 4923SOL     OW26401   1.746   1.430  17.359  0.4168 -0.1325 -0.2004
 4923SOL    HW126402   1.700   1.486  17.296  2.8079  1.5920 -0.4434
 4923SOL    HW226403   1.759   1.501  17.422 -1.8251  1.1528 -1.1989
 4924SOL     OW26404   4.607   1.893   3.920 -0.4958 -0.0420  0.0746
 4924SOL    HW126405   4.678   1.924   3.977  1.4052 -0.7116 -1.9506
 4924SOL    HW226406   4.566   1.832   3.982  0.2556 -1.1253 -0.4910
 4925SOL     OW26407   4.076   4.296   7.559  0.1793 -0.3119  0.6475
 4925SOL    HW126408   4.046   4.213   7.522 -2.3301  0.6338  0.5527
 4925SOL    HW226409   4.109   4.256   7.639 -0.0710 -0.1717  0.8223
 4926SOL     OW26410   0.754   3.545  14.491  0.5986 -0.6727 -0.2148
 4926SOL    HW126411   0.848   3.561  14.504  0.4221  0.4822 -0.2916
 4926SOL    HW226412   0.750   3.476  14.425 -2.0285 -0.0099 -0.7492
 4927SOL     OW26413   2.713   3.948   3.608 -0.5936 -0.2371 -0.1300
 4927SOL    HW126414   2.792   3.895   3.602 -2.3507 -2.7878 -0.7670
 4927SOL    HW226415   2.715   3.982   3.518  0.2618 -1.2871 -0.4984
 4928SOL     OW26416   1.600   4.703   8.744 -0.0537 -0.2399 -0.6942
 4928SOL    HW126417   1.554   4.713   8.661 -0.9030  0.6785 -0.1069
 4928SOL    HW226418   1.543   4.643   8.792 -0.9099 -0.7659 -2.3802
 4929SOL     OW26419   0.406   3.481   9.610  0.1498 -0.4175  0.1369
 4929SOL    HW126420   0.378   3.413   9.671  2.1779 -0.7847  0.6407
 4929SOL    HW226421   0.330   3.539   9.614  0.8504  0.5732 -0.7453
 4930SOL     OW26422   4.627   0.725   7.241  0.7420  0.1583  0.4180
 4930SOL    HW126423   4.714   0.729   7.281  1.3133 -1.6982 -0.6724
 4930SOL    HW226424   4.578   0.672   7.304  1.2943 -0.9648 -0.1025
 4931SOL     OW26425   3.507   0.017   9.590  0.1418  0.6871 -0.4254
 4931SOL    HW126426   3.447   0.072   9.540 -0.6668 -1.1677 -1.4725
 4931SOL    HW226427   3.516   4.684   9.524  2.2962  1.2909 -0.7601
 4932SOL     OW26428   1.957   3.535   6.687 -0.0172 -0.5596 -0.4937
 4932SOL    HW126429   1.977   3.445   6.663 -0.5219 -0.6926 -0.4294
 4932SOL    HW226430   1.885   3.533   6.750  0.9296 -0.8178  0.5718
 4933SOL     OW26431   1.163   0.954   3.374 -0.2537 -0.1860  0.0016
 4933SOL    HW126432   1.171   0.964   3.469 -0.1757 -1.8580  0.1746
 4933SOL    HW226433   1.248   0.993   3.355 -0.2792 -0.7509 -1.2710
 4934SOL     OW26434   1.101   2.880  13.483  0.1820  0.0661 -0.4846
 4934SOL    HW126435   1.154   2.875  13.563 -0.0820  2.2364 -0.1869
 4934SOL    HW226436   1.142   2.817  13.423 -1.3040 -0.7624 -0.6233
 4935SOL     OW26437   4.551   2.116   2.315 -0.0505 -0.3052 -0.0037
 4935SOL    HW126438   4.540   2.178   2.388  0.3099  1.4264 -1.4360
 4935SOL    HW226439   4.608   2.050   2.354  1.1963 -0.2564 -1.7687
 4936SOL     OW26440   3.790   0.741   7.564 -0.8908 -0.2169 -0.2475
 4936SOL    HW126441   3.733   0.685   7.511 -1.2067 -0.3449  0.2232
 4936SOL    HW226442   3.857   0.760   7.498 -0.2530 -0.3580  0.3587
 4937SOL     OW26443   1.301   4.362   7.721  0.1252 -0.2926 -0.4617
 4937SOL    HW126444   1.310   4.303   7.796 -1.6160 -0.0215 -0.0489
 4937SOL    HW226445   1.212   4.343   7.694 -0.0488  1.3806 -1.0624
 4938SOL     OW26446   0.236   1.302   7.438 -0.1320 -0.0341  0.3981
 4938SOL    HW126447   0.207   1.221   7.481  0.1273  1.4743  3.4377
 4938SOL    HW226448   0.229   1.371   7.505 -2.1296 -0.2334  0.3849
 4939SOL     OW26449   3.748   0.946   1.027  0.5045 -0.2061 -0.2620
 4939SOL    HW126450   3.767   0.929   0.935  0.6366  0.0911 -0.2895
 4939SOL    HW226451   3.799   1.027   1.036  1.3811 -1.0706  2.6663
 4940SOL     OW26452   2.979   3.688  12.873 -0.1137 -0.0173 -0.1183
 4940SOL    HW126453   3.000   3.779  12.898  0.8196 -0.0778 -0.6680
 4940SOL    HW226454   3.072   3.665  12.867  0.1606  1.0895 -0.2563
 4941SOL     OW26455   1.234   4.296   4.918  0.6866  0.2779  0.1385
 4941SOL    HW126456   1.288   4.226   4.883 -0.5449 -0.5606 -0.0894
 4941SOL    HW226457   1.307   4.347   4.952 -1.5951  2.3633  1.9070
 4942SOL     OW26458   1.585   3.548   5.711  0.1339 -0.1567  0.3093
 4942SOL    HW126459   1.541   3.471   5.674  0.0065 -0.5363  1.2421
 4942SOL    HW226460   1.597   3.607   5.636 -0.6684  0.2925  0.5279
 4943SOL     OW26461   2.004   1.342  16.639  0.1547  0.2304 -0.2458
 4943SOL    HW126462   1.912   1.343  16.613 -0.1388 -1.5172  0.7477
 4943SOL    HW226463   2.001   1.399  16.717 -1.3442 -0.0172 -0.1266
 4944SOL     OW26464   4.608   4.714   4.772  1.3125  0.0636  0.6525
 4944SOL    HW126465   4.520   4.720   4.809 -0.4087  0.4086 -3.5036
 4944SOL    HW226466   4.628   0.072   4.758 -0.7190  0.0260 -2.5243
 4945SOL     OW26467   4.682   2.460   6.266 -0.1250  0.0099 -0.0868
 4945SOL    HW126468   4.684   2.365   6.256  1.5393  0.1308 -0.8482
 4945SOL    HW226469   0.035   2.482   6.299 -0.2989 -0.1710  0.4865
 4946SOL     OW26470   4.217   0.681   7.328  0.7163 -0.5332  0.2985
 4946SOL    HW126471   4.227   0.643   7.240  0.3058 -0.7996  0.3691
 4946SOL    HW226472   4.287   0.746   7.326  1.5466 -1.4685 -0.9319
 4947SOL     OW26473   3.106   0.477  14.078  0.1618  0.4971  0.0658
 4947SOL    HW126474   3.179   0.535  14.099 -1.4995  3.1003 -1.4194
 4947SOL    HW226475   3.143   0.389  14.090 -0.6557  0.0011 -1.0077
 4948SOL     OW26476   0.243   2.754   0.579  0.0674  0.0797  0.1758
 4948SOL    HW126477   0.278   2.665   0.590  2.5221  1.1135  0.7753
 4948SOL    HW226478   0.319   2.806   0.605 -2.0357  3.5963 -0.7893
 4949SOL     OW26479   1.878   1.060   3.859 -0.2869  0.0900  0.1840
 4949SOL    HW126480   1.851   1.119   3.789  1.9384 -0.4314 -1.1077
 4949SOL    HW226481   1.805   1.068   3.921 -0.3748 -0.2523  0.1262
 4950SOL     OW26482   4.461   2.186   3.274 -0.0689  0.9359 -0.1094
 4950SOL    HW126483   4.415   2.203   3.357  0.1660 -0.6231  0.3454
 4950SOL    HW226484   4.464   2.278   3.247 -0.0423  0.1488 -2.7623
 4951SOL     OW26485   1.263   2.309  13.598 -0.3621 -0.2783 -0.0879
 4951SOL    HW126486   1.213   2.256  13.536  0.2153 -0.5818 -0.2957
 4951SOL    HW226487   1.213   2.297  13.678  1.9812  0.1405  1.4491
 4952SOL     OW26488   3.540   0.159   6.139 -0.3165 -0.3925  0.0378
 4952SOL    HW126489   3.486   0.189   6.066 -0.4786  0.9663  0.7092
 4952SOL    HW226490   3.620   0.208   6.118 -0.2035 -1.0970 -1.1538
 4953SOL     OW26491   0.565   1.290   2.439  0.3404 -0.7222  0.2925
 4953SOL    HW126492   0.489   1.302   2.381  0.1586 -0.7821  0.5160
 4953SOL    HW226493   0.584   1.197   2.430  2.0540 -0.4539  1.2115
 4954SOL     OW26494   0.666   0.664   7.006  0.0700 -0.3846 -0.6567
 4954SOL    HW126495   0.602   0.602   6.972 -1.1774  1.2084 -1.1529
 4954SOL    HW226496   0.743   0.615   7.036  0.0250  0.7278  1.2912
 4955SOL     OW26497   1.315   4.505   2.331  0.2588  0.8908 -0.1878
 4955SOL    HW126498   1.353   4.591   2.313 -1.2238  1.2781 -1.5030
 4955SOL    HW226499   1.222   4.526   2.335 -0.2405 -1.2262 -0.5651
 4956SOL     OW26500   1.825   2.894   7.847  0.3766 -0.6393  0.1006
 4956SOL    HW126501   1.742   2.941   7.833 -1.3136 -3.5079  0.5134
 4956SOL    HW226502   1.878   2.968   7.877 -0.3025  0.4195 -1.2592
 4957SOL     OW26503   3.759   1.365   0.396  0.6370  0.6456  0.0306
 4957SOL    HW126504   3.721   1.278   0.410  0.7619  1.0230  2.6917
 4957SOL    HW226505   3.732   1.380   0.306 -2.1559 -0.8887  0.6125
 4958SOL     OW26506   4.001   2.409   6.492  0.1162 -0.1343  0.0855
 4958SOL    HW126507   4.039   2.336   6.443 -1.6902 -0.3470 -1.0104
 4958SOL    HW226508   3.943   2.445   6.425  1.6152  1.7705 -0.1921
 4959SOL     OW26509   0.694   2.735   6.835  0.2775  0.6270 -0.4251
 4959SOL    HW126510   0.773   2.788   6.832  0.9609 -0.4282 -1.0855
 4959SOL    HW226511   0.715   2.679   6.909  1.4421  1.7708  0.1100
 4960SOL     OW26512   0.975   1.908   3.034  0.5091  0.2472  0.1733
 4960SOL    HW126513   0.977   1.864   2.949 -0.5442  0.8390 -0.1541
 4960SOL    HW226514   0.921   1.853   3.090 -0.4403 -2.5248 -3.4300
 4961SOL     OW26515   3.026   2.113   6.651 -0.4203 -0.5949 -0.0995
 4961SOL    HW126516   3.067   2.170   6.587  1.5383  0.0692  1.7281
 4961SOL    HW226517   3.097   2.108   6.714  0.8050  2.2537 -1.2428
 4962SOL     OW26518   3.852   2.486  11.610 -0.1710 -0.4933 -0.5551
 4962SOL    HW126519   3.941   2.494  11.643 -0.8729  1.0575  0.9829
 4962SOL    HW226520   3.872   2.432  11.534 -1.3676 -1.7571  0.0237
 4963SOL     OW26521   0.787   2.762  13.262  0.2949  0.0202  0.2348
 4963SOL    HW126522   0.841   2.841  13.264 -1.4728  1.2177  0.8193
 4963SOL    HW226523   0.726   2.778  13.334 -0.5283 -0.2471 -0.4150
 4964SOL     OW26524   4.011   3.979   2.329 -0.0368  0.1655 -0.6853
 4964SOL    HW126525   4.066   4.038   2.380 -1.1237  0.3694  0.2447
 4964SOL    HW226526   3.989   4.036   2.256 -0.0222  0.2767 -0.6013
 4965SOL     OW26527   1.241   3.276   3.155  0.2079 -0.1552  0.0801
 4965SOL    HW126528   1.194   3.200   3.121 -1.6981  0.8602  0.4326
 4965SOL    HW226529   1.294   3.284   3.076 -0.9315 -1.5098 -0.8075
 4966SOL     OW26530   4.520   0.857  16.120  0.0260 -0.6238  0.0524
 4966SOL    HW126531   4.528   0.923  16.052 -4.4697  2.0772  2.0851
 4966SOL    HW226532   4.608   0.864  16.158  1.1595 -0.3677 -2.6736
 4967SOL     OW26533   1.477   4.725   9.315  0.3605  0.4469 -0.1425
 4967SOL    HW126534   1.473   0.030   9.402 -0.9485 -0.0635  0.0362
 4967SOL    HW226535   1.570   4.724   9.296  0.3343 -0.4980 -0.2110
 4968SOL     OW26536   2.824   1.054   0.065 -0.0830 -0.3094 -0.3601
 4968SOL    HW126537   2.759   1.031   0.132  0.1698 -1.1046 -0.3932
 4968SOL    HW226538   2.906   1.009   0.081  1.3089  2.6384  0.8052
 4969SOL     OW26539   4.681   0.959  15.896 -0.3063 -0.3473  0.2750
 4969SOL    HW126540   4.676   1.053  15.910 -0.1984 -0.1285 -1.0805
 4969SOL    HW226541   0.039   0.938  15.880 -0.0087  2.7762 -2.1271
 4970SOL     OW26542   3.798   3.446  17.454  0.1392 -0.4003  0.4990
 4970SOL    HW126543   3.709   3.454  17.419  1.0354 -2.5780 -2.2427
 4970SOL    HW226544   3.822   3.354  17.451  0.1165 -0.3838 -0.2322
 4971SOL     OW26545   1.387   2.313  12.754 -0.3050  0.0014 -0.2512
 4971SOL    HW126546   1.342   2.228  12.756 -3.6118  1.7637 -0.9183
 4971SOL    HW226547   1.330   2.370  12.704 -0.5635 -0.3837 -0.4010
 4972SOL     OW26548   1.295   3.959   3.093  0.8613 -0.2445 -0.9082
 4972SOL    HW126549   1.294   3.935   3.000  2.0184 -0.6000 -0.8302
 4972SOL    HW226550   1.339   3.880   3.122 -0.3829 -0.6333 -0.0873
 4973SOL     OW26551   2.181   2.615  17.593 -0.5336 -0.7182  0.0922
 4973SOL    HW126552   2.104   2.633  17.647 -1.1133 -0.8134 -0.6976
 4973SOL    HW226553   2.147   2.542  17.541 -1.8532  0.0257 -0.0779
 4974SOL     OW26554   4.356   1.543  14.289  0.4834 -0.6191 -0.0783
 4974SOL    HW126555   4.335   1.460  14.331 -1.8816  0.6265  1.2284
 4974SOL    HW226556   4.451   1.544  14.296  0.6308 -0.3072 -1.9475
 4975SOL     OW26557   3.199   1.738   4.770  0.9782  0.5528 -0.4344
 4975SOL    HW126558   3.126   1.738   4.832  0.5831  0.9925 -0.8974
 4975SOL    HW226559   3.204   1.645   4.748 -0.0632  0.4457 -0.2403
 4976SOL     OW26560   2.051   3.662  14.986  0.2595  0.0100  0.0888
 4976SOL    HW126561   1.965   3.644  15.024 -0.3520  0.3268 -1.1574
 4976SOL    HW226562   2.036   3.745  14.940  0.1311 -1.0746 -1.7945
 4977SOL     OW26563   1.758   4.459  14.852  0.1739  0.6722  0.2080
 4977SOL    HW126564   1.834   4.469  14.910  0.1953  1.7091  0.0081
 4977SOL    HW226565   1.791   4.408  14.778  0.2074  0.1814  0.5621
 4978SOL     OW26566   2.915   0.521   7.717 -0.1744  0.3073  0.4306
 4978SOL    HW126567   2.946   0.475   7.639 -1.3664  1.4498 -0.7147
 4978SOL    HW226568   2.986   0.583   7.738  1.8144 -1.9856  0.4259
 4979SOL     OW26569   1.798   1.131   3.101 -0.4068 -0.5108  0.1302
 4979SOL    HW126570   1.858   1.165   3.167  0.4726  1.2497 -1.5397
 4979SOL    HW226571   1.846   1.056   3.066  1.9524  0.9830  0.1219
 4980SOL     OW26572   4.594   4.090   9.775 -0.4509  0.8193 -0.2788
 4980SOL    HW126573   4.690   4.095   9.776 -0.4503  0.8291 -0.3992
 4980SOL    HW226574   4.578   4.151   9.847 -1.6222 -0.3648  0.4727
 4981SOL     OW26575   1.447   1.429   2.991  0.2596  0.2718  0.5445
 4981SOL    HW126576   1.522   1.377   2.961 -0.4060  0.1621 -0.8918
 4981SOL    HW226577   1.432   1.388   3.077 -2.2571 -0.3936 -0.2365
 4982SOL     OW26578   4.565   0.515   2.419 -0.1783 -0.0570  0.4554
 4982SOL    HW126579   4.643   0.513   2.473  0.1547  1.9419  0.0665
 4982SOL    HW226580   4.588   0.453   2.350  0.4100  1.7708 -1.0041
 4983SOL     OW26581   1.146   0.111   2.205  0.0416  0.2943  0.7380
 4983SOL    HW126582   1.204   0.059   2.149 -1.7038  0.0080 -0.8124
 4983SOL    HW226583   1.082   0.141   2.140  0.6997  0.8585  0.3499
 4984SOL     OW26584   1.121   0.572   2.486  0.0157 -0.0072  0.4831
 4984SOL    HW126585   1.094   0.603   2.572 -1.1541  0.9348 -0.2244
 4984SOL    HW226586   1.179   0.644   2.462 -1.9454  1.7617  1.1016
 4985SOL     OW26587   0.309   1.604   9.577  0.2743 -0.5623  0.1264
 4985SOL    HW126588   0.280   1.692   9.600  3.6894 -0.1057  2.7446
 4985SOL    HW226589   0.234   1.581   9.522  1.1524 -2.6412 -0.2352
 4986SOL     OW26590   1.597   1.582  16.849 -0.4821 -0.2824  0.3356
 4986SOL    HW126591   1.674   1.638  16.858  0.4459 -1.1421 -2.1232
 4986SOL    HW226592   1.528   1.639  16.883 -2.5198 -1.8676 -1.1330
 4987SOL     OW26593   4.469   4.076  16.027  0.3679 -0.3089 -0.8076
 4987SOL    HW126594   4.492   4.167  16.010 -0.4468 -0.0934 -0.7916
 4987SOL    HW226595   4.467   4.086  16.123  1.9903  2.9509 -1.1131
 4988SOL     OW26596   1.036   3.123   5.010 -0.4480 -0.5196  0.1900
 4988SOL    HW126597   0.945   3.153   5.009 -0.2619  0.0347 -0.2874
 4988SOL    HW226598   1.046   3.080   4.926 -0.5638  1.5853 -0.8963
 4989SOL     OW26599   3.063   4.615   2.085  0.0299  0.2559 -0.3293
 4989SOL    HW126600   3.140   4.559   2.094  0.8936  1.4470 -0.3247
 4989SOL    HW226601   3.002   4.552   2.123  0.6472 -0.6597 -0.8548
 4990SOL     OW26602   2.400   1.402  14.810  0.0766 -0.3727 -0.1161
 4990SOL    HW126603   2.338   1.381  14.880 -0.5658  0.6351 -0.3824
 4990SOL    HW226604   2.358   1.378  14.727 -1.0308  0.7625  0.1117
 4991SOL     OW26605   0.625   4.533   0.649  0.0479  0.1844 -0.5086
 4991SOL    HW126606   0.677   4.586   0.588 -0.5324  0.9133 -0.3524
 4991SOL    HW226607   0.572   4.598   0.693  0.6240 -0.2488  0.8274
 4992SOL     OW26608   1.326   1.707  16.934  0.1300  0.4112  0.2444
 4992SOL    HW126609   1.271   1.776  16.897 -0.6557 -0.5344 -0.3499
 4992SOL    HW226610   1.400   1.767  16.941 -1.5472  2.5607 -0.3444
 4993SOL     OW26611   1.229   0.109   3.425 -0.1618 -0.2073 -0.3279
 4993SOL    HW126612   1.235   0.202   3.406 -2.2712  0.2533  1.2406
 4993SOL    HW226613   1.287   0.070   3.360 -1.4330 -0.5588 -1.2599
 4994SOL     OW26614   2.188   4.665   7.321 -0.1861  0.0172  0.6598
 4994SOL    HW126615   2.200   4.669   7.226  2.9503  0.5306  1.0509
 4994SOL    HW226616   2.205   0.024   7.333 -0.8662 -0.0942  2.4751
 4995SOL     OW26617   0.493   2.328   9.192  0.3160 -0.0331  0.0232
 4995SOL    HW126618   0.574   2.316   9.142 -0.0366  1.8316 -0.9986
 4995SOL    HW226619   0.456   2.240   9.181  1.7237 -0.5491 -0.6792
 4996SOL     OW26620   3.936   1.164   7.078  0.0935  0.1425  0.7990
 4996SOL    HW126621   3.942   1.201   7.166  2.2512  1.4405  0.0971
 4996SOL    HW226622   3.850   1.185   7.042  0.2773  1.1937  0.9624
 4997SOL     OW26623   0.107   2.611   5.909  0.0113  0.7164 -0.2273
 4997SOL    HW126624   0.055   2.589   5.831 -0.7425 -0.3426  0.5597
 4997SOL    HW226625   0.149   2.691   5.877 -0.2376  0.5053 -1.0730
 4998SOL     OW26626   3.122   4.617   5.153 -0.1967  0.1897 -0.4393
 4998SOL    HW126627   3.080   4.658   5.229 -1.7655 -0.1689 -1.0925
 4998SOL    HW226628   3.074   4.537   5.130 -1.3674  0.5652  0.6588
 4999SOL     OW26629   3.411   0.777   3.176  0.6491  0.1740 -0.1188
 4999SOL    HW126630   3.373   0.841   3.116  0.0247 -1.5034 -1.5316
 4999SOL    HW226631   3.358   0.792   3.254  1.0217  0.0266  0.1606
 5000SOL     OW26632   0.821   2.175  14.070 -0.2701  0.3572  0.3159
 5000SOL    HW126633   0.861   2.245  14.019  0.9730 -1.0664 -0.6535
 5000SOL    HW226634   0.789   2.120  13.999 -1.2481  0.8309  0.3789
 5001SOL     OW26635   3.848   0.143   6.688 -0.0488  0.0121  0.4952
 5001SOL    HW126636   3.765   0.187   6.706 -0.3131 -0.5590  0.6717
 5001SOL    HW226637   3.880   0.111   6.772 -3.1418 -0.2801  1.5581
 5002SOL     OW26638   1.301   2.396   8.063 -0.5423 -0.8549  0.1046
 5002SOL    HW126639   1.305   2.491   8.066  2.2997 -0.9452 -0.7598
 5002SOL    HW226640   1.376   2.367   8.116  0.0477  0.2717 -0.1322
 5003SOL     OW26641   3.068   3.997   7.891 -0.1027 -0.1195 -0.4279
 5003SOL    HW126642   3.014   3.955   7.823 -2.4068  0.8824  0.7696
 5003SOL    HW226643   3.115   4.054   7.831 -1.4329  1.7149  0.2543
 5004SOL     OW26644   1.859   2.102   6.748 -0.2155 -0.2575  0.3931
 5004SOL    HW126645   1.869   2.038   6.819  1.8591 -0.6711 -0.2694
 5004SOL    HW226646   1.946   2.139   6.738 -0.0653 -0.9858 -0.9660
 5005SOL     OW26647   2.211   3.944   8.943 -0.0113 -0.4784  0.0216
 5005SOL    HW126648   2.214   4.031   8.983 -3.2904  0.4807 -1.7993
 5005SOL    HW226649   2.267   3.953   8.867  0.6854 -0.4498  0.5379
 5006SOL     OW26650   3.028   1.213   4.320  0.3161  0.4077  0.0129
 5006SOL    HW126651   3.035   1.280   4.253 -1.2987 -1.3195 -1.8708
 5006SOL    HW226652   3.032   1.277   4.391  1.6103  0.9357 -0.5405
 5007SOL     OW26653   4.129   0.495   5.900  0.3303  0.0738  0.0786
 5007SOL    HW126654   4.137   0.562   5.832 -0.4278 -1.6508 -1.7110
 5007SOL    HW226655   4.214   0.497   5.945 -0.6497  1.0917  1.8880
 5008SOL     OW26656   0.337   2.147   2.155  0.2560  0.0869 -0.0972
 5008SOL    HW126657   0.270   2.215   2.143 -0.0075 -0.0488  0.6084
 5008SOL    HW226658   0.322   2.129   2.248 -2.6757  0.5737 -0.4927
 5009SOL     OW26659   0.275   3.474   0.048  0.4757 -0.0905 -0.1327
 5009SOL    HW126660   0.307   3.560   0.074 -0.6769  0.0497  0.8104
 5009SOL    HW226661   0.353   3.424   0.024 -1.1500 -1.7460 -1.9664
 5010SOL     OW26662   0.944   1.179   9.420  0.1367 -0.0020 -0.4245
 5010SOL    HW126663   0.886   1.223   9.358 -0.0671  0.2899 -0.0249
 5010SOL    HW226664   0.889   1.111   9.458  0.4265 -0.2826 -0.5012
 5011SOL     OW26665   1.468   1.865  17.371  0.1742 -0.7093 -0.3961
 5011SOL    HW126666   1.407   1.934  17.347 -0.8703 -2.3667 -2.4918
 5011SOL    HW226667   1.532   1.847  17.301  1.3287 -0.6258  0.6312
 5012SOL     OW26668   1.085   0.259   7.484 -0.6837 -0.2374  0.1093
 5012SOL    HW126669   1.010   0.262   7.542 -1.7730  0.7087 -1.3277
 5012SOL    HW226670   1.043   0.248   7.398  0.6388 -2.0738 -0.3029
 5013SOL     OW26671   0.292   1.876  12.490 -0.0719  0.0006  0.4069
 5013SOL    HW126672   0.247   1.836  12.417  2.6411 -2.1121 -0.1210
 5013SOL    HW226673   0.384   1.852  12.480  0.5987  1.4642  2.9323
 5014SOL     OW26674   3.811   4.538   5.809 -0.0862  0.1971 -0.3896
 5014SOL    HW126675   3.774   4.615   5.765  1.4080 -0.1010 -2.1514
 5014SOL    HW226676   3.898   4.570   5.836 -0.5349  0.0893  1.1883
 5015SOL     OW26677   0.596   4.200   2.221 -0.1514 -0.2439  0.1650
 5015SOL    HW126678   0.614   4.292   2.243  0.7306  0.0692 -1.8658
 5015SOL    HW226679   0.502   4.199   2.237 -0.4637  1.5259 -1.5484
 5016SOL     OW26680   3.694   2.979  17.334  0.1609  0.6355 -0.5437
 5016SOL    HW126681   3.633   2.920  17.378 -0.7114  2.5159  0.7933
 5016SOL    HW226682   3.727   2.913  17.274 -0.9128  0.9506 -1.4913
 5017SOL     OW26683   4.595   1.362  11.086 -0.3406  1.0198  0.2799
 5017SOL    HW126684   4.517   1.383  11.035  0.9623  2.4555 -1.1321
 5017SOL    HW226685   4.617   1.275  11.051  1.1916  1.7124 -0.4986
 5018SOL     OW26686   3.553   4.421   6.811 -0.0195  0.3083  0.3291
 5018SOL    HW126687   3.608   4.499   6.799  0.5545 -0.3450 -1.3618
 5018SOL    HW226688   3.512   4.417   6.725  1.5270  1.4493 -0.4697
 5019SOL     OW26689   1.427   1.011  13.035  0.6880 -0.3791  0.6656
 5019SOL    HW126690   1.462   0.922  13.034  0.0747 -0.6133  0.2214
 5019SOL    HW226691   1.512   1.054  13.022  1.2780 -1.4513  0.9487
 5020SOL     OW26692   2.894   4.013   8.103 -0.8839  0.3522  0.4137
 5020SOL    HW126693   2.969   4.002   8.044 -1.5594  2.7359 -0.9049
 5020SOL    HW226694   2.878   4.108   8.099 -0.5915  0.3645 -0.5488
 5021SOL     OW26695   4.037   1.755   4.058  0.2865  0.3295  0.3783
 5021SOL    HW126696   4.021   1.789   3.970  2.1840 -0.3170 -0.2359
 5021SOL    HW226697   4.087   1.826   4.098  1.2771 -0.5028  0.6173
 5022SOL     OW26698   3.923   1.128   8.036  0.0284 -0.4378 -0.6235
 5022SOL    HW126699   3.839   1.098   8.069 -0.1055 -1.4494 -1.8823
 5022SOL    HW226700   3.886   1.189   7.972  1.6073 -1.0960 -2.1663
 5023SOL     OW26701   0.596   1.754   5.620  0.1882 -0.0261  0.5299
 5023SOL    HW126702   0.523   1.778   5.678  1.3305  0.6237  1.7024
 5023SOL    HW226703   0.548   1.686   5.573  1.1487  0.9426 -1.8319
 5024SOL     OW26704   4.566   3.662   6.415  0.2680 -0.0633  0.2266
 5024SOL    HW126705   4.512   3.599   6.366 -0.9144  0.8594  0.3358
 5024SOL    HW226706   4.645   3.611   6.433  1.1982  0.3306 -2.7414
 5025SOL     OW26707   4.067   3.996   3.181  0.2160  0.2112  0.4424
 5025SOL    HW126708   4.090   3.921   3.127  0.3547 -0.8089  1.9279
 5025SOL    HW226709   4.055   4.068   3.119  0.5020  1.5722  1.9636
 5026SOL     OW26710   4.333   3.815   6.331 -0.3341 -0.0555  0.2528
 5026SOL    HW126711   4.402   3.822   6.265  1.1623  1.7708  2.0259
 5026SOL    HW226712   4.371   3.752   6.391  2.7823 -0.0593 -1.7497
 5027SOL     OW26713   3.978   1.884   5.547 -0.1311 -0.1295  0.2581
 5027SOL    HW126714   3.915   1.857   5.480 -0.0833 -1.9422  0.9514
 5027SOL    HW226715   4.063   1.903   5.507  0.2700  0.3133  1.3371
 5028SOL     OW26716   4.509   3.105   6.095 -0.4507 -0.6739 -0.0720
 5028SOL    HW126717   4.423   3.097   6.136  0.0535  0.0375  1.1314
 5028SOL    HW226718   4.538   3.014   6.096 -0.2729 -0.6268 -0.6971
 5029SOL     OW26719   2.984   4.636   4.181  0.1777 -0.1978 -0.1987
 5029SOL    HW126720   3.055   4.685   4.223 -1.3075  2.4745 -0.8526
 5029SOL    HW226721   2.936   4.607   4.259  0.3909  0.3811  0.1487
 5030SOL     OW26722   2.152   0.741   6.282 -0.7902 -0.1915 -0.3635
 5030SOL    HW126723   2.072   0.792   6.295  0.2866  1.0581  1.3716
 5030SOL    HW226724   2.184   0.786   6.203  2.0710  0.4578  1.1694
 5031SOL     OW26725   2.235   3.944   3.266 -0.5873  0.3408 -0.0459
 5031SOL    HW126726   2.315   3.991   3.243  0.0210 -0.1861  1.0396
 5031SOL    HW226727   2.255   3.883   3.337 -0.3259 -0.9760 -1.2417
 5032SOL     OW26728   2.699   0.228   8.550 -0.1758  0.3681 -0.1715
 5032SOL    HW126729   2.677   0.317   8.522 -1.1650  0.1837  0.0124
 5032SOL    HW226730   2.791   0.225   8.527  0.3813  1.6187  1.8860
 5033SOL     OW26731   2.724   2.615   6.639 -0.3766  0.1975 -0.2475
 5033SOL    HW126732   2.727   2.690   6.698 -0.6277  1.1318 -1.4154
 5033SOL    HW226733   2.805   2.571   6.663 -1.0442  0.5950  2.6799
 5034SOL     OW26734   3.001   3.318   3.914 -0.2611  0.0378  0.2176
 5034SOL    HW126735   2.936   3.359   3.972  0.1507  0.5288  0.3364
 5034SOL    HW226736   3.041   3.254   3.973 -0.4082 -1.4909 -1.3719
 5035SOL     OW26737   1.669   1.180   2.091 -0.1805  0.1915  0.0011
 5035SOL    HW126738   1.631   1.240   2.028 -0.4397 -0.9551 -0.9314
 5035SOL    HW226739   1.744   1.227   2.128 -0.4121 -0.5594  1.4483
 5036SOL     OW26740   4.639   2.423  14.192  0.6434  0.3011 -0.1192
 5036SOL    HW126741   4.705   2.354  14.180 -1.2233 -1.1790 -1.9258
 5036SOL    HW226742   4.606   2.401  14.279 -0.2792 -1.4040 -0.8936
 5037SOL     OW26743   3.106   0.121   3.519  0.1199  0.4497  0.2004
 5037SOL    HW126744   3.191   0.084   3.492 -0.4076  0.0611 -0.9146
 5037SOL    HW226745   3.066   0.044   3.559  0.0435 -0.3016 -1.3111
 5038SOL     OW26746   3.059   1.477   3.115  0.0520 -0.0606  0.2127
 5038SOL    HW126747   3.005   1.468   3.194 -0.3776 -0.7578 -0.1568
 5038SOL    HW226748   3.012   1.548   3.070 -1.6684 -1.0376  0.4645
 5039SOL     OW26749   2.872   4.334  16.276  0.8647  0.0439 -0.0765
 5039SOL    HW126750   2.898   4.261  16.220  0.0804  0.2528 -0.7187
 5039SOL    HW226751   2.789   4.315  16.320  0.7030 -0.9214 -0.8011
 5040SOL     OW26752   1.092   1.048  10.505  0.2416 -0.7284  0.0246
 5040SOL    HW126753   1.026   1.013  10.564 -0.6104  1.5346  0.3983
 5040SOL    HW226754   1.094   1.143  10.513 -0.7575 -0.5045 -2.3897
 5041SOL     OW26755   3.324   2.008   9.752  0.3831  0.0216  0.1263
 5041SOL    HW126756   3.238   1.985   9.718 -0.0356  2.1904 -0.2814
 5041SOL    HW226757   3.374   2.006   9.670 -1.0951  2.9341 -0.8571
 5042SOL     OW26758   0.935   1.523   8.697 -0.4736 -0.2151  0.0852
 5042SOL    HW126759   0.936   1.500   8.604  2.2432 -0.7296  0.2313
 5042SOL    HW226760   0.887   1.453   8.742 -1.9038  0.7640  0.0948
 5043SOL     OW26761   3.057   2.660   1.950  0.1436  0.2041 -0.0284
 5043SOL    HW126762   3.146   2.629   1.933  0.8572  1.3616  1.6008
 5043SOL    HW226763   3.007   2.592   1.906  0.5334 -0.2843  0.2753
 5044SOL     OW26764   3.609   3.313  13.519  0.2455  0.6458 -0.2018
 5044SOL    HW126765   3.630   3.381  13.583 -0.2673  0.1936  0.4453
 5044SOL    HW226766   3.609   3.365  13.440 -0.8343  1.5341  0.3906
 5045SOL     OW26767   3.881   2.458   9.978 -0.7010  0.5277 -0.0673
 5045SOL    HW126768   3.879   2.373   9.935  0.1318 -0.0192  0.9733
 5045SOL    HW226769   3.837   2.431  10.058 -0.9388 -0.6140 -0.5815
 5046SOL     OW26770   2.534   2.360  10.219 -0.0880  0.1818  0.4334
 5046SOL    HW126771   2.463   2.299  10.200 -0.2717  0.3146  0.6862
 5046SOL    HW226772   2.578   2.349  10.135 -0.1856  0.0332  0.4014
 5047SOL     OW26773   3.550   0.638   4.246 -0.1324 -0.1308 -0.1762
 5047SOL    HW126774   3.601   0.630   4.327  0.0268 -2.3309 -0.4923
 5047SOL    HW226775   3.549   0.547   4.214  3.6385 -0.3911  0.4672
 5048SOL     OW26776   0.757   2.480   4.915 -0.1514  0.4172 -0.2351
 5048SOL    HW126777   0.758   2.568   4.877 -2.0074 -0.1017 -1.4498
 5048SOL    HW226778   0.714   2.427   4.848 -0.1227  2.0015 -1.5012
 5049SOL     OW26779   4.070   4.000   6.703 -0.0972  0.4280 -0.0050
 5049SOL    HW126780   3.981   3.979   6.732 -0.4221 -2.7035 -3.2082
 5049SOL    HW226781   4.080   4.086   6.743  1.0644  0.0012  0.6473
 5050SOL     OW26782   2.102   4.156  11.539  0.8983 -0.3495 -0.3742
 5050SOL    HW126783   2.192   4.190  11.535  0.0218  2.1342  0.7495
 5050SOL    HW226784   2.087   4.145  11.633  1.5148  0.8141 -0.1416
 5051SOL     OW26785   2.246   1.938   8.293 -0.2513 -0.2498  0.3311
 5051SOL    HW126786   2.299   2.017   8.303 -0.7479 -0.1489  2.0496
 5051SOL    HW226787   2.307   1.864   8.291 -1.5946 -1.3917  1.7851
 5052SOL     OW26788   0.243   3.903   3.839  0.3417  0.8556  0.3125
 5052SOL    HW126789   0.312   3.937   3.782  1.5190  4.8327  4.2039
 5052SOL    HW226790   0.285   3.914   3.923 -0.5657 -3.8666  1.4115
 5053SOL     OW26791   2.047   1.158   6.472  0.6601  0.0765 -0.5684
 5053SOL    HW126792   1.997   1.097   6.526 -0.3980  1.1301 -0.3385
 5053SOL    HW226793   2.125   1.106   6.455  1.6585  1.5665 -0.5209
 5054SOL     OW26794   2.905   1.330  13.172  0.5165 -0.4025 -0.3976
 5054SOL    HW126795   2.976   1.322  13.236 -0.4097 -1.8362  0.4633
 5054SOL    HW226796   2.900   1.425  13.185  3.2868 -0.4403  0.9997
 5055SOL     OW26797   0.596   1.040   5.921 -0.0675  0.2611 -0.5358
 5055SOL    HW126798   0.555   0.971   5.869 -0.8815 -0.6977  1.3911
 5055SOL    HW226799   0.544   1.034   6.001 -0.6547 -0.9518 -1.0184
 5056SOL     OW26800   1.149   1.310   2.577 -1.0193  0.1680  0.0098
 5056SOL    HW126801   1.068   1.268   2.606 -1.3989 -0.1627 -1.4972
 5056SOL    HW226802   1.198   1.315   2.659 -0.5343  2.2884 -0.4131
 5057SOL     OW26803   1.493   1.954   2.722 -0.6850 -0.3033  0.4157
 5057SOL    HW126804   1.420   1.991   2.770 -0.1567  0.4530  0.6459
 5057SOL    HW226805   1.521   2.033   2.676  1.1426 -0.5049  1.1573
 5058SOL     OW26806   3.101   1.070   8.580  0.4249 -0.3471  0.0982
 5058SOL    HW126807   3.124   0.990   8.627  0.0248 -2.6904 -3.6851
 5058SOL    HW226808   3.062   1.121   8.651 -0.5171 -3.6266  1.9376
 5059SOL     OW26809   3.616   1.701  13.708 -0.4957  0.3222  0.8476
 5059SOL    HW126810   3.544   1.716  13.769 -0.7570  1.4488  0.2676
 5059SOL    HW226811   3.678   1.659  13.767 -0.7607  0.0185  0.9121
 5060SOL     OW26812   2.542   0.878   2.905  0.6951  0.0887  0.0042
 5060SOL    HW126813   2.544   0.813   2.975  2.3249 -1.4441 -1.4528
 5060SOL    HW226814   2.450   0.889   2.880  0.5835  0.6041  0.6518
 5061SOL     OW26815   1.394   4.696   6.397  0.3227  0.3611 -0.0109
 5061SOL    HW126816   1.439   4.680   6.314 -1.8565 -0.5592 -1.0002
 5061SOL    HW226817   1.360   0.048   6.377 -0.3030  0.7987  2.8717
 5062SOL     OW26818   2.613   3.924   5.709 -0.4137 -0.2192 -0.2209
 5062SOL    HW126819   2.545   3.985   5.735 -0.2997 -0.7662  1.3868
 5062SOL    HW226820   2.578   3.864   5.644 -1.8240  0.3945 -0.0193
 5063SOL     OW26821   0.087   4.733   1.739 -0.6829  0.1415  0.2154
 5063SOL    HW126822   0.048   4.676   1.805  0.0367 -1.2097 -0.5121
 5063SOL    HW226823   0.043   0.080   1.760 -1.5289  0.1981 -1.7030
 5064SOL     OW26824   2.420   2.315   3.624  0.7753 -0.1034  0.1568
 5064SOL    HW126825   2.457   2.402   3.607  2.3900 -0.6346  0.9147
 5064SOL    HW226826   2.416   2.287   3.533  0.9809  0.7613 -0.1110
 5065SOL     OW26827   0.489   1.986   2.936  0.2275 -0.4024  0.5932
 5065SOL    HW126828   0.460   2.028   3.016  0.2182 -1.0641  0.9389
 5065SOL    HW226829   0.408   1.968   2.889  0.9261  1.3382 -1.2803
 5066SOL     OW26830   3.146   4.411   4.681  0.3281  0.2656  0.0157
 5066SOL    HW126831   3.143   4.484   4.619  0.1496  0.0472 -0.2338
 5066SOL    HW226832   3.240   4.394   4.691 -0.0362 -1.4758  0.4916
 5067SOL     OW26833   4.581   3.189  16.192 -0.5673 -0.1519 -0.3198
 5067SOL    HW126834   4.554   3.181  16.100 -0.1087  0.1047 -0.4764
 5067SOL    HW226835   4.538   3.110  16.223 -0.9407  0.3518  0.4518
 5068SOL     OW26836   0.735   4.377  10.017 -0.3063 -0.2303  0.2227
 5068SOL    HW126837   0.706   4.412   9.933  0.9596  0.6470  0.1465
 5068SOL    HW226838   0.739   4.463  10.059  0.2629 -0.1747  0.0513
 5069SOL     OW26839   4.182   2.612  16.070  0.4544 -0.1625 -0.2137
 5069SOL    HW126840   4.129   2.613  16.151 -1.1770  1.6248 -1.2910
 5069SOL    HW226841   4.260   2.565  16.101  0.3704 -1.1542 -1.5331
 5070SOL     OW26842   0.920   1.415   4.207 -0.3691 -0.1782  0.0182
 5070SOL    HW126843   0.844   1.374   4.166 -1.2223 -0.1209  1.5489
 5070SOL    HW226844   0.875   1.493   4.239  0.2893 -0.5950  1.9469
 5071SOL     OW26845   4.396   4.282   5.647  0.2287  0.3403 -0.2550
 5071SOL    HW126846   4.412   4.351   5.583  1.7305 -1.7646 -2.1881
 5071SOL    HW226847   4.464   4.298   5.712 -1.6668 -0.4804  1.9310
 5072SOL     OW26848   0.404   4.578   3.709  0.3633 -0.9354  0.2926
 5072SOL    HW126849   0.405   4.673   3.697 -5.1731 -1.0891 -1.4054
 5072SOL    HW226850   0.455   4.559   3.631 -0.1818 -1.0498 -0.0368
 5073SOL     OW26851   1.811   4.418   6.867  0.3862  0.1518 -0.2670
 5073SOL    HW126852   1.745   4.348   6.859  0.2788  0.1334  0.7832
 5073SOL    HW226853   1.826   4.438   6.959  1.2524  1.4310 -0.6822
 5074SOL     OW26854   2.053   3.252  17.351  0.7377  0.0289 -0.0235
 5074SOL    HW126855   2.060   3.338  17.392 -1.8339 -0.1472  0.7330
 5074SOL    HW226856   2.065   3.199  17.430 -0.6910 -0.4079 -0.1042
 5075SOL     OW26857   0.489   2.873  13.312  0.0405 -0.3701  0.2198
 5075SOL    HW126858   0.492   2.861  13.407 -0.8169  1.2643  0.4480
 5075SOL    HW226859   0.396   2.859  13.297 -0.1882  0.1401  1.2135
 5076SOL     OW26860   0.694   3.532   8.540  0.8562 -0.3750  0.6338
 5076SOL    HW126861   0.750   3.609   8.548  1.0646 -0.3727 -0.8465
 5076SOL    HW226862   0.626   3.577   8.489 -1.1768 -1.7072  2.1747
 5077SOL     OW26863   3.951   3.873   4.783 -0.6581  0.1221 -0.8970
 5077SOL    HW126864   3.968   3.882   4.690  1.6828  2.3400 -0.2610
 5077SOL    HW226865   4.016   3.933   4.821  1.0355 -2.1811 -0.1896
 5078SOL     OW26866   1.512   0.748   9.607  0.8237 -0.0277  0.2437
 5078SOL    HW126867   1.431   0.738   9.558  1.0085  2.6561 -0.5763
 5078SOL    HW226868   1.479   0.813   9.669  1.2688 -1.6101  2.1404
 5079SOL     OW26869   0.850   1.355   0.700  0.1985  0.2368  0.4060
 5079SOL    HW126870   0.784   1.423   0.709  1.1733  1.4220 -1.3794
 5079SOL    HW226871   0.860   1.334   0.793 -0.9852 -0.9952  0.2480
 5080SOL     OW26872   4.371   1.106  11.070  0.1689 -0.1192  0.6382
 5080SOL    HW126873   4.456   1.127  11.031  0.2044  1.0086  1.3321
 5080SOL    HW226874   4.358   1.011  11.063 -2.2690  0.0884  2.2747
 5081SOL     OW26875   3.928   1.634   5.258 -0.4710  0.8506  0.3156
 5081SOL    HW126876   3.954   1.580   5.183 -0.6442  2.9688 -1.2863
 5081SOL    HW226877   4.001   1.614   5.317  0.8116 -0.5281 -1.7258
 5082SOL     OW26878   0.520   0.406   7.220  0.3678 -0.0395  0.0374
 5082SOL    HW126879   0.463   0.483   7.209  1.6713  0.9748  0.4189
 5082SOL    HW226880   0.477   0.354   7.152 -0.3598  0.8149 -0.1757
 5083SOL     OW26881   3.949   3.966  15.331 -0.2123  0.1053  0.3173
 5083SOL    HW126882   3.887   3.904  15.369 -1.1357  1.1768  0.5586
 5083SOL    HW226883   4.031   3.917  15.322 -0.0714 -0.1001  2.7500
 5084SOL     OW26884   2.783   1.918   4.280 -0.0858 -0.0839  0.2456
 5084SOL    HW126885   2.777   1.823   4.270 -1.4803 -0.1518  1.7241
 5084SOL    HW226886   2.800   1.936   4.187  2.5756 -0.9618  0.5691
 5085SOL     OW26887   3.175   0.295   9.177 -0.7800 -0.1299 -0.1416
 5085SOL    HW126888   3.115   0.238   9.129  0.3486 -1.3790 -0.0578
 5085SOL    HW226889   3.122   0.375   9.176 -1.1839 -0.4187 -1.6888
 5086SOL     OW26890   0.558   3.131   6.216  0.7119  0.1443 -0.2260
 5086SOL    HW126891   0.562   3.057   6.277  1.6389 -0.7591 -1.3881
 5086SOL    HW226892   0.530   3.086   6.136  1.2582 -2.7603  1.1962
 5087SOL     OW26893   2.746   2.749   1.979  0.3005 -0.0829 -0.7429
 5087SOL    HW126894   2.752   2.657   2.003  0.4849  0.1900  0.2534
 5087SOL    HW226895   2.679   2.782   2.039  1.4567  0.2857  0.3492
 5088SOL     OW26896   3.510   1.771   5.780 -0.0341 -0.6650 -0.3852
 5088SOL    HW126897   3.444   1.751   5.714 -2.0991 -2.4230  2.2083
 5088SOL    HW226898   3.582   1.716   5.749  0.2917 -1.3215  1.4882
 5089SOL     OW26899   2.981   1.313   2.064  0.3162  0.3515 -0.0550
 5089SOL    HW126900   3.067   1.269   2.060 -0.0132 -0.5917  3.0866
 5089SOL    HW226901   2.977   1.329   2.158  0.1752 -0.1254  0.0196
 5090SOL     OW26902   0.282   2.818   8.302  0.3136 -0.2814 -0.1007
 5090SOL    HW126903   0.229   2.889   8.265 -1.5503 -0.6429  1.8640
 5090SOL    HW226904   0.360   2.867   8.326 -0.0847  0.5975 -0.5756
 5091SOL     OW26905   1.110   0.804   5.604 -0.3391 -0.2782 -0.3546
 5091SOL    HW126906   1.069   0.737   5.658  0.2440  0.4047  0.9290
 5091SOL    HW226907   1.114   0.761   5.518 -3.9858 -0.7332 -0.2831
 5092SOL     OW26908   2.032   0.394  16.423 -0.0343 -0.4202  0.0932
 5092SOL    HW126909   2.051   0.480  16.385  1.3098 -1.2814 -1.1696
 5092SOL    HW226910   2.032   0.436  16.509 -2.4316  0.5355 -0.3778
 5093SOL     OW26911   0.629   3.367   5.085 -0.2148 -0.3111  0.1116
 5093SOL    HW126912   0.543   3.336   5.114 -1.3832  3.0452  0.3243
 5093SOL    HW226913   0.647   3.430   5.155  1.6581 -0.0450 -0.6250
 5094SOL     OW26914   1.311   4.154   5.983 -0.0046  0.5216  0.0923
 5094SOL    HW126915   1.301   4.185   5.893 -0.4412  0.9514  0.2841
 5094SOL    HW226916   1.384   4.093   5.985  0.4610  1.0231 -2.0581
 5095SOL     OW26917   2.597   0.056   1.146  0.0907 -0.2087 -0.4657
 5095SOL    HW126918   2.600   0.057   1.242 -2.7475 -0.2984 -0.3724
 5095SOL    HW226919   2.571   0.147   1.133  0.1139  0.0223  1.1226
 5096SOL     OW26920   0.701   1.431   6.026 -0.4307  0.5528 -0.5835
 5096SOL    HW126921   0.688   1.421   5.932  1.2358 -1.3944 -0.5909
 5096SOL    HW226922   0.620   1.479   6.047 -1.2248 -1.3134  0.5602
 5097SOL     OW26923   0.928   2.092  15.826 -0.2058 -0.1735  0.5477
 5097SOL    HW126924   0.966   2.180  15.824  1.4163 -0.8547  1.5739
 5097SOL    HW226925   0.841   2.106  15.788  1.3189 -1.3121 -3.2828
 5098SOL     OW26926   1.611   4.705   7.020 -0.4334  0.1280 -0.1315
 5098SOL    HW126927   1.583   4.615   7.034  1.6088 -0.6048 -0.7765
 5098SOL    HW226928   1.664   4.709   7.100 -2.0540 -0.1135  0.9583
 5099SOL     OW26929   2.660   0.004  13.380 -0.5744  0.1145  0.5360
 5099SOL    HW126930   2.600   4.676  13.422 -2.1467  0.9936 -0.3937
 5099SOL    HW226931   2.747   4.702  13.397 -0.2004  0.8769  0.2612
 5100SOL     OW26932   4.322   2.349  12.295  0.2448  0.2942  0.1542
 5100SOL    HW126933   4.370   2.431  12.299  0.0122  0.4009  0.8703
 5100SOL    HW226934   4.290   2.340  12.385 -0.9705  0.5155 -0.2626
 5101SOL     OW26935   3.122   1.544   7.531 -0.4028  0.1955  0.0662
 5101SOL    HW126936   3.033   1.572   7.509 -1.4754 -0.4736  3.4452
 5101SOL    HW226937   3.163   1.620   7.572 -2.9186  1.9452 -0.6807
 5102SOL     OW26938   2.233   0.557   3.212  0.8234  0.5336 -0.1429
 5102SOL    HW126939   2.238   0.516   3.126  1.5215 -0.4697  0.3820
 5102SOL    HW226940   2.270   0.491   3.270 -0.2111 -0.6165 -0.7773
 5103SOL     OW26941   3.228   4.557   9.321 -0.3400 -0.1340 -0.1057
 5103SOL    HW126942   3.166   4.491   9.292  2.0799 -2.0000 -0.9778
 5103SOL    HW226943   3.204   4.566   9.413  0.7826 -1.1986  0.2870
 5104SOL     OW26944   4.459   4.491  17.220 -0.3991 -0.3041  0.1265
 5104SOL    HW126945   4.426   4.417  17.168  3.4030 -1.3769 -0.7813
 5104SOL    HW226946   4.414   4.566  17.182 -0.7261 -0.0347  1.0565
 5105SOL     OW26947   4.424   3.174   1.351  0.1106  0.1236  0.0309
 5105SOL    HW126948   4.422   3.117   1.274 -0.2918 -1.3459  1.1362
 5105SOL    HW226949   4.504   3.225   1.340  0.9156 -1.2137 -0.2256
 5106SOL     OW26950   4.487   3.500   8.694 -0.4305 -0.0015  0.6071
 5106SOL    HW126951   4.483   3.450   8.612  0.3062 -0.3723  0.8019
 5106SOL    HW226952   4.530   3.442   8.757  1.0669  1.0095  0.5054
 5107SOL     OW26953   1.335   4.109   8.892  0.2103  0.0928 -0.3139
 5107SOL    HW126954   1.385   4.042   8.939 -0.4496 -0.5194 -0.4918
 5107SOL    HW226955   1.253   4.115   8.940 -0.1003 -1.0611 -0.6984
 5108SOL     OW26956   1.458   3.325   8.277  0.6980  0.1230 -0.5189
 5108SOL    HW126957   1.448   3.236   8.242  2.1216 -0.4133  0.4493
 5108SOL    HW226958   1.503   3.365   8.203 -0.0591 -1.7896 -2.0254
 5109SOL     OW26959   2.642   1.142  15.403  0.0236  0.2237 -0.3754
 5109SOL    HW126960   2.568   1.102  15.358 -0.8589  2.1416 -0.5925
 5109SOL    HW226961   2.612   1.229  15.429  0.8602 -0.0352  1.4939
 5110SOL     OW26962   4.214   4.591   0.841 -0.0215  0.6135  0.5195
 5110SOL    HW126963   4.125   4.562   0.863 -0.6191  1.7445 -0.4152
 5110SOL    HW226964   4.224   4.548   0.757 -1.3794 -0.9323  1.1608
 5111SOL     OW26965   1.964   3.358   7.616 -0.1962  0.5782 -0.3286
 5111SOL    HW126966   1.905   3.306   7.670  1.0450 -0.7459 -0.2740
 5111SOL    HW226967   1.970   3.308   7.535  0.4685  1.1613 -0.6421
 5112SOL     OW26968   2.962   1.444  16.749 -0.2549  0.4110  0.2194
 5112SOL    HW126969   2.923   1.522  16.788  0.9664  1.1327 -0.0161
 5112SOL    HW226970   3.048   1.485  16.739  0.8959 -1.9632  0.5360
 5113SOL     OW26971   0.368   0.919   0.216  0.3502 -0.7234 -0.2495
 5113SOL    HW126972   0.317   0.932   0.136 -0.0668  0.0465  0.1418
 5113SOL    HW226973   0.429   0.992   0.216 -1.2181  0.5793 -1.3195
 5114SOL     OW26974   1.602   0.682   6.638 -0.0234  0.5378  0.1037
 5114SOL    HW126975   1.520   0.646   6.672  2.1604 -3.2499  1.4121
 5114SOL    HW226976   1.660   0.624   6.689  0.0770 -0.3335 -1.0053
 5115SOL     OW26977   3.302   0.015  10.387 -0.5419  0.0706  0.0360
 5115SOL    HW126978   3.393   4.733  10.409 -0.3598  0.4026 -0.4580
 5115SOL    HW226979   3.320   0.093  10.335 -0.7134  1.7322  2.4917
 5116SOL     OW26980   1.675   3.616   4.527  0.3836 -0.2016  1.0901
 5116SOL    HW126981   1.633   3.700   4.510 -0.1066 -1.2377 -2.9792
 5116SOL    HW226982   1.598   3.563   4.509  1.5170 -1.5877  0.2886
 5117SOL     OW26983   2.121   1.305   8.138 -0.0461 -0.7830  0.4347
 5117SOL    HW126984   2.034   1.340   8.118  0.8133  0.3578 -1.2521
 5117SOL    HW226985   2.132   1.236   8.073  3.2711  0.1380  0.0478
 5118SOL     OW26986   4.645   3.646  10.096  0.3964  0.0855 -0.1611
 5118SOL    HW126987   4.653   3.620  10.188 -0.1281  1.9165  0.3976
 5118SOL    HW226988   4.728   3.692  10.085  1.1922 -0.7439  2.2565
 5119SOL     OW26989   0.342   1.728   2.757 -0.0818  0.1414  0.3049
 5119SOL    HW126990   0.355   1.697   2.667  1.5433  1.3237  0.1260
 5119SOL    HW226991   0.292   1.810   2.747 -1.4261 -0.7704 -0.5273
 5120SOL     OW26992   2.364   0.200   5.466  0.3286  0.6489 -0.0580
 5120SOL    HW126993   2.349   0.267   5.399  2.2152  1.0543 -0.0868
 5120SOL    HW226994   2.316   0.239   5.539 -0.0789 -2.3439  1.2627
 5121SOL     OW26995   4.309   2.223   3.492 -0.2057  0.4975  0.3990
 5121SOL    HW126996   4.268   2.149   3.537  0.6640 -1.6362 -2.2717
 5121SOL    HW226997   4.285   2.283   3.563  0.2127  0.6245  0.4308
 5122SOL     OW26998   3.648   3.474   0.215  0.5077 -0.3448 -0.2657
 5122SOL    HW126999   3.690   3.443   0.135  3.1827  0.9278  0.6570
 5122SOL    HW227000   3.679   3.565   0.211  1.7227 -0.8890 -3.1330
 5123SOL     OW27001   2.888   2.621   5.119  0.2311 -0.3421 -0.0618
 5123SOL    HW127002   2.829   2.677   5.170 -0.5821 -0.2049 -1.1549
 5123SOL    HW227003   2.910   2.683   5.050  0.2123 -0.9223 -0.5847
 5124SOL     OW27004   2.509   3.696   9.410  0.4178  0.2574 -0.7463
 5124SOL    HW127005   2.513   3.732   9.499 -0.6820  0.2298 -0.6891
 5124SOL    HW227006   2.426   3.647   9.403 -0.9041  2.7806 -2.4654
 5125SOL     OW27007   3.083   0.597   2.253 -0.1558 -0.1235  0.5501
 5125SOL    HW127008   3.085   0.658   2.179  0.8866 -0.1391  0.5634
 5125SOL    HW227009   3.178   0.594   2.268  0.0886  0.9204 -0.7885
 5126SOL     OW27010   2.806   0.830   5.137  0.1902  0.0972 -0.0917
 5126SOL    HW127011   2.721   0.792   5.159  0.8006 -0.9861  0.3591
 5126SOL    HW227012   2.837   0.777   5.063 -1.9952 -0.3851 -0.6479
 5127SOL     OW27013   0.571   3.190  12.497  0.3701  0.3402 -0.1111
 5127SOL    HW127014   0.630   3.177  12.571  0.6466  0.4843 -0.3060
 5127SOL    HW227015   0.501   3.246  12.530 -1.2605 -0.9688 -1.3228
 5128SOL     OW27016   3.229   2.437   6.643 -0.2132 -0.7002 -0.7058
 5128SOL    HW127017   3.303   2.393   6.686  0.6611  1.9552  0.5076
 5128SOL    HW227018   3.218   2.381   6.566  0.8771 -1.2360 -0.4886
 5129SOL     OW27019   0.466   1.335   7.329 -0.2904 -0.8680 -0.1463
 5129SOL    HW127020   0.377   1.321   7.363 -1.7364  1.9056 -2.8293
 5129SOL    HW227021   0.444   1.329   7.236 -1.8082 -0.6454  0.1926
 5130SOL     OW27022   0.455   1.543  15.717 -0.1905  0.1599 -0.6071
 5130SOL    HW127023   0.377   1.487  15.715 -0.4769  0.6030 -2.2638
 5130SOL    HW227024   0.409   1.626  15.701  0.2010  0.0658 -2.2565
 5131SOL     OW27025   1.026   2.439  12.594 -0.1329 -0.4738 -0.1231
 5131SOL    HW127026   1.116   2.471  12.595 -0.5367  0.5787  1.6638
 5131SOL    HW227027   1.011   2.421  12.501 -0.5050  1.1029 -0.3555
 5132SOL     OW27028   3.192   3.817   5.092  0.0927  0.7289  0.1890
 5132SOL    HW127029   3.180   3.783   5.180 -2.1000  1.1348  0.0412
 5132SOL    HW227030   3.130   3.764   5.043  1.0788 -1.7309  1.5751
 5133SOL     OW27031   1.446   0.172   4.779  0.2417  0.6011  0.0110
 5133SOL    HW127032   1.455   0.106   4.710  0.3044  0.8729 -0.2405
 5133SOL    HW227033   1.386   0.234   4.739  2.3973  0.6671 -3.2059
 5134SOL     OW27034   2.957   2.555   8.104  0.1201  0.1016 -0.5942
 5134SOL    HW127035   2.870   2.593   8.095  0.4707  1.0809  0.1533
 5134SOL    HW227036   2.928   2.483   8.160 -0.6718  1.7164  1.0233
 5135SOL     OW27037   2.330   2.161   0.544  0.1161  0.2111  0.5780
 5135SOL    HW127038   2.389   2.091   0.575  1.6109 -0.5694 -4.0339
 5135SOL    HW227039   2.385   2.210   0.483 -0.3655 -0.9058 -0.7534
 5136SOL     OW27040   1.952   0.315   3.970 -0.6235 -0.4529 -0.3336
 5136SOL    HW127041   2.002   0.397   3.978  2.5832 -2.6475  2.6279
 5136SOL    HW227042   1.912   0.321   3.884  0.5008  1.9396 -0.6848
 5137SOL     OW27043   4.184   3.828   5.302 -0.8237  0.3613  0.4953
 5137SOL    HW127044   4.204   3.919   5.321  0.7411  0.2233 -0.5046
 5137SOL    HW227045   4.156   3.842   5.211  0.1559  0.2560  0.1741
 5138SOL     OW27046   1.531   1.616   1.931 -0.0979  0.2085 -0.5997
 5138SOL    HW127047   1.489   1.662   2.004  1.2781  0.0443  0.2962
 5138SOL    HW227048   1.456   1.620   1.872  1.1543  0.3620 -2.1794
 5139SOL     OW27049   1.196   4.321   2.861  0.3781  0.1180 -0.0149
 5139SOL    HW127050   1.282   4.345   2.827  0.1654 -1.5859 -1.7283
 5139SOL    HW227051   1.156   4.408   2.870 -1.6931 -0.9765  1.3672
 5140SOL     OW27052   2.002   2.317   4.034  0.1842  0.7721 -0.4761
 5140SOL    HW127053   1.970   2.348   3.949  0.9835 -0.7930 -1.3573
 5140SOL    HW227054   1.957   2.379   4.091  1.8889  0.3472  1.3144
 5141SOL     OW27055   1.926   0.439   4.945 -0.4866  0.3111  0.3837
 5141SOL    HW127056   1.848   0.392   4.918  1.4293 -2.1082 -0.9798
 5141SOL    HW227057   1.942   0.484   4.862  0.1573  0.5630  0.6423
 5142SOL     OW27058   4.715   1.226   3.413 -0.3284  0.0201  0.4133
 5142SOL    HW127059   0.066   1.267   3.403 -0.6148  0.1748 -1.5317
 5142SOL    HW227060   4.676   1.256   3.331  0.5474  1.2767  0.4519
 5143SOL     OW27061   0.454   3.866   1.932  0.2324  0.0601 -0.0320
 5143SOL    HW127062   0.472   3.957   1.909 -0.9955 -0.0214 -1.3092
 5143SOL    HW227063   0.497   3.857   2.017 -0.2900 -0.0131  0.2203
 5144SOL     OW27064   1.889   3.394   1.379  0.3422  0.4341 -0.1399
 5144SOL    HW127065   1.806   3.427   1.344 -0.4641  0.5088  1.8377
 5144SOL    HW227066   1.871   3.309   1.418  2.2739  0.0844  0.0061
 5145SOL     OW27067   2.567   2.647  16.725  0.3626 -0.0373 -0.1697
 5145SOL    HW127068   2.636   2.615  16.666  0.6603 -0.2019  0.2653
 5145SOL    HW227069   2.619   2.709  16.776 -1.3129  1.7567 -0.6363
 5146SOL     OW27070   2.190   0.612   8.949  0.3603  0.4469 -0.0677
 5146SOL    HW127071   2.178   0.590   9.041 -0.7843  4.0594  0.6353
 5146SOL    HW227072   2.244   0.534   8.934  2.0020  2.0918 -2.7366
 5147SOL     OW27073   1.199   4.064   1.720 -0.1996  0.3623  0.1072
 5147SOL    HW127074   1.220   4.157   1.711  0.5996  0.2580  0.8756
 5147SOL    HW227075   1.230   4.047   1.809  1.3196  1.7270 -0.1488
 5148SOL     OW27076   2.122   3.473  12.397 -0.0802 -0.1578  0.2388
 5148SOL    HW127077   2.074   3.408  12.448 -0.7665  0.1453 -0.0213
 5148SOL    HW227078   2.199   3.485  12.453  1.2309 -1.5566 -1.2886
 5149SOL     OW27079   2.179   2.150  12.260 -0.5632 -0.4254 -0.0761
 5149SOL    HW127080   2.191   2.208  12.184  2.5770  1.1797  1.6260
 5149SOL    HW227081   2.239   2.076  12.252  0.8914  0.6399  0.7766
 5150SOL     OW27082   0.150   3.367  17.048 -0.1763  0.4850  0.0456
 5150SOL    HW127083   0.115   3.356  16.959  1.3295  3.1504 -0.8770
 5150SOL    HW227084   0.226   3.309  17.045  1.4106  2.5972 -0.9957
 5151SOL     OW27085   2.004   4.633   5.061 -0.6306  0.0484 -0.0252
 5151SOL    HW127086   2.055   4.681   4.997  0.7029  0.9342  1.7035
 5151SOL    HW227087   2.071   4.566   5.079 -0.0541  1.3932  2.7873
 5152SOL     OW27088   2.034   0.851  15.131  0.4659  0.2813 -0.1448
 5152SOL    HW127089   1.986   0.793  15.190  0.8996  0.4217  0.3498
 5152SOL    HW227090   1.999   0.827  15.045  0.3076  1.0157 -0.2888
 5153SOL     OW27091   4.584   3.385  16.370 -0.2700  0.4138 -0.0105
 5153SOL    HW127092   4.566   3.458  16.311 -0.9446 -1.6563 -2.3748
 5153SOL    HW227093   4.593   3.310  16.312 -0.5021  0.8414 -0.5922
 5154SOL     OW27094   2.607   1.630  16.240  0.1721 -0.6213 -0.1675
 5154SOL    HW127095   2.610   1.671  16.153  0.8880  0.7487  0.5018
 5154SOL    HW227096   2.534   1.675  16.282  0.7883  0.7537 -0.5468
 5155SOL     OW27097   4.447   1.763   7.008  0.5199  0.0094  0.0506
 5155SOL    HW127098   4.504   1.698   6.967  1.0136  0.8667 -0.6165
 5155SOL    HW227099   4.378   1.750   6.942  1.4185 -1.0540 -0.6777
 5156SOL     OW27100   1.577   0.309   7.702 -0.2369  0.1610 -0.1490
 5156SOL    HW127101   1.609   0.222   7.727  0.0327  0.2306 -0.2529
 5156SOL    HW227102   1.584   0.303   7.607 -1.4528  0.9368 -0.2932
 5157SOL     OW27103   4.315   0.401   5.646  0.2665  0.8186  0.1042
 5157SOL    HW127104   4.410   0.410   5.644  0.1412  2.1933  0.1058
 5157SOL    HW227105   4.297   0.488   5.682  1.4211  1.3345 -0.5760
 5158SOL     OW27106   0.204   2.635   8.527 -0.5114  0.1414 -0.5291
 5158SOL    HW127107   0.204   2.698   8.456 -0.7811  0.4243 -0.2739
 5158SOL    HW227108   0.124   2.653   8.576 -1.7839 -2.7494 -1.5126
 5159SOL     OW27109   1.081   0.571  16.665  0.2037 -0.2269  0.0010
 5159SOL    HW127110   1.092   0.620  16.584  1.8398  1.6556  1.3445
 5159SOL    HW227111   1.143   0.499  16.655 -0.6591 -0.6775 -2.0396
 5160SOL     OW27112   2.249   4.427   1.640  0.1099 -0.2634 -0.7946
 5160SOL    HW127113   2.239   4.515   1.603  1.6555  1.4785  2.9157
 5160SOL    HW227114   2.160   4.394   1.641  0.5389 -1.4290 -1.4086
 5161SOL     OW27115   0.142   2.189   4.712  0.3907 -0.4026  0.9304
 5161SOL    HW127116   0.176   2.126   4.648  1.3102  0.5518  0.4787
 5161SOL    HW227117   0.049   2.170   4.703  1.0763 -2.3077 -2.3846
 5162SOL     OW27118   2.521   3.425  12.240 -0.6472 -0.6483  0.3524
 5162SOL    HW127119   2.509   3.509  12.197  1.3298 -0.0790  0.9168
 5162SOL    HW227120   2.582   3.452  12.309  0.9483  1.4790 -1.8968
 5163SOL     OW27121   4.561   3.501  13.233 -0.1028  0.1847 -0.0675
 5163SOL    HW127122   4.517   3.416  13.225 -1.4055  0.6479  2.1500
 5163SOL    HW227123   4.630   3.501  13.166 -1.8051 -0.1695 -1.8324
 5164SOL     OW27124   0.655   0.367   7.567 -0.1234  0.3285 -0.3600
 5164SOL    HW127125   0.571   0.412   7.582 -1.1058 -2.3981  2.4309
 5164SOL    HW227126   0.724   0.430   7.586 -1.1105  1.3132 -0.0027
 5165SOL     OW27127   4.228   1.104   0.634 -0.2135  0.1322  0.0039
 5165SOL    HW127128   4.164   1.172   0.613 -0.2595  0.5655  1.5711
 5165SOL    HW227129   4.205   1.040   0.567 -0.2870 -1.1736  1.2705
 5166SOL     OW27130   1.521   0.056  17.480 -0.2677 -0.7124 -0.2152
 5166SOL    HW127131   1.522   0.152  17.489  0.5667 -0.8170  0.6959
 5166SOL    HW227132   1.519   0.022  17.569  0.1141 -1.2157 -0.4021
 5167SOL     OW27133   2.904   4.558   7.217 -0.5970 -0.2747 -0.3354
 5167SOL    HW127134   2.851   4.481   7.196  0.0036 -1.1359  1.2655
 5167SOL    HW227135   2.840   4.628   7.203  0.3527  0.5831 -0.3658
 5168SOL     OW27136   4.121   1.549   1.324 -0.1134 -0.1907 -0.8230
 5168SOL    HW127137   4.197   1.559   1.266  1.3243 -0.6822  0.9780
 5168SOL    HW227138   4.090   1.638   1.337 -1.4743 -0.6723 -0.8344
 5169SOL     OW27139   0.605   2.833   2.549 -0.5512 -0.0959  0.0604
 5169SOL    HW127140   0.673   2.869   2.606  1.0913 -1.1077 -1.2553
 5169SOL    HW227141   0.539   2.901   2.562  3.2456  3.1129  2.4449
 5170SOL     OW27142   0.002   3.165   5.705 -0.5036  0.2951 -0.3241
 5170SOL    HW127143   0.095   3.173   5.685 -0.3707 -1.7117 -0.5035
 5170SOL    HW227144   4.720   3.258   5.720  0.9490 -0.1368  3.9383
 5171SOL     OW27145   0.541   3.699   8.874  0.0943 -0.2556  0.2068
 5171SOL    HW127146   0.567   3.668   8.961  1.2721 -0.3072 -0.1586
 5171SOL    HW227147   0.516   3.611   8.846 -1.5916  0.4217 -0.4012
 5172SOL     OW27148   0.410   2.341   2.921  0.4125 -0.0571 -0.1538
 5172SOL    HW127149   0.423   2.282   2.996 -0.6574  2.0207  1.6737
 5172SOL    HW227150   0.338   2.293   2.881  0.2543  0.0170  0.0396
 5173SOL     OW27151   4.734   0.416   8.555 -0.1053  0.5142  0.2563
 5173SOL    HW127152   0.083   0.443   8.517  0.7460  0.0340  1.7688
 5173SOL    HW227153   4.704   0.363   8.481  0.3730 -0.5507  0.8216
 5174SOL     OW27154   2.378   0.432   9.269 -0.1224 -0.0316  0.1510
 5174SOL    HW127155   2.417   0.364   9.214 -0.2351  0.1772 -0.1892
 5174SOL    HW227156   2.421   0.512   9.239 -1.4556 -0.0637 -1.8782
 5175SOL     OW27157   3.915   1.656  13.508  0.1400  0.0524  0.8067
 5175SOL    HW127158   3.983   1.722  13.517  0.8783 -0.5208 -0.6437
 5175SOL    HW227159   3.893   1.638  13.600 -0.4370 -2.0630  0.2665
 5176SOL     OW27160   2.744   2.678   6.239  0.3008 -0.0780  0.0012
 5176SOL    HW127161   2.830   2.670   6.198  0.8676 -1.1888  1.3794
 5176SOL    HW227162   2.742   2.762   6.285 -1.0921  0.1770 -0.5320
 5177SOL     OW27163   4.137   1.897   2.240  0.6048  0.2513  0.2153
 5177SOL    HW127164   4.175   1.809   2.242  0.2614  0.1205  0.8969
 5177SOL    HW227165   4.066   1.873   2.300  0.3650  1.9129  0.5946
 5178SOL     OW27166   0.321   0.006   9.335  0.5240 -0.4552  0.3920
 5178SOL    HW127167   0.371   0.086   9.352 -1.5943  1.0065 -0.3011
 5178SOL    HW227168   0.393   4.678   9.337  1.9096  1.1288  1.0507
 5179SOL     OW27169   2.157   0.062   0.683 -0.2807  0.0012 -0.2196
 5179SOL    HW127170   2.153   0.117   0.761 -1.4476  0.6193 -0.7193
 5179SOL    HW227171   2.161   4.706   0.713  0.6069  0.5097  1.1729
 5180SOL     OW27172   1.745   1.277  16.616  0.3715  0.2419  0.0065
 5180SOL    HW127173   1.707   1.202  16.661  3.4848 -2.8550 -2.4622
 5180SOL    HW227174   1.685   1.285  16.542  2.3098  2.9172 -1.2942
 5181SOL     OW27175   4.100   2.295   7.998  0.3455 -0.1597 -0.1397
 5181SOL    HW127176   4.048   2.302   8.078 -0.0250 -0.2534 -0.3706
 5181SOL    HW227177   4.035   2.279   7.929  1.6086 -0.3944 -1.2871
 5182SOL     OW27178   4.521   4.705  13.517  0.2407  0.6864 -0.0348
 5182SOL    HW127179   4.513   4.612  13.494 -1.0472  0.4111  1.5060
 5182SOL    HW227180   4.615   4.705  13.537 -0.3305  0.0800  2.7006
 5183SOL     OW27181   3.864   2.067   9.032  0.2337 -0.3298  0.4198
 5183SOL    HW127182   3.814   2.095   8.955 -0.8099  1.0029  1.5789
 5183SOL    HW227183   3.794   2.015   9.071  0.1676 -0.5153  0.0540
 5184SOL     OW27184   4.019   3.745   7.895 -0.4225  0.2516 -0.2162
 5184SOL    HW127185   4.012   3.834   7.861 -0.7894  1.1216  2.1309
 5184SOL    HW227186   3.987   3.758   7.985  0.2061 -1.3701  0.2473
 5185SOL     OW27187   1.977   0.483   2.442  0.0056 -0.1603 -0.4697
 5185SOL    HW127188   1.897   0.496   2.494  0.4186 -0.0449  0.1422
 5185SOL    HW227189   2.034   0.540   2.494 -0.6516 -1.0725  1.2845
 5186SOL     OW27190   2.441   2.709   9.136  0.0465  0.1482 -0.1977
 5186SOL    HW127191   2.393   2.735   9.057  0.0971  2.8263  0.6444
 5186SOL    HW227192   2.370   2.658   9.174  1.0046  1.4969  3.3784
 5187SOL     OW27193   3.151   4.354   1.287 -0.2822  0.6550  0.2457
 5187SOL    HW127194   3.069   4.364   1.239 -0.4541  2.8401  1.0304
 5187SOL    HW227195   3.179   4.445   1.298  0.5034  0.2316  1.8522
 5188SOL     OW27196   1.124   2.017   1.589  0.5182 -0.1215  0.0642
 5188SOL    HW127197   1.127   2.051   1.679 -1.5884  0.7779 -0.2066
 5188SOL    HW227198   1.216   2.006   1.565  0.3932 -0.2758 -0.3426
 5189SOL     OW27199   2.514   3.075   9.348  0.4302 -0.0084  0.2738
 5189SOL    HW127200   2.503   3.016   9.274 -1.4828  2.1806 -1.1970
 5189SOL    HW227201   2.521   3.005   9.413  0.1927  1.8453  2.2932
 5190SOL     OW27202   2.126   0.019  14.986 -0.1935  0.0827  0.1235
 5190SOL    HW127203   2.220   0.012  14.973 -0.3102 -1.7147  0.1864
 5190SOL    HW227204   2.123   0.064  15.070 -0.0010  2.4860 -1.1552
 5191SOL     OW27205   4.318   2.306   9.019  0.2108  0.0919  0.0581
 5191SOL    HW127206   4.357   2.347   9.096 -2.5519  0.2462  1.3641
 5191SOL    HW227207   4.226   2.293   9.044 -1.0018  1.7946 -3.5394
 5192SOL     OW27208   2.783   1.388   8.851 -0.3805 -0.0348 -0.2117
 5192SOL    HW127209   2.774   1.376   8.946  0.4462  1.7222  0.0815
 5192SOL    HW227210   2.700   1.420   8.818  1.5261  2.0088 -2.9860
 5193SOL     OW27211   3.841   3.568   3.485 -0.0443 -0.0272 -0.3899
 5193SOL    HW127212   3.877   3.620   3.414 -1.4916  0.4567 -0.7720
 5193SOL    HW227213   3.865   3.626   3.557 -0.0539 -0.3169 -0.1537
 5194SOL     OW27214   3.115   2.703   7.909  0.5532 -0.2741 -0.4165
 5194SOL    HW127215   3.107   2.779   7.966  0.2752 -1.3434  0.9715
 5194SOL    HW227216   3.052   2.643   7.949  2.6855 -0.9130  1.9784
 5195SOL     OW27217   1.104   2.638   3.113 -0.0381 -0.0071  0.9281
 5195SOL    HW127218   1.056   2.567   3.156 -1.0001  1.0129  1.5267
 5195SOL    HW227219   1.065   2.717   3.151 -1.0192  0.3363 -0.7869
 5196SOL     OW27220   4.089   0.464   2.884 -0.7542 -0.4209  0.1009
 5196SOL    HW127221   4.117   0.430   2.969 -0.5394  0.2351  0.2943
 5196SOL    HW227222   3.998   0.435   2.886 -0.9504  0.1084 -1.0954
 5197SOL     OW27223   2.003   2.909   0.903 -0.3909  0.2996 -0.2928
 5197SOL    HW127224   2.030   2.997   0.929 -2.1111  0.3561  1.2850
 5197SOL    HW227225   1.952   2.920   0.823  1.7456 -0.7575 -1.8285
 5198SOL     OW27226   2.243   3.661   4.214 -0.5416 -0.4749  0.6554
 5198SOL    HW127227   2.233   3.592   4.280  1.1990 -0.3826  1.0336
 5198SOL    HW227228   2.310   3.609   4.170  0.1114 -2.1194  3.5785
 5199SOL     OW27229   4.457   2.430  16.789 -0.1706  0.3547  0.0918
 5199SOL    HW127230   4.370   2.401  16.816 -0.5677  3.4657  2.1411
 5199SOL    HW227231   4.507   2.443  16.870  0.6301 -0.3955 -0.2877
 5200SOL     OW27232   2.301   1.024   3.640 -0.1844 -0.2329 -0.0907
 5200SOL    HW127233   2.395   1.014   3.652 -0.3804 -1.8005  0.1118
 5200SOL    HW227234   2.263   0.949   3.685  1.0220 -0.6088  0.2701
 5201SOL     OW27235   3.807   2.686   1.905 -0.0594  0.3378  0.0167
 5201SOL    HW127236   3.774   2.744   1.837  0.6381  2.3758  1.4087
 5201SOL    HW227237   3.786   2.744   1.979  0.7766  2.0270 -1.0746
 5202SOL     OW27238   1.085   4.036  10.155 -0.3811  0.6349 -0.2592
 5202SOL    HW127239   0.998   4.055  10.119 -1.1953  0.9989  1.8976
 5202SOL    HW227240   1.119   4.125  10.163  0.5692  0.2393  0.0622
 5203SOL     OW27241   2.572   1.299   8.199  0.3969  0.4488  0.1366
 5203SOL    HW127242   2.625   1.227   8.234  0.4387  0.5144  0.2070
 5203SOL    HW227243   2.502   1.248   8.158  0.2572 -0.4849  1.5653
 5204SOL     OW27244   4.234   4.652   6.416 -0.2974  0.5773 -0.4667
 5204SOL    HW127245   4.243   0.001   6.370 -1.4679  1.2659  0.5578
 5204SOL    HW227246   4.238   4.579   6.354 -0.4599 -0.3230  0.5921
 5205SOL     OW27247   2.213   1.327  17.382  0.6719 -0.1705  0.7642
 5205SOL    HW127248   2.268   1.370  17.447  2.4155 -0.4333 -0.5375
 5205SOL    HW227249   2.215   1.234  17.405 -4.0006 -0.9532 -1.9965
 5206SOL     OW27250   1.601   1.079   1.019  0.7443  0.4678  0.6397
 5206SOL    HW127251   1.575   1.161   0.977  0.5023 -0.6077 -1.3065
 5206SOL    HW227252   1.658   1.033   0.958 -0.2200 -0.3529  0.3574
 5207SOL     OW27253   2.939   1.150   2.464 -0.8897 -0.0574 -0.6459
 5207SOL    HW127254   2.924   1.155   2.559 -0.8919  1.0660 -0.7004
 5207SOL    HW227255   2.857   1.112   2.435 -0.0097 -3.0282  0.8071
 5208SOL     OW27256   1.944   1.155  13.881  0.0318  0.6975  0.0149
 5208SOL    HW127257   1.983   1.194  13.803  1.8591  0.9888  1.0815
 5208SOL    HW227258   1.938   1.230  13.940 -1.5777  0.2021  0.4705
 5209SOL     OW27259   0.892   1.232   2.625  0.5591  0.2318 -0.4619
 5209SOL    HW127260   0.870   1.141   2.644  1.4060  0.4912  1.7640
 5209SOL    HW227261   0.811   1.279   2.646 -0.0777 -0.1790 -1.9922
 5210SOL     OW27262   4.229   4.089   5.538  0.7236  0.0001  0.5664
 5210SOL    HW127263   4.293   4.148   5.578 -0.7918  2.0811 -0.0635
 5210SOL    HW227264   4.156   4.152   5.536 -0.1188 -0.9979 -0.3559
 5211SOL     OW27265   3.809   2.806   9.698  0.2136  0.2690 -0.2397
 5211SOL    HW127266   3.836   2.820   9.789  0.0076  2.3095 -0.5065
 5211SOL    HW227267   3.826   2.895   9.668 -0.4304  0.3547 -0.3478
 5212SOL     OW27268   2.155   1.601   2.486  0.2364 -0.1398 -0.0474
 5212SOL    HW127269   2.173   1.582   2.578  2.7813  1.8578 -0.1227
 5212SOL    HW227270   2.232   1.560   2.446  1.2197  1.9302 -0.2789
 5213SOL     OW27271   4.579   2.373   7.025  0.1005 -0.0945  0.2311
 5213SOL    HW127272   4.566   2.291   6.978 -1.4198  0.1797  0.1762
 5213SOL    HW227273   4.586   2.437   6.954 -1.7934  0.9054  0.9574
 5214SOL     OW27274   1.309   3.835   4.535 -0.0276 -0.6597  0.3638
 5214SOL    HW127275   1.268   3.882   4.462 -0.8193  0.7489  1.7369
 5214SOL    HW227276   1.299   3.746   4.499 -0.2234 -0.6644  0.4279
 5215SOL     OW27277   1.248   0.898  11.925 -0.6145 -0.1285 -0.2166
 5215SOL    HW127278   1.213   0.846  11.853 -0.5687 -0.0518 -0.2946
 5215SOL    HW227279   1.342   0.880  11.914 -0.6494 -0.8247  0.6341
 5216SOL     OW27280   3.841   1.497  12.016  0.2244 -0.1823 -0.5360
 5216SOL    HW127281   3.879   1.410  12.030  0.8730  0.3040  0.8133
 5216SOL    HW227282   3.751   1.470  11.997 -0.4616  1.0111  1.0198
 5217SOL     OW27283   3.283   0.707   9.214 -0.1075 -1.2309  0.2524
 5217SOL    HW127284   3.337   0.662   9.148 -1.1786 -1.3353 -0.5561
 5217SOL    HW227285   3.336   0.786   9.222 -2.4852  0.3064  0.5976
 5218SOL     OW27286   0.223   4.221   5.359  0.7676 -0.1649  0.5616
 5218SOL    HW127287   0.149   4.162   5.373  0.0264 -0.0474 -2.9000
 5218SOL    HW227288   0.274   4.221   5.440  0.0272 -0.5033  1.0280
 5219SOL     OW27289   0.373   1.446   6.306  0.1639 -0.1988  0.0922
 5219SOL    HW127290   0.456   1.494   6.315 -0.3590  0.8253 -0.5305
 5219SOL    HW227291   0.415   1.373   6.262 -0.8129  0.1414 -1.4022
 5220SOL     OW27292   1.670   2.772   5.859  0.2697  0.7233  0.3877
 5220SOL    HW127293   1.618   2.707   5.812 -1.5324  0.9062  2.1244
 5220SOL    HW227294   1.727   2.798   5.787 -0.1505 -2.1204 -0.9563
 5221SOL     OW27295   3.000   2.888   8.130 -0.1113 -0.2384  0.4609
 5221SOL    HW127296   3.013   2.950   8.202  0.7485 -0.0433  0.1434
 5221SOL    HW227297   3.086   2.848   8.143 -0.3542 -0.3979  1.5892
 5222SOL     OW27298   3.489   0.685  14.690  0.3921  0.2560  0.1203
 5222SOL    HW127299   3.418   0.682  14.754 -0.3460 -1.6684 -0.7944
 5222SOL    HW227300   3.561   0.651  14.743 -1.7930 -0.7901  2.3858
 5223SOL     OW27301   4.616   2.300   7.530  0.0903 -0.2658 -1.0181
 5223SOL    HW127302   4.585   2.259   7.450 -0.7669 -2.1034  0.2580
 5223SOL    HW227303   4.545   2.265   7.584 -0.2780  0.8784 -0.7644
 5224SOL     OW27304   1.868   1.512  10.755  0.3199 -0.0329  0.4785
 5224SOL    HW127305   1.870   1.603  10.726 -0.0647 -0.5458 -1.1373
 5224SOL    HW227306   1.958   1.481  10.753  0.0579 -0.8299  0.7489
 5225SOL     OW27307   0.148   2.203  12.185  0.4248  0.0220  0.0977
 5225SOL    HW127308   0.071   2.243  12.144  0.9178  0.0400 -0.7906
 5225SOL    HW227309   0.195   2.287  12.188 -0.7227  0.5926  2.2787
 5226SOL     OW27310   0.520   3.668   9.143 -0.0800 -0.5062 -0.4350
 5226SOL    HW127311   0.428   3.694   9.131  0.6788  1.9951 -0.7374
 5226SOL    HW227312   0.517   3.594   9.204  1.7757 -0.4742 -0.2994
 5227SOL     OW27313   0.903   0.553   5.589  0.0728 -0.4058 -0.7506
 5227SOL    HW127314   0.889   0.496   5.513  0.1945 -0.8696 -0.4308
 5227SOL    HW227315   0.914   0.489   5.659 -1.7364 -0.7730 -0.7888
 5228SOL     OW27316   1.950   2.115   7.409  0.3233 -0.6088 -0.1341
 5228SOL    HW127317   2.039   2.126   7.377 -0.1378 -0.0405 -1.2313
 5228SOL    HW227318   1.941   2.020   7.416 -3.2700 -0.2626  0.0853
 5229SOL     OW27319   3.318   2.274   1.726 -0.3353  0.4229 -0.0730
 5229SOL    HW127320   3.301   2.367   1.713  0.7821  0.8256  1.2655
 5229SOL    HW227321   3.261   2.237   1.659 -1.2927 -0.4978  1.2360
 5230SOL     OW27322   4.306   3.249  15.251 -0.4417  0.7086  0.3164
 5230SOL    HW127323   4.256   3.260  15.333 -0.6426  0.0735  0.2814
 5230SOL    HW227324   4.232   3.228  15.194 -1.5200  1.0160  1.5882
 5231SOL     OW27325   1.142   0.856  13.751  0.1684 -0.2430 -0.2212
 5231SOL    HW127326   1.076   0.916  13.785  1.2290  0.6693  0.2160
 5231SOL    HW227327   1.097   0.771  13.747  0.9684 -0.7584  1.9246
 5232SOL     OW27328   1.461   4.061   7.262 -0.1980 -0.0873  0.6054
 5232SOL    HW127329   1.391   4.101   7.313 -0.1961  0.5905  0.0717
 5232SOL    HW227330   1.486   4.129   7.200  2.3680 -0.3059  1.3909
 5233SOL     OW27331   3.134   2.077  14.284  0.2291 -0.3014  0.1434
 5233SOL    HW127332   3.106   2.041  14.200  0.4342  1.9044 -0.8675
 5233SOL    HW227333   3.052   2.059  14.331  0.2820 -0.5966  0.1215
 5234SOL     OW27334   3.969   2.293   2.299  0.3302  0.2299 -0.2347
 5234SOL    HW127335   3.993   2.363   2.359 -0.7400 -0.7122  1.3274
 5234SOL    HW227336   4.030   2.318   2.231 -0.2996  0.3385 -0.7615
 5235SOL     OW27337   3.256   3.419   4.779  0.1905  0.0328  0.0529
 5235SOL    HW127338   3.311   3.354   4.735 -0.7746 -0.7667  0.0288
 5235SOL    HW227339   3.298   3.426   4.865  0.6254 -1.1231 -0.0651
 5236SOL     OW27340   3.313   2.534   7.801  0.1577 -0.2606  0.3685
 5236SOL    HW127341   3.323   2.566   7.711 -1.6917  4.5755  1.8449
 5236SOL    HW227342   3.252   2.597   7.840  2.3171  2.7619 -1.0997
 5237SOL     OW27343   0.442   3.232   8.105  0.0966  0.1621 -0.3623
 5237SOL    HW127344   0.387   3.216   8.182 -1.1581 -0.4247 -1.3772
 5237SOL    HW227345   0.495   3.153   8.115  1.2270  1.0449  0.6187
 5238SOL     OW27346   4.155   3.806  15.260  0.4907  0.1785  0.2850
 5238SOL    HW127347   4.161   3.711  15.260  1.3402  0.2425 -4.6312
 5238SOL    HW227348   4.222   3.818  15.327 -0.5456  0.5774  1.2562
 5239SOL     OW27349   1.302   1.276   1.279 -0.0329  0.0682 -0.1415
 5239SOL    HW127350   1.349   1.358   1.268 -1.2439  0.4084 -2.7065
 5239SOL    HW227351   1.217   1.309   1.308  0.0064  1.9794 -2.2266
 5240SOL     OW27352   2.700   3.943  12.783  0.2312  0.8317 -1.0906
 5240SOL    HW127353   2.776   3.926  12.839  0.7149  0.7937 -1.7579
 5240SOL    HW227354   2.714   3.884  12.709 -0.2284  1.1472 -1.4265
 5241SOL     OW27355   3.596   4.100   4.597  0.5295  0.2464  0.3367
 5241SOL    HW127356   3.549   4.055   4.527  0.9501 -0.5701  0.5801
 5241SOL    HW227357   3.577   4.050   4.676 -3.1456 -1.0964 -1.4263
 5242SOL     OW27358   1.940   2.783  15.402 -0.4223  0.2694  0.3638
 5242SOL    HW127359   1.871   2.834  15.359 -1.8993 -1.6472  0.4794
 5242SOL    HW227360   1.918   2.818  15.488  0.0887  0.7040  0.3132
 5243SOL     OW27361   2.561   0.113   6.588  0.1868 -0.3353 -0.6036
 5243SOL    HW127362   2.473   0.103   6.552  0.1470 -0.1291 -0.5616
 5243SOL    HW227363   2.588   0.197   6.551 -1.1879  0.8216  1.0603
 5244SOL     OW27364   1.942   2.101   4.212  0.1553  0.3495  0.3658
 5244SOL    HW127365   2.006   2.149   4.160  0.2363 -1.6051 -1.3376
 5244SOL    HW227366   1.954   2.010   4.186  1.0097  0.4303  0.4714
 5245SOL     OW27367   0.719   3.370   8.275 -0.3985 -0.2774  0.3436
 5245SOL    HW127368   0.775   3.444   8.299 -0.2337 -0.0224 -0.8500
 5245SOL    HW227369   0.733   3.313   8.351  1.9965 -0.3036 -0.1153
 5246SOL     OW27370   0.670   0.617   1.974 -0.3210 -0.1089 -0.2741
 5246SOL    HW127371   0.756   0.583   1.998  0.3439  0.8778 -1.2477
 5246SOL    HW227372   0.695   0.702   1.936 -3.4640  0.3112 -1.4132
 5247SOL     OW27373   2.323   3.979  11.707 -0.5581 -0.2167  0.0511
 5247SOL    HW127374   2.361   3.987  11.795  1.5712  0.9187 -0.9939
 5247SOL    HW227375   2.322   4.069  11.675 -0.0713 -0.6320 -1.1338
 5248SOL     OW27376   1.555   1.364   0.895 -0.0534 -0.0010  0.2553
 5248SOL    HW127377   1.490   1.351   0.825 -0.7121 -0.2584  0.9183
 5248SOL    HW227378   1.622   1.402   0.838  0.3517 -1.7781 -0.4291
 5249SOL     OW27379   2.943   1.137   2.742 -0.0565 -0.1876  0.0478
 5249SOL    HW127380   2.953   1.060   2.797  0.9768  0.1229  0.2991
 5249SOL    HW227381   2.884   1.180   2.804  0.9264 -1.9418  2.2113
 5250SOL     OW27382   2.281   2.604   6.159 -0.0419 -0.4402 -0.0838
 5250SOL    HW127383   2.268   2.644   6.245  0.9732 -3.3670  1.4109
 5250SOL    HW227384   2.373   2.580   6.152  0.0311 -0.5427  1.1742
 5251SOL     OW27385   2.159   4.566  17.573  0.1112  0.6019 -0.1818
 5251SOL    HW127386   2.229   4.628  17.590  2.4789 -1.4969 -2.2671
 5251SOL    HW227387   2.154   4.575  17.478  1.8481 -1.8920 -0.4988
 5252SOL     OW27388   4.185   4.103   2.026 -0.0118  0.8150 -0.0072
 5252SOL    HW127389   4.277   4.082   2.042 -0.4981 -1.2282  0.1542
 5252SOL    HW227390   4.190   4.179   1.968  0.1721  0.4379 -0.4817
 5253SOL     OW27391   0.070   1.219   0.197  0.0790  0.0839  0.0966
 5253SOL    HW127392   0.160   1.253   0.199 -0.5898  1.8546 -0.0678
 5253SOL    HW227393   0.061   1.200   0.103  3.6375  1.7450 -0.6005
 5254SOL     OW27394   0.937   1.572   5.860  0.1382 -0.0272  0.8057
 5254SOL    HW127395   0.862   1.520   5.830  0.4451 -1.4268  2.4243
 5254SOL    HW227396   0.980   1.509   5.918  0.0680 -1.3506 -0.5663
 5255SOL     OW27397   3.651   4.429   5.994  0.4650 -0.3676 -0.8369
 5255SOL    HW127398   3.699   4.464   5.919 -1.2253  0.7651 -1.3823
 5255SOL    HW227399   3.561   4.443   5.965  0.0784  0.0686  0.5505
 5256SOL     OW27400   1.984   4.494   8.983  0.0208 -0.4232 -0.2292
 5256SOL    HW127401   1.976   4.588   8.999 -0.3892 -0.6780  1.0369
 5256SOL    HW227402   1.908   4.476   8.929 -0.1517  0.9334 -0.4282
 5257SOL     OW27403   1.869   1.418   7.584  0.1842  0.3139  0.1076
 5257SOL    HW127404   1.915   1.382   7.508 -1.3737 -1.7033  0.1273
 5257SOL    HW227405   1.914   1.366   7.651  0.2199 -1.4871 -1.3136
 5258SOL     OW27406   0.410   2.061   4.202 -0.2397  0.4535  0.1045
 5258SOL    HW127407   0.413   1.981   4.150  0.1690  0.0954  0.6831
 5258SOL    HW227408   0.372   2.124   4.140  0.9778  3.9140  2.9118
 5259SOL     OW27409   2.372   2.400  17.300  0.3296  0.0285  0.0989
 5259SOL    HW127410   2.336   2.358  17.221  2.0324  1.2241 -1.3199
 5259SOL    HW227411   2.411   2.487  17.287 -0.0232  0.6757  3.4941
 5260SOL     OW27412   2.409   0.191  16.103 -0.3204  0.1540  0.2316
 5260SOL    HW127413   2.330   0.220  16.149  0.3213 -0.4694  1.7252
 5260SOL    HW227414   2.451   0.143  16.175 -2.8697 -0.3486  1.4020
 5261SOL     OW27415   0.882   1.681   7.390 -0.4028  0.0253 -0.4779
 5261SOL    HW127416   0.854   1.736   7.463 -1.1514 -0.6398 -0.2606
 5261SOL    HW227417   0.809   1.621   7.372 -0.8669  0.8818 -1.4108
 5262SOL     OW27418   2.143   1.848  10.651  0.2436  0.3237 -0.2237
 5262SOL    HW127419   2.059   1.820  10.687  1.0506  0.7610  1.9632
 5262SOL    HW227420   2.121   1.895  10.571  1.5285  0.7681 -0.3212
 5263SOL     OW27421   2.975   0.215   1.684  0.8192 -0.2159 -0.0139
 5263SOL    HW127422   2.893   0.250   1.718 -0.1281 -0.7262 -1.8237
 5263SOL    HW227423   3.011   0.174   1.763  0.7051  2.4377  1.4110
 5264SOL     OW27424   0.643   3.308   3.201 -0.2046 -0.1169  0.0579
 5264SOL    HW127425   0.719   3.365   3.212 -0.2858  0.0831 -0.4014
 5264SOL    HW227426   0.585   3.352   3.263 -0.1856  0.1510 -0.1133
 5265SOL     OW27427   0.606   2.077   7.482  0.6482 -0.4626 -0.4280
 5265SOL    HW127428   0.596   2.143   7.414  0.1462  0.2526  0.3348
 5265SOL    HW227429   0.545   2.113   7.546 -0.1676  1.1887 -2.1520
 5266SOL     OW27430   2.181   0.227  16.227  0.2254  0.0996 -0.2151
 5266SOL    HW127431   2.133   0.274  16.295  1.6679  1.2747 -0.0181
 5266SOL    HW227432   2.139   0.140  16.229  0.6177 -0.0694  1.1659
 5267SOL     OW27433   0.163   2.367   2.099 -0.2678 -0.7746  0.4245
 5267SOL    HW127434   0.116   2.290   2.067 -0.0064 -0.4339 -0.7632
 5267SOL    HW227435   0.174   2.423   2.022 -1.0026  2.2173  2.4955
 5268SOL     OW27436   3.923   2.477   5.251  0.2068  0.3744  0.0680
 5268SOL    HW127437   3.919   2.423   5.329 -0.1051  0.3344  0.0269
 5268SOL    HW227438   3.831   2.504   5.255  0.3276  0.8512 -0.2596
 5269SOL     OW27439   4.707   1.947   6.976  0.2103 -0.1967  0.4499
 5269SOL    HW127440   4.705   2.027   6.924  0.3827  0.9511  2.2019
 5269SOL    HW227441   4.614   1.926   6.973  0.1629  0.4281 -2.0217
 5270SOL     OW27442   0.536   3.360   6.661 -0.0685  0.5371 -0.3527
 5270SOL    HW127443   0.569   3.275   6.632 -2.0379  0.4434 -2.3062
 5270SOL    HW227444   0.443   3.361   6.684 -0.3818 -1.4621 -1.5015
 5271SOL     OW27445   2.673   3.011  15.336  0.3671  0.0830 -0.4652
 5271SOL    HW127446   2.689   3.086  15.279  3.9071 -0.4366 -0.1735
 5271SOL    HW227447   2.589   2.973  15.311  1.0930 -1.7168 -0.1826
 5272SOL     OW27448   0.979   1.372   7.758  0.1186  0.5934  0.0641
 5272SOL    HW127449   0.899   1.396   7.806  0.1511  1.0685 -0.1212
 5272SOL    HW227450   0.946   1.296   7.711 -2.9611  2.1718 -0.3878
 5273SOL     OW27451   1.640   0.372   8.963  0.1751  0.1750  0.5508
 5273SOL    HW127452   1.592   0.336   9.038  0.0725  0.5636  0.6748
 5273SOL    HW227453   1.623   0.467   8.960  2.2264  0.5602  1.1889
 5274SOL     OW27454   0.097   4.707   9.490  0.0664  0.2747 -0.4303
 5274SOL    HW127455   0.024   4.661   9.449 -0.0834  0.2632 -0.1513
 5274SOL    HW227456   0.167   4.683   9.429  0.4059 -0.4736  0.2490
 5275SOL     OW27457   0.908   0.454  17.078 -0.2648  0.6908 -0.3438
 5275SOL    HW127458   0.956   0.491  17.004 -1.3145 -1.1685 -1.9418
 5275SOL    HW227459   0.971   0.465  17.150  0.7260 -0.2279 -1.0832
 5276SOL     OW27460   1.884   3.468   3.919  0.0839  0.1191 -0.0001
 5276SOL    HW127461   1.837   3.408   3.862 -1.7737  0.7475  0.8966
 5276SOL    HW227462   1.883   3.427   4.006  1.2527  2.7237  1.2318
 5277SOL     OW27463   2.144   0.039   4.865  0.3485 -0.4950 -0.0556
 5277SOL    HW127464   2.194   0.100   4.919  0.7849 -1.1957  0.3390
 5277SOL    HW227465   2.206   0.022   4.794  0.7170 -0.7600  0.3311
 5278SOL     OW27466   3.374   1.759   6.419 -0.2378 -0.1922 -0.3986
 5278SOL    HW127467   3.345   1.759   6.328 -1.6120  0.6488  0.0480
 5278SOL    HW227468   3.468   1.748   6.403 -0.1783  0.4350 -0.4811
 5279SOL     OW27469   0.709   0.089   3.243  0.1432 -0.0026 -0.5202
 5279SOL    HW127470   0.738   0.062   3.156  0.5718 -0.1360 -0.3316
 5279SOL    HW227471   0.761   0.167   3.259  1.7825 -1.0823 -0.6590
 5280SOL     OW27472   1.580   0.931   7.837 -0.5685 -0.2193 -0.3459
 5280SOL    HW127473   1.654   0.980   7.801 -0.4153 -0.4581 -0.3520
 5280SOL    HW227474   1.623   0.885   7.909  1.1639  3.3348  0.9091
 5281SOL     OW27475   4.372   0.441  15.966 -0.7338 -0.4679  0.1638
 5281SOL    HW127476   4.320   0.395  16.032 -0.1892  1.2404  1.7952
 5281SOL    HW227477   4.435   0.485  16.024 -0.2020 -0.9900 -0.0092
 5282SOL     OW27478   1.973   4.553  10.190 -0.4247 -0.0389 -0.2560
 5282SOL    HW127479   1.978   4.461  10.214 -4.0698 -0.0484  0.3515
 5282SOL    HW227480   1.922   4.595  10.259 -2.7057  0.7393 -2.4146
 5283SOL     OW27481   0.199   3.173   6.676  0.3009  0.4898  0.1989
 5283SOL    HW127482   0.228   3.117   6.748  0.1698 -0.6403 -0.6290
 5283SOL    HW227483   0.207   3.262   6.709 -1.7933  0.0730  1.8052
 5284SOL     OW27484   0.342   0.350  12.281  0.2643 -0.4261 -0.3797
 5284SOL    HW127485   0.423   0.328  12.236  0.3295 -0.9760  0.0077
 5284SOL    HW227486   0.362   0.353  12.375  0.7738 -1.1130 -0.4733
 5285SOL     OW27487   0.749   2.101   8.781  0.4381 -0.0843 -0.6136
 5285SOL    HW127488   0.821   2.099   8.844 -1.3386  2.2440  1.4982
 5285SOL    HW227489   0.784   2.145   8.704  2.1808  0.2931  0.3945
 5286SOL     OW27490   4.384   3.081   3.278  0.6053  0.5707  0.6849
 5286SOL    HW127491   4.297   3.043   3.266  1.5320 -0.5914 -2.3189
 5286SOL    HW227492   4.349   3.163   3.313 -1.8599 -1.0523  2.0171
 5287SOL     OW27493   2.509   4.400   5.502  0.1392  0.3345  0.1116
 5287SOL    HW127494   2.494   4.412   5.408 -0.0148 -0.0925  0.0816
 5287SOL    HW227495   2.602   4.379   5.510 -0.4567 -2.7322 -0.8907
 5288SOL     OW27496   3.161   0.493  11.805  0.0178 -0.2815  0.1294
 5288SOL    HW127497   3.139   0.567  11.861  1.1683 -0.2208  0.5021
 5288SOL    HW227498   3.184   0.434  11.877 -0.6214  0.7105  1.1501
 5289SOL     OW27499   2.764   1.659   7.810  0.9075  0.0950 -0.7929
 5289SOL    HW127500   2.849   1.686   7.845  1.0054  1.1130 -1.8217
 5289SOL    HW227501   2.714   1.690   7.885  2.6061  3.5706 -1.1027
 5290SOL     OW27502   3.295   4.062   5.627 -0.0504 -0.0347  0.4663
 5290SOL    HW127503   3.255   4.145   5.654 -0.7190 -0.8883  2.0854
 5290SOL    HW227504   3.382   4.085   5.593  0.0125 -1.2592 -0.1590
 5291SOL     OW27505   4.059   3.431   3.137  0.4902  0.1520  0.5959
 5291SOL    HW127506   4.112   3.500   3.176 -0.5467  0.9554  0.5806
 5291SOL    HW227507   4.001   3.425   3.213 -0.4053 -1.0905 -0.1881
 5292SOL     OW27508   2.621   2.759   3.992  0.8619 -0.2310  0.0976
 5292SOL    HW127509   2.594   2.807   4.071  1.9723 -0.1434  0.4285
 5292SOL    HW227510   2.715   2.777   3.989  0.4751  1.6623 -0.6518
 5293SOL     OW27511   1.281   0.309   1.134  0.8811 -0.3856 -0.1782
 5293SOL    HW127512   1.284   0.263   1.050 -3.0061 -0.4345 -0.2852
 5293SOL    HW227513   1.303   0.399   1.112  0.2633  0.1616  1.4584
 5294SOL     OW27514   4.446   4.321   7.868 -0.1717  0.7987  0.6703
 5294SOL    HW127515   4.490   4.273   7.798  1.7432  0.5638  2.0331
 5294SOL    HW227516   4.518   4.375   7.900 -0.3948  0.8621  1.0693
 5295SOL     OW27517   4.608   0.926   6.082  0.1017  0.1436  0.5772
 5295SOL    HW127518   4.592   0.992   6.014  0.2165  0.6313  1.0236
 5295SOL    HW227519   4.676   0.876   6.038  0.6663  1.7199 -0.3441
 5296SOL     OW27520   0.686   1.053   8.943  0.2397  0.2204  0.1382
 5296SOL    HW127521   0.750   0.988   8.972  1.5083  2.7090  2.8843
 5296SOL    HW227522   0.627   1.049   9.018  1.1628  0.4310  0.8726
 5297SOL     OW27523   1.939   0.823  15.407 -0.5289  0.6525 -0.2792
 5297SOL    HW127524   1.884   0.894  15.440 -1.4991 -0.1548 -0.1681
 5297SOL    HW227525   1.887   0.745  15.428  0.0261  0.1013 -0.9633
 5298SOL     OW27526   3.872   4.449  13.941  0.4634  0.6686 -0.7426
 5298SOL    HW127527   3.886   4.356  13.925  5.2614  0.9336  1.9268
 5298SOL    HW227528   3.962   4.479  13.935  0.6009  0.3344 -0.3102
 5299SOL     OW27529   1.255   1.461  17.673 -0.5943 -0.6886  0.3245
 5299SOL    HW127530   1.276   1.401  17.601 -0.3037 -0.0082 -0.1606
 5299SOL    HW227531   1.288   1.544  17.638 -0.7480 -0.7327  0.0720
 5300SOL     OW27532   3.760   1.491   9.685  0.3052  0.3591 -0.1799
 5300SOL    HW127533   3.771   1.499   9.590  1.0720 -1.1964 -0.2405
 5300SOL    HW227534   3.685   1.431   9.687 -0.2542  1.0274 -1.2183
 5301SOL     OW27535   1.562   2.838  15.502 -0.6082 -0.1308  1.0848
 5301SOL    HW127536   1.487   2.896  15.514  1.1375  2.5041 -0.8606
 5301SOL    HW227537   1.618   2.900  15.456 -0.5010  0.3471  1.8535
 5302SOL     OW27538   2.477   0.700   8.835 -0.1123  0.7042 -0.1580
 5302SOL    HW127539   2.428   0.640   8.779  0.2845  0.6295 -0.4224
 5302SOL    HW227540   2.467   0.646   8.914 -3.6256 -1.8509 -2.3148
 5303SOL     OW27541   2.690   1.269  14.533 -0.1335  0.3333  0.7420
 5303SOL    HW127542   2.614   1.219  14.562  0.1608  0.0768  1.0649
 5303SOL    HW227543   2.724   1.311  14.611 -0.1812  0.2441  0.8103
 5304SOL     OW27544   2.624   2.458   1.854  0.7683 -0.5519  0.0295
 5304SOL    HW127545   2.579   2.412   1.925 -0.5818  0.0582 -0.4331
 5304SOL    HW227546   2.557   2.511   1.811 -0.7501 -2.2712  0.2455
 5305SOL     OW27547   0.996   0.353   4.358  0.2943 -0.5189  0.5324
 5305SOL    HW127548   0.923   0.390   4.409 -0.0590  0.1933 -0.4899
 5305SOL    HW227549   1.068   0.413   4.375  0.3521 -0.3800 -0.1933
 5306SOL     OW27550   0.023   0.424   7.186 -0.0869 -0.4503 -0.4142
 5306SOL    HW127551   4.714   0.428   7.271  2.0115  0.9314  0.5921
 5306SOL    HW227552   0.092   0.357   7.192  1.0707  0.6099 -1.8607
 5307SOL     OW27553   0.668   3.583   4.582  0.7270  0.4412 -0.2485
 5307SOL    HW127554   0.574   3.574   4.572  0.6144  1.5703 -0.1401
 5307SOL    HW227555   0.682   3.674   4.558  1.4593  0.7013  1.1364
 5308SOL     OW27556   1.138   0.990  17.239 -0.1387 -0.1376  0.1576
 5308SOL    HW127557   1.129   1.081  17.210  0.0860 -0.8239 -2.0948
 5308SOL    HW227558   1.223   0.975  17.198 -0.0567 -1.0539  0.6552
 5309SOL     OW27559   0.344   0.925   0.519  0.1662 -0.2188 -0.0630
 5309SOL    HW127560   0.274   0.860   0.517  0.4738 -0.5556  0.2095
 5309SOL    HW227561   0.332   0.967   0.433  0.9486  1.5883  0.6943
 5310SOL     OW27562   2.834   1.994   6.822  0.6576 -0.1881  0.5897
 5310SOL    HW127563   2.909   1.997   6.762 -0.1585  2.3015 -0.3272
 5310SOL    HW227564   2.769   1.975   6.754 -0.6352  1.1399  1.4729
 5311SOL     OW27565   3.035   0.680  11.958 -0.1570  0.1778  0.2330
 5311SOL    HW127566   2.953   0.686  11.910  0.9628  1.3789 -1.5412
 5311SOL    HW227567   3.019   0.730  12.039 -0.8874  0.3924 -0.0478
 5312SOL     OW27568   2.685   1.842   0.881  0.0907 -0.0140 -0.1127
 5312SOL    HW127569   2.732   1.858   0.963  0.9277  0.5082 -0.6875
 5312SOL    HW227570   2.721   1.913   0.827 -2.0728  1.0823 -0.1253
 5313SOL     OW27571   4.247   1.522   2.238  0.2714 -0.0626  0.0516
 5313SOL    HW127572   4.174   1.505   2.179 -0.2550 -0.5742  0.8570
 5313SOL    HW227573   4.265   1.431   2.262  2.5490  0.8647  1.8945
 5314SOL     OW27574   1.104   2.237   6.758  0.2868 -0.2844  0.0375
 5314SOL    HW127575   1.048   2.160   6.751 -1.4410  0.9257  0.4057
 5314SOL    HW227576   1.129   2.243   6.666  5.2036 -1.2077  1.3061
 5315SOL     OW27577   4.233   4.651   8.411 -0.5978 -0.0380  0.1862
 5315SOL    HW127578   4.320   4.682   8.438 -0.7306  0.9130 -0.5053
 5315SOL    HW227579   4.171   4.711   8.451  1.7001  1.5280  1.4120
 5316SOL     OW27580   1.360   3.692   3.173 -0.2721  0.1644  0.0536
 5316SOL    HW127581   1.391   3.617   3.122 -2.0039 -0.2050 -0.4731
 5316SOL    HW227582   1.419   3.685   3.248 -0.0247 -1.1358 -0.2692
 5317SOL     OW27583   4.261   4.099   3.370 -0.6549 -0.1826 -0.0403
 5317SOL    HW127584   4.295   4.178   3.328 -2.8365 -0.7562 -2.8736
 5317SOL    HW227585   4.183   4.083   3.317 -0.5444  0.6553 -0.4614
 5318SOL     OW27586   0.841   3.190   2.240 -0.0377 -0.1689 -0.1863
 5318SOL    HW127587   0.808   3.144   2.317 -0.5322 -0.5901 -0.6412
 5318SOL    HW227588   0.905   3.127   2.208 -0.1678  0.8612 -2.4886
 5319SOL     OW27589   3.557   4.082   8.257 -0.1170 -0.4019  0.0435
 5319SOL    HW127590   3.598   3.996   8.268 -2.6560 -1.6885 -0.4815
 5319SOL    HW227591   3.626   4.136   8.295  2.0753 -2.0663 -1.5667
 5320SOL     OW27592   2.270   2.464   4.392 -0.0308  0.0738 -0.1975
 5320SOL    HW127593   2.355   2.494   4.360 -0.0584 -0.6896 -0.9898
 5320SOL    HW227594   2.296   2.387   4.442  2.2615  1.6981  1.1293
 5321SOL     OW27595   4.702   1.889   4.701  0.0056 -0.5043 -0.4111
 5321SOL    HW127596   0.040   1.913   4.644 -1.1714  0.7483 -1.3907
 5321SOL    HW227597   4.718   1.796   4.719 -0.7998 -0.5930 -0.1350
 5322SOL     OW27598   1.168   1.612   2.590 -0.1811 -0.4163 -0.2301
 5322SOL    HW127599   1.176   1.517   2.596 -1.6305 -0.5345 -0.3314
 5322SOL    HW227600   1.114   1.622   2.512 -1.5748  0.8825  0.9172
 5323SOL     OW27601   3.196   4.008   9.787 -0.3286 -0.3971  0.1599
 5323SOL    HW127602   3.247   3.933   9.816  2.2214  0.3589 -2.3082
 5323SOL    HW227603   3.264   4.069   9.814 -0.7174  0.3910 -0.6361
 5324SOL     OW27604   0.503   0.112  10.097 -0.5865  0.8181 -0.0227
 5324SOL    HW127605   0.586   0.157  10.113 -0.0727  0.4359 -1.6475
 5324SOL    HW227606   0.476   0.165  10.022  1.1706  2.2518  0.3418
 5325SOL     OW27607   0.987   0.051   3.500  0.6033 -0.3197  0.2693
 5325SOL    HW127608   1.065   0.091   3.463  0.7428 -0.6927  0.1619
 5325SOL    HW227609   0.997   4.696   3.468  1.1149  0.1606 -0.9077
 5326SOL     OW27610   4.509   0.793  13.246  0.0663 -0.0189 -0.2074
 5326SOL    HW127611   4.503   0.700  13.223 -0.2208  0.4933 -2.2199
 5326SOL    HW227612   4.522   0.835  13.161  0.1009  1.9583  0.7933
 5327SOL     OW27613   3.403   4.527   5.797 -0.7184  0.3745 -0.2343
 5327SOL    HW127614   3.447   4.509   5.714  1.9295  3.0187  0.5642
 5327SOL    HW227615   3.406   4.623   5.795 -0.1308  0.3448 -0.8700
 5328SOL     OW27616   4.339   2.254  10.956 -0.0561 -0.2059 -0.2097
 5328SOL    HW127617   4.376   2.277  11.041  1.1484 -1.7409 -0.3139
 5328SOL    HW227618   4.365   2.333  10.909 -0.9721  0.6348  0.6813
 5329SOL     OW27619   1.061   4.183  12.685 -0.5148 -0.4612 -0.2582
 5329SOL    HW127620   1.127   4.245  12.715 -0.7285 -0.2925 -0.1405
 5329SOL    HW227621   1.100   4.127  12.618  0.8651  0.7831 -0.4890
 5330SOL     OW27622   2.161   2.862   2.181  0.2000  0.1921  0.1980
 5330SOL    HW127623   2.103   2.909   2.241 -1.9238 -3.5872  1.0824
 5330SOL    HW227624   2.230   2.925   2.162  0.3201 -0.1012 -0.3329
 5331SOL     OW27625   4.453   2.748   6.865 -0.2342 -0.7024  0.2253
 5331SOL    HW127626   4.518   2.719   6.930  0.7258  1.4292  0.2039
 5331SOL    HW227627   4.488   2.705   6.787 -0.0316  0.1315 -0.1419
 5332SOL     OW27628   1.396   0.789   8.623 -0.5577  0.4973 -0.1283
 5332SOL    HW127629   1.399   0.730   8.698  0.3837  0.0897 -0.4877
 5332SOL    HW227630   1.491   0.791   8.615 -0.4886 -0.3738  0.5809
 5333SOL     OW27631   4.438   0.389  12.024 -0.1928  0.5635 -0.0469
 5333SOL    HW127632   4.499   0.322  11.995 -1.4994 -0.7939  0.3566
 5333SOL    HW227633   4.493   0.466  12.013 -3.9320  3.4094  0.8378
 5334SOL     OW27634   0.161   0.326  14.772 -0.4652  0.0163 -0.2627
 5334SOL    HW127635   0.158   0.258  14.705  0.4853  0.7562 -1.0596
 5334SOL    HW227636   0.187   0.402  14.720  0.4057  0.7001  1.1508
 5335SOL     OW27637   3.189   0.232   7.620 -0.1993  0.0095  0.1156
 5335SOL    HW127638   3.097   0.245   7.643 -0.5204 -1.7099 -0.2341
 5335SOL    HW227639   3.196   0.137   7.613  2.0001  0.0847  1.3756
 5336SOL     OW27640   3.979   0.925   1.232 -0.1394 -0.6877  0.1530
 5336SOL    HW127641   4.002   0.909   1.323 -2.0318 -1.1274  0.5445
 5336SOL    HW227642   3.912   0.859   1.216  0.9511 -1.3505 -1.7228
 5337SOL     OW27643   1.147   2.206  16.279  0.0068 -0.3023 -0.4714
 5337SOL    HW127644   1.097   2.144  16.333 -1.3557  1.2211  0.0110
 5337SOL    HW227645   1.097   2.206  16.197 -3.3596  1.0129  1.6088
 5338SOL     OW27646   2.816   1.333  16.975  0.6790  0.0208  0.0772
 5338SOL    HW127647   2.783   1.244  16.965 -2.7083  1.5711 -2.8420
 5338SOL    HW227648   2.844   1.337  16.883  2.5214 -0.4175  0.6122
 5339SOL     OW27649   2.134   3.548   7.357 -0.3453  0.4936  0.0999
 5339SOL    HW127650   2.199   3.542   7.427 -0.1228  1.4106 -0.0215
 5339SOL    HW227651   2.058   3.590   7.399 -0.0185  0.7200  0.4676
 5340SOL     OW27652   4.368   0.662   8.729 -0.1890 -0.3524 -0.2239
 5340SOL    HW127653   4.344   0.660   8.637 -0.8938 -1.5199 -0.0140
 5340SOL    HW227654   4.292   0.702   8.770  1.2982  1.9067  0.3351
 5341SOL     OW27655   1.102   4.683   7.571  0.1856  0.1624  0.2450
 5341SOL    HW127656   1.033   0.010   7.598 -0.0284  0.3794 -0.7686
 5341SOL    HW227657   1.091   4.693   7.476 -0.4981  2.3849  0.5401
 5342SOL     OW27658   2.000   1.233  14.740 -0.1931  0.1853 -0.1737
 5342SOL    HW127659   2.039   1.307  14.692 -0.1550  0.3659  0.1323
 5342SOL    HW227660   2.083   1.190  14.761  0.4199  1.5312  0.1849
 5343SOL     OW27661   2.232   2.574   3.421  0.5506 -0.1196  0.3596
 5343SOL    HW127662   2.308   2.516   3.429 -0.4706 -1.5563 -0.3893
 5343SOL    HW227663   2.269   2.662   3.413 -2.3152  1.1891  1.3806
 5344SOL     OW27664   0.252   4.379   0.754 -0.2776 -0.7273  0.2746
 5344SOL    HW127665   0.341   4.351   0.732 -0.7255  0.3656 -2.8906
 5344SOL    HW227666   0.236   4.432   0.676 -0.9946 -2.5684 -0.8345
 5345SOL     OW27667   1.389   4.572   1.737 -0.5404 -0.2516  0.2066
 5345SOL    HW127668   1.358   4.642   1.680  0.0584 -0.6802 -0.6314
 5345SOL    HW227669   1.447   4.621   1.795 -0.6809  3.4354 -2.7633
 5346SOL     OW27670   4.216   3.833   7.564  0.1812 -0.1975  0.0310
 5346SOL    HW127671   4.233   3.742   7.586 -1.3713 -1.1089 -2.5363
 5346SOL    HW227672   4.195   3.812   7.473 -1.5856 -1.4567  0.7458
 5347SOL     OW27673   3.699   1.811  13.455 -0.1736 -0.5703  0.2017
 5347SOL    HW127674   3.788   1.776  13.464  0.1679  0.7059  1.8854
 5347SOL    HW227675   3.654   1.787  13.536  1.5083 -2.1704  0.6542
 5348SOL     OW27676   0.113   0.117   7.104 -0.2566 -0.6925  0.1923
 5348SOL    HW127677   0.139   0.051   7.169  0.8757  1.0990  1.5771
 5348SOL    HW227678   0.021   0.094   7.110 -0.3230 -0.8559 -1.7361
 5349SOL     OW27679   2.763   2.689  11.982  0.5424 -0.8704  0.0051
 5349SOL    HW127680   2.814   2.664  12.059  0.5496  1.5825  0.8145
 5349SOL    HW227681   2.753   2.784  11.993 -0.1744 -0.8525 -0.8674
 5350SOL     OW27682   3.838   4.447   3.209  0.3902 -0.6487  0.2528
 5350SOL    HW127683   3.759   4.500   3.218  0.1271 -0.9193 -0.4519
 5350SOL    HW227684   3.803   4.358   3.209  0.1927 -0.5734 -0.5823
 5351SOL     OW27685   0.775   0.827   7.727  0.1532 -0.0319 -0.1670
 5351SOL    HW127686   0.774   0.923   7.734  1.7506 -0.1107  1.0114
 5351SOL    HW227687   0.837   0.799   7.793 -1.4084 -2.3123  0.3251
 5352SOL     OW27688   2.205   1.894   1.124 -0.3580  0.0735  0.0073
 5352SOL    HW127689   2.284   1.943   1.102  0.5883 -0.4822  2.2098
 5352SOL    HW227690   2.242   1.809   1.147  2.7533  1.5223  0.3090
 5353SOL     OW27691   0.472   2.091   8.263 -0.2098  0.2659 -0.2136
 5353SOL    HW127692   0.488   2.081   8.169 -2.2751  0.8839 -0.6343
 5353SOL    HW227693   0.473   2.186   8.277 -2.7539  0.4305 -1.1192
 5354SOL     OW27694   0.515   4.479  16.333 -0.0792 -0.0358 -0.1478
 5354SOL    HW127695   0.538   4.414  16.400  1.3172 -2.0841 -2.6160
 5354SOL    HW227696   0.536   4.433  16.252  3.0194  0.4544  0.3455
 5355SOL     OW27697   3.288   2.559  14.683 -0.3226  0.5572  0.3154
 5355SOL    HW127698   3.262   2.597  14.600  1.9361 -1.9467 -1.5615
 5355SOL    HW227699   3.259   2.468  14.677  2.0968 -0.2172  0.2620
 5356SOL     OW27700   3.888   1.012   5.981 -0.0723 -0.2220  0.0398
 5356SOL    HW127701   3.825   1.025   5.910  0.3313 -0.7805 -0.4225
 5356SOL    HW227702   3.833   1.005   6.059  1.2267 -0.6519  0.9160
 5357SOL     OW27703   3.443   1.465   6.304 -0.1390  0.4203 -0.2808
 5357SOL    HW127704   3.380   1.483   6.374  0.0127  0.7226 -0.2227
 5357SOL    HW227705   3.497   1.391   6.331 -1.7702 -0.1078  1.5770
 5358SOL     OW27706   1.977   2.819   4.698  0.3297  0.2368 -0.1589
 5358SOL    HW127707   2.015   2.736   4.667 -1.3588  0.1899 -2.0567
 5358SOL    HW227708   2.054   2.873   4.713 -0.9785  2.0974 -0.2346
 5359SOL     OW27709   2.095   0.773   6.793  0.0673 -0.3230  0.6545
 5359SOL    HW127710   2.077   0.692   6.745  1.7833  0.9113 -2.0803
 5359SOL    HW227711   2.087   0.747   6.884 -4.2699  2.4235  1.0684
 5360SOL     OW27712   4.638   1.774   5.678  0.3910  0.5400  0.2630
 5360SOL    HW127713   4.684   1.755   5.761 -1.7068  0.2044  1.3546
 5360SOL    HW227714   4.704   1.776   5.608 -1.5219  2.7962 -1.4358
 5361SOL     OW27715   0.011   3.981  16.276  0.2427 -0.0105  0.4108
 5361SOL    HW127716   0.038   4.045  16.210 -0.0526 -0.0887  0.2128
 5361SOL    HW227717   4.722   3.906  16.220  0.4855 -0.6285  1.1325
 5362SOL     OW27718   0.478   1.574   5.977 -0.0364  0.3040 -0.0130
 5362SOL    HW127719   0.493   1.642   6.043  1.8901  0.8684 -1.0467
 5362SOL    HW227720   0.498   1.629   5.901  0.9038  0.0856  0.0854
 5363SOL     OW27721   4.492   1.370   9.031  0.1688  0.3243 -0.0790
 5363SOL    HW127722   4.538   1.403   8.954 -1.4273  0.0410 -1.1633
 5363SOL    HW227723   4.494   1.447   9.086 -1.0557  0.9452 -0.8894
 5364SOL     OW27724   2.113   3.657   3.085  0.4320  0.1419 -0.4423
 5364SOL    HW127725   2.031   3.645   3.133 -0.1339  0.3157 -1.3652
 5364SOL    HW227726   2.113   3.748   3.055 -3.1390 -0.4541 -2.2133
 5365SOL     OW27727   1.873   3.384   8.223  0.1857  0.2024 -0.3285
 5365SOL    HW127728   1.816   3.428   8.286 -1.1748 -1.0793 -0.6917
 5365SOL    HW227729   1.936   3.456   8.214  1.6183 -0.7171  2.4757
 5366SOL     OW27730   1.498   0.802   9.277  0.4376 -0.7545  0.0208
 5366SOL    HW127731   1.578   0.756   9.253  1.2545  1.2616 -1.0963
 5366SOL    HW227732   1.500   0.794   9.372  1.7921 -1.5192 -0.0726
 5367SOL     OW27733   1.387   1.204   1.910 -0.7668 -0.7859 -0.0449
 5367SOL    HW127734   1.430   1.127   1.871  1.8397  1.3860 -1.4408
 5367SOL    HW227735   1.296   1.188   1.885 -0.3790  1.0083 -2.6075
 5368SOL     OW27736   0.398   3.311   9.041  0.0505  0.3266  0.0497
 5368SOL    HW127737   0.480   3.358   9.027 -0.4670  0.0900 -3.6748
 5368SOL    HW227738   0.343   3.375   9.086  1.4199  1.1566  0.5478
 5369SOL     OW27739   0.458   4.269   9.787 -0.3373 -0.4835 -0.4547
 5369SOL    HW127740   0.505   4.351   9.802 -0.1770 -0.8631  1.1290
 5369SOL    HW227741   0.528   4.213   9.754 -0.6323 -0.7430 -0.6463
 5370SOL     OW27742   3.274   4.072   7.269  0.5758 -0.0424  0.3214
 5370SOL    HW127743   3.274   4.029   7.354  0.8798  1.4649  1.0927
 5370SOL    HW227744   3.189   4.041   7.236  0.5643 -0.2818  0.5769
 5371SOL     OW27745   0.737   3.157   8.450  0.1863 -0.2334  0.4524
 5371SOL    HW127746   0.714   3.067   8.475 -2.0775 -0.1656 -1.3703
 5371SOL    HW227747   0.829   3.148   8.425 -0.2678 -2.8745 -0.3559
 5372SOL     OW27748   3.242   2.049   5.423 -0.2763  0.0433  0.0972
 5372SOL    HW127749   3.265   2.038   5.331 -2.5815 -2.5549 -0.1706
 5372SOL    HW227750   3.326   2.040   5.469  0.0685 -0.3569 -0.6053
 5373SOL     OW27751   2.754   0.892  12.084 -0.6539 -0.3685  0.8818
 5373SOL    HW127752   2.765   0.817  12.024  0.2634  1.4312 -1.2082
 5373SOL    HW227753   2.836   0.888  12.133 -0.2904 -3.1519  0.0433
 5374SOL     OW27754   3.642   2.932   4.575 -0.2243  0.3376  0.2181
 5374SOL    HW127755   3.573   2.967   4.519  1.7420  1.4371 -1.5477
 5374SOL    HW227756   3.667   3.002   4.636 -1.2157 -0.1932  1.2297
 5375SOL     OW27757   0.321   0.952  10.030 -0.3532 -0.1925  0.5613
 5375SOL    HW127758   0.412   0.933  10.054  0.9843  3.4236 -1.8296
 5375SOL    HW227759   0.296   1.014  10.099  0.6391  1.0943 -0.2449
 5376SOL     OW27760   4.040   2.985   2.947 -0.1149 -0.1886 -0.2363
 5376SOL    HW127761   4.075   2.980   2.858  2.6116  2.7502  0.6896
 5376SOL    HW227762   4.098   3.045   2.993 -0.3293 -0.8860  0.9501
 5377SOL     OW27763   2.031   2.857   3.949  0.0103  0.0613  0.3424
 5377SOL    HW127764   2.037   2.903   4.033  0.9053  0.0039  0.3158
 5377SOL    HW227765   2.032   2.933   3.891  0.2212 -1.5905 -1.8234
 5378SOL     OW27766   4.275   4.018   8.814  0.8340 -0.3742  0.9291
 5378SOL    HW127767   4.312   3.930   8.809  1.0980 -0.2976  1.5522
 5378SOL    HW227768   4.345   4.069   8.774 -1.3406  1.8775  0.0242
 5379SOL     OW27769   4.540   2.616   0.778  0.2702 -0.2195  0.6663
 5379SOL    HW127770   4.527   2.551   0.847  0.9124 -1.4930 -0.4142
 5379SOL    HW227771   4.547   2.557   0.703 -2.8864  0.9638 -0.5400
 5380SOL     OW27772   4.202   3.654   3.713 -0.3955 -0.5116 -0.1447
 5380SOL    HW127773   4.109   3.676   3.705 -0.5455 -0.6521  1.1831
 5380SOL    HW227774   4.240   3.737   3.744  0.1858 -0.6184 -0.5623
 5381SOL     OW27775   3.120   0.941   9.733 -0.3931 -0.3151 -0.2964
 5381SOL    HW127776   3.156   1.021   9.695  0.9091 -0.7625  0.0035
 5381SOL    HW227777   3.026   0.954   9.718 -0.4126  0.4991  0.5215
 5382SOL     OW27778   0.194   0.533  14.594 -0.1074 -0.3048 -0.5598
 5382SOL    HW127779   0.211   0.575  14.678  1.8730 -1.1233 -0.5367
 5382SOL    HW227780   0.103   0.560  14.585  0.0057  1.0594  2.5163
 5383SOL     OW27781   2.706   0.959   2.678 -0.8562  0.4658  0.3982
 5383SOL    HW127782   2.750   1.042   2.698 -1.3346  0.7740  0.1772
 5383SOL    HW227783   2.662   0.946   2.762 -0.4211  1.1120  0.7299
 5384SOL     OW27784   1.264   0.449   6.167  0.0833  0.9982 -0.2465
 5384SOL    HW127785   1.322   0.522   6.151  0.3927  1.0216  1.0086
 5384SOL    HW227786   1.258   0.414   6.078  1.4907 -1.3336  0.5712
 5385SOL     OW27787   1.848   1.020  17.066 -0.6477 -0.3515 -0.1551
 5385SOL    HW127788   1.754   1.004  17.074 -0.9859  1.8024  0.0553
 5385SOL    HW227789   1.879   0.933  17.040 -2.2638 -0.4068 -1.9076
 5386SOL     OW27790   0.959   4.688   7.317 -0.2962 -0.5624 -0.2034
 5386SOL    HW127791   0.897   4.617   7.333  2.1979 -2.5533  0.8462
 5386SOL    HW227792   0.897   0.026   7.325 -1.2168 -1.3845  0.1120
 5387SOL     OW27793   2.919   4.070   7.099 -0.6306 -0.1098 -0.0571
 5387SOL    HW127794   2.842   4.100   7.146 -1.5245 -2.2673 -0.1340
 5387SOL    HW227795   2.940   3.991   7.149 -0.3484 -0.2299 -0.3659
 5388SOL     OW27796   4.499   3.912  10.312  0.7302 -0.4577  0.2846
 5388SOL    HW127797   4.589   3.943  10.305  0.5253 -0.1414 -1.0372
 5388SOL    HW227798   4.457   3.992  10.282  1.5543 -0.5764 -1.2257
 5389SOL     OW27799   0.657   1.222   7.469  0.2549  0.3395 -0.5211
 5389SOL    HW127800   0.734   1.214   7.413 -0.0203 -2.5300 -0.5000
 5389SOL    HW227801   0.584   1.251   7.415 -0.4991 -0.3107  0.1560
 5390SOL     OW27802   1.024   3.585   7.707  0.3714 -0.0403 -0.4394
 5390SOL    HW127803   0.956   3.589   7.639 -0.4782  1.5930  0.5022
 5390SOL    HW227804   0.994   3.502   7.742  1.8271  0.4409  1.8968
 5391SOL     OW27805   0.625   2.629  15.010  0.0690 -0.3519 -0.4803
 5391SOL    HW127806   0.676   2.708  14.992  2.2658 -1.1988  2.0119
 5391SOL    HW227807   0.568   2.608  14.935  0.2334 -0.0507 -0.6862
 5392SOL     OW27808   0.421   2.766   5.737  0.4860  0.0499  0.6211
 5392SOL    HW127809   0.442   2.721   5.819  1.4784 -1.1277 -0.2854
 5392SOL    HW227810   0.332   2.798   5.752  0.6155  0.6920  0.0256
 5393SOL     OW27811   0.861   0.325   9.168 -0.5146  0.0112 -0.6724
 5393SOL    HW127812   0.841   0.402   9.115 -1.2001 -1.2526 -2.2468
 5393SOL    HW227813   0.926   0.281   9.112  1.9861  1.2394  1.2464
 5394SOL     OW27814   2.874   1.089   5.204 -0.1293  0.0311  0.1575
 5394SOL    HW127815   2.868   0.999   5.174 -0.0685 -0.3583  1.2932
 5394SOL    HW227816   2.965   1.089   5.234 -0.5150 -2.3171  1.3629
 5395SOL     OW27817   0.097   0.818   9.140  0.2399 -0.2742  0.3466
 5395SOL    HW127818   0.005   0.839   9.124  0.2697 -0.1683  0.3152
 5395SOL    HW227819   0.114   0.758   9.068  0.2108  2.0046 -1.5403
 5396SOL     OW27820   1.727   2.345   2.191  0.1487  0.3118  0.4020
 5396SOL    HW127821   1.780   2.397   2.131 -0.9453  1.3923  0.3538
 5396SOL    HW227822   1.794   2.279   2.205 -0.2371 -0.1637 -0.0154
 5397SOL     OW27823   1.947   0.746  16.044  0.1699  0.4434  0.5039
 5397SOL    HW127824   2.018   0.710  15.991 -2.4785 -0.6037 -2.3152
 5397SOL    HW227825   1.870   0.719  15.994  1.3290 -0.8823 -0.5636
 5398SOL     OW27826   4.187   4.149   7.235 -0.3657  0.0057 -0.1382
 5398SOL    HW127827   4.127   4.096   7.182 -0.4053  0.0870 -0.1749
 5398SOL    HW227828   4.172   4.109   7.320 -0.2759 -3.2914 -1.6704
 5399SOL     OW27829   2.277   0.264   0.490 -0.1335  0.1289 -0.2834
 5399SOL    HW127830   2.213   0.211   0.539  0.8135 -0.7717 -0.0319
 5399SOL    HW227831   2.288   0.346   0.538 -0.7165 -1.3519  2.4146
 5400SOL     OW27832   1.819   1.686   6.692  0.0066  0.3738  0.5297
 5400SOL    HW127833   1.846   1.715   6.780 -2.7786  0.8028  1.2610
 5400SOL    HW227834   1.724   1.700   6.693 -0.0499  0.1506 -4.3989
 5401SOL     OW27835   0.941   2.235   4.698  0.1385  0.1908  0.1355
 5401SOL    HW127836   1.003   2.288   4.648  0.2999  0.6411  0.8094
 5401SOL    HW227837   0.859   2.282   4.684  0.7449  1.5441  1.1172
 5402SOL     OW27838   0.822   3.096   2.493 -0.2887 -0.1867  0.2133
 5402SOL    HW127839   0.811   3.172   2.551 -1.5570 -0.6749  0.6181
 5402SOL    HW227840   0.915   3.077   2.506 -0.6801 -1.2610  1.4679
 5403SOL     OW27841   1.592   0.744  11.070  0.2960  0.0176  0.2122
 5403SOL    HW127842   1.500   0.768  11.076  0.4287  0.1040  1.8989
 5403SOL    HW227843   1.615   0.703  11.154  1.5183 -1.2544 -0.7426
 5404SOL     OW27844   3.692   2.577  13.944 -0.0789 -0.0586 -0.5616
 5404SOL    HW127845   3.733   2.654  13.986  1.8989 -1.7024  0.5346
 5404SOL    HW227846   3.738   2.563  13.862 -1.2162 -3.9796 -0.4873
 5405SOL     OW27847   0.863   1.253   2.103  0.2054 -0.4561 -0.2183
 5405SOL    HW127848   0.866   1.224   2.194 -0.0900 -2.5420 -0.8707
 5405SOL    HW227849   0.952   1.239   2.071  0.5093  0.5092  0.2066
 5406SOL     OW27850   2.245   4.409  12.688  0.4850 -0.4705  0.1480
 5406SOL    HW127851   2.264   4.458  12.768 -1.1574  0.5402 -0.0610
 5406SOL    HW227852   2.329   4.382  12.652  0.3912 -0.1130 -0.3370
 5407SOL     OW27853   4.620   0.439  16.309  0.4997 -0.1206 -0.4429
 5407SOL    HW127854   4.586   0.478  16.229 -0.0538 -0.6631 -0.4702
 5407SOL    HW227855   4.637   0.347  16.287 -0.2286 -0.1625 -0.8200
 5408SOL     OW27856   3.786   0.441  15.176  0.8759 -0.0193 -0.2588
 5408SOL    HW127857   3.784   0.510  15.242 -2.0274  0.7870 -1.2016
 5408SOL    HW227858   3.844   0.480  15.111 -0.4923  0.1772 -1.3554
 5409SOL     OW27859   3.255   3.423  11.779 -0.4277  0.1377  0.7654
 5409SOL    HW127860   3.193   3.486  11.741  0.2664 -0.0295 -0.6331
 5409SOL    HW227861   3.252   3.451  11.871 -0.6246 -1.4544  1.2470
 5410SOL     OW27862   0.005   4.230  13.995 -0.3324 -0.0707  0.0679
 5410SOL    HW127863   0.042   4.180  14.068  0.1470 -0.0396 -0.1602
 5410SOL    HW227864   4.652   4.250  14.028 -1.0391 -1.2978 -1.0562
 5411SOL     OW27865   4.188   2.436   4.636  0.0558  0.6613 -0.1263
 5411SOL    HW127866   4.214   2.446   4.728 -0.9812 -2.2413  0.4863
 5411SOL    HW227867   4.244   2.503   4.597  1.1772  0.3040  0.8716
 5412SOL     OW27868   4.561   3.486  16.616 -0.1830  0.0766  0.5157
 5412SOL    HW127869   4.573   3.447  16.530 -0.6640 -0.2250  0.5829
 5412SOL    HW227870   4.637   3.545  16.622  1.7652 -2.3946 -0.0166
 5413SOL     OW27871   0.257   2.341   5.513  0.2503 -0.1787  0.0268
 5413SOL    HW127872   0.201   2.298   5.577  0.1786 -1.5931 -0.9850
 5413SOL    HW227873   0.320   2.269   5.506  0.0154 -0.5378  1.6053
 5414SOL     OW27874   2.420   0.715  11.275 -0.4014 -0.2075  0.1213
 5414SOL    HW127875   2.514   0.733  11.273 -0.5733  0.8294  0.8876
 5414SOL    HW227876   2.412   0.630  11.318  0.3852  0.1171  0.9176
 5415SOL     OW27877   2.893   2.796   3.949  0.1609  0.0813 -0.1325
 5415SOL    HW127878   2.943   2.725   3.988  0.3760 -0.1832 -0.8736
 5415SOL    HW227879   2.956   2.849   3.900  0.1178 -0.5479 -0.8791
 5416SOL     OW27880   4.328   0.028   8.072 -0.6161  0.3302  0.5692
 5416SOL    HW127881   4.305   0.110   8.116 -0.4214  1.7636 -2.0468
 5416SOL    HW227882   4.254   4.703   8.083 -1.0179  0.7923  0.3660
 5417SOL     OW27883   0.746   2.956   0.376  0.7674  0.0144 -0.7258
 5417SOL    HW127884   0.694   2.994   0.306 -0.8585  1.1203  1.0854
 5417SOL    HW227885   0.829   3.001   0.359  1.3853 -0.2437  1.5352
 5418SOL     OW27886   2.317   1.940  14.542 -0.2580  0.5887 -0.0080
 5418SOL    HW127887   2.400   1.988  14.536 -0.2577  0.7110  0.8985
 5418SOL    HW227888   2.262   1.971  14.471 -1.6915  0.7625  1.1695
 5419SOL     OW27889   2.531   4.563   3.142 -0.3796  0.1220  0.5986
 5419SOL    HW127890   2.542   4.647   3.188 -1.8068  1.3366 -1.2861
 5419SOL    HW227891   2.503   4.587   3.054  0.9796  0.1389  0.1659
 5420SOL     OW27892   3.811   3.668   2.274 -0.6344  0.2681 -0.7854
 5420SOL    HW127893   3.889   3.612   2.278 -1.1316 -0.1638  2.8631
 5420SOL    HW227894   3.811   3.681   2.179  1.3571  0.9729 -0.6876
 5421SOL     OW27895   2.495   4.115   3.234 -0.1605 -0.0299  0.1935
 5421SOL    HW127896   2.465   4.193   3.282  3.4093  0.5538  1.4434
 5421SOL    HW227897   2.490   4.157   3.148  1.2811  0.5398  0.3951
 5422SOL     OW27898   1.026   3.809   4.081 -0.3708  0.2638 -0.3606
 5422SOL    HW127899   1.051   3.778   3.994 -1.8435 -1.5611 -0.1406
 5422SOL    HW227900   0.982   3.731   4.114  1.2848 -0.6719 -0.3697
 5423SOL     OW27901   2.087   0.976  13.127 -0.4519  0.2838  0.6261
 5423SOL    HW127902   2.182   0.977  13.141 -0.5981 -0.3041  1.6290
 5423SOL    HW227903   2.077   0.942  13.038 -0.3992  1.4117  0.1819
 5424SOL     OW27904   2.320   0.044   8.116  0.1679  0.4701  0.5595
 5424SOL    HW127905   2.331   4.686   8.098 -0.1654  0.4987  0.2097
 5424SOL    HW227906   2.411   0.067   8.097  0.0262 -0.6005 -1.4320
 5425SOL     OW27907   1.497   2.775   5.039 -0.4817  0.0007 -0.1890
 5425SOL    HW127908   1.490   2.684   5.010 -1.2485  0.5060 -1.5785
 5425SOL    HW227909   1.448   2.770   5.122  0.1617 -1.0744  0.1163
 5426SOL     OW27910   2.499   1.810   8.310 -0.2437  0.0418 -0.6977
 5426SOL    HW127911   2.569   1.807   8.244 -0.2876 -2.0064 -0.6507
 5426SOL    HW227912   2.557   1.781   8.381 -0.9175 -0.6424 -0.4333
 5427SOL     OW27913   0.412   2.598   2.098  0.1693 -0.2814  0.7927
 5427SOL    HW127914   0.326   2.594   2.056  0.2329  1.4059  0.5091
 5427SOL    HW227915   0.457   2.537   2.038  0.8531  1.7091 -0.7340
 5428SOL     OW27916   1.616   3.865   3.856 -0.4513  0.1983  0.6385
 5428SOL    HW127917   1.558   3.900   3.923 -0.1484  0.1533  0.9186
 5428SOL    HW227918   1.596   3.771   3.861  0.5219 -0.0915 -0.8550
 5429SOL     OW27919   3.877   4.356   6.701 -0.0864 -0.2038  0.2287
 5429SOL    HW127920   3.863   4.451   6.702 -0.6865 -0.2785 -1.4512
 5429SOL    HW227921   3.893   4.336   6.793 -1.6628 -1.3766  0.2565
 5430SOL     OW27922   3.218   4.139  12.923  0.0910  0.3673 -0.2133
 5430SOL    HW127923   3.310   4.125  12.947  0.3795  0.6387 -1.1545
 5430SOL    HW227924   3.206   4.234  12.933  0.5314  0.4019 -0.0410
 5431SOL     OW27925   2.416   1.300   9.309  0.1717  0.0364 -0.2055
 5431SOL    HW127926   2.431   1.391   9.332 -0.2794  0.3762 -1.2730
 5431SOL    HW227927   2.339   1.271   9.358  0.7729  1.2805  1.4574
 5432SOL     OW27928   3.857   4.280   1.935 -0.0493  0.2309 -0.4857
 5432SOL    HW127929   3.874   4.232   1.854 -2.7053  0.3888 -1.1508
 5432SOL    HW227930   3.775   4.327   1.917 -0.9287 -1.1845 -0.2485
 5433SOL     OW27931   2.668   2.685  13.653 -0.1316 -0.0326 -0.0704
 5433SOL    HW127932   2.673   2.631  13.574  2.4903 -0.3718  0.3370
 5433SOL    HW227933   2.745   2.659  13.704  0.5223 -0.6932 -1.3970
 5434SOL     OW27934   0.710   3.129   0.848  0.4627 -0.0053  0.6799
 5434SOL    HW127935   0.776   3.100   0.785 -2.3723  0.4131 -2.4761
 5434SOL    HW227936   0.658   3.181   0.787  2.0611  0.7607 -0.0469
 5435SOL     OW27937   2.224   1.854   7.185  0.2995 -0.3798 -0.2377
 5435SOL    HW127938   2.289   1.793   7.220  0.6744  0.2410  0.1511
 5435SOL    HW227939   2.146   1.799   7.179 -0.1037  0.3825 -2.1223
 5436SOL     OW27940   0.809   0.337   4.120  0.5083  1.2089 -0.0998
 5436SOL    HW127941   0.759   0.378   4.191 -1.6312 -1.4618 -0.0451
 5436SOL    HW227942   0.773   0.391   4.050 -1.8658  0.5334  0.5855
 5437SOL     OW27943   1.444   0.179   1.291  0.4040 -0.1347  0.3169
 5437SOL    HW127944   1.380   0.228   1.239 -0.5261 -2.6462 -0.8797
 5437SOL    HW227945   1.489   0.246   1.342  1.0010 -0.2963  0.0111
 5438SOL     OW27946   1.940   2.152  17.693 -0.4390 -0.1553  0.4072
 5438SOL    HW127947   1.904   2.129  17.607 -1.0924  0.5956  0.4802
 5438SOL    HW227948   1.922   2.246  17.695  1.3107  0.1813  0.0348
 5439SOL     OW27949   0.860   1.973   4.649 -0.2086  0.6155  0.2270
 5439SOL    HW127950   0.890   1.936   4.732 -0.4275  1.7618  0.8114
 5439SOL    HW227951   0.904   2.056   4.663  1.1602  0.0540 -0.7599
 5440SOL     OW27952   2.631   3.070  16.848  0.8380  0.3941 -0.6323
 5440SOL    HW127953   2.567   3.118  16.795 -0.6336 -1.4886 -0.5567
 5440SOL    HW227954   2.621   3.108  16.935 -0.0611 -0.0273 -0.5540
 5441SOL     OW27955   4.393   1.129   8.069  0.7044  0.2008  0.6971
 5441SOL    HW127956   4.317   1.127   8.127  0.4287  0.8353  0.3536
 5441SOL    HW227957   4.353   1.169   7.992  0.0163 -2.0374 -0.0971
 5442SOL     OW27958   1.355   2.473   6.185  0.2748 -0.4345 -0.3328
 5442SOL    HW127959   1.302   2.401   6.219 -0.2065  1.0788  2.0986
 5442SOL    HW227960   1.347   2.528   6.263 -0.7290 -0.4930 -0.3898
 5443SOL     OW27961   0.532   3.465   9.350 -0.2091  0.5195  0.5887
 5443SOL    HW127962   0.566   3.380   9.322 -0.5692  0.7823 -0.6698
 5443SOL    HW227963   0.487   3.441   9.431  2.5657  0.1911  2.0214
 5444SOL     OW27964   3.141   4.340   7.822  0.4874  0.7922  0.0044
 5444SOL    HW127965   3.186   4.424   7.812 -0.3519  1.1927 -0.4643
 5444SOL    HW227966   3.206   4.284   7.864 -0.1946 -1.1166 -1.4535
 5445SOL     OW27967   0.100   1.686  14.165 -0.0383  0.0999  0.1899
 5445SOL    HW127968   0.126   1.686  14.073  0.6171 -2.1563  0.3770
 5445SOL    HW227969   0.174   1.642  14.207 -0.0334 -1.1558 -1.1469
 5446SOL     OW27970   0.699   4.719   8.074 -0.1749 -0.2219 -0.3755
 5446SOL    HW127971   0.784   0.018   8.046 -0.1838  0.2679  0.1999
 5446SOL    HW227972   0.715   4.625   8.089 -0.5487 -0.3357 -0.6901
 5447SOL     OW27973   3.522   0.297  14.706 -0.0250 -0.4861  0.0060
 5447SOL    HW127974   3.598   0.286  14.764  0.2288 -0.9318 -0.4081
 5447SOL    HW227975   3.512   0.219  14.652  1.1208  0.1548 -1.1413
 5448SOL     OW27976   3.049   4.353   9.262  0.5839 -0.4944 -0.0501
 5448SOL    HW127977   3.043   4.317   9.174  2.0663 -0.7563 -0.0482
 5448SOL    HW227978   2.959   4.346   9.294  1.0480  2.8298  1.9902
 5449SOL     OW27979   4.714   0.324   0.770  0.6783 -0.2556 -0.5590
 5449SOL    HW127980   4.632   0.373   0.768  1.9956  1.9804  0.9852
 5449SOL    HW227981   4.692   0.249   0.826 -0.9904  1.4397  1.0295
 5450SOL     OW27982   4.032   2.543   6.951  0.4244  0.1740 -0.4935
 5450SOL    HW127983   4.090   2.610   6.915  0.8139 -1.6142 -3.1863
 5450SOL    HW227984   3.986   2.510   6.874 -1.0101 -0.8877  0.8286
 5451SOL     OW27985   0.461   4.478   7.637 -0.5372  0.4966  0.4410
 5451SOL    HW127986   0.456   4.476   7.733 -0.8191  0.9221  0.4379
 5451SOL    HW227987   0.369   4.476   7.611  0.9512  1.0535 -4.8167
 5452SOL     OW27988   1.094   4.399   9.925  0.0716  0.1476 -0.1041
 5452SOL    HW127989   1.091   4.392  10.020  0.9451 -1.8606 -0.2250
 5452SOL    HW227990   1.072   4.308   9.904 -0.3381  0.0043  0.9522
 5453SOL     OW27991   3.238   3.687   9.872 -0.1504 -0.1860 -0.9987
 5453SOL    HW127992   3.195   3.624   9.814  2.7288 -1.9103 -1.2061
 5453SOL    HW227993   3.314   3.690   9.814  1.4814  0.1831  1.1582
 5454SOL     OW27994   0.308   3.673  10.286 -0.0822 -0.6164 -0.2978
 5454SOL    HW127995   0.283   3.644  10.373  0.1107 -2.0477 -0.7333
 5454SOL    HW227996   0.321   3.593  10.236 -0.6020 -2.5001  2.6023
 5455SOL     OW27997   0.261   1.520   5.554  0.3251  0.5464 -0.3067
 5455SOL    HW127998   0.282   1.457   5.623  0.6102  0.5195 -0.4203
 5455SOL    HW227999   0.346   1.517   5.510  0.6810  1.8412  0.3059
 5456SOL     OW28000   2.399   3.665   7.300 -0.3098 -0.4733  0.0020
 5456SOL    HW128001   2.384   3.635   7.390 -1.3241 -0.4037 -0.1435
 5456SOL    HW228002   2.346   3.597   7.259  0.6377 -0.3492 -1.4419
 5457SOL     OW28003   4.416   1.936   2.518 -0.4553 -0.7765 -0.0135
 5457SOL    HW128004   4.374   1.851   2.535  1.6351 -1.4629  1.8130
 5457SOL    HW228005   4.348   2.001   2.499 -0.0085 -0.9210 -2.0830
 5458SOL     OW28006   4.056   4.690   5.042  0.3571 -0.0834  0.3320
 5458SOL    HW128007   3.968   4.686   5.006 -0.0039  0.2995  1.1580
 5458SOL    HW228008   4.049   4.616   5.103 -0.0297 -0.7325 -0.5009
 5459SOL     OW28009   1.693   3.327   2.020  0.6823 -0.0033 -0.1251
 5459SOL    HW128010   1.637   3.297   2.092 -1.0058  0.0804 -1.3988
 5459SOL    HW228011   1.642   3.389   1.968 -1.4354 -1.8171 -0.1994
 5460SOL     OW28012   3.599   3.599   5.721 -0.0987 -0.4546  0.3775
 5460SOL    HW128013   3.594   3.503   5.720 -0.4621 -0.4311  0.2748
 5460SOL    HW228014   3.591   3.602   5.816  2.7120 -0.4134  0.6176
 5461SOL     OW28015   0.081   2.211  14.122  0.1318 -0.0242  0.3474
 5461SOL    HW128016   0.143   2.238  14.190  0.5766 -0.7321  0.2271
 5461SOL    HW228017   0.070   2.123  14.158  3.1467  0.8760  3.4881
 5462SOL     OW28018   1.731   4.038  13.872 -1.1543 -0.4294 -0.2534
 5462SOL    HW128019   1.739   4.099  13.945  0.7691  1.1672 -1.8235
 5462SOL    HW228020   1.789   3.968  13.901  0.2044  1.2060  0.9307
 5463SOL     OW28021   2.304   1.241  17.083  0.0271 -0.1449 -0.7771
 5463SOL    HW128022   2.349   1.316  17.044 -1.0040  1.4622  1.1176
 5463SOL    HW228023   2.305   1.288  17.166 -0.4709 -1.3862 -0.0783
 5464SOL     OW28024   1.587   4.345  11.636  0.5879 -0.1364  0.3592
 5464SOL    HW128025   1.655   4.309  11.692 -0.8739 -1.0278  1.5811
 5464SOL    HW228026   1.528   4.356  11.711 -0.4224 -1.3010 -0.2555
 5465SOL     OW28027   4.558   3.266   2.761  0.1188 -0.5928  0.4747
 5465SOL    HW128028   4.587   3.176   2.773 -0.8660 -0.8683  0.7948
 5465SOL    HW228029   4.567   3.265   2.666 -0.7164  0.1016  0.3880
 5466SOL     OW28030   0.401   3.243   5.154  0.4422 -0.7602 -0.3518
 5466SOL    HW128031   0.355   3.167   5.118 -1.1682 -0.1558  0.4421
 5466SOL    HW228032   0.398   3.218   5.246 -0.2248 -0.5350 -0.3116
 5467SOL     OW28033   3.508   2.972   6.118  0.3519  0.1397  0.8413
 5467SOL    HW128034   3.428   2.969   6.066  0.0589  3.2383  1.1145
 5467SOL    HW228035   3.553   2.895   6.084  0.5079  0.8942 -0.6425
 5468SOL     OW28036   1.767   2.928   0.278  0.2845  0.2289 -0.0182
 5468SOL    HW128037   1.735   2.881   0.355  0.9416 -0.6488 -0.2807
 5468SOL    HW228038   1.699   2.906   0.215 -0.6455 -1.7543  1.6882
 5469SOL     OW28039   4.164   3.440   6.425  0.1389  0.3994 -0.6170
 5469SOL    HW128040   4.187   3.507   6.489 -1.4837  0.7521 -0.3934
 5469SOL    HW228041   4.246   3.393   6.409  0.5972  0.6067  1.1223
 5470SOL     OW28042   0.990   2.567  17.344  0.8077  0.0411 -0.2093
 5470SOL    HW128043   1.080   2.562  17.315  1.4380  0.3487  1.6438
 5470SOL    HW228044   0.994   2.629  17.418 -1.7715 -0.9429  0.7566
 5471SOL     OW28045   4.006   1.481   1.726  0.5942 -0.4564 -0.4071
 5471SOL    HW128046   3.977   1.419   1.658  0.5656 -0.0025 -0.8089
 5471SOL    HW228047   4.091   1.445   1.749  0.6829  1.1183  1.6677
 5472SOL     OW28048   0.215   2.451   6.350 -0.1394  0.3686  0.2780
 5472SOL    HW128049   0.267   2.396   6.409 -0.4516 -0.9520 -0.6750
 5472SOL    HW228050   0.276   2.514   6.312 -0.8068  0.1003 -1.2586
 5473SOL     OW28051   1.453   4.331   9.152 -0.3515  0.9545  0.2775
 5473SOL    HW128052   1.458   4.274   9.229 -1.2214 -1.0868 -1.1789
 5473SOL    HW228053   1.492   4.273   9.087  1.6975  0.9142  1.5278
 5474SOL     OW28054   0.130   4.722   5.942  0.0164 -0.0062  0.0949
 5474SOL    HW128055   0.140   0.003   6.036  4.6905 -2.3795 -0.0047
 5474SOL    HW228056   0.085   4.637   5.947 -3.4476  1.5391 -4.4491
 5475SOL     OW28057   4.642   4.338  11.574  0.2338  0.1681 -0.0417
 5475SOL    HW128058   4.587   4.263  11.597 -1.9297  1.9035  0.4150
 5475SOL    HW228059   4.619   4.328  11.482  1.9591  1.1975 -0.5977
 5476SOL     OW28060   3.019   0.337   9.527  0.1835 -0.4394 -0.2576
 5476SOL    HW128061   2.943   0.394   9.516  0.6880  0.2524 -0.1862
 5476SOL    HW228062   3.090   0.402   9.521  1.3116 -1.5399  1.3181
 5477SOL     OW28063   0.575   1.841  10.046  0.0050  0.2448 -0.4329
 5477SOL    HW128064   0.557   1.762  10.097 -0.2541  0.5886  0.0035
 5477SOL    HW228065   0.513   1.904  10.083 -0.0683 -0.1666  0.1422
 5478SOL     OW28066   1.684   2.236   6.337 -0.7071 -0.5259  0.4690
 5478SOL    HW128067   1.689   2.203   6.247  2.5332  0.5550  0.2444
 5478SOL    HW228068   1.676   2.155   6.389 -4.7961 -1.4049 -1.5562
 5479SOL     OW28069   3.364   3.230   5.815 -0.2682  0.0780 -0.4085
 5479SOL    HW128070   3.304   3.273   5.755  1.2760 -0.5808 -2.4289
 5479SOL    HW228071   3.449   3.259   5.781 -0.3229  2.3724  1.3564
 5480SOL     OW28072   0.464   2.489   4.662  0.9726 -0.0527 -0.3105
 5480SOL    HW128073   0.509   2.561   4.618  0.9598  0.1640  0.0285
 5480SOL    HW228074   0.375   2.495   4.627  0.0341 -1.2399  1.8169
 5481SOL     OW28075   2.996   1.032   4.663  0.1268 -0.2440 -0.3270
 5481SOL    HW128076   2.989   0.986   4.746 -1.3696 -1.1499 -0.9621
 5481SOL    HW228077   3.089   1.047   4.643  0.4134 -1.3476  0.1744
 5482SOL     OW28078   0.186   2.181  13.395 -0.1367  0.5674  0.4369
 5482SOL    HW128079   0.136   2.198  13.474  0.7126 -0.2953  1.1571
 5482SOL    HW228080   0.204   2.274  13.377  0.1243  0.0593 -2.0225
 5483SOL     OW28081   4.139   1.841  13.550 -0.1135 -0.0001 -0.0497
 5483SOL    HW128082   4.232   1.832  13.532 -0.1110 -0.2794  0.0952
 5483SOL    HW228083   4.146   1.898  13.627 -2.1588 -0.1633  0.2631
 5484SOL     OW28084   2.585   1.008   3.667 -0.3408 -0.1045  0.1206
 5484SOL    HW128085   2.619   1.010   3.756  2.0435 -1.6067 -0.7703
 5484SOL    HW228086   2.652   1.047   3.611  0.2778  2.4302  2.5963
 5485SOL     OW28087   3.682   1.482   5.272  0.0120 -0.9812 -0.0195
 5485SOL    HW128088   3.767   1.516   5.243 -0.0430 -0.9675 -0.1657
 5485SOL    HW228089   3.639   1.484   5.187  0.5680  2.0092 -0.2212
 5486SOL     OW28090   2.953   1.931  13.089  0.2720  0.0686  0.1731
 5486SOL    HW128091   3.000   1.906  13.169 -0.2108  1.1260  0.7925
 5486SOL    HW228092   3.003   2.006  13.055 -1.3789  0.5684 -1.1153
 5487SOL     OW28093   3.214   1.591  10.270 -0.6516  0.1907  0.1534
 5487SOL    HW128094   3.204   1.650  10.345 -1.4104  0.2009  0.0383
 5487SOL    HW228095   3.298   1.609  10.227 -0.4874  2.0994  1.2690
 5488SOL     OW28096   1.467   1.145   5.125 -0.5154 -0.3609  0.6968
 5488SOL    HW128097   1.402   1.206   5.091  0.8213  1.7391  1.9236
 5488SOL    HW228098   1.419   1.066   5.150  1.3892 -1.4164  1.0408
 5489SOL     OW28099   0.512   2.230  17.675 -0.1080  0.7361  0.1757
 5489SOL    HW128100   0.426   2.258  17.708 -0.2790  1.2779 -0.7337
 5489SOL    HW228101   0.577   2.287  17.714  1.7355 -2.0106  1.1326
 5490SOL     OW28102   2.273   4.438   4.201 -0.2775 -0.1709  0.0712
 5490SOL    HW128103   2.290   4.525   4.237 -0.6497 -0.0480 -0.0542
 5490SOL    HW228104   2.347   4.396   4.246 -1.2535  0.2066  2.0413
 5491SOL     OW28105   0.224   4.209  15.419  0.1042 -0.1642 -0.4056
 5491SOL    HW128106   0.136   4.240  15.443 -0.0426 -1.6072  0.9297
 5491SOL    HW228107   0.234   4.275  15.350 -1.0346  1.8396  1.3282
 5492SOL     OW28108   2.260   1.138   7.579  0.3022  0.0567 -0.1895
 5492SOL    HW128109   2.336   1.190   7.554  2.1612 -2.5546  0.0396
 5492SOL    HW228110   2.298   1.079   7.643 -0.6583  0.8807  1.1542
 5493SOL     OW28111   2.938   0.342   7.195 -0.2849 -0.2840  0.3038
 5493SOL    HW128112   2.854   0.311   7.230 -0.3723 -4.5759 -3.6228
 5493SOL    HW228113   2.902   0.397   7.125  0.6217  0.4723  0.4285
 5494SOL     OW28114   3.731   0.043   2.558 -0.5668 -0.0944  0.2659
 5494SOL    HW128115   3.722   4.719   2.633 -0.2894 -1.0239 -0.4259
 5494SOL    HW228116   3.801   4.734   2.509  0.6341 -0.1064  2.0138
 5495SOL     OW28117   1.399   2.572   4.656 -0.2339 -0.0661  0.0183
 5495SOL    HW128118   1.332   2.569   4.588  0.0566 -2.1566 -0.1669
 5495SOL    HW228119   1.447   2.490   4.644  0.0717 -0.1801  1.9844
 5496SOL     OW28120   0.539   1.959   1.853  0.2899 -0.0093  0.6069
 5496SOL    HW128121   0.586   2.026   1.901 -0.1796  1.8239 -1.5167
 5496SOL    HW228122   0.456   2.006   1.843 -0.1511 -1.2402 -1.5177
 5497SOL     OW28123   1.389   3.051  12.173 -0.8502 -0.6257 -0.8515
 5497SOL    HW128124   1.479   3.068  12.202 -0.9114 -2.0358  0.1428
 5497SOL    HW228125   1.406   2.986  12.105 -1.3855 -0.6258 -0.9846
 5498SOL     OW28126   4.081   4.264   9.319  0.2329  0.2529  0.3654
 5498SOL    HW128127   4.133   4.339   9.292 -1.8095  1.7206  0.4712
 5498SOL    HW228128   4.034   4.303   9.393  0.0592  1.1653 -0.2304
 5499SOL     OW28129   4.347   0.635   8.469  0.2198  0.1961 -0.8971
 5499SOL    HW128130   4.276   0.672   8.415 -0.1263  0.4542 -0.2690
 5499SOL    HW228131   4.317   0.545   8.453 -0.3253  0.1794  0.2600
 5500SOL     OW28132   1.240   3.524   6.035 -0.0104 -0.0948 -0.5671
 5500SOL    HW128133   1.278   3.443   6.069  2.6706  1.3528 -0.0327
 5500SOL    HW228134   1.286   3.532   5.951 -0.4003  1.8856 -0.5872
 5501SOL     OW28135   3.552   0.715  13.730 -0.1377  0.0498  0.0575
 5501SOL    HW128136   3.559   0.703  13.824  1.0822  1.0463  0.0971
 5501SOL    HW228137   3.565   0.809  13.718  0.3112  0.2275  1.9501
 5502SOL     OW28138   1.261   0.190   1.927  0.1768 -0.3662  0.2630
 5502SOL    HW128139   1.198   0.250   1.966  0.7943 -0.3080  1.1840
 5502SOL    HW228140   1.239   0.211   1.837  1.0870 -1.0564 -0.1237
 5503SOL     OW28141   3.477   2.102  16.961  0.3819 -0.2480  0.7701
 5503SOL    HW128142   3.430   2.160  17.021  2.6346 -0.1052  2.4018
 5503SOL    HW228143   3.454   2.142  16.877  1.4151  1.7670  1.4444
 5504SOL     OW28144   4.333   4.333   3.272  0.0873  0.0920  0.5582
 5504SOL    HW128145   4.346   4.362   3.363  0.5977 -0.9478  0.8169
 5504SOL    HW228146   4.261   4.386   3.238  0.3854  0.0308 -0.1486
 5505SOL     OW28147   2.007   0.545   5.826 -0.7023 -0.0740  0.2628
 5505SOL    HW128148   1.972   0.456   5.816 -1.7636  0.6775 -2.6252
 5505SOL    HW228149   1.983   0.562   5.917  3.3908  1.8716  1.0010
 5506SOL     OW28150   2.523   2.907  12.970  0.2092 -0.7441  0.6067
 5506SOL    HW128151   2.596   2.950  12.926 -2.0254 -0.1618 -2.6070
 5506SOL    HW228152   2.569   2.884  13.051  2.1515  0.5389 -0.1382
 5507SOL     OW28153   0.052   0.437   4.401 -0.1301  0.1730  0.3018
 5507SOL    HW128154   0.053   0.341   4.398 -2.6093  0.1274  0.9634
 5507SOL    HW228155   4.694   0.460   4.408 -0.1569  0.8673 -2.2995
 5508SOL     OW28156   2.925   2.717   5.649  0.0972 -0.2240  0.2888
 5508SOL    HW128157   2.877   2.799   5.637  0.7969 -0.1398 -2.0231
 5508SOL    HW228158   2.991   2.741   5.714  1.3497 -0.8142 -0.7786
 5509SOL     OW28159   2.751   0.216   7.387  0.1399 -0.0100 -0.8455
 5509SOL    HW128160   2.720   0.140   7.338  1.0184 -0.3234 -0.9155
 5509SOL    HW228161   2.711   0.206   7.474 -1.2067  0.8473 -1.3710
 5510SOL     OW28162   2.669   0.158  10.752  0.2405  0.4488 -0.6375
 5510SOL    HW128163   2.757   0.120  10.746  0.6754  1.4360 -0.6970
 5510SOL    HW228164   2.683   0.244  10.793 -0.8076  1.4404 -2.3660
 5511SOL     OW28165   2.920   1.662   5.480 -0.8353 -0.8440 -0.7875
 5511SOL    HW128166   2.888   1.695   5.565  0.6305 -1.7654  0.1208
 5511SOL    HW228167   2.855   1.701   5.421  1.1716  3.0061 -0.4837
 5512SOL     OW28168   1.009   1.664   7.124 -0.3020  0.1097 -0.3238
 5512SOL    HW128169   1.083   1.725   7.123  0.9767 -1.3861  1.4915
 5512SOL    HW228170   0.972   1.694   7.207  2.6929  0.2047  0.9747
 5513SOL     OW28171   4.380   0.955   6.273 -0.4623 -0.2067  0.1933
 5513SOL    HW128172   4.456   0.948   6.215 -0.9153 -0.4638 -0.3655
 5513SOL    HW228173   4.401   1.020   6.340  0.4368  0.7233 -1.0059
 5514SOL     OW28174   2.010   1.544  10.497 -0.2966  0.0165 -0.4367
 5514SOL    HW128175   2.064   1.607  10.450  1.2163 -0.2971  0.9021
 5514SOL    HW228176   2.028   1.462  10.453 -0.8180 -1.2370  1.6782
 5515SOL     OW28177   4.272   1.520   3.036  0.0626 -0.0105 -0.0394
 5515SOL    HW128178   4.211   1.592   3.018  0.5898  0.0547 -1.5442
 5515SOL    HW228179   4.217   1.471   3.098 -0.5369  0.0256 -0.5439
 5516SOL     OW28180   2.922   2.077   8.604  0.4937  0.0246  0.3879
 5516SOL    HW128181   2.955   2.166   8.599  1.6189 -0.5458 -2.0708
 5516SOL    HW228182   2.832   2.088   8.637  0.2007  0.6596 -0.6230
 5517SOL     OW28183   3.502   1.319   2.971 -0.1133  0.1680 -0.2073
 5517SOL    HW128184   3.409   1.338   2.957  0.0047  1.9451  1.5205
 5517SOL    HW228185   3.541   1.398   3.008 -2.7417  0.9354  0.9319
 5518SOL     OW28186   4.511   0.171   6.635 -0.1601  0.3901  0.5105
 5518SOL    HW128187   4.568   0.128   6.700 -0.8498 -0.0440  0.8237
 5518SOL    HW228188   4.441   0.209   6.688 -0.2025  0.5466  0.3406
 5519SOL     OW28189   4.617   2.140   5.500 -0.3123 -0.1287  0.2411
 5519SOL    HW128190   4.576   2.095   5.574 -0.4979  1.0867  0.8799
 5519SOL    HW228191   4.709   2.118   5.514  0.3357  2.6984  0.2844
 5520SOL     OW28192   3.316   2.691   7.587 -0.2413  0.1240  0.1625
 5520SOL    HW128193   3.280   2.776   7.613 -1.4880 -0.5832  0.7646
 5520SOL    HW228194   3.411   2.706   7.585 -0.4450  1.4522  0.2751
 5521SOL     OW28195   4.183   3.277  15.510 -0.6545 -0.1050  0.7964
 5521SOL    HW128196   4.102   3.306  15.551 -0.1888  0.3967  1.3684
 5521SOL    HW228197   4.184   3.190  15.550  2.2028  0.0602  1.0831
 5522SOL     OW28198   2.893   2.123   1.840  0.7062 -0.0313 -0.0756
 5522SOL    HW128199   2.861   2.178   1.912  1.1512 -0.9380  0.8187
 5522SOL    HW228200   2.837   2.147   1.766  0.8610 -2.2546 -0.8941
 5523SOL     OW28201   0.518   2.424   1.893  0.0620  0.6340 -0.3570
 5523SOL    HW128202   0.514   2.420   1.798 -1.0719  1.6505 -0.3483
 5523SOL    HW228203   0.521   2.332   1.921 -1.4912  0.9482  0.8672
 5524SOL     OW28204   1.966   1.956   2.780  0.4209  0.2942  0.2850
 5524SOL    HW128205   1.964   1.901   2.702 -1.4507  1.5183 -0.5126
 5524SOL    HW228206   1.914   2.034   2.759 -0.4342 -0.1460  0.7629
 5525SOL     OW28207   3.374   3.876   5.336  0.3850  0.4147  0.6756
 5525SOL    HW128208   3.323   3.930   5.397 -0.6648 -0.4423  0.5458
 5525SOL    HW228209   3.446   3.852   5.394  0.0591 -2.0104  0.0904
 5526SOL     OW28210   2.396   2.278   4.841 -0.1919  0.9584 -0.2701
 5526SOL    HW128211   2.436   2.250   4.923 -1.1903  0.0317 -0.0899
 5526SOL    HW228212   2.332   2.344   4.868  0.8484  1.5501  0.7509
 5527SOL     OW28213   3.566   3.325   4.582 -0.0821 -0.0222  0.3138
 5527SOL    HW128214   3.567   3.369   4.667  2.2821  0.4693  0.0197
 5527SOL    HW228215   3.496   3.262   4.597 -1.5790  1.8567  1.2676
 5528SOL     OW28216   1.073   4.152   5.700 -0.3583 -0.0670 -0.5222
 5528SOL    HW128217   1.071   4.065   5.660  1.3491 -1.1253  1.6411
 5528SOL    HW228218   1.026   4.203   5.635  1.9194  0.8193 -1.4733
 5529SOL     OW28219   2.995   0.566   9.137 -0.0827  0.5722 -0.2020
 5529SOL    HW128220   3.084   0.593   9.160 -0.0362 -1.0568  1.5729
 5529SOL    HW228221   2.972   0.496   9.198  1.7519 -0.8206 -1.1068
 5530SOL     OW28222   1.746   4.372   8.563  0.0063 -0.4122 -0.0654
 5530SOL    HW128223   1.651   4.386   8.566  0.0950  0.5630 -2.1167
 5530SOL    HW228224   1.763   4.304   8.628  1.4045  0.2098  0.2157
 5531SOL     OW28225   1.425   0.457  13.798  0.4431 -0.4897  0.4590
 5531SOL    HW128226   1.517   0.476  13.777  0.0419  0.6928 -0.2036
 5531SOL    HW228227   1.376   0.539  13.790  0.0593 -0.8048 -0.4511
 5532SOL     OW28228   1.618   4.669   6.556 -0.7406  0.3537 -0.0559
 5532SOL    HW128229   1.538   4.673   6.503 -0.9035  0.1071  0.1768
 5532SOL    HW228230   1.601   0.013   6.607 -0.5336  0.9633 -0.9219
 5533SOL     OW28231   4.199   2.349   2.089 -0.6024  0.2826  0.2012
 5533SOL    HW128232   4.231   2.259   2.086  0.7747  0.8891 -3.2584
 5533SOL    HW228233   4.283   2.392   2.101 -0.4558 -0.3563  1.4306
 5534SOL     OW28234   2.048   1.689   8.109  0.2706 -0.9113 -0.1852
 5534SOL    HW128235   2.112   1.682   8.038  1.5389  0.5451  0.8174
 5534SOL    HW228236   2.033   1.783   8.100 -0.5759 -1.0378 -0.1492
 5535SOL     OW28237   0.746   1.184   3.102  0.4828 -0.6072 -0.3035
 5535SOL    HW128238   0.758   1.228   3.018 -1.2277  1.5157  0.5654
 5535SOL    HW228239   0.664   1.219   3.138 -0.6591 -2.2685 -1.2906
 5536SOL     OW28240   4.289   3.917   4.627  1.0369 -0.0562 -0.0594
 5536SOL    HW128241   4.382   3.926   4.650  0.3017  0.8575  2.5878
 5536SOL    HW228242   4.253   3.854   4.689  1.4040 -0.9968 -0.8110
 5537SOL     OW28243   4.198   2.019   1.979 -0.1899  0.2345 -0.0447
 5537SOL    HW128244   4.272   2.001   2.037 -1.2149 -3.0414  0.2373
 5537SOL    HW228245   4.132   1.977   2.034 -0.3832 -0.3548 -0.7243
 5538SOL     OW28246   0.202   1.447   4.569 -0.4975 -0.5986 -0.0832
 5538SOL    HW128247   0.171   1.516   4.510 -1.1010  0.4920  1.5147
 5538SOL    HW228248   0.123   1.394   4.576  0.5412 -1.8480  2.0185
 5539SOL     OW28249   0.726   3.525   7.724  0.0182 -0.1821 -0.7284
 5539SOL    HW128250   0.712   3.474   7.804  0.5320 -2.7158 -2.2412
 5539SOL    HW228251   0.784   3.588   7.768  1.5049 -3.3116  1.8635
 5540SOL     OW28252   4.400   0.617   6.985  0.0522  0.7745 -0.1404
 5540SOL    HW128253   4.477   0.561   6.997 -0.2601  0.3227 -0.2339
 5540SOL    HW228254   4.438   0.697   6.949 -2.1882  1.1088 -1.7331
 5541SOL     OW28255   1.896   0.132   2.540  0.4048  0.0276  0.0984
 5541SOL    HW128256   1.968   0.195   2.544 -1.7995  2.5042  0.9411
 5541SOL    HW228257   1.936   0.049   2.567 -0.1427 -0.8330 -1.6855
 5542SOL     OW28258   2.016   0.095   1.358  0.5999 -0.4239 -0.1334
 5542SOL    HW128259   2.059   0.179   1.348  1.2588 -0.6242  1.0072
 5542SOL    HW228260   1.938   0.120   1.407  0.7635  1.1349 -0.6802
 5543SOL     OW28261   4.495   0.628   3.698  0.0286 -0.1905 -0.2442
 5543SOL    HW128262   4.437   0.682   3.750  0.9483  0.0422  0.5475
 5543SOL    HW228263   4.553   0.583   3.760 -0.2537 -0.7056 -0.3548
 5544SOL     OW28264   3.297   2.285  14.753 -0.0103  0.1026 -0.2971
 5544SOL    HW128265   3.327   2.200  14.783  2.5768  1.1700  0.1123
 5544SOL    HW228266   3.289   2.275  14.658 -1.5426  0.3355 -0.2057
 5545SOL     OW28267   1.763   0.290   6.472 -0.2840 -0.1565 -0.4848
 5545SOL    HW128268   1.711   0.235   6.413 -0.8091 -1.2080  0.9539
 5545SOL    HW228269   1.720   0.298   6.557 -1.3233 -1.3277 -0.8860
 5546SOL     OW28270   4.053   1.313   3.998 -0.3939 -0.5758 -0.0760
 5546SOL    HW128271   3.984   1.336   3.936 -0.4522 -0.1842  0.1314
 5546SOL    HW228272   4.019   1.350   4.080 -2.9108 -1.4881 -0.6931
 5547SOL     OW28273   0.219   3.384   5.967  0.6457 -0.0541  0.0125
 5547SOL    HW128274   0.211   3.409   6.060  3.0240 -2.3893  0.8253
 5547SOL    HW228275   0.134   3.396   5.926  0.4852  1.4520  0.7647
 5548SOL     OW28276   1.119   0.631   0.283 -0.2803  0.6307 -0.4553
 5548SOL    HW128277   1.196   0.680   0.313  1.8668 -2.8469 -0.2124
 5548SOL    HW228278   1.060   0.643   0.357  2.2402 -1.0938  1.8430
 5549SOL     OW28279   1.267   4.352   6.500  0.2972  0.2412  0.5474
 5549SOL    HW128280   1.178   4.333   6.468  0.6579  2.3720 -1.7932
 5549SOL    HW228281   1.260   4.448   6.499  0.1766  0.2235 -1.8553
 5550SOL     OW28282   1.917   0.542   8.851 -0.2190  0.0338 -0.0261
 5550SOL    HW128283   1.920   0.487   8.773  1.5663  0.2376 -0.1128
 5550SOL    HW228284   2.005   0.547   8.888 -1.4713 -3.4427  3.3217
 5551SOL     OW28285   3.312   4.133   7.943  0.4571 -0.3776 -0.4129
 5551SOL    HW128286   3.241   4.142   8.006 -0.2401 -0.4132 -1.1917
 5551SOL    HW228287   3.333   4.040   7.942  0.6006 -0.3406 -1.1311
 5552SOL     OW28288   2.153   1.904   0.352 -0.3259 -0.4253 -0.2457
 5552SOL    HW128289   2.227   1.890   0.293 -1.2031 -1.7102 -1.0341
 5552SOL    HW228290   2.107   1.965   0.294 -0.3476  1.2230  1.4788
 5553SOL     OW28291   0.125   0.921   0.004 -0.0929  0.2936  0.0051
 5553SOL    HW128292   0.083   1.002  17.712 -0.5585  0.0762  0.0644
 5553SOL    HW228293   0.158   0.900  17.655 -1.9836 -0.5100 -0.5178
 5554SOL     OW28294   2.220   1.931   3.714 -0.1921 -0.1317  0.1844
 5554SOL    HW128295   2.274   1.931   3.635  0.7860 -0.5256  0.8490
 5554SOL    HW228296   2.149   1.992   3.696 -1.9286 -1.8872  1.1737
 5555SOL     OW28297   1.402   0.378   8.311 -0.4212 -0.7946  0.2217
 5555SOL    HW128298   1.371   0.441   8.246 -0.3581 -0.6868  0.2970
 5555SOL    HW228299   1.490   0.407   8.334 -1.4345  0.8878  2.0116
 5556SOL     OW28300   0.738   1.468   9.353  0.0215 -0.0490 -0.1258
 5556SOL    HW128301   0.746   1.501   9.442  0.0857 -1.4307  0.3835
 5556SOL    HW228302   0.802   1.522   9.306 -0.1837 -0.6762 -1.1434
 5557SOL     OW28303   3.423   3.020   3.959 -1.1701 -0.2830  0.4593
 5557SOL    HW128304   3.489   3.031   3.890 -0.4344  0.2913  1.2522
 5557SOL    HW228305   3.464   2.950   4.011  0.2169  0.8055  0.8511
 5558SOL     OW28306   4.170   0.470  14.909  0.2332 -0.2947 -0.4449
 5558SOL    HW128307   4.216   0.449  14.990 -1.1870  1.3943  0.7930
 5558SOL    HW228308   4.235   0.449  14.841  1.2927 -1.5396  0.9579
 5559SOL     OW28309   0.350   1.798   5.749  0.1633 -0.3364  0.6368
 5559SOL    HW128310   0.319   1.872   5.801 -0.7160  1.8349 -2.9114
 5559SOL    HW228311   0.274   1.741   5.756  0.2207 -0.4320  0.4735
 5560SOL     OW28312   1.879   0.572   7.067 -0.5290 -0.7264  0.4400
 5560SOL    HW128313   1.843   0.599   7.151 -2.0965 -3.3152  0.6185
 5560SOL    HW228314   1.963   0.617   7.071 -1.3600  0.7845  0.6477
 5561SOL     OW28315   4.379   1.435   4.729  0.5158  0.3573  0.2490
 5561SOL    HW128316   4.452   1.380   4.758  0.7045  0.2875 -0.3680
 5561SOL    HW228317   4.406   1.459   4.641 -0.6600  3.1916  0.6660
 5562SOL     OW28318   4.217   1.675  13.871  0.0375  0.2073 -0.2312
 5562SOL    HW128319   4.269   1.740  13.918 -0.7987 -0.4281  1.5559
 5562SOL    HW228320   4.157   1.733  13.825  1.6835  1.6237 -0.5583
 5563SOL     OW28321   1.285   2.479  12.523 -0.5608  0.1608  0.6397
 5563SOL    HW128322   1.240   2.559  12.498 -0.1703 -0.3093 -1.5895
 5563SOL    HW228323   1.374   2.513  12.531 -0.3385  0.0012 -0.9911
 5564SOL     OW28324   2.806   3.231   2.360  0.4589  0.2852  0.3304
 5564SOL    HW128325   2.856   3.313   2.356  0.7853  0.0292 -0.8470
 5564SOL    HW228326   2.860   3.163   2.319 -1.4684 -0.8659 -0.2819
 5565SOL     OW28327   2.662   2.585  17.638 -0.5506  0.3454  0.7713
 5565SOL    HW128328   2.580   2.612  17.597 -0.3410 -0.7109 -0.3674
 5565SOL    HW228329   2.658   2.618  17.728 -1.0510  1.4338  0.3477
 5566SOL     OW28330   3.603   2.417   5.654  0.1834  0.7914 -0.7189
 5566SOL    HW128331   3.637   2.506   5.642  0.4074  1.0925  1.9714
 5566SOL    HW228332   3.540   2.439   5.723  0.3160 -1.3257  0.0790
 5567SOL     OW28333   2.738   2.224   5.493 -0.1372  0.0146 -0.5547
 5567SOL    HW128334   2.666   2.211   5.553 -0.4180  2.2245 -0.4119
 5567SOL    HW228335   2.811   2.166   5.515 -1.0955 -0.7578  0.5583
 5568SOL     OW28336   1.115   2.452  12.846 -0.5360  0.1872 -0.3864
 5568SOL    HW128337   1.173   2.529  12.849  0.4921 -0.6754  1.9551
 5568SOL    HW228338   1.070   2.471  12.764 -1.9699 -0.0430  0.3533
 5569SOL     OW28339   4.287   3.011  13.951 -0.1910 -0.0608  0.0015
 5569SOL    HW128340   4.203   3.046  13.921 -0.0164  0.3357 -0.0295
 5569SOL    HW228341   4.341   3.030  13.874 -1.5420 -0.3998 -1.0245
 5570SOL     OW28342   2.935   3.871   7.695  0.3461  0.5505  0.1334
 5570SOL    HW128343   2.924   3.780   7.668 -2.7460  1.1412 -0.5663
 5570SOL    HW228344   2.850   3.912   7.680 -0.5734 -0.4083  2.7869
 5571SOL     OW28345   1.283   0.444   5.386 -0.1358 -0.0980  0.5139
 5571SOL    HW128346   1.350   0.437   5.319 -1.6723 -0.2029 -1.0150
 5571SOL    HW228347   1.244   0.356   5.393 -1.0905  0.4731  2.3756
 5572SOL     OW28348   2.880   1.569   9.560  0.4275 -0.2642  0.0195
 5572SOL    HW128349   2.940   1.508   9.604  1.6404  1.7427  1.1499
 5572SOL    HW228350   2.825   1.605   9.630 -0.2812  0.7934 -1.0986
 5573SOL     OW28351   4.626   3.817   8.733 -0.4911  0.0634  0.1152
 5573SOL    HW128352   4.587   3.881   8.673  0.7354  0.3815 -0.3316
 5573SOL    HW228353   4.665   3.886   8.787  2.2109 -2.1708  0.9966
 5574SOL     OW28354   1.903   2.675  11.320  0.2967  0.2117 -0.3159
 5574SOL    HW128355   1.991   2.710  11.304  0.2874  1.5143  2.3682
 5574SOL    HW228356   1.853   2.732  11.262  1.4006  1.0862 -0.4014
 5575SOL     OW28357   3.350   1.994   5.174 -0.1880 -0.1744 -0.6208
 5575SOL    HW128358   3.393   1.910   5.194 -1.1410 -1.1058 -2.4776
 5575SOL    HW228359   3.374   1.997   5.081 -0.7661 -1.5259 -0.8109
 5576SOL     OW28360   1.754   2.395   4.551  0.2791 -0.0070  0.0618
 5576SOL    HW128361   1.679   2.373   4.606 -0.3003 -0.2236 -0.8139
 5576SOL    HW228362   1.715   2.429   4.471 -0.6641 -0.6626  0.2473
 5577SOL     OW28363   3.571   1.018   5.440  0.5828  0.5622 -0.2342
 5577SOL    HW128364   3.553   1.111   5.455 -0.6348  0.0086  1.6552
 5577SOL    HW228365   3.609   0.997   5.525 -0.1088 -0.2685 -0.1416
 5578SOL     OW28366   0.375   2.607   6.195 -0.3725  0.1739 -0.1513
 5578SOL    HW128367   0.468   2.627   6.205 -0.7593 -0.3931  4.2264
 5578SOL    HW228368   0.350   2.681   6.138  0.6439  1.1660  0.7071
 5579SOL     OW28369   2.060   2.420  17.437  0.0121 -0.4803  0.0074
 5579SOL    HW128370   1.978   2.466  17.423  0.2237 -0.3782 -0.8789
 5579SOL    HW228371   2.079   2.394  17.347 -1.1878  1.2454 -0.7264
 5580SOL     OW28372   0.568   3.096   4.761 -0.1024  0.2929 -0.1831
 5580SOL    HW128373   0.523   3.170   4.801 -0.5970  0.4164 -0.9493
 5580SOL    HW228374   0.550   3.116   4.669  0.1239 -1.8972 -0.6924
 5581SOL     OW28375   0.545   4.636   8.686 -0.7680 -0.2556  0.2241
 5581SOL    HW128376   0.460   4.618   8.645  0.7129 -2.4151 -1.8624
 5581SOL    HW228377   0.511   4.637   8.775  0.2639 -0.1572  0.6150
 5582SOL     OW28378   3.407   4.275   7.613 -0.1593  0.2359  0.3402
 5582SOL    HW128379   3.315   4.278   7.638  0.4326 -0.6004  2.5965
 5582SOL    HW228380   3.411   4.183   7.586 -0.0712  0.1171  0.7527
 5583SOL     OW28381   0.971   1.792   6.747  0.0814 -0.0262  0.5820
 5583SOL    HW128382   0.957   1.738   6.824 -1.0431  1.3754  1.3582
 5583SOL    HW228383   0.988   1.721   6.685  0.6613  0.4060  0.2431
 5584SOL     OW28384   2.779   4.183  17.435 -0.4909 -0.4040  0.3670
 5584SOL    HW128385   2.694   4.225  17.449 -0.6844 -1.2967  1.7694
 5584SOL    HW228386   2.758   4.093  17.411  0.3538  0.4061 -3.4197
 5585SOL     OW28387   1.568   0.779  10.804  0.4113  0.4194  0.2130
 5585SOL    HW128388   1.597   0.755  10.892 -0.5782  2.0873  0.9901
 5585SOL    HW228389   1.477   0.798  10.824  0.2791 -0.8316  0.8005
 5586SOL     OW28390   1.288   0.674   4.380 -0.1022  0.2159  0.5551
 5586SOL    HW128391   1.314   0.600   4.325 -0.8118  0.7300 -0.4797
 5586SOL    HW228392   1.199   0.683   4.345 -0.1704  0.3557  0.7607
 5587SOL     OW28393   2.529   3.398   2.137 -0.7980  0.1378  0.2801
 5587SOL    HW128394   2.487   3.479   2.107 -1.7330 -0.4997 -0.1031
 5587SOL    HW228395   2.547   3.348   2.057 -0.9522  0.3623  0.1046
 5588SOL     OW28396   1.930   0.957   6.587 -0.4379 -0.0479 -0.1898
 5588SOL    HW128397   1.983   0.901   6.644  1.0928  1.1806 -0.3991
 5588SOL    HW228398   1.885   0.889   6.537 -1.3744  0.9431 -0.6822
 5589SOL     OW28399   3.045   3.444   5.163  0.2572 -0.4020 -0.2575
 5589SOL    HW128400   3.034   3.515   5.099  2.3767 -0.1350 -0.3302
 5589SOL    HW228401   3.031   3.367   5.108 -0.7903  1.2279 -2.2828
 5590SOL     OW28402   0.592   4.065   7.317  0.0806  0.4005  0.2073
 5590SOL    HW128403   0.625   4.121   7.387  1.1580 -0.7028  0.5675
 5590SOL    HW228404   0.537   3.998   7.357 -0.3729 -0.1210 -1.2661
 5591SOL     OW28405   2.722   2.118   0.825 -0.1081  0.5746 -0.4848
 5591SOL    HW128406   2.776   2.151   0.896  0.0609  0.2319 -0.4541
 5591SOL    HW228407   2.680   2.199   0.796 -0.5138  0.2088 -0.9317
 5592SOL     OW28408   2.167   0.118  10.812  0.0618 -0.3086  0.1618
 5592SOL    HW128409   2.161   0.049  10.745  0.6059  0.8631 -1.0857
 5592SOL    HW228410   2.261   0.115  10.828 -0.1802 -0.9634  1.4429
 5593SOL     OW28411   2.853   0.256   5.449 -0.0268  0.2831  0.2097
 5593SOL    HW128412   2.760   0.242   5.469  0.0458 -0.1201  0.2674
 5593SOL    HW228413   2.888   0.261   5.538  0.1681  0.7096  0.1055
 5594SOL     OW28414   3.217   1.778   9.280 -0.8257  0.1897 -0.1012
 5594SOL    HW128415   3.186   1.751   9.193  2.9052 -3.3080 -0.3286
 5594SOL    HW228416   3.140   1.763   9.334 -0.5179  1.3079  0.6612
 5595SOL     OW28417   3.383   1.091   5.234  0.0085 -0.0521 -0.6942
 5595SOL    HW128418   3.420   1.103   5.322  0.2447  1.1512 -0.9548
 5595SOL    HW228419   3.408   1.179   5.203 -0.1795 -0.3881 -1.8004
 5596SOL     OW28420   1.346   1.275   2.780  0.0688  0.2479  0.0841
 5596SOL    HW128421   1.350   1.355   2.834 -0.3326  0.9738 -0.9699
 5596SOL    HW228422   1.436   1.255   2.754  0.6391  1.6305  0.9606
 5597SOL     OW28423   1.234   3.151   2.220 -0.5188  0.2753  0.0181
 5597SOL    HW128424   1.159   3.106   2.181 -0.5292 -0.0147  0.3733
 5597SOL    HW228425   1.300   3.096   2.177 -0.3076  1.8844 -1.7206
 5598SOL     OW28426   1.737   1.784   1.819  0.4552 -0.4672  0.6897
 5598SOL    HW128427   1.674   1.855   1.832 -1.2813 -1.5021 -1.9673
 5598SOL    HW228428   1.699   1.709   1.865 -3.4566  1.5285  0.6751
 5599SOL     OW28429   2.721   4.065   3.379  0.7560 -0.3197 -0.2186
 5599SOL    HW128430   2.649   4.074   3.315 -1.3919 -0.6281  2.1592
 5599SOL    HW228431   2.711   4.149   3.425  2.7510  0.4719 -1.2490
 5600SOL     OW28432   2.145   4.211   8.097 -0.2729 -0.6687 -0.0251
 5600SOL    HW128433   2.238   4.220   8.076 -0.8670 -1.2907 -2.8898
 5600SOL    HW228434   2.120   4.182   8.009  1.5950  0.7109 -1.0039
 5601SOL     OW28435   2.740   3.336   7.785  0.2514  0.3184 -0.1788
 5601SOL    HW128436   2.742   3.431   7.796 -0.4464  0.4030 -0.7544
 5601SOL    HW228437   2.689   3.335   7.703 -0.6368 -3.7080  0.4088
 5602SOL     OW28438   2.745   0.939   7.411  0.1792  0.1546 -1.0453
 5602SOL    HW128439   2.775   0.926   7.500  0.6296 -1.3976 -1.4264
 5602SOL    HW228440   2.823   0.931   7.356 -1.8952 -2.6267 -3.6107
 5603SOL     OW28441   0.346   1.185   0.088 -0.2530 -0.3773  0.8660
 5603SOL    HW128442   0.395   1.238   0.151 -1.3314 -0.4453  1.7463
 5603SOL    HW228443   0.389   1.202   0.004  0.1189 -1.7566  0.7638
 5604SOL     OW28444   2.204   2.170   4.361  0.0460  0.0356 -0.6667
 5604SOL    HW128445   2.286   2.201   4.323 -0.1318  2.0786  0.6364
 5604SOL    HW228446   2.236   2.164   4.450  0.3646 -1.2963 -0.8815
 5605SOL     OW28447   3.470   3.222   0.073 -0.2795 -0.0501 -0.3802
 5605SOL    HW128448   3.385   3.190   0.103 -0.0349 -0.1313  0.2352
 5605SOL    HW228449   3.456   3.218  17.717 -0.4878 -0.1033 -0.3456
 5606SOL     OW28450   1.418   0.955   9.755 -0.6067  0.1629 -0.4441
 5606SOL    HW128451   1.396   1.011   9.680 -1.0436  0.8779  0.2152
 5606SOL    HW228452   1.342   0.967   9.813  0.2870 -2.4736  1.2398
 5607SOL     OW28453   3.271   3.991  16.185  0.0220  0.2712 -0.6168
 5607SOL    HW128454   3.193   3.968  16.235 -0.5401 -0.9266 -2.0391
 5607SOL    HW228455   3.334   4.005  16.256 -1.6895 -0.6125  1.0718
 5608SOL     OW28456   1.256   1.467  11.504  0.2021 -0.0523 -0.2153
 5608SOL    HW128457   1.255   1.548  11.452 -0.4122  0.2423  0.2548
 5608SOL    HW228458   1.202   1.413  11.446  0.4943 -0.8368  0.2445
 5609SOL     OW28459   2.485   0.679   6.246  0.3755 -0.1610  0.0561
 5609SOL    HW128460   2.554   0.725   6.295  0.7981 -2.5191  1.6817
 5609SOL    HW228461   2.405   0.724   6.271  0.6905 -0.2140  1.1995
 5610SOL     OW28462   3.249   3.324   6.634 -0.0460  0.2552  0.1244
 5610SOL    HW128463   3.316   3.389   6.612 -1.4552  0.8834 -2.3362
 5610SOL    HW228464   3.208   3.359   6.712 -1.9041 -1.5695 -0.0306
 5611SOL     OW28465   3.060   3.153   7.531  0.1873  0.3540  0.0220
 5611SOL    HW128466   3.144   3.166   7.487  0.4645  0.5246  0.6090
 5611SOL    HW228467   2.995   3.201   7.480 -0.0270 -1.2591 -1.2551
 5612SOL     OW28468   3.008   2.500  13.536 -0.5854  0.1365  0.3556
 5612SOL    HW128469   3.001   2.405  13.522  0.4981  0.3619 -1.5994
 5612SOL    HW228470   2.988   2.528  13.447 -2.7422 -1.7684  0.2097
 5613SOL     OW28471   3.502   4.234   0.476 -0.3116  0.6615  0.6250
 5613SOL    HW128472   3.456   4.271   0.400 -3.2417 -0.4923  1.8370
 5613SOL    HW228473   3.437   4.228   0.546 -0.5985 -0.5994  0.2583
 5614SOL     OW28474   2.167   4.675   1.907 -0.5275  0.1120  0.1772
 5614SOL    HW128475   2.127   0.016   1.865  2.8273  1.4688 -0.6271
 5614SOL    HW228476   2.257   4.687   1.876 -0.1139 -4.4918 -0.3838
 5615SOL     OW28477   4.143   4.123   9.952  0.1045 -0.3233 -0.2817
 5615SOL    HW128478   4.109   4.116  10.041  2.1677  2.3705  0.7376
 5615SOL    HW228479   4.137   4.218   9.940  2.1610 -0.3705 -1.6765
 5616SOL     OW28480   1.180   0.173  14.641 -0.0886  0.4336 -0.2879
 5616SOL    HW128481   1.273   0.170  14.666 -0.3114  3.0663  0.9112
 5616SOL    HW228482   1.165   0.263  14.611 -1.1913  0.8207  1.3820
 5617SOL     OW28483   3.218   1.458   6.471 -0.0431 -0.6636  0.0605
 5617SOL    HW128484   3.179   1.426   6.390 -0.7150 -0.4594  0.3076
 5617SOL    HW228485   3.144   1.487   6.524  0.5089  0.8562 -0.0019
 5618SOL     OW28486   0.313   0.622   2.896  0.3171 -0.9782 -0.2045
 5618SOL    HW128487   0.232   0.582   2.863 -0.3408 -0.1339  0.4006
 5618SOL    HW228488   0.307   0.595   2.987 -1.5181 -2.0832 -0.6523
 5619SOL     OW28489   1.570   0.557   6.379 -0.2246 -0.2707  0.4200
 5619SOL    HW128490   1.591   0.617   6.450 -2.6724  0.4260  0.5613
 5619SOL    HW228491   1.502   0.504   6.421  0.8720 -0.8898  1.4149
 5620SOL     OW28492   2.595   2.336   8.534  0.3339  0.4610 -0.2647
 5620SOL    HW128493   2.589   2.285   8.453  0.2669 -1.9968  1.3312
 5620SOL    HW228494   2.514   2.388   8.530 -0.3444 -0.4600  2.0090
 5621SOL     OW28495   1.179   3.683   2.604 -0.3350 -0.3396  0.1297
 5621SOL    HW128496   1.170   3.683   2.699 -0.1511  1.4359  0.1549
 5621SOL    HW228497   1.264   3.720   2.578  0.2803 -0.7549  1.5888
 5622SOL     OW28498   1.156   1.564   1.179  0.2304 -0.1336  0.3435
 5622SOL    HW128499   1.161   1.641   1.236  0.8665 -0.2967  0.5091
 5622SOL    HW228500   1.091   1.511   1.224  1.2225 -1.5709  0.0597
 5623SOL     OW28501   2.761   0.508   6.619 -0.1435 -0.6117  0.5234
 5623SOL    HW128502   2.729   0.566   6.689 -0.6007 -2.7903  2.0992
 5623SOL    HW228503   2.808   0.445   6.672 -1.6781 -1.3354  1.0249
 5624SOL     OW28504   3.795   4.553  10.814  0.1506 -0.2416  0.2850
 5624SOL    HW128505   3.725   4.580  10.875  0.6321  2.1318 -0.2009
 5624SOL    HW228506   3.802   4.637  10.768  0.8940 -1.2997 -1.5160
 5625SOL     OW28507   1.306   0.369   8.585  0.2549  0.1418 -0.2590
 5625SOL    HW128508   1.373   0.316   8.630  0.3232 -0.1859 -0.7525
 5625SOL    HW228509   1.339   0.360   8.496  1.1227  0.1981  0.0532
 5626SOL     OW28510   0.910   4.721   1.629  0.0153 -0.0495 -0.3634
 5626SOL    HW128511   0.995   0.024   1.650  0.3706  0.2980 -2.4077
 5626SOL    HW228512   0.908   4.720   1.533  1.0706 -0.4607 -0.3804
 5627SOL     OW28513   0.600   4.316   9.199 -0.7384  0.3807  0.2227
 5627SOL    HW128514   0.681   4.308   9.251 -0.6791 -1.7145 -0.1925
 5627SOL    HW228515   0.631   4.299   9.110  1.0251 -0.5205  0.9958
 5628SOL     OW28516   2.655   3.959  15.672 -0.0057 -0.0165  0.0186
 5628SOL    HW128517   2.602   3.935  15.748  1.2717  0.9197  1.2320
 5628SOL    HW228518   2.704   3.880  15.649  0.8147 -0.4850  3.2359
 5629SOL     OW28519   1.910   2.088  14.091 -0.2084 -0.9332  0.4033
 5629SOL    HW128520   1.868   2.170  14.064  0.5235 -1.2895 -1.8040
 5629SOL    HW228521   1.951   2.046  14.015 -0.6325 -1.3805  0.4240
 5630SOL     OW28522   3.079   2.410   2.438 -0.4520 -0.0227  0.3755
 5630SOL    HW128523   3.078   2.478   2.370  0.1794 -0.6582 -0.2689
 5630SOL    HW228524   3.134   2.455   2.501 -0.2217  1.2186 -0.7021
 5631SOL     OW28525   4.089   2.669   7.169 -0.2434 -0.3659 -0.5839
 5631SOL    HW128526   4.022   2.733   7.144  1.0074  1.1122 -0.1858
 5631SOL    HW228527   4.076   2.598   7.106  1.2124  0.9534 -2.3730
 5632SOL     OW28528   2.662   1.571   5.198  0.1260  0.1127 -0.2395
 5632SOL    HW128529   2.572   1.598   5.184  0.3033 -0.2418 -1.9557
 5632SOL    HW228530   2.657   1.503   5.266 -0.0824  0.9650  0.5954
 5633SOL     OW28531   3.187   3.836   3.968 -0.0107 -0.0163  0.1038
 5633SOL    HW128532   3.140   3.910   3.930  0.1602 -0.8376 -1.7079
 5633SOL    HW228533   3.242   3.811   3.893  1.2112  1.7502  0.3992
 5634SOL     OW28534   0.577   2.713  11.656 -0.9195 -0.4893 -0.3903
 5634SOL    HW128535   0.608   2.802  11.640  0.8893 -1.0394  0.0448
 5634SOL    HW228536   0.582   2.676  11.568 -2.9156 -0.5171 -0.4994
 5635SOL     OW28537   1.047   4.302   5.119  0.1975 -0.9611  0.5827
 5635SOL    HW128538   1.133   4.336   5.093 -0.2096 -0.5458 -0.2326
 5635SOL    HW228539   1.036   4.227   5.060 -2.6190 -0.6047  0.6564
 5636SOL     OW28540   0.123   3.041   8.463  0.5294  0.2783  0.9043
 5636SOL    HW128541   0.039   3.041   8.417  0.7284 -0.4528  0.5378
 5636SOL    HW228542   0.093   2.988   8.537 -1.1424 -1.1474 -0.7881
 5637SOL     OW28543   0.332   2.726   0.998  0.7340 -0.7397 -0.2524
 5637SOL    HW128544   0.277   2.718   1.075 -0.4450  0.3159 -0.9922
 5637SOL    HW228545   0.299   2.655   0.943  2.1114 -1.2814 -0.3816
 5638SOL     OW28546   3.365   3.551   6.523  0.0890  0.3731 -0.8687
 5638SOL    HW128547   3.346   3.588   6.609  2.0675 -2.0679  0.6112
 5638SOL    HW228548   3.288   3.582   6.475 -0.3524  0.8861  0.1772
 5639SOL     OW28549   0.130   1.947  11.697 -0.4212  0.0692 -0.0320
 5639SOL    HW128550   0.090   2.021  11.650  1.0974  0.3152 -0.9356
 5639SOL    HW228551   0.158   1.997  11.774 -0.9745 -2.5214  1.8308
 5640SOL     OW28552   0.968   3.874   3.092  0.2851 -0.2562  0.0953
 5640SOL    HW128553   1.012   3.943   3.044 -2.0834  0.1376 -1.5148
 5640SOL    HW228554   1.003   3.797   3.047  0.9481  1.0944 -1.6728
 5641SOL     OW28555   1.603   3.337  13.167  0.2028 -0.1902  0.1488
 5641SOL    HW128556   1.611   3.250  13.127  2.1324  1.1603 -2.4265
 5641SOL    HW228557   1.683   3.335  13.219  1.6325  0.1701 -2.0217
 5642SOL     OW28558   1.640   2.347   8.708 -0.0096 -0.5081  0.1398
 5642SOL    HW128559   1.663   2.325   8.798  0.4069  0.4491  0.2632
 5642SOL    HW228560   1.724   2.369   8.668  0.9177  0.2557  2.4922
 5643SOL     OW28561   1.549   2.044   1.378 -1.3208  0.1528  0.0202
 5643SOL    HW128562   1.548   1.951   1.401  0.9173  0.0114 -0.3783
 5643SOL    HW228563   1.486   2.052   1.307 -2.4279  1.1285  1.1216
 5644SOL     OW28564   0.573   2.359  14.230  0.4829  0.6605  0.1429
 5644SOL    HW128565   0.624   2.402  14.162 -1.2484 -0.4255 -1.8832
 5644SOL    HW228566   0.585   2.420  14.302 -1.0555  0.2657  0.7424
 5645SOL     OW28567   1.684   2.143   3.178 -0.3184 -0.3843 -0.2301
 5645SOL    HW128568   1.662   2.052   3.195  2.3846 -0.7686  1.2155
 5645SOL    HW228569   1.763   2.145   3.233  0.2111  1.8131 -1.0672
 5646SOL     OW28570   1.652   1.518  17.107  0.5809  0.2325 -0.3341
 5646SOL    HW128571   1.655   1.524  17.012 -0.7172  0.9816 -0.3293
 5646SOL    HW228572   1.598   1.440  17.120  2.2236 -1.0419 -1.0515
 5647SOL     OW28573   0.754   1.605   4.274 -0.3059 -0.1277  0.1346
 5647SOL    HW128574   0.769   1.646   4.189 -0.8444  0.4296  0.3099
 5647SOL    HW228575   0.660   1.592   4.290 -0.0010 -1.8454  0.5931
 5648SOL     OW28576   1.080   0.366   0.225 -0.2696  0.8007  0.0860
 5648SOL    HW128577   0.995   0.346   0.264 -0.8041 -1.0511 -2.0303
 5648SOL    HW228578   1.067   0.460   0.213 -0.7708  0.8546  1.0924
 5649SOL     OW28579   0.440   2.502   8.022  0.4158  0.5360  0.2112
 5649SOL    HW128580   0.367   2.518   8.082  1.2946  0.6287  1.2544
 5649SOL    HW228581   0.408   2.560   7.952  1.0954  0.6237 -0.0226
 5650SOL     OW28582   1.629   1.159   4.880  0.0201 -0.1434  0.1558
 5650SOL    HW128583   1.604   1.171   4.972 -0.4817  1.1993 -0.1595
 5650SOL    HW228584   1.550   1.128   4.837  1.0153 -0.5499 -1.3817
 5651SOL     OW28585   0.580   4.398   3.200 -0.4077 -0.2073  0.2391
 5651SOL    HW128586   0.502   4.343   3.192 -0.2959 -1.0092  4.6541
 5651SOL    HW228587   0.626   4.342   3.262  1.2463  0.0810 -0.7084
 5652SOL     OW28588   2.907   2.032   1.537 -0.0786  0.3905  0.2713
 5652SOL    HW128589   2.931   2.048   1.629 -1.1750 -0.1132  0.6410
 5652SOL    HW228590   2.823   2.078   1.532 -0.1714  0.1603 -0.1978
 5653SOL     OW28591   3.804   0.033  13.155 -0.1317 -0.0907 -0.3039
 5653SOL    HW128592   3.889   0.012  13.192 -0.1109  0.1722 -0.2020
 5653SOL    HW228593   3.815   4.733  13.066 -1.6457  2.8058 -1.6533
 5654SOL     OW28594   2.334   0.975  17.071 -0.3880  0.2770  0.7562
 5654SOL    HW128595   2.297   1.063  17.079  0.4436  0.7768 -0.9140
 5654SOL    HW228596   2.278   0.926  17.011 -0.0237 -0.5723  1.1027
 5655SOL     OW28597   4.438   3.311  10.373  0.2757 -0.3464  0.4327
 5655SOL    HW128598   4.532   3.305  10.392  0.8585 -2.4220 -2.9864
 5655SOL    HW228599   4.420   3.400  10.402  0.2698  0.2179 -1.3156
 5656SOL     OW28600   3.068   2.622   4.116 -0.2327  0.7118  0.4796
 5656SOL    HW128601   3.143   2.579   4.157  0.1876  1.4151  0.4471
 5656SOL    HW228602   3.103   2.710   4.108  0.5445  0.3900  0.3190
 5657SOL     OW28603   3.690   3.436   7.153 -0.0588 -0.0020 -0.2730
 5657SOL    HW128604   3.675   3.426   7.059  0.5826  0.9853 -0.4837
 5657SOL    HW228605   3.644   3.518   7.168  0.7707  0.4808 -0.3487
 5658SOL     OW28606   3.325   0.457   8.866  0.0079  0.6324  0.4198
 5658SOL    HW128607   3.389   0.395   8.899 -0.9048 -0.8395 -0.5797
 5658SOL    HW228608   3.363   0.497   8.788  0.8675  0.9600  1.0062
 5659SOL     OW28609   0.566   2.861   7.118  0.3929  0.6083  0.3168
 5659SOL    HW128610   0.508   2.871   7.193 -0.0433 -2.7916  0.4341
 5659SOL    HW228611   0.547   2.773   7.087  0.2453  1.1854 -1.2430
 5660SOL     OW28612   3.466   2.308   9.416  0.1467  0.3968 -0.4150
 5660SOL    HW128613   3.376   2.274   9.423  1.1229 -1.8682  1.3729
 5660SOL    HW228614   3.479   2.354   9.499  0.7923 -0.8408  0.1707
 5661SOL     OW28615   2.727   3.169   6.154 -0.4104  0.4983  0.3499
 5661SOL    HW128616   2.694   3.116   6.226 -0.2601 -0.6629 -0.4322
 5661SOL    HW228617   2.673   3.248   6.160 -0.8535  0.2023  0.2441
 5662SOL     OW28618   3.984   2.723   5.376 -0.3771  0.3593  0.3327
 5662SOL    HW128619   4.059   2.690   5.427  0.6696  2.3143  0.0737
 5662SOL    HW228620   3.962   2.641   5.333  0.6266  0.2202  0.0732
 5663SOL     OW28621   0.630   3.525  17.416  0.4494  0.4994  0.3261
 5663SOL    HW128622   0.609   3.605  17.369  0.7732 -1.7016 -3.4978
 5663SOL    HW228623   0.665   3.464  17.351 -1.0363  0.3591 -0.3448
 5664SOL     OW28624   3.442   0.305   9.640  0.1633 -0.0630 -0.1213
 5664SOL    HW128625   3.379   0.245   9.600  0.9841 -2.2337  1.9188
 5664SOL    HW228626   3.450   0.274   9.730  1.1855 -2.6648 -1.1195
 5665SOL     OW28627   2.568   1.673  16.942 -0.1816 -0.1180  0.0732
 5665SOL    HW128628   2.556   1.627  16.859  2.4907  1.6522 -1.2876
 5665SOL    HW228629   2.661   1.659  16.960 -0.1846  0.4474  0.5295
 5666SOL     OW28630   3.903   2.082   3.686  0.6321 -0.4949  0.2698
 5666SOL    HW128631   3.849   2.108   3.612 -1.2349 -2.0251  1.1012
 5666SOL    HW228632   3.994   2.086   3.657 -0.1232 -0.5390 -2.1041
 5667SOL     OW28633   1.330   0.342   4.377  0.0438  0.7611 -0.3300
 5667SOL    HW128634   1.417   0.314   4.348 -0.8620 -1.4588 -0.8957
 5667SOL    HW228635   1.294   0.366   4.291  1.3854 -0.8348 -1.3275
 5668SOL     OW28636   1.961   1.705   4.317 -0.0924  0.1992  0.6121
 5668SOL    HW128637   2.022   1.779   4.313  0.8101 -0.5163  1.1329
 5668SOL    HW228638   2.015   1.631   4.343  0.1783  0.8755  1.9591
 5669SOL     OW28639   2.064   2.779   6.977  0.0938  0.2500  0.1571
 5669SOL    HW128640   1.999   2.847   6.993  0.3887  0.2348  1.4103
 5669SOL    HW228641   2.003   2.706   6.972  2.6938 -1.7419 -2.7084
 5670SOL     OW28642   0.504   3.894   2.728  0.7656  0.0431 -0.9353
 5670SOL    HW128643   0.470   3.964   2.672  1.9238  1.6212  0.3619
 5670SOL    HW228644   0.562   3.941   2.788 -1.7846  1.7744  0.1299
 5671SOL     OW28645   4.191   1.114  14.216 -0.2246 -0.4904 -0.0252
 5671SOL    HW128646   4.248   1.171  14.267  0.3044  0.1685 -1.3589
 5671SOL    HW228647   4.155   1.174  14.151 -0.3249 -0.3142  0.1935
 5672SOL     OW28648   3.671   2.302   6.585 -0.1262  0.2017  0.5918
 5672SOL    HW128649   3.729   2.328   6.656  1.7115  0.6324 -1.0759
 5672SOL    HW228650   3.743   2.298   6.521 -0.0558 -1.0704  0.7470
 5673SOL     OW28651   0.252   3.095   5.872 -0.4476 -0.8527 -0.9690
 5673SOL    HW128652   0.262   3.108   5.777  1.1971  1.5568 -0.4839
 5673SOL    HW228653   0.266   3.184   5.905 -0.0388 -1.0507 -0.6108
 5674SOL     OW28654   4.336   0.033   8.745  0.2767  0.4032 -0.5664
 5674SOL    HW128655   4.377   0.117   8.763  1.8136 -0.5498  0.3727
 5674SOL    HW228656   4.246   0.057   8.721 -0.8447 -2.7898  0.4172
 5675SOL     OW28657   3.350   2.099   3.655 -0.3970 -0.8242 -0.1140
 5675SOL    HW128658   3.284   2.065   3.594  0.6089 -0.3271 -1.4686
 5675SOL    HW228659   3.406   2.023   3.669  1.0497  0.5113  1.3576
 5676SOL     OW28660   0.156   0.688   0.800  0.2872 -0.5913 -0.1513
 5676SOL    HW128661   0.120   0.776   0.787 -0.4150 -0.5754  1.8451
 5676SOL    HW228662   0.148   0.634   0.722  2.0878 -1.5724  0.3425
 5677SOL     OW28663   3.804   4.711  11.291  0.2591 -0.2802 -0.2599
 5677SOL    HW128664   3.793   4.630  11.241 -2.3652 -0.6435  0.9032
 5677SOL    HW228665   3.817   0.044  11.225 -2.3637  1.3125  0.8828
 5678SOL     OW28666   2.253   1.089   5.166  0.8188 -0.1863  0.5411
 5678SOL    HW128667   2.196   1.040   5.226 -1.3626  1.9823  0.2499
 5678SOL    HW228668   2.208   1.048   5.092  0.3513 -1.5976  1.6030
 5679SOL     OW28669   1.747   4.252   0.562  0.4927 -0.3195  0.1264
 5679SOL    HW128670   1.660   4.219   0.541  0.3445  1.4514 -2.1118
 5679SOL    HW228671   1.738   4.346   0.550  2.5422 -0.1060  0.1351
 5680SOL     OW28672   1.695   0.622   9.260  0.1598  0.0000 -0.4353
 5680SOL    HW128673   1.711   0.583   9.346  0.7839  0.5057 -0.3169
 5680SOL    HW228674   1.776   0.673   9.261 -0.7368  1.4465 -0.3420
 5681SOL     OW28675   3.634   0.834   3.944  0.0848 -0.7378 -0.1594
 5681SOL    HW128676   3.642   0.804   3.854 -2.8473  0.3284 -0.7581
 5681SOL    HW228677   3.564   0.782   3.983  0.4619 -0.2968  1.1225
 5682SOL     OW28678   3.891   0.565   6.089 -0.0249  0.5255 -0.0240
 5682SOL    HW128679   3.907   0.475   6.118  1.0924  1.1196  1.2448
 5682SOL    HW228680   3.982   0.590   6.071  0.0807 -2.2022 -3.2302
 5683SOL     OW28681   1.515   4.514   5.304  0.2694 -0.5918  0.0746
 5683SOL    HW128682   1.450   4.523   5.373  0.1551  0.1417 -0.1329
 5683SOL    HW228683   1.587   4.572   5.325  0.1569  0.3992 -2.2306
 5684SOL     OW28684   3.790   1.293   7.879 -0.2381 -0.4150  0.3512
 5684SOL    HW128685   3.771   1.378   7.839  2.8998  1.1528  2.1828
 5684SOL    HW228686   3.719   1.244   7.838 -0.8656 -0.4226  1.4449
 5685SOL     OW28687   0.673   1.453   3.880  0.3916  0.2564 -0.2160
 5685SOL    HW128688   0.736   1.512   3.923  0.6592  0.0246 -0.2896
 5685SOL    HW228689   0.607   1.447   3.949 -0.3181  0.1202 -0.9054
 5686SOL     OW28690   1.070   3.539   5.521  0.3490  0.0539  0.3719
 5686SOL    HW128691   1.097   3.454   5.485  1.6236  1.3721 -1.7531
 5686SOL    HW228692   1.085   3.597   5.446 -3.0302  1.2908  0.6822
 5687SOL     OW28693   0.628   3.442   8.969  0.4120 -0.0586 -0.5839
 5687SOL    HW128694   0.690   3.405   9.033 -0.5136  0.8455  0.8189
 5687SOL    HW228695   0.664   3.420   8.883 -1.6816 -1.0560 -1.1898
 5688SOL     OW28696   3.436   0.787   5.788 -0.0776  0.4863 -0.1288
 5688SOL    HW128697   3.446   0.711   5.845 -0.1324 -1.2530 -2.4410
 5688SOL    HW228698   3.419   0.855   5.854  3.7312  0.1498  1.1602
 5689SOL     OW28699   1.800   3.966   8.600  0.5964  0.6566  0.6647
 5689SOL    HW128700   1.747   4.009   8.532 -0.1228  0.6109  1.1879
 5689SOL    HW228701   1.732   3.902   8.619  0.2592  0.7941 -0.0846
 5690SOL     OW28702   3.083   2.711   4.684 -0.4361 -0.1233  0.5914
 5690SOL    HW128703   3.078   2.626   4.726 -0.4203  0.2117  1.2606
 5690SOL    HW228704   3.074   2.769   4.759 -3.3151 -0.5510  0.5544
 5691SOL     OW28705   3.661   2.490   0.728 -0.0997  0.7012 -0.0826
 5691SOL    HW128706   3.713   2.562   0.693  0.0368  1.7190  2.2215
 5691SOL    HW228707   3.729   2.434   0.767 -0.8052  0.5815  0.9740
 5692SOL     OW28708   1.256   2.627   0.036  0.3076 -0.1993 -0.1252
 5692SOL    HW128709   1.291   2.566   0.101  3.3476  2.9708  1.2352
 5692SOL    HW228710   1.317   2.700   0.045  0.1513  0.3419 -3.3939
 5693SOL     OW28711   4.607   0.718   6.465  0.3373 -0.1208 -0.1740
 5693SOL    HW128712   4.658   0.650   6.509  2.2280  1.5718  0.2508
 5693SOL    HW228713   4.657   0.797   6.483  3.1688 -2.4765  2.2926
 5694SOL     OW28714   4.703   2.988  16.973  0.2623  0.6410 -0.5771
 5694SOL    HW128715   4.713   3.025  17.061  0.6421  1.4917 -0.9869
 5694SOL    HW228716   4.687   2.897  17.000 -0.6780  0.2136 -2.5487
 5695SOL     OW28717   2.170   1.370   0.659  0.2942  0.7026  0.0254
 5695SOL    HW128718   2.172   1.335   0.569  0.5532  2.5579 -0.6874
 5695SOL    HW228719   2.242   1.310   0.683 -0.9322 -1.1444 -0.8770
 5696SOL     OW28720   4.594   1.045  11.281  0.0428 -0.6630  0.0193
 5696SOL    HW128721   4.503   1.017  11.270 -0.5442  1.2037  0.2140
 5696SOL    HW228722   4.589   1.140  11.267 -0.0976 -0.6416  0.2253
 5697SOL     OW28723   1.097   4.161   8.716  0.2916  0.3566 -0.1222
 5697SOL    HW128724   1.004   4.144   8.696  0.7400  0.5701 -2.4595
 5697SOL    HW228725   1.097   4.145   8.810 -1.1603  0.3888 -0.1089
 5698SOL     OW28726   2.375   2.984  17.413  0.0952 -0.2722 -0.0642
 5698SOL    HW128727   2.460   2.967  17.373  0.5772  0.3031  0.7368
 5698SOL    HW228728   2.397   3.054  17.474 -1.3724  1.0247 -1.0022
 5699SOL     OW28729   4.373   3.261   2.390 -0.6720 -0.2996 -0.6298
 5699SOL    HW128730   4.391   3.179   2.345  1.1959 -0.7318  0.9188
 5699SOL    HW228731   4.459   3.285   2.426 -0.4261 -0.1839 -1.3002
 5700SOL     OW28732   1.413   2.539   2.580 -0.4256 -0.1385  0.0602
 5700SOL    HW128733   1.431   2.530   2.674 -1.6279  0.8258  0.3703
 5700SOL    HW228734   1.495   2.500   2.550  0.4191  0.5213  1.4792
 5701SOL     OW28735   2.792   1.714   3.567  0.1998 -0.0360  0.3452
 5701SOL    HW128736   2.707   1.669   3.571  0.0491  0.2992  0.9040
 5701SOL    HW228737   2.845   1.674   3.636 -0.1903 -1.5727 -0.2427
 5702SOL     OW28738   3.138   2.338   3.384  0.6348 -0.3622 -0.5033
 5702SOL    HW128739   3.159   2.324   3.292 -0.6209  0.7276 -0.9476
 5702SOL    HW228740   3.061   2.282   3.395 -0.7443  1.9720  1.6409
 5703SOL     OW28741   2.104   4.368  14.814 -0.0345 -0.0668 -0.5945
 5703SOL    HW128742   2.195   4.363  14.786 -0.7178  1.3680 -3.0574
 5703SOL    HW228743   2.048   4.372  14.736  0.1880  1.7737 -0.6712
 5704SOL     OW28744   1.092   2.707  10.505  0.6250  0.0711 -0.0299
 5704SOL    HW128745   1.165   2.735  10.561 -0.4169  0.2899  1.2263
 5704SOL    HW228746   1.147   2.722  10.429  0.7941 -1.9722 -0.3015
 5705SOL     OW28747   0.357   0.950  11.263  0.3232  0.2875  0.1235
 5705SOL    HW128748   0.263   0.941  11.274  0.2678 -0.2285 -0.8046
 5705SOL    HW228749   0.359   0.944  11.168 -1.5807 -0.7781  0.1778
 5706SOL     OW28750   1.825   4.184   2.475 -0.0016 -0.0394 -0.1710
 5706SOL    HW128751   1.790   4.161   2.561  1.2048 -0.5336  0.1837
 5706SOL    HW228752   1.756   4.152   2.416  0.0162 -0.0091 -0.2087
 5707SOL     OW28753   0.936   1.481   6.413 -0.0091 -0.2011  0.8369
 5707SOL    HW128754   0.932   1.521   6.326  0.1216 -0.2351  0.8145
 5707SOL    HW228755   0.905   1.393   6.392 -2.9677  0.9209  0.4449
 5708SOL     OW28756   2.339   2.184   4.606  0.1590 -0.2727  0.1069
 5708SOL    HW128757   2.331   2.209   4.698 -1.3271 -0.1806 -0.0538
 5708SOL    HW228758   2.405   2.116   4.615  1.0275  0.8872  2.4655
 5709SOL     OW28759   2.932   4.682   6.756  0.2374  0.4466 -0.0083
 5709SOL    HW128760   2.940   0.012   6.686  0.5030  0.2436 -0.1698
 5709SOL    HW228761   2.934   4.601   6.704  2.8259 -0.7693  1.9829
 5710SOL     OW28762   2.762   1.036   1.630 -0.8765 -0.2527 -0.2759
 5710SOL    HW128763   2.731   1.111   1.580  0.5990  0.8620  0.4915
 5710SOL    HW228764   2.752   0.969   1.563  1.5971 -1.5969  0.6940
 5711SOL     OW28765   1.375   0.541   6.678  0.5457 -0.2961  0.2133
 5711SOL    HW128766   1.366   0.456   6.634 -2.3319  1.8805 -3.3225
 5711SOL    HW228767   1.290   0.581   6.660  0.6440 -0.8650 -1.4247
 5712SOL     OW28768   0.904   0.865   7.044 -0.2800 -0.4150  0.0336
 5712SOL    HW128769   0.999   0.881   7.044 -0.2395 -0.6203 -2.0607
 5712SOL    HW228770   0.906   0.784   7.095  0.4787 -1.4626 -1.6511
 5713SOL     OW28771   0.804   2.729   9.336  0.0211 -0.2429 -0.7840
 5713SOL    HW128772   0.731   2.698   9.283  1.0132 -1.6329 -1.3307
 5713SOL    HW228773   0.878   2.718   9.277 -0.4191 -1.1493 -1.1716
 5714SOL     OW28774   3.530   4.199   5.602 -0.2066  0.1057 -0.2660
 5714SOL    HW128775   3.572   4.208   5.687  0.1374 -0.6955 -0.3574
 5714SOL    HW228776   3.496   4.285   5.576  0.7368  1.1062  1.8571
 5715SOL     OW28777   3.493   3.626  15.084 -0.2333  0.5231  0.3063
 5715SOL    HW128778   3.460   3.715  15.074 -1.0697  0.0484 -1.2563
 5715SOL    HW228779   3.551   3.635  15.008  2.0314  0.7606  2.0541
 5716SOL     OW28780   3.000   2.293   7.837  0.1727  0.2530 -0.0021
 5716SOL    HW128781   2.945   2.363   7.802  1.7296  1.2216 -0.5205
 5716SOL    HW228782   3.039   2.261   7.756 -1.5815 -0.9412 -0.3585
 5717SOL     OW28783   4.467   3.963  17.664 -0.4051 -0.1845  0.5712
 5717SOL    HW128784   4.504   3.928   0.006  1.3203  2.5235  0.9774
 5717SOL    HW228785   4.517   3.910  17.602 -0.5185 -0.4062  0.6688
 5718SOL     OW28786   2.038   3.811   9.203 -0.0647 -0.0513 -0.2680
 5718SOL    HW128787   1.987   3.759   9.265  0.9942 -1.8900 -0.9204
 5718SOL    HW228788   2.104   3.747   9.175 -0.5233 -1.5317  1.9613
 5719SOL     OW28789   0.699   2.364  10.038  0.2371  0.3161 -0.1313
 5719SOL    HW128790   0.671   2.277  10.067  0.6024  0.2191 -0.0707
 5719SOL    HW228791   0.619   2.398   9.997  1.0381  0.8894 -1.2179
 5720SOL     OW28792   4.587   4.546   2.427 -0.3883 -0.2689  0.2276
 5720SOL    HW128793   4.574   4.627   2.378  1.0889 -1.6717 -2.4531
 5720SOL    HW228794   4.680   4.527   2.430 -0.6663 -1.4808  1.4140
 5721SOL     OW28795   3.202   2.540  12.349 -0.4510 -0.1505  0.1255
 5721SOL    HW128796   3.144   2.616  12.337 -1.3177 -0.7581  0.4780
 5721SOL    HW228797   3.237   2.519  12.263  0.0497  1.1842 -0.0033
 5722SOL     OW28798   0.759   1.291   9.677 -0.6876  0.2190  0.6787
 5722SOL    HW128799   0.808   1.368   9.704  1.1960 -0.5046 -0.6787
 5722SOL    HW228800   0.703   1.316   9.604  2.4930 -0.1895 -1.8937
 5723SOL     OW28801   3.545   0.819  12.386 -0.2863  0.3117 -0.5452
 5723SOL    HW128802   3.527   0.745  12.327  1.5579  0.4485 -1.2921
 5723SOL    HW228803   3.631   0.853  12.361  0.3224 -0.5490  0.3489
 5724SOL     OW28804   3.476   4.534   3.894  0.6844  0.0885  0.9165
 5724SOL    HW128805   3.435   4.448   3.884 -0.4046  0.4573  2.1530
 5724SOL    HW228806   3.498   4.534   3.987 -0.3059  2.1803  1.1595
 5725SOL     OW28807   0.965   4.453  11.582  0.3571  0.5827 -0.1086
 5725SOL    HW128808   0.999   4.501  11.658  1.0906  1.6996 -1.1516
 5725SOL    HW228809   1.024   4.481  11.512 -1.2232 -1.8281 -2.3735
 5726SOL     OW28810   3.508   1.878   3.315  0.8731  0.0453  0.0859
 5726SOL    HW128811   3.592   1.842   3.287 -0.2024 -4.0168  1.9584
 5726SOL    HW228812   3.460   1.891   3.234  0.6993  1.6624  0.4636
 5727SOL     OW28813   1.162   4.360   8.532 -0.1106  0.1243  0.1905
 5727SOL    HW128814   1.129   4.297   8.596 -0.3729 -1.1354 -1.1666
 5727SOL    HW228815   1.168   4.442   8.581 -1.0339 -0.8556  1.9168
 5728SOL     OW28816   4.083   1.574  14.204 -0.2651 -0.4403  0.1475
 5728SOL    HW128817   4.170   1.540  14.189  0.8002  2.2609  0.1388
 5728SOL    HW228818   4.073   1.551  14.297 -2.7585 -0.8419 -0.2229
 5729SOL     OW28819   4.091   3.233  15.846  0.1778 -0.2850 -0.2715
 5729SOL    HW128820   4.109   3.172  15.774  2.7139 -0.3595  0.3998
 5729SOL    HW228821   4.048   3.295  15.787  0.2412  0.4308  0.4311
 5730SOL     OW28822   0.885   3.550   2.587 -0.0311  0.0499  0.5050
 5730SOL    HW128823   0.872   3.518   2.498 -0.5510  0.7230  0.3396
 5730SOL    HW228824   0.925   3.478   2.635 -1.4051  0.0124  1.5963
 5731SOL     OW28825   3.888   3.492  10.792 -0.9082  0.2766 -0.1524
 5731SOL    HW128826   3.915   3.400  10.789  0.3334  0.5497  2.3592
 5731SOL    HW228827   3.887   3.515  10.700 -0.0812  0.8897 -0.0112
 5732SOL     OW28828   1.671   2.415   2.522 -0.2003 -0.0276 -0.0969
 5732SOL    HW128829   1.731   2.393   2.450  0.3218 -0.5496  0.4997
 5732SOL    HW228830   1.731   2.458   2.583  1.6690 -1.2932 -1.0396
 5733SOL     OW28831   4.076   1.078   9.550  0.3081  0.7093 -0.3081
 5733SOL    HW128832   4.073   1.135   9.473 -0.7388 -0.3566 -1.0691
 5733SOL    HW228833   4.166   1.092   9.578 -0.0666 -2.4511  2.4305
 5734SOL     OW28834   0.714   3.777   4.878 -0.3080 -0.1248  0.2434
 5734SOL    HW128835   0.763   3.784   4.796  0.7552  1.0063  0.9792
 5734SOL    HW228836   0.673   3.691   4.871 -1.1801  0.2432  0.8152
 5735SOL     OW28837   1.060   1.646   5.546  0.4440 -0.4906  0.1965
 5735SOL    HW128838   1.097   1.564   5.577 -0.2679 -1.1877 -0.7920
 5735SOL    HW228839   1.100   1.708   5.606 -0.4444 -3.0147  3.3563
 5736SOL     OW28840   3.536   4.698   4.995  0.2414 -0.8136 -0.3866
 5736SOL    HW128841   3.467   4.680   5.058  2.6523 -1.1763  2.1637
 5736SOL    HW228842   3.521   0.057   4.983  0.5007 -0.6208  0.7317
 5737SOL     OW28843   3.858   1.553   4.051 -0.1800 -0.2628 -0.4663
 5737SOL    HW128844   3.925   1.621   4.055  0.0946 -0.6992  2.5941
 5737SOL    HW228845   3.820   1.568   3.964 -3.2850 -1.1608  0.7031
 5738SOL     OW28846   4.451   3.824  10.003  0.0087 -0.2681  0.0830
 5738SOL    HW128847   4.507   3.751  10.029  2.4373  1.2755 -0.8984
 5738SOL    HW228848   4.423   3.865  10.085  0.8564 -1.6510  1.0809
 5739SOL     OW28849   1.018   2.833   3.264 -0.1144  0.4295 -0.0161
 5739SOL    HW128850   0.924   2.829   3.283 -0.0572 -0.1107  0.1511
 5739SOL    HW228851   1.057   2.807   3.348 -0.6397 -0.6158 -0.0933
 5740SOL     OW28852   2.533   2.859  11.072 -1.1647  0.1777 -0.0937
 5740SOL    HW128853   2.545   2.784  11.129  1.1291  1.0197  0.4990
 5740SOL    HW228854   2.563   2.929  11.130 -0.2354 -1.1471  1.0146
 5741SOL     OW28855   1.338   4.714  12.131  0.3597 -0.1427  0.2501
 5741SOL    HW128856   1.405   4.647  12.120  0.0430 -0.3839 -0.2157
 5741SOL    HW228857   1.383   0.064  12.133 -3.3225  1.7919  1.4876
 5742SOL     OW28858   0.995   1.560  13.250 -0.1568  0.2853 -0.5680
 5742SOL    HW128859   0.906   1.527  13.234 -0.1394  0.4158 -0.9480
 5742SOL    HW228860   1.001   1.551  13.345  0.0234  0.3911 -0.5681
 5743SOL     OW28861   1.400   0.947  17.153 -0.2566 -0.2103  0.0881
 5743SOL    HW128862   1.399   0.853  17.172  1.3799  0.0528  1.4982
 5743SOL    HW228863   1.469   0.945  17.086  0.2137  1.1238  0.5434
 5744SOL     OW28864   2.740   2.687   9.836 -0.1224  0.2884 -0.0093
 5744SOL    HW128865   2.797   2.755   9.800  0.1467 -0.2112 -0.5473
 5744SOL    HW228866   2.689   2.732   9.903  0.4506  1.5367 -0.4054
 5745SOL     OW28867   1.707   2.446   4.844  0.0222 -0.7553 -0.1077
 5745SOL    HW128868   1.676   2.453   4.935 -0.6266  0.9223 -0.4501
 5745SOL    HW228869   1.708   2.540   4.824 -1.2194 -0.5825  0.6399
 5746SOL     OW28870   2.369   0.763  13.037 -0.2208  0.2810  0.2968
 5746SOL    HW128871   2.349   0.795  12.950 -0.0649  1.6131  0.7556
 5746SOL    HW228872   2.392   0.840  13.088  3.4330 -0.3271 -0.4163
 5747SOL     OW28873   3.549   4.547   5.578 -0.3487 -0.2845 -0.0095
 5747SOL    HW128874   3.576   4.626   5.531 -3.0061 -1.2523 -3.1422
 5747SOL    HW228875   3.539   4.493   5.500 -0.3708 -0.5749  0.1946
 5748SOL     OW28876   4.583   0.979   0.106  0.1647  0.4445  0.6109
 5748SOL    HW128877   4.656   0.943   0.156 -1.5468 -3.0881  0.5285
 5748SOL    HW228878   4.576   0.929   0.025  1.0143  0.3938  0.5741
 5749SOL     OW28879   1.630   2.346   5.279  0.2399  0.5366 -0.6307
 5749SOL    HW128880   1.547   2.327   5.324 -0.0450  1.4999 -0.7640
 5749SOL    HW228881   1.676   2.356   5.362  0.3443  0.6936 -0.7088
 5750SOL     OW28882   3.649   3.099   6.315  0.3773 -0.0142  0.3529
 5750SOL    HW128883   3.596   3.178   6.328  2.1802  1.1385  0.5423
 5750SOL    HW228884   3.591   3.046   6.259  0.3489 -1.0285  1.3193
 5751SOL     OW28885   0.088   0.481   2.531 -0.2632 -0.1256  0.0073
 5751SOL    HW128886   0.161   0.503   2.473 -0.3562 -0.4424 -0.2291
 5751SOL    HW228887   0.129   0.416   2.588  0.4822  0.7557  0.4945
 5752SOL     OW28888   4.559   3.084  10.920  0.2993  0.3116  0.5674
 5752SOL    HW128889   4.582   3.159  10.975  1.8161 -0.7197  1.3608
 5752SOL    HW228890   4.600   3.017  10.974  0.7369 -2.2298 -2.9259
 5753SOL     OW28891   1.858   1.060   7.884 -0.0678 -0.6704  0.6050
 5753SOL    HW128892   1.919   1.125   7.848  0.5889 -2.3435 -1.2923
 5753SOL    HW228893   1.798   1.122   7.925 -0.8784 -1.4641  0.6080
 5754SOL     OW28894   4.014   3.732   9.488  0.3211  0.6605  0.6099
 5754SOL    HW128895   4.022   3.711   9.395 -1.5468  0.2813  0.5358
 5754SOL    HW228896   4.102   3.764   9.510  0.6342 -0.1679  0.5457
 5755SOL     OW28897   1.216   4.139  12.095 -0.2978  1.0222 -0.4234
 5755SOL    HW128898   1.176   4.112  12.012 -0.0258 -1.6933  0.3369
 5755SOL    HW228899   1.249   4.228  12.080 -0.2506  1.0552 -0.1183
 5756SOL     OW28900   3.125   3.570   8.861  0.3580 -0.0344  0.4595
 5756SOL    HW128901   3.213   3.590   8.829 -1.3118  1.5967 -3.1685
 5756SOL    HW228902   3.084   3.649   8.895 -0.8400 -0.8112  0.8287
 5757SOL     OW28903   1.530   1.085   6.838 -0.2840  0.2277  0.0831
 5757SOL    HW128904   1.611   1.035   6.842 -0.2591  0.2745  0.1540
 5757SOL    HW228905   1.556   1.139   6.763 -1.2044  0.4993 -0.0475
 5758SOL     OW28906   1.620   1.218   2.910  0.1984 -0.1867  0.4903
 5758SOL    HW128907   1.685   1.183   2.971  2.9247 -0.4720 -2.5743
 5758SOL    HW228908   1.677   1.223   2.833  1.7187  3.0707  1.7981
 5759SOL     OW28909   0.464   4.099   9.151 -0.5222  0.0399 -0.8403
 5759SOL    HW128910   0.509   4.177   9.184 -0.1749 -0.5893  0.1537
 5759SOL    HW228911   0.494   4.090   9.061 -1.5907  1.1825 -1.3080
 5760SOL     OW28912   2.455   0.484  14.416  0.2943  0.5597  0.3337
 5760SOL    HW128913   2.511   0.410  14.394  0.4291  1.1593 -1.3108
 5760SOL    HW228914   2.371   0.467  14.374  1.3330 -0.1163 -1.4252
 5761SOL     OW28915   1.288   1.032   3.811  0.2226  0.0641 -0.0802
 5761SOL    HW128916   1.279   0.942   3.841 -0.2448  0.4882  1.0535
 5761SOL    HW228917   1.294   1.084   3.891 -1.0362  0.5753 -0.3240
 5762SOL     OW28918   0.771   4.088   2.029 -0.0933  0.0077  0.0045
 5762SOL    HW128919   0.709   4.123   2.093 -3.0749 -2.0197 -1.7940
 5762SOL    HW228920   0.841   4.066   2.092  0.9061 -1.4067 -1.6170
 5763SOL     OW28921   3.022   1.510  12.261  0.2650 -0.0244 -0.1457
 5763SOL    HW128922   3.068   1.473  12.185  0.5225  0.7426 -0.3723
 5763SOL    HW228923   2.933   1.509  12.225  0.3838  1.5371 -0.4819
 5764SOL     OW28924   4.616   2.477   3.790  0.3837  0.6671 -0.0789
 5764SOL    HW128925   4.611   2.543   3.721 -1.1262  0.6033 -0.0222
 5764SOL    HW228926   4.527   2.491   3.821  0.6547  2.2750 -0.0492
 5765SOL     OW28927   3.549   3.090  12.501 -0.2208 -0.4751 -0.4050
 5765SOL    HW128928   3.535   3.020  12.438 -0.8197 -1.0435  0.3684
 5765SOL    HW228929   3.560   3.047  12.586 -1.7342 -0.5471 -0.2593
 5766SOL     OW28930   3.763   2.954  14.627  0.0390  0.0826  0.1262
 5766SOL    HW128931   3.671   2.929  14.642  0.0914 -0.0402  0.2389
 5766SOL    HW228932   3.785   2.884  14.566 -1.5002 -2.1968  2.1361
 5767SOL     OW28933   0.367   2.613   5.506  0.2794  0.3402 -0.1732
 5767SOL    HW128934   0.367   2.657   5.591 -1.1581  0.8380 -0.4350
 5767SOL    HW228935   0.329   2.526   5.519 -0.1400  0.2365 -2.1259
 5768SOL     OW28936   2.732   1.659   4.256  0.1616  0.0015 -0.4674
 5768SOL    HW128937   2.741   1.644   4.162 -1.0444 -1.5042 -0.3516
 5768SOL    HW228938   2.671   1.587   4.275 -1.1943  0.8465 -1.6975
 5769SOL     OW28939   3.078   1.052   7.034 -0.2300  0.4420 -0.3049
 5769SOL    HW128940   3.103   1.028   6.945  1.3644  0.4947  0.1227
 5769SOL    HW228941   3.062   1.143   7.010 -0.9065 -0.0571 -1.7392
 5770SOL     OW28942   2.185   4.149  12.614  0.2849  0.4053  0.2131
 5770SOL    HW128943   2.228   4.235  12.622  0.8626  0.1190  0.1459
 5770SOL    HW228944   2.255   4.085  12.603  1.0325  0.9561  1.6940
 5771SOL     OW28945   0.499   1.397   4.070 -1.0206 -0.2282  0.6678
 5771SOL    HW128946   0.425   1.391   4.011  0.1408 -1.6080 -0.6503
 5771SOL    HW228947   0.470   1.399   4.161 -1.0871  0.2728  0.6326
 5772SOL     OW28948   2.932   1.727  14.108 -0.2952  0.3641 -0.5314
 5772SOL    HW128949   2.969   1.753  14.023  0.8503 -1.2427 -0.5265
 5772SOL    HW228950   2.883   1.801  14.142 -0.6064  1.1206 -2.6208
 5773SOL     OW28951   3.553   0.753  15.499 -0.4101 -0.4351 -0.2780
 5773SOL    HW128952   3.500   0.820  15.455 -0.1368  0.6365  1.0642
 5773SOL    HW228953   3.500   0.732  15.575  0.5494  1.8871  1.0163
 5774SOL     OW28954   0.828   3.397   7.122  0.5060 -1.2823 -0.3844
 5774SOL    HW128955   0.830   3.456   7.197  0.8599 -0.3648 -1.1112
 5774SOL    HW228956   0.782   3.446   7.054 -0.0530  0.3192  1.1695
 5775SOL     OW28957   1.141   3.345   9.073 -0.3604  0.4593 -0.3748
 5775SOL    HW128958   1.215   3.395   9.108 -1.5010  0.2175  2.4370
 5775SOL    HW228959   1.105   3.304   9.152 -0.2304  2.2894  0.6258
 5776SOL     OW28960   1.976   1.052   3.557  0.6078  0.9144  1.0594
 5776SOL    HW128961   1.934   1.136   3.573 -0.5900  0.2152  1.5626
 5776SOL    HW228962   2.051   1.055   3.617  1.4663  0.5961  0.0071
 5777SOL     OW28963   4.706   2.139   3.387 -0.0827 -0.2597 -0.1440
 5777SOL    HW128964   4.615   2.156   3.363 -0.0454  2.4840  1.6877
 5777SOL    HW228965   4.695   2.172   3.476  1.8051 -0.1193  0.0440
 5778SOL     OW28966   3.393   1.905   0.085  0.5973 -0.7623  0.2939
 5778SOL    HW128967   3.317   1.857   0.120  1.9698 -1.8595  1.7618
 5778SOL    HW228968   3.405   1.962   0.161 -0.5366  0.3949 -0.4026
 5779SOL     OW28969   3.011   2.183   2.627  0.3729 -0.0323 -0.1821
 5779SOL    HW128970   3.083   2.150   2.573 -0.3567 -2.4621  0.3384
 5779SOL    HW228971   2.946   2.198   2.558  0.7867 -0.3356 -0.6345
 5780SOL     OW28972   4.291   4.052   0.483  0.6203  0.2448  0.1958
 5780SOL    HW128973   4.220   4.006   0.529 -1.1155  2.9494  0.2305
 5780SOL    HW228974   4.254   4.140   0.494 -1.1401 -0.5830  1.0273
 5781SOL     OW28975   1.295   4.618   7.723  0.8467  0.4391 -0.0168
 5781SOL    HW128976   1.221   4.626   7.663 -0.0992 -0.8888  1.0107
 5781SOL    HW228977   1.301   4.523   7.723  0.8364  0.4385  0.1432
 5782SOL     OW28978   0.628   3.139   5.819  0.5361 -0.5299 -0.3314
 5782SOL    HW128979   0.715   3.159   5.786  0.2649  1.2292  0.0343
 5782SOL    HW228980   0.576   3.144   5.739  0.5430 -1.1723 -0.3791
 5783SOL     OW28981   4.380   0.802  16.363 -0.3302 -0.1222  0.2103
 5783SOL    HW128982   4.412   0.818  16.274 -2.0048 -0.9281 -0.5368
 5783SOL    HW228983   4.454   0.762  16.408  0.2562 -0.3989 -0.9972
 5784SOL     OW28984   3.556   1.299  10.107  0.5303  0.0122  0.4923
 5784SOL    HW128985   3.644   1.288  10.145  0.9093 -0.7160 -0.5988
 5784SOL    HW228986   3.529   1.388  10.131  2.7762  1.1021 -0.9796
 5785SOL     OW28987   2.266   4.606   0.898 -0.5556 -0.4549 -0.1883
 5785SOL    HW128988   2.339   4.665   0.881 -0.7487 -0.6773 -1.7440
 5785SOL    HW228989   2.284   4.575   0.987  0.4595  1.5884  0.3206
 5786SOL     OW28990   1.968   0.611   6.090  0.4883  0.4214  0.2306
 5786SOL    HW128991   1.931   0.698   6.104  0.3667  1.1906 -5.0069
 5786SOL    HW228992   1.954   0.566   6.174 -0.4882  2.6830  1.2768
 5787SOL     OW28993   3.268   0.322   7.935 -0.2628  0.2347  0.0341
 5787SOL    HW128994   3.265   0.308   7.840 -0.6511  0.5677 -0.0056
 5787SOL    HW228995   3.363   0.331   7.943 -0.1134 -0.9942 -0.3835
 5788SOL     OW28996   4.432   1.436   6.681  0.0441 -0.3107  0.1405
 5788SOL    HW128997   4.393   1.349   6.675 -1.8644  0.8481 -3.9425
 5788SOL    HW228998   4.388   1.482   6.609 -0.6993 -0.1632  0.6951
 5789SOL     OW28999   3.561   4.127   7.355  0.3656  0.3244  0.3824
 5789SOL    HW129000   3.472   4.136   7.322  0.3539 -0.9938  0.0764
 5789SOL    HW229001   3.581   4.204   7.408  0.1398  1.5276 -1.2807
 5790SOL     OW29002   0.648   0.485   5.793 -0.1989 -0.2393  0.4353
 5790SOL    HW129003   0.635   0.528   5.708  0.1987 -3.2813 -1.1814
 5790SOL    HW229004   0.674   0.560   5.847 -0.9418 -0.1881  0.7166
 5791SOL     OW29005   2.763   4.272   5.536  0.2730  0.1272  0.3818
 5791SOL    HW129006   2.726   4.194   5.494  0.7990 -0.1015  0.3409
 5791SOL    HW229007   2.851   4.289   5.502  1.0576  0.1832  2.4556
 5792SOL     OW29008   0.764   2.829   0.652 -0.6309  0.2180 -0.3485
 5792SOL    HW129009   0.807   2.756   0.607  2.2059  0.9269  1.1992
 5792SOL    HW229010   0.816   2.831   0.733  1.5087 -0.0159 -1.7031
 5793SOL     OW29011   4.032   2.789   3.501 -0.1920 -0.2750 -0.6019
 5793SOL    HW129012   3.939   2.809   3.511 -0.5759 -2.2269 -0.2059
 5793SOL    HW229013   4.021   2.705   3.456 -0.1595 -0.5397 -0.1096
 5794SOL     OW29014   4.104   4.362   4.428 -0.9972 -0.0280 -0.0432
 5794SOL    HW129015   4.047   4.290   4.401 -1.9695  0.5176  0.5389
 5794SOL    HW229016   4.171   4.303   4.462 -1.4780 -2.7808 -3.8471
 5795SOL     OW29017   4.611   4.433  17.433 -0.8512 -0.3917 -0.2165
 5795SOL    HW129018   4.579   4.508  17.482  1.0215 -1.8720  3.2814
 5795SOL    HW229019   4.556   4.431  17.355 -1.9748  0.1084  0.5751
 5796SOL     OW29020   4.522   1.349   8.183 -0.0499  0.5266 -0.4311
 5796SOL    HW129021   4.450   1.303   8.139 -1.0049  1.2599  0.3679
 5796SOL    HW229022   4.477   1.433   8.185  1.3079  1.1956  1.7201
 5797SOL     OW29023   3.066   2.256   7.391  0.6961 -0.6349 -0.4681
 5797SOL    HW129024   3.061   2.319   7.463 -1.3657 -0.3005 -0.8929
 5797SOL    HW229025   3.067   2.172   7.437  0.4976 -0.8870 -0.9158
 5798SOL     OW29026   0.647   1.697   7.045  0.1827 -0.3319  0.6213
 5798SOL    HW129027   0.650   1.782   7.089  0.5754  0.3789 -0.7584
 5798SOL    HW229028   0.732   1.681   7.005 -0.9667 -2.3440 -1.0176
 5799SOL     OW29029   1.381   0.641   3.865 -0.1605  0.5370  0.3081
 5799SOL    HW129030   1.358   0.569   3.807 -0.7777  0.0109  1.2089
 5799SOL    HW229031   1.296   0.669   3.899  0.1161 -1.4124  2.6459
 5800SOL     OW29032   1.659   1.575   0.254  0.0848 -0.8584 -0.6798
 5800SOL    HW129033   1.609   1.537   0.182 -2.1636  1.4607 -0.3585
 5800SOL    HW229034   1.747   1.567   0.216 -0.4100 -0.7162 -1.8736
 5801SOL     OW29035   1.215   1.093   4.147 -0.1923  0.3894  1.0529
 5801SOL    HW129036   1.252   1.015   4.188 -0.8984 -1.4937 -1.8392
 5801SOL    HW229037   1.135   1.098   4.199 -0.1694 -1.9148  1.3448
 5802SOL     OW29038   0.398   4.445  13.967  0.1296  0.5376 -0.4336
 5802SOL    HW129039   0.456   4.432  14.042  0.7023  0.1134 -0.9487
 5802SOL    HW229040   0.427   4.533  13.940  0.3707 -0.4000 -3.1752
 5803SOL     OW29041   4.145   2.652   3.759 -0.0110 -0.5091  0.1567
 5803SOL    HW129042   4.061   2.641   3.802 -0.3688  0.4454 -0.2887
 5803SOL    HW229043   4.136   2.714   3.686  1.6037 -0.2181  0.1912
 5804SOL     OW29044   1.819   4.407   5.823 -0.6534 -0.0883 -0.6161
 5804SOL    HW129045   1.818   4.344   5.751  1.6732 -1.4245  0.5409
 5804SOL    HW229046   1.736   4.390   5.866  0.0073 -0.9147  0.3176
 5805SOL     OW29047   1.736   2.019   4.011  0.3587  0.4142  0.2786
 5805SOL    HW129048   1.789   2.095   4.034 -0.6338  1.5506 -1.0967
 5805SOL    HW229049   1.663   2.024   4.073  1.0211 -0.2435  1.1066
 5806SOL     OW29050   2.199   4.229   2.276  0.0877 -0.2493  0.1005
 5806SOL    HW129051   2.210   4.161   2.343 -0.8486 -0.5433 -0.0403
 5806SOL    HW229052   2.271   4.212   2.216  0.3118 -1.8549  0.8148
 5807SOL     OW29053   4.712   4.124   7.920  0.4795 -0.1929  0.0031
 5807SOL    HW129054   4.679   4.122   7.830 -0.2002 -1.4828  0.2766
 5807SOL    HW229055   4.716   4.218   7.935  2.4048 -0.3097  0.2374
 5808SOL     OW29056   3.407   1.194   8.984 -0.2057 -0.3771 -0.4743
 5808SOL    HW129057   3.352   1.122   8.952 -0.6889 -1.3738  2.5859
 5808SOL    HW229058   3.490   1.150   8.999  0.3630  0.6245 -0.7306
 5809SOL     OW29059   1.015   4.703  16.964  0.1003 -0.4500  0.0573
 5809SOL    HW129060   1.046   4.680  17.052  1.1136  0.6709  0.0007
 5809SOL    HW229061   1.066   0.045  16.940 -1.5545  0.7130  0.2757
 5810SOL     OW29062   2.264   0.350   3.965  0.1169  0.1208 -0.3446
 5810SOL    HW129063   2.345   0.380   3.923  0.8829 -1.2365  0.1428
 5810SOL    HW229064   2.225   0.437   3.971  1.7236  0.7237  1.1410
 5811SOL     OW29065   1.576   0.425   4.520 -0.2196 -0.3459  0.1295
 5811SOL    HW129066   1.615   0.475   4.448 -0.1458  0.4068  0.6889
 5811SOL    HW229067   1.608   0.336   4.505 -0.0269 -0.1687 -0.4806
 5812SOL     OW29068   2.192   4.160   3.451  0.1297 -0.5877  0.3489
 5812SOL    HW129069   2.115   4.133   3.502  0.3012 -1.9917 -0.1365
 5812SOL    HW229070   2.191   4.079   3.401  1.7939  1.0975 -2.3551
 5813SOL     OW29071   4.346   4.115  14.602 -0.0052  0.2896  0.9617
 5813SOL    HW129072   4.388   4.088  14.521 -0.8108 -1.2269  1.0343
 5813SOL    HW229073   4.351   4.210  14.601  2.1626  0.1702  0.6663
 5814SOL     OW29074   2.632   0.831   8.101 -0.3157 -0.0793 -0.1670
 5814SOL    HW129075   2.665   0.771   8.034  2.1261  3.2221 -1.9440
 5814SOL    HW229076   2.701   0.890   8.130 -1.2527  0.3510  1.1867
 5815SOL     OW29077   1.933   3.774  13.833 -0.0637  0.2371 -0.2742
 5815SOL    HW129078   1.907   3.803  13.745 -1.8075  1.2617  0.5664
 5815SOL    HW229079   1.852   3.745  13.874  0.4431 -2.5612 -1.3063
 5816SOL     OW29080   3.063   1.903   7.226  0.2313  0.6067 -0.3160
 5816SOL    HW129081   3.039   1.907   7.319  0.1070 -2.3465 -0.2449
 5816SOL    HW229082   2.989   1.947   7.184  0.3496  0.5209 -0.6110
 5817SOL     OW29083   2.368   2.189   8.229  0.2989 -0.1747  0.5472
 5817SOL    HW129084   2.437   2.192   8.162 -0.6865  1.0678 -0.3971
 5817SOL    HW229085   2.301   2.227   8.173  0.3020 -0.0041  0.6584
 5818SOL     OW29086   3.677   0.081   5.766  0.1406  0.2955 -0.2419
 5818SOL    HW129087   3.584   0.096   5.785  0.9667  2.5103  2.0196
 5818SOL    HW229088   3.723   0.133   5.831  0.4822 -0.5553  0.1962
 5819SOL     OW29089   2.704   0.717   2.466  0.9229  0.2932 -0.0133
 5819SOL    HW129090   2.713   0.791   2.526  1.4254 -0.5354  0.9397
 5819SOL    HW229091   2.740   0.652   2.526  0.2057  0.0954  0.1919
 5820SOL     OW29092   3.681   0.088  10.163 -0.1553 -0.1412 -0.0451
 5820SOL    HW129093   3.767   0.076  10.123 -0.2591 -3.4616  0.6892
 5820SOL    HW229094   3.703   0.151  10.232  0.2034 -0.1858 -0.1152
 5821SOL     OW29095   0.153   3.092  15.623  0.8957 -0.2824  0.2940
 5821SOL    HW129096   0.121   3.004  15.641 -1.8675  0.1004 -2.8738
 5821SOL    HW229097   0.124   3.120  15.537 -1.3491 -0.9987  0.8204
 5822SOL     OW29098   1.850   2.358   8.528  0.3572 -0.3289  0.3073
 5822SOL    HW129099   1.869   2.381   8.438 -2.0191  1.0356  0.1538
 5822SOL    HW229100   1.870   2.442   8.570 -0.6450  0.2399 -0.3635
 5823SOL     OW29101   4.357   3.547   6.941  0.4010  0.4565  0.2655
 5823SOL    HW129102   4.267   3.526   6.969  0.5388 -0.3632  0.1076
 5823SOL    HW229103   4.396   3.460   6.933 -2.2408 -0.6173 -1.1721
 5824SOL     OW29104   0.277   0.786   9.354 -0.0668  0.1565  0.4472
 5824SOL    HW129105   0.306   0.711   9.303  0.9783 -1.6381  3.7450
 5824SOL    HW229106   0.217   0.825   9.289  0.1379  0.8250  0.6556
 5825SOL     OW29107   0.530   3.149   1.250  0.2259 -0.2204  0.5691
 5825SOL    HW129108   0.552   3.067   1.294 -0.4948  0.3617  2.0445
 5825SOL    HW229109   0.600   3.165   1.186  0.0296 -0.6123  0.2623
 5826SOL     OW29110   0.281   3.926   5.309  0.7976 -0.0452  0.0067
 5826SOL    HW129111   0.318   3.876   5.382 -0.2135 -0.2854  0.3439
 5826SOL    HW229112   0.290   4.011   5.352 -1.4954  0.2510 -0.0963
 5827SOL     OW29113   2.316   3.186   4.250  0.2849  0.5605 -0.5310
 5827SOL    HW129114   2.347   3.112   4.198  0.6461  1.8460 -2.1231
 5827SOL    HW229115   2.248   3.220   4.194 -1.0756  0.8587  1.3051
 5828SOL     OW29116   3.271   4.538  15.265  0.4761 -0.8230  0.0823
 5828SOL    HW129117   3.268   4.532  15.169 -0.6936  1.4651 -0.0318
 5828SOL    HW229118   3.227   4.460  15.298  0.2308 -0.5846  0.3106
 5829SOL     OW29119   2.889   2.664  17.478  0.1125 -0.0978 -0.1740
 5829SOL    HW129120   2.818   2.605  17.502 -1.9236  2.0576 -0.8664
 5829SOL    HW229121   2.842   2.745  17.496  2.1747  1.2382 -0.7915
 5830SOL     OW29122   0.472   2.142   4.610  0.4667 -0.3143 -0.3038
 5830SOL    HW129123   0.436   2.170   4.694 -0.8452 -0.3938 -0.8332
 5830SOL    HW229124   0.422   2.201   4.554  0.3907  1.2495  1.4019
 5831SOL     OW29125   4.608   2.938   5.803  0.2311 -1.0083 -0.4568
 5831SOL    HW129126   4.683   2.998   5.799 -0.4082 -0.0676  1.5554
 5831SOL    HW229127   4.618   2.908   5.894  0.1235 -2.2127 -0.8396
 5832SOL     OW29128   3.109   1.984   2.821 -0.7408  0.8130  0.1563
 5832SOL    HW129129   3.052   2.014   2.891 -2.5447  1.9175 -1.7805
 5832SOL    HW229130   3.087   2.049   2.755 -6.0949 -1.5731 -0.3644
 5833SOL     OW29131   0.468   0.953   1.875  0.0968 -0.2466 -0.1273
 5833SOL    HW129132   0.475   1.023   1.939 -2.2389 -0.3051  0.1856
 5833SOL    HW229133   0.560   0.925   1.875  0.2127  0.0985 -2.1501
 5834SOL     OW29134   4.659   2.915   6.704  0.1692  0.5379 -0.3579
 5834SOL    HW129135   4.661   3.000   6.660  2.8180  1.4237  1.4811
 5834SOL    HW229136   4.729   2.869   6.659 -0.7058 -0.9905 -0.1695
 5835SOL     OW29137   0.516   1.711   4.799 -0.1580 -0.5927 -0.1591
 5835SOL    HW129138   0.577   1.748   4.863 -0.6004  0.1820 -0.1846
 5835SOL    HW229139   0.548   1.758   4.722  0.3185  1.6784  1.4247
 5836SOL     OW29140   0.639   4.310  13.558 -0.2238  0.0236 -0.4691
 5836SOL    HW129141   0.655   4.216  13.555 -0.7255 -0.1245  1.7464
 5836SOL    HW229142   0.574   4.308  13.628 -0.1941  2.1221 -0.3848
 5837SOL     OW29143   4.291   2.589   2.371 -0.5011  0.0419 -0.3352
 5837SOL    HW129144   4.370   2.642   2.379  1.5857 -3.1514  0.1265
 5837SOL    HW229145   4.313   2.531   2.298 -1.1313 -1.3571  0.5882
 5838SOL     OW29146   2.156   1.175  16.494  0.1188  0.0228  0.3048
 5838SOL    HW129147   2.195   1.249  16.449  1.1044  0.5380  2.0182
 5838SOL    HW229148   2.082   1.222  16.532 -0.1319  0.9091 -1.2838
 5839SOL     OW29149   0.992   1.847   2.501 -0.6028  0.9328  0.5617
 5839SOL    HW129150   0.996   1.799   2.418  0.2682  1.4395  0.3034
 5839SOL    HW229151   0.904   1.818   2.526 -0.8859  0.5851 -0.7991
 5840SOL     OW29152   0.608   3.109   1.879 -0.1250 -0.1689  0.2745
 5840SOL    HW129153   0.622   3.104   1.784  1.8183  1.2248  0.4863
 5840SOL    HW229154   0.596   3.016   1.900  0.3317 -0.3855 -0.4076
 5841SOL     OW29155   1.292   2.307   2.751 -0.3463  0.2878 -0.0270
 5841SOL    HW129156   1.241   2.369   2.698 -2.3582 -0.2973  1.1890
 5841SOL    HW229157   1.273   2.333   2.841  0.8796 -0.2490  0.3781
 5842SOL     OW29158   4.144   3.215   9.566 -0.4752 -0.1497 -0.3679
 5842SOL    HW129159   4.110   3.290   9.615 -1.4172 -0.4698 -0.5393
 5842SOL    HW229160   4.234   3.212   9.601  0.0231 -0.3221 -1.6556
 5843SOL     OW29161   2.061   4.591   3.622  0.1222  0.0286 -0.0748
 5843SOL    HW129162   1.979   4.560   3.660  0.4491 -0.0561  0.5821
 5843SOL    HW229163   2.128   4.573   3.689 -0.3329 -0.3479  0.2717
 5844SOL     OW29164   0.982   1.768   5.321 -0.1080  0.2121 -0.0702
 5844SOL    HW129165   1.000   1.724   5.404 -0.1189  0.9952  0.3494
 5844SOL    HW229166   0.984   1.853   5.365 -4.5626  0.0833  0.3762
 5845SOL     OW29167   3.696   3.276   3.539 -0.1279 -0.2486  0.2249
 5845SOL    HW129168   3.686   3.358   3.587 -1.5322 -0.0085 -0.4724
 5845SOL    HW229169   3.679   3.211   3.607  1.3848 -2.4325 -1.4549
 5846SOL     OW29170   1.243   1.918   2.350  0.2295 -0.1057  0.1843
 5846SOL    HW129171   1.163   1.923   2.402  1.3902 -1.7191  2.1568
 5846SOL    HW229172   1.220   1.833   2.313 -0.1306  0.4406 -0.8420
 5847SOL     OW29173   2.556   3.204   4.536  0.4216  0.2738  0.1193
 5847SOL    HW129174   2.554   3.250   4.452  0.6805  0.2543  0.1026
 5847SOL    HW229175   2.462   3.205   4.555  0.0908 -0.4874 -1.5040
 5848SOL     OW29176   1.449   3.264   9.022 -0.0711 -0.4983 -0.3320
 5848SOL    HW129177   1.465   3.355   9.047 -1.5792  0.4199 -2.7110
 5848SOL    HW229178   1.433   3.229   9.110 -1.5565 -2.4872 -1.3997
 5849SOL     OW29179   0.455   0.406   6.003  0.2991 -0.3049  0.1247
 5849SOL    HW129180   0.434   0.496   6.027  0.9424 -0.1218  0.0103
 5849SOL    HW229181   0.500   0.413   5.919  1.1060 -2.1542  0.3970
 5850SOL     OW29182   0.247   0.325   0.843  0.4958 -0.4149  0.1308
 5850SOL    HW129183   0.281   0.382   0.773 -1.9335  1.9158  0.8620
 5850SOL    HW229184   0.155   0.329   0.818  0.3850  0.3253  0.6729
 5851SOL     OW29185   4.344   3.794  14.380  0.2815 -0.5392 -0.2722
 5851SOL    HW129186   4.304   3.835  14.303  1.6527 -0.2018 -0.7969
 5851SOL    HW229187   4.431   3.834  14.381  0.6059 -1.2949  1.2229
 5852SOL     OW29188   1.480   4.453   7.067 -0.1306 -0.1740 -0.1263
 5852SOL    HW129189   1.406   4.412   7.023 -0.5995  0.2989  0.2346
 5852SOL    HW229190   1.439   4.467   7.152  1.3283 -0.8165  0.6902
 5853SOL     OW29191   1.112   3.460   7.087  0.0946 -0.0588 -0.1464
 5853SOL    HW129192   1.017   3.444   7.095 -0.3092  1.3963 -2.2969
 5853SOL    HW229193   1.148   3.408   7.015 -0.7069 -0.7735 -0.0356
 5854SOL     OW29194   0.925   0.898   0.767  0.1935  0.2087 -0.1860
 5854SOL    HW129195   0.930   0.936   0.679 -0.1234 -0.0969 -0.3336
 5854SOL    HW229196   0.861   0.957   0.806 -1.6484 -0.3736 -2.3911
 5855SOL     OW29197   3.407   1.350   5.093  0.5136 -0.2669  0.0315
 5855SOL    HW129198   3.445   1.316   5.012  0.9621  0.9019 -0.2543
 5855SOL    HW229199   3.400   1.442   5.067  0.5683 -0.3815 -0.3847
 5856SOL     OW29200   2.679   2.029   0.458  0.4207 -0.1797 -0.1577
 5856SOL    HW129201   2.713   2.112   0.425 -2.0601  1.7389  2.0867
 5856SOL    HW229202   2.649   1.986   0.379  1.7791  1.0827 -1.3694
 5857SOL     OW29203   1.609   2.947   7.176 -0.2685 -0.2622  0.3556
 5857SOL    HW129204   1.643   2.996   7.251 -1.2599 -1.7877  1.7989
 5857SOL    HW229205   1.526   2.993   7.169 -0.5760 -1.1597 -1.7581
 5858SOL     OW29206   4.558   1.605  14.657  0.1707 -0.4880 -0.4811
 5858SOL    HW129207   4.592   1.658  14.584  1.5233  0.4720  0.8578
 5858SOL    HW229208   4.464   1.593  14.642  0.1787 -1.5623  0.3270
 5859SOL     OW29209   4.586   2.619   9.153 -0.2019  0.0260  0.1940
 5859SOL    HW129210   4.588   2.700   9.204  3.0649  1.0100 -1.5323
 5859SOL    HW229211   4.543   2.636   9.069 -1.8551 -2.4384  0.5380
 5860SOL     OW29212   2.985   2.265   5.660  0.0054  0.4694  0.3769
 5860SOL    HW129213   2.956   2.308   5.580 -2.1526 -1.2649  0.2206
 5860SOL    HW229214   3.016   2.178   5.638 -0.2731  0.8313 -1.4259
 5861SOL     OW29215   4.519   3.331   6.803  0.2956  0.1390 -0.1890
 5861SOL    HW129216   4.586   3.320   6.870  2.8793  1.2727 -2.6103
 5861SOL    HW229217   4.489   3.241   6.787 -0.0465  0.2497 -0.1814
 5862SOL     OW29218   3.657   3.538   9.769  0.2366 -0.0335  0.3383
 5862SOL    HW129219   3.697   3.470   9.715 -0.0158 -0.8150  1.1522
 5862SOL    HW229220   3.607   3.479   9.825 -0.4315 -0.5864 -0.8445
 5863SOL     OW29221   0.679   4.400   1.961 -0.0575 -0.4247 -0.0361
 5863SOL    HW129222   0.742   4.457   1.915 -0.5147  0.2484  0.1743
 5863SOL    HW229223   0.720   4.314   1.956 -1.5978 -1.0935 -1.1456
 5864SOL     OW29224   2.110   1.336  13.712  0.3539 -0.5035  0.0128
 5864SOL    HW129225   2.180   1.321  13.775  1.5742  0.1030 -1.1889
 5864SOL    HW229226   2.107   1.432  13.712 -2.2372 -0.5744 -2.0747
 5865SOL     OW29227   1.441   1.848   6.052 -0.0450 -0.3124  0.1794
 5865SOL    HW129228   1.431   1.800   6.134 -0.5318  0.1723  0.4045
 5865SOL    HW229229   1.409   1.780   5.994 -3.7036  2.2075 -0.7521
 5866SOL     OW29230   1.874   1.023   4.783  0.6573 -0.2752 -0.0697
 5866SOL    HW129231   1.809   1.093   4.793  1.5280  0.6584 -0.8462
 5866SOL    HW229232   1.811   0.951   4.777  1.7802 -1.3265  0.8805
 5867SOL     OW29233   3.663   3.544   8.272  0.2939  0.0473 -0.2858
 5867SOL    HW129234   3.608   3.478   8.229 -0.9627 -1.1771  3.2498
 5867SOL    HW229235   3.737   3.549   8.211 -0.8654 -1.8279 -1.8261
 5868SOL     OW29236   2.280   1.868  11.623  0.2695 -0.1145 -0.0644
 5868SOL    HW129237   2.258   1.954  11.588 -1.2925 -0.5228 -0.0774
 5868SOL    HW229238   2.290   1.888  11.716 -0.4505  1.2415 -0.2774
 5869SOL     OW29239   4.728   4.489   6.617  0.5941 -0.2307 -0.2984
 5869SOL    HW129240   4.734   4.397   6.642 -0.7234  0.0523  1.0929
 5869SOL    HW229241   4.663   4.520   6.681  0.9563  0.4209 -0.2436
 5870SOL     OW29242   1.909   2.441   8.300  0.0246  0.2329 -0.2200
 5870SOL    HW129243   1.994   2.484   8.307  0.2322 -0.0590 -0.9854
 5870SOL    HW229244   1.863   2.494   8.236  0.0817  1.2422  0.5825
 5871SOL     OW29245   0.577   1.406  15.902 -0.5866  0.2418  0.8547
 5871SOL    HW129246   0.531   1.472  15.851 -3.1323 -2.5961 -0.4953
 5871SOL    HW229247   0.662   1.393  15.860 -0.6737  2.7360 -0.0650
 5872SOL     OW29248   3.173   0.787   8.292 -0.1764 -0.2643  0.2298
 5872SOL    HW129249   3.233   0.792   8.217 -1.1343  0.0211 -0.5246
 5872SOL    HW229250   3.166   0.692   8.302 -0.5830 -0.1406  1.0695
 5873SOL     OW29251   3.370   1.778  14.421  0.3576 -0.2945  0.0110
 5873SOL    HW129252   3.331   1.703  14.464 -2.3689  2.7325  2.7741
 5873SOL    HW229253   3.318   1.774  14.341  1.8528 -1.4301 -0.9158
 5874SOL     OW29254   2.740   0.288  17.193 -0.1869  0.6761  0.0760
 5874SOL    HW129255   2.672   0.351  17.217 -0.3120  0.6918 -0.3346
 5874SOL    HW229256   2.802   0.361  17.185  1.7752 -1.1216 -1.0095
 5875SOL     OW29257   3.288   1.389   8.815 -0.0476  0.5224 -0.9045
 5875SOL    HW129258   3.205   1.392   8.863  0.9315  0.2651  0.8271
 5875SOL    HW229259   3.333   1.336   8.881 -1.1633  0.6966 -0.0018
 5876SOL     OW29260   1.172   4.263   2.189  0.9150  0.2468 -0.4176
 5876SOL    HW129261   1.182   4.332   2.122  0.8887  0.2742 -0.3927
 5876SOL    HW229262   1.169   4.303   2.275 -0.0767  0.0303 -0.3581
 5877SOL     OW29263   3.441   1.320   4.297  0.3635  0.1089  0.4290
 5877SOL    HW129264   3.441   1.253   4.229 -2.1084  0.5227  0.0308
 5877SOL    HW229265   3.527   1.361   4.286  0.0640  0.0192 -2.2288
 5878SOL     OW29266   2.015   4.024   8.238 -0.4820 -0.1085 -0.5856
 5878SOL    HW129267   2.059   4.100   8.199 -3.0786  1.2342 -0.8546
 5878SOL    HW229268   1.948   4.066   8.291  1.0898  2.4549 -0.5915
 5879SOL     OW29269   4.211   0.016   7.797 -0.0556 -0.1673 -0.0023
 5879SOL    HW129270   4.210   4.657   7.817  0.0738  0.0421  0.9994
 5879SOL    HW229271   4.213   0.023   7.701 -1.0400 -2.1765 -0.1676
 5880SOL     OW29272   2.860   1.828   8.070  0.4089 -0.4925  0.4548
 5880SOL    HW129273   2.938   1.808   8.018  0.8645  1.4637  0.4178
 5880SOL    HW229274   2.901   1.810   8.155  0.7179 -1.7293  0.0574
 5881SOL     OW29275   0.214   1.678   6.606  0.4873  0.1659 -0.0994
 5881SOL    HW129276   0.207   1.651   6.698 -0.3142 -0.7170 -0.4252
 5881SOL    HW229277   0.256   1.599   6.570  2.3676  1.0616  0.0904
 5882SOL     OW29278   3.955   1.304   8.871 -0.2473 -0.3422 -0.4937
 5882SOL    HW129279   3.919   1.248   8.802 -2.4661  1.1627 -0.5601
 5882SOL    HW229280   3.944   1.386   8.824 -0.1841  0.4167  0.8115
 5883SOL     OW29281   0.797   3.797   8.804 -0.0605  0.1167 -0.4828
 5883SOL    HW129282   0.702   3.801   8.813 -0.5440 -1.9697 -4.3029
 5883SOL    HW229283   0.819   3.856   8.875 -0.1344 -1.4272  0.8194
 5884SOL     OW29284   2.285   3.126   2.465  0.2636  0.3101 -0.2855
 5884SOL    HW129285   2.297   3.040   2.506  0.9807  0.2979 -0.5262
 5884SOL    HW229286   2.359   3.134   2.404  0.4654 -1.3352 -0.2533
 5885SOL     OW29287   4.200   4.699   4.315  0.1211 -0.2578 -0.3923
 5885SOL    HW129288   4.268   4.658   4.261 -0.9337 -1.2316 -0.9786
 5885SOL    HW229289   4.210   4.638   4.388  1.1618 -0.0779 -0.3839
 5886SOL     OW29290   2.714   1.007   5.416  0.3042  0.4106  0.1369
 5886SOL    HW129291   2.641   1.068   5.430 -0.3603 -0.2219 -0.5547
 5886SOL    HW229292   2.758   1.038   5.337 -0.1046 -0.0467 -0.2660
 5887SOL     OW29293   3.627   2.824   3.801  0.3701  0.3156 -0.5281
 5887SOL    HW129294   3.632   2.809   3.896 -0.6813  0.2116 -0.4899
 5887SOL    HW229295   3.557   2.765   3.774 -0.2291  0.0031  1.6984
 5888SOL     OW29296   2.755   3.645   8.168 -0.1115 -0.5761  0.0433
 5888SOL    HW129297   2.768   3.709   8.098 -0.6203 -0.5911 -0.0626
 5888SOL    HW229298   2.668   3.679   8.187 -0.2469 -0.8271 -0.1214
 5889SOL     OW29299   3.629   1.075   9.103  0.4476 -0.3181  0.0330
 5889SOL    HW129300   3.681   1.017   9.048 -0.7736 -0.6166 -0.8009
 5889SOL    HW229301   3.697   1.129   9.142 -1.5713  1.1863  1.4719
 5890SOL     OW29302   0.859   4.393   3.993 -0.2141 -0.0169  0.2289
 5890SOL    HW129303   0.927   4.458   3.976 -0.3913  0.2955  0.7197
 5890SOL    HW229304   0.904   4.335   4.054  0.1646  1.9461  1.8144
 5891SOL     OW29305   3.011   4.390   2.203 -0.4062  0.5574 -0.0919
 5891SOL    HW129306   3.002   4.305   2.245  0.7524  0.5094  0.0739
 5891SOL    HW229307   2.924   4.394   2.165 -0.5238  0.3906  0.1618
 5892SOL     OW29308   2.574   1.389   4.807 -0.1517  0.0154  0.2799
 5892SOL    HW129309   2.644   1.354   4.861 -0.1889 -1.6283 -0.7362
 5892SOL    HW229310   2.505   1.323   4.800 -2.8027  2.7466  0.0842
 5893SOL     OW29311   0.895   3.186   3.088  0.1173  0.4289 -0.1024
 5893SOL    HW129312   0.958   3.256   3.103  1.3081 -0.1056 -2.5307
 5893SOL    HW229313   0.813   3.234   3.101 -0.7743 -1.2465  0.4671
 5894SOL     OW29314   3.764   1.897   0.993  0.7967  0.6743 -0.3391
 5894SOL    HW129315   3.759   1.860   0.905  0.8100 -0.5563  0.1714
 5894SOL    HW229316   3.671   1.900   1.017  1.1977  0.7937  1.1672
 5895SOL     OW29317   1.261   0.409   5.891  0.4148  0.2142 -0.2905
 5895SOL    HW129318   1.202   0.360   5.834 -1.3586 -0.3650  2.0131
 5895SOL    HW229319   1.335   0.415   5.831  0.0793  0.0745 -0.7149
 5896SOL     OW29320   0.526   3.051   3.277 -0.4997  0.0606 -0.2182
 5896SOL    HW129321   0.466   3.054   3.352  2.3479 -1.0926  2.0925
 5896SOL    HW229322   0.546   3.144   3.267  0.3628 -0.0819  0.1745
 5897SOL     OW29323   2.337   3.103   8.927  0.1941 -0.1272 -0.4662
 5897SOL    HW129324   2.427   3.069   8.926  0.6135  0.9831 -0.4712
 5897SOL    HW229325   2.288   3.030   8.966  0.7022  0.4241  1.1737
 5898SOL     OW29326   4.393   3.752   4.882 -0.0405 -0.2162 -0.0794
 5898SOL    HW129327   4.462   3.779   4.822  0.2616  2.1892  1.3589
 5898SOL    HW229328   4.416   3.801   4.961  1.2766  0.6639 -1.0086
 5899SOL     OW29329   4.539   0.063   4.022  0.0203 -0.3624 -0.1756
 5899SOL    HW129330   4.588   0.144   4.009  0.8939 -0.9427 -0.4162
 5899SOL    HW229331   4.561   0.026   3.937  0.3705  0.2817 -0.3596
 5900SOL     OW29332   3.955   4.443   2.918 -0.2065 -0.1812 -0.0976
 5900SOL    HW129333   3.923   4.436   3.008  2.1481 -1.4265  0.6259
 5900SOL    HW229334   3.926   4.357   2.887 -0.6410 -1.0425  2.7166
 5901SOL     OW29335   2.394   1.769   4.229  0.6488 -0.1672 -0.1809
 5901SOL    HW129336   2.471   1.819   4.201 -0.5888  0.7316 -2.0419
 5901SOL    HW229337   2.347   1.756   4.147  0.4420  0.3552 -0.1493
 5902SOL     OW29338   3.362   0.980   1.784  0.1011  0.4261 -0.1302
 5902SOL    HW129339   3.366   0.929   1.865 -0.1642 -0.9357 -0.9671
 5902SOL    HW229340   3.403   1.063   1.805 -2.3328  1.2103  1.4739
 5903SOL     OW29341   3.627   3.776  13.811  0.2358  0.0430  0.7999
 5903SOL    HW129342   3.560   3.837  13.842 -0.3053 -1.1906  2.0603
 5903SOL    HW229343   3.663   3.826  13.738 -1.4047 -0.7077 -0.5240
 5904SOL     OW29344   4.135   2.999   3.340  0.8387 -0.3145  0.3381
 5904SOL    HW129345   4.063   3.048   3.299  0.7002 -1.1610 -0.4187
 5904SOL    HW229346   4.092   2.944   3.406 -0.8414  0.1563 -0.3575
 5905SOL     OW29347   2.399   1.861   4.677  0.0073  0.1301  0.2006
 5905SOL    HW129348   2.479   1.902   4.643  0.8804 -1.9237 -0.1794
 5905SOL    HW229349   2.409   1.783   4.622 -0.5715  1.6228 -2.0224
 5906SOL     OW29350   3.341   2.005   4.175  0.1699 -0.1555  0.0720
 5906SOL    HW129351   3.301   1.986   4.090 -0.1514  0.9368 -0.0261
 5906SOL    HW229352   3.263   2.010   4.231  0.0795  0.4430 -0.1025
 5907SOL     OW29353   1.920   2.720   3.350  0.1158 -0.1151 -0.5276
 5907SOL    HW129354   1.884   2.758   3.269  0.9448  0.8488 -0.4525
 5907SOL    HW229355   1.996   2.778   3.362 -0.0780 -0.3855  2.0252
 5908SOL     OW29356   4.516   2.741  16.537 -0.3419 -0.7167 -0.1872
 5908SOL    HW129357   4.489   2.826  16.572  0.2779  0.1277 -1.7536
 5908SOL    HW229358   4.480   2.737  16.448 -0.4929  1.8266 -0.2228
 5909SOL     OW29359   0.765   0.102   9.320 -0.0010 -0.1552 -0.1775
 5909SOL    HW129360   0.807   0.181   9.286 -0.8554  0.4640  0.2417
 5909SOL    HW229361   0.701   0.133   9.383 -0.0694  0.5848 -0.6108
 5910SOL     OW29362   2.623   0.148   5.554 -0.7656 -0.3257 -0.1272
 5910SOL    HW129363   2.608   0.069   5.606 -1.5551 -0.0829  0.0260
 5910SOL    HW229364   2.534   0.183   5.560 -0.2199  1.2654 -1.4343
 5911SOL     OW29365   3.177   2.273  17.153  0.1101  0.1792 -0.5879
 5911SOL    HW129366   3.255   2.289  17.100 -0.1369 -1.8563 -1.5481
 5911SOL    HW229367   3.187   2.186  17.189  1.2888  1.0278  1.1281
 5912SOL     OW29368   0.166   1.314   1.597  0.2137 -0.2154 -0.5314
 5912SOL    HW129369   0.254   1.345   1.622  0.1402 -2.5236  2.6143
 5912SOL    HW229370   0.175   1.221   1.617  1.3840 -0.1600 -0.7772
 5913SOL     OW29371   0.758   0.442   6.844 -0.1357 -0.2062  0.3085
 5913SOL    HW129372   0.849   0.447   6.874  0.4019  1.0414 -1.4837
 5913SOL    HW229373   0.739   0.357   6.883 -3.7475  0.5219  0.1253
 5914SOL     OW29374   3.901   0.135   6.218 -0.3948 -0.2482  0.2066
 5914SOL    HW129375   3.843   0.063   6.243  1.1685 -1.2116  1.0387
 5914SOL    HW229376   3.985   0.097   6.193  0.0330 -0.0511  1.3792
 5915SOL     OW29377   3.504   1.469   6.680 -0.2882  0.4265  0.0193
 5915SOL    HW129378   3.456   1.407   6.736  1.8993 -0.9166  0.4296
 5915SOL    HW229379   3.437   1.528   6.646 -0.4808  1.0650  1.5166
 5916SOL     OW29380   1.409   0.531   2.231 -0.2587  0.0043  0.6000
 5916SOL    HW129381   1.356   0.602   2.268 -2.5659 -0.0925 -2.5425
 5916SOL    HW229382   1.493   0.574   2.212 -0.3337 -0.6292 -1.1151
 5917SOL     OW29383   3.586   3.065  13.785  0.1126  0.1355 -0.1800
 5917SOL    HW129384   3.598   3.101  13.697  2.8969 -1.5240 -0.4539
 5917SOL    HW229385   3.633   2.983  13.773  0.2008 -0.1183  1.8400
 5918SOL     OW29386   2.125   0.168   7.857 -0.4168  0.2689 -0.1399
 5918SOL    HW129387   2.206   0.159   7.806  0.4118 -2.3464  1.6418
 5918SOL    HW229388   2.065   0.193   7.787 -1.4052 -3.2665 -0.5741
 5919SOL     OW29389   3.228   0.798  10.163  0.8950 -0.2592  0.0377
 5919SOL    HW129390   3.209   0.782  10.255 -1.4378 -1.2686 -0.6200
 5919SOL    HW229391   3.312   0.841  10.179  0.8837 -0.5146  0.7930
 5920SOL     OW29392   1.710   3.260  10.013 -0.0898 -0.0395 -0.1758
 5920SOL    HW129393   1.643   3.286  10.076  0.4854  0.2398  0.3140
 5920SOL    HW229394   1.781   3.224  10.065  0.6059  0.5929 -0.6939
 5921SOL     OW29395   4.651   0.025   5.096 -0.2863  0.1611  0.2858
 5921SOL    HW129396   4.697   0.107   5.080  1.9087 -0.8973  1.1899
 5921SOL    HW229397   4.558   0.049   5.097 -0.6310 -1.1039 -2.1267
 5922SOL     OW29398   1.473   4.249   5.652 -0.3880  0.4777  0.1810
 5922SOL    HW129399   1.567   4.269   5.647 -0.2328  0.0074  1.2065
 5922SOL    HW229400   1.478   4.176   5.591 -0.0172  0.4841  0.2003
 5923SOL     OW29401   4.643   0.539   0.113  0.6474 -0.0885 -0.2522
 5923SOL    HW129402   4.566   0.589   0.086  0.6232 -0.4342 -0.8190
 5923SOL    HW229403   4.613   0.449   0.099 -1.0726  0.1671  1.7298
 5924SOL     OW29404   2.453   2.235   4.297 -0.3098 -0.4420  0.3976
 5924SOL    HW129405   2.491   2.281   4.222 -1.9055  0.4601  0.1548
 5924SOL    HW229406   2.531   2.190   4.329  1.5769  0.8589 -2.2783
 5925SOL     OW29407   4.272   3.109  10.558  0.4307  0.3840 -0.3847
 5925SOL    HW129408   4.179   3.099  10.538  0.2054  1.2092  0.2428
 5925SOL    HW229409   4.282   3.200  10.530  2.0512 -0.1436 -1.5008
 5926SOL     OW29410   3.961   2.159   4.660 -0.7990 -0.0341  0.6667
 5926SOL    HW129411   3.898   2.120   4.599  1.4137  0.8666 -2.2056
 5926SOL    HW229412   4.029   2.186   4.598  0.2576  0.7025  2.1430
 5927SOL     OW29413   0.817   0.888   8.616  0.0589  0.1022 -0.4992
 5927SOL    HW129414   0.881   0.954   8.592 -0.0093  0.8712  1.4426
 5927SOL    HW229415   0.795   0.857   8.528 -0.8107 -0.7258  0.0077
 5928SOL     OW29416   4.059   3.915  13.833  0.2635  0.0193  0.3665
 5928SOL    HW129417   3.999   3.853  13.875 -1.1557  0.8756 -0.3701
 5928SOL    HW229418   4.012   3.938  13.753  1.6343  0.3274 -0.3536
 5929SOL     OW29419   0.450   4.329   8.692 -0.6776  0.0411 -0.2455
 5929SOL    HW129420   0.492   4.414   8.701  0.0563 -0.6108  2.4394
 5929SOL    HW229421   0.363   4.341   8.654 -1.0444  1.1240  0.9459
 5930SOL     OW29422   2.018   3.787   4.162  0.0365 -0.4797 -0.0025
 5930SOL    HW129423   1.964   3.752   4.232 -1.6064 -0.9298 -1.4906
 5930SOL    HW229424   2.099   3.737   4.168  1.3702  1.9192  2.3275
 5931SOL     OW29425   3.372   0.796   7.072 -0.0845 -0.0220 -0.3155
 5931SOL    HW129426   3.452   0.837   7.040  0.8745 -1.0509  0.7490
 5931SOL    HW229427   3.363   0.735   6.999  1.0419 -0.7228  0.1186
 5932SOL     OW29428   3.737   0.258  10.359  0.2662  0.4570  0.3664
 5932SOL    HW129429   3.701   0.300  10.438 -0.6103  1.5978 -0.6337
 5932SOL    HW229430   3.754   0.341  10.315 -1.5022  1.5578  1.7417
 5933SOL     OW29431   3.263   4.000  13.245  0.8713 -0.1561 -0.3184
 5933SOL    HW129432   3.324   3.972  13.177  0.5956  0.2983 -0.7587
 5933SOL    HW229433   3.324   3.986  13.317 -0.8683  1.8179  1.5537
 5934SOL     OW29434   2.174   0.218   0.912  0.1126  0.0895  0.0425
 5934SOL    HW129435   2.269   0.231   0.904  0.2358 -0.2066  1.0385
 5934SOL    HW229436   2.155   0.310   0.928 -1.1305 -0.3050  0.7961
 5935SOL     OW29437   2.838   4.651  12.200  0.9449 -0.1077 -0.0789
 5935SOL    HW129438   2.773   4.591  12.237 -1.1863  2.5363  0.4409
 5935SOL    HW229439   2.921   4.620  12.236  0.4560 -1.4346 -0.0783
 5936SOL     OW29440   0.988   4.488   4.370  0.1918 -0.1762 -0.1557
 5936SOL    HW129441   1.022   4.521   4.453 -0.6464 -0.2923  0.2316
 5936SOL    HW229442   0.897   4.519   4.373 -0.0214 -0.7363 -0.8429
 5937SOL     OW29443   2.336   1.862   0.169  0.2183 -0.3266 -0.5283
 5937SOL    HW129444   2.319   1.913   0.090  1.1697  1.0728  0.1921
 5937SOL    HW229445   2.430   1.875   0.181  0.1668 -1.2531  0.9196
 5938SOL     OW29446   1.571   1.555   5.505 -0.2607 -0.1795  0.2939
 5938SOL    HW129447   1.583   1.506   5.424 -0.6532  1.7284 -0.9140
 5938SOL    HW229448   1.652   1.606   5.499 -0.8583  0.5699 -1.4052
 5939SOL     OW29449   1.230   0.560  11.983 -0.3448 -0.0815 -0.8983
 5939SOL    HW129450   1.194   0.520  12.062  1.9792 -0.1366  0.1600
 5939SOL    HW229451   1.284   0.486  11.954 -0.8194 -0.6456 -0.3413
 5940SOL     OW29452   4.372   0.239   3.159 -0.1528  0.1542 -0.4689
 5940SOL    HW129453   4.454   0.205   3.195 -0.7376 -0.0000  0.7342
 5940SOL    HW229454   4.342   0.159   3.117 -0.6688 -0.5499  1.2215
 5941SOL     OW29455   4.199   2.827   2.202  0.2750  0.4657  0.4366
 5941SOL    HW129456   4.246   2.754   2.242  1.4845  1.1553  0.2752
 5941SOL    HW229457   4.160   2.781   2.127  0.1449 -0.7242  1.2306
 5942SOL     OW29458   2.489   0.711   3.181 -0.4760 -0.6637 -0.1344
 5942SOL    HW129459   2.397   0.715   3.154 -1.0887 -3.0044  1.5640
 5942SOL    HW229460   2.497   0.623   3.219  0.9123 -1.0507 -1.3284
 5943SOL     OW29461   0.365   2.430   8.641  0.1791 -0.2009  0.0883
 5943SOL    HW129462   0.301   2.501   8.628 -0.3451  0.0240  3.9215
 5943SOL    HW229463   0.306   2.355   8.640 -1.0644  0.7716 -0.1913
 5944SOL     OW29464   3.626   2.198   2.416  0.2312 -1.0384  0.2062
 5944SOL    HW129465   3.568   2.169   2.346 -0.0993 -2.6325  1.1400
 5944SOL    HW229466   3.609   2.293   2.414  2.4413 -0.6893 -1.2219
 5945SOL     OW29467   2.699   0.387   2.233 -0.6114 -0.0602  0.2185
 5945SOL    HW129468   2.641   0.376   2.157  0.1129  1.4548 -0.5496
 5945SOL    HW229469   2.737   0.473   2.217 -1.9060  0.1002 -2.0164
 5946SOL     OW29470   2.472   0.473  10.290  0.0364  0.0597 -0.1047
 5946SOL    HW129471   2.424   0.407  10.240 -2.1899  2.1234 -0.7433
 5946SOL    HW229472   2.472   0.541  10.221  0.4099  0.1095 -0.0558
 5947SOL     OW29473   1.593   1.853  16.943 -0.0221  0.1225  0.3924
 5947SOL    HW129474   1.552   1.921  16.890  0.5200  0.7185  0.7309
 5947SOL    HW229475   1.683   1.885  16.936 -0.1453  0.0866 -1.1712
 5948SOL     OW29476   1.284   0.071   5.644 -0.6144  0.1113  0.1006
 5948SOL    HW129477   1.376   0.045   5.638 -0.8729 -0.6462 -0.5771
 5948SOL    HW229478   1.273   0.147   5.586  0.1843  0.3471  0.2621
 5949SOL     OW29479   2.610   0.098   1.406  0.1398 -0.2373 -0.5771
 5949SOL    HW129480   2.566   0.173   1.444  1.0918 -0.7738  1.5726
 5949SOL    HW229481   2.581   0.021   1.456 -1.9790  1.6800  1.1060
 5950SOL     OW29482   1.133   1.925  15.828  0.3123  0.7024 -0.0612
 5950SOL    HW129483   1.048   1.970  15.833  1.0971  2.4413 -2.4377
 5950SOL    HW229484   1.132   1.892  15.738 -0.1548 -1.2436  0.6673
 5951SOL     OW29485   3.575   0.951   3.511 -0.0844 -0.0796 -0.1449
 5951SOL    HW129486   3.514   0.880   3.532 -0.0325 -0.3097 -0.7679
 5951SOL    HW229487   3.634   0.953   3.587 -2.7938  3.0363  1.8537
 5952SOL     OW29488   3.952   3.482   2.880  0.2514 -0.2641 -0.3653
 5952SOL    HW129489   3.899   3.561   2.895 -0.2950 -0.6168 -0.4200
 5952SOL    HW229490   3.989   3.469   2.967 -0.2589 -0.1252 -0.1237
 5953SOL     OW29491   1.224   1.259   4.636  0.5051 -0.0058 -0.3608
 5953SOL    HW129492   1.311   1.297   4.649 -0.8952  2.0770  3.2315
 5953SOL    HW229493   1.183   1.289   4.718  0.9267 -1.5364  0.4143
 5954SOL     OW29494   1.293   0.071  14.348 -0.2407 -0.0072  0.4496
 5954SOL    HW129495   1.297   0.163  14.320  1.1141 -0.5833 -1.2158
 5954SOL    HW229496   1.229   0.078  14.419 -0.9385  0.3967 -0.2232
 5955SOL     OW29497   2.999   4.067  13.176 -0.1427  0.7193 -0.1894
 5955SOL    HW129498   3.093   4.053  13.169 -0.3077  0.1255 -1.1877
 5955SOL    HW229499   3.004   4.161  13.194 -0.3063  0.8246 -0.7027
 5956SOL     OW29500   3.961   1.014   1.542 -0.0070 -0.6598 -1.0126
 5956SOL    HW129501   3.954   1.110   1.537 -1.7358 -0.7896 -1.1122
 5956SOL    HW229502   3.880   1.005   1.593  0.5930  3.7194  0.7506
 5957SOL     OW29503   0.321   3.710  12.009  0.8226 -0.3779 -0.4100
 5957SOL    HW129504   0.330   3.615  12.010  0.6660 -0.3955 -0.6563
 5957SOL    HW229505   0.407   3.736  12.041  0.2964  0.1471  0.5796
 5958SOL     OW29506   0.455   0.021   0.414 -0.3403  0.9354 -0.5160
 5958SOL    HW129507   0.471   0.086   0.482 -0.4908 -1.0088  1.3606
 5958SOL    HW229508   0.388   4.706   0.460  0.6354  0.6331  0.5696
 5959SOL     OW29509   0.896   4.221   9.584 -0.0617  0.1743  0.6048
 5959SOL    HW129510   0.933   4.208   9.671 -1.1442  1.0475  1.1839
 5959SOL    HW229511   0.806   4.207   9.610  0.0375  0.6859  1.2013
 5960SOL     OW29512   4.451   1.008   3.224 -0.0443 -0.5836  0.8030
 5960SOL    HW129513   4.417   1.097   3.230  1.5914  0.0995 -0.2032
 5960SOL    HW229514   4.391   0.959   3.167 -0.6039 -0.3470  1.1923
 5961SOL     OW29515   0.618   1.516   6.575  0.1633  0.2338 -0.0717
 5961SOL    HW129516   0.678   1.590   6.588  1.1977 -0.6042 -0.1673
 5961SOL    HW229517   0.624   1.507   6.480 -2.5682  0.1842 -0.2554
 5962SOL     OW29518   1.816   3.265   4.121  0.2956 -0.0824  0.1193
 5962SOL    HW129519   1.790   3.178   4.089  0.7853  0.0630 -0.6951
 5962SOL    HW229520   1.908   3.249   4.142  1.0161  2.4466 -1.1640
 5963SOL     OW29521   1.039   4.282  15.662 -0.0642  0.2408  0.0730
 5963SOL    HW129522   1.092   4.360  15.645  0.8501 -0.1472  1.0669
 5963SOL    HW229523   1.096   4.221  15.615  1.0792  1.3173  0.0444
 5964SOL     OW29524   1.733   2.154   0.963  0.1552  0.1636  0.5829
 5964SOL    HW129525   1.656   2.123   1.010  0.4741  0.5788  1.3772
 5964SOL    HW229526   1.767   2.068   0.939 -0.4172 -0.3683  1.6728
 5965SOL     OW29527   4.575   4.388   6.866  0.7768 -0.2958  0.1660
 5965SOL    HW129528   4.504   4.357   6.922 -1.7442  2.1411 -1.6629
 5965SOL    HW229529   4.625   4.436   6.931  3.7439  0.3153 -2.5665
 5966SOL     OW29530   1.655   4.643   9.525 -0.0334  0.9564  0.0172
 5966SOL    HW129531   1.661   4.570   9.463 -0.2577 -0.3699  1.5602
 5966SOL    HW229532   1.633   4.593   9.603  2.1472  1.9295  1.2515
 5967SOL     OW29533   1.729   0.103  11.152 -0.0563  0.0230 -0.3466
 5967SOL    HW129534   1.662   0.166  11.178  0.1963  1.1484 -2.4534
 5967SOL    HW229535   1.776   0.084  11.234  1.4459  0.1469 -1.1903
 5968SOL     OW29536   1.140   0.166   6.544 -0.5815  0.2761 -0.3128
 5968SOL    HW129537   1.066   0.181   6.603 -0.7181 -0.3377 -0.3208
 5968SOL    HW229538   1.197   0.241   6.557 -0.3274  0.1010 -0.4322
 5969SOL     OW29539   1.142   4.613   1.222 -0.1919 -0.2671 -0.2792
 5969SOL    HW129540   1.145   4.646   1.132 -1.2783 -0.9279 -0.5514
 5969SOL    HW229541   1.072   4.548   1.219  0.1798 -0.6705 -0.0985
 5970SOL     OW29542   0.188   0.612   1.057 -0.3377 -0.1428  0.5155
 5970SOL    HW129543   0.199   0.629   0.963  0.6746  1.7756  0.9711
 5970SOL    HW229544   0.261   0.651   1.104 -0.3981 -1.7724  1.9620
 5971SOL     OW29545   1.138   2.013   3.240 -0.4049  0.0679  0.2976
 5971SOL    HW129546   1.146   1.923   3.271 -0.4554  0.1753  0.6186
 5971SOL    HW229547   1.092   2.000   3.157  1.3992 -1.5161 -0.4428
 5972SOL     OW29548   4.716   3.760   4.447 -0.1571 -0.1030 -0.1265
 5972SOL    HW129549   4.712   3.832   4.510  2.3854 -0.0980  0.0335
 5972SOL    HW229550   4.624   3.750   4.424  0.0255 -1.0325 -0.4598
 5973SOL     OW29551   3.718   4.275   0.137  0.3580  0.2025 -0.4917
 5973SOL    HW129552   3.741   4.182   0.136  1.3847  0.4613 -0.4646
 5973SOL    HW229553   3.792   4.322   0.175 -0.5187  0.4183  0.9869
 5974SOL     OW29554   3.899   1.200  12.543 -0.7971 -0.6374 -0.1933
 5974SOL    HW129555   3.981   1.151  12.546 -0.5209 -0.2451 -1.3189
 5974SOL    HW229556   3.920   1.286  12.581 -2.4000  0.1562 -1.0885
 5975SOL     OW29557   2.641   1.193  10.085  0.3052 -0.5906  0.4264
 5975SOL    HW129558   2.697   1.134  10.034  0.2202 -0.5291  0.2622
 5975SOL    HW229559   2.571   1.216  10.025  0.0719  0.7054  1.2022
 5976SOL     OW29560   1.598   0.030  16.473  0.0828 -0.2133 -0.3592
 5976SOL    HW129561   1.622   4.705  16.402  1.7721  0.6637 -0.5327
 5976SOL    HW229562   1.646   0.105  16.437 -1.7374 -0.3130 -2.9287
 5977SOL     OW29563   0.268   3.246   0.243  0.2976  0.5973  0.1354
 5977SOL    HW129564   0.235   3.317   0.187  0.4744  0.6166  0.0547
 5977SOL    HW229565   0.259   3.173   0.183  0.5796  0.4573  0.2631
 5978SOL     OW29566   1.662   1.205  11.096  0.3635  0.2632  0.4051
 5978SOL    HW129567   1.695   1.291  11.069  1.7158 -0.8151 -1.3498
 5978SOL    HW229568   1.569   1.223  11.081  0.2937 -2.8985 -2.8194
 5979SOL     OW29569   2.724   1.072   2.312  0.3197  0.2269 -0.0653
 5979SOL    HW129570   2.705   1.155   2.269  1.0876 -0.1157 -1.0625
 5979SOL    HW229571   2.798   1.034   2.265 -0.1959 -1.3291  0.3872
 5980SOL     OW29572   0.328   3.180   7.870  0.1304 -0.3652 -0.3104
 5980SOL    HW129573   0.363   3.214   7.952  2.7136 -0.6995 -1.2801
 5980SOL    HW229574   0.415   3.159   7.837 -0.0726 -3.2075  0.8886
 5981SOL     OW29575   3.499   4.019  15.284  0.2489 -0.1923 -0.4827
 5981SOL    HW129576   3.464   4.061  15.205 -1.2482 -0.4324  0.0500
 5981SOL    HW229577   3.502   4.097  15.339  1.4109 -0.3807 -0.2771
 5982SOL     OW29578   1.948   1.055   9.868 -0.1609 -0.1499  0.3408
 5982SOL    HW129579   1.911   0.968   9.849  1.7055 -0.8497 -0.1014
 5982SOL    HW229580   1.879   1.100   9.916 -1.2621 -0.3668 -1.0306
 5983SOL     OW29581   3.187   1.903   1.580  0.1063  0.3755  0.4560
 5983SOL    HW129582   3.140   1.943   1.653 -0.1810  0.4830  0.2125
 5983SOL    HW229583   3.263   1.873   1.629  1.1412  1.2144 -0.6324
 5984SOL     OW29584   0.299   1.328  15.623 -0.5490 -0.4070  0.5337
 5984SOL    HW129585   0.313   1.254  15.564  2.8773 -0.2250  1.1273
 5984SOL    HW229586   0.204   1.331  15.614 -0.3833  1.1365 -0.6887
 5985SOL     OW29587   0.091   0.233   9.230  0.9162 -0.3234  0.3812
 5985SOL    HW129588   0.006   0.277   9.240  0.1558 -1.4302 -1.2553
 5985SOL    HW229589   0.128   0.233   9.318 -0.4343  1.0573  0.9577
 5986SOL     OW29590   3.679   3.749  17.258  0.6763 -0.5254 -0.5083
 5986SOL    HW129591   3.601   3.744  17.313  0.7308 -0.6819 -0.4484
 5986SOL    HW229592   3.663   3.830  17.209 -2.7080 -0.9663 -0.1600
 5987SOL     OW29593   2.248   2.112  11.452 -0.2382 -0.3122 -0.0150
 5987SOL    HW129594   2.306   2.081  11.383  0.6121  0.4702  0.3425
 5987SOL    HW229595   2.186   2.169  11.407  0.8101  0.1239 -0.8989
 5988SOL     OW29596   1.991   0.849  17.642  0.4615  0.6089 -0.0875
 5988SOL    HW129597   1.968   0.871  17.733 -1.2191 -1.3547 -0.0440
 5988SOL    HW229598   2.064   0.788  17.653 -2.4577 -3.0950 -1.0468
 5989SOL     OW29599   4.699   1.216   8.663 -0.1987 -0.4000  0.4247
 5989SOL    HW129600   0.003   1.228   8.576  0.5311 -0.6154  0.7230
 5989SOL    HW229601   4.607   1.217   8.634 -0.3304 -2.6875  0.7658
 5990SOL     OW29602   1.959   3.985  12.551 -0.9147 -0.5151 -0.4403
 5990SOL    HW129603   2.004   3.901  12.540  0.0330  0.1748 -1.7270
 5990SOL    HW229604   2.034   4.036  12.582 -1.3258  0.4918 -1.1238
 5991SOL     OW29605   0.146   3.783   9.294  0.1827 -0.4232  0.8361
 5991SOL    HW129606   0.180   3.829   9.217 -1.5560 -1.9247 -0.8281
 5991SOL    HW229607   0.089   3.848   9.335  0.4390 -0.4537  1.2425
 5992SOL     OW29608   2.615   1.825  10.077 -0.1979  0.1207 -0.0763
 5992SOL    HW129609   2.548   1.757  10.069 -0.3162  0.2176  0.0926
 5992SOL    HW229610   2.653   1.806   9.992  0.1040  0.0098  0.0825
 5993SOL     OW29611   1.265   4.352   6.843  0.2530 -0.2386  0.7215
 5993SOL    HW129612   1.224   4.347   6.757  1.3990  1.0328  0.0935
 5993SOL    HW229613   1.347   4.393   6.815 -1.4192  0.5428 -2.9817
 5994SOL     OW29614   0.157   4.218  11.503  0.5265 -0.0629  0.5548
 5994SOL    HW129615   0.236   4.207  11.557 -0.4561  1.2392  2.2553
 5994SOL    HW229616   0.093   4.237  11.571 -0.4841 -1.5012 -0.0055
 5995SOL     OW29617   0.729   3.137   0.584  0.2969  0.4744  0.5672
 5995SOL    HW129618   0.639   3.137   0.550 -0.6708 -2.9805  3.0422
 5995SOL    HW229619   0.740   3.044   0.565 -1.4057  0.5502 -0.8316
 5996SOL     OW29620   0.844   4.180   0.976  0.2833  0.0377  0.4186
 5996SOL    HW129621   0.793   4.251   0.936 -1.0710 -0.6820  0.8833
 5996SOL    HW229622   0.783   4.108   0.985  0.8378 -0.3539  1.0580
 5997SOL     OW29623   0.386   1.867   4.443 -0.0654  0.6381  0.3965
 5997SOL    HW129624   0.428   1.912   4.370 -1.0179 -1.2102 -1.2926
 5997SOL    HW229625   0.446   1.887   4.515  0.5172 -1.9338  0.6310
 5998SOL     OW29626   1.407   3.803   8.488  0.3240  0.2065  0.1168
 5998SOL    HW129627   1.481   3.787   8.547  0.4787 -1.5121 -0.5274
 5998SOL    HW229628   1.401   3.898   8.489  0.0590  0.1751  2.1801
 5999SOL     OW29629   3.425   1.337   3.314 -0.7469  0.9348  0.2902
 5999SOL    HW129630   3.334   1.309   3.306 -0.2579 -0.4575 -0.3765
 5999SOL    HW229631   3.433   1.417   3.261  1.5042  0.9256  0.5972
 6000SOL     OW29632   0.128   1.341   4.894  0.2510  0.0359  0.1961
 6000SOL    HW129633   0.115   1.435   4.887 -0.5965 -0.0758  0.2269
 6000SOL    HW229634   0.214   1.330   4.854  0.4323  1.1179  0.2815
 6001SOL     OW29635   1.651   2.346  12.435 -0.1415 -0.7084 -0.0023
 6001SOL    HW129636   1.734   2.308  12.463  0.4185  0.8111  0.4023
 6001SOL    HW229637   1.644   2.314  12.345  0.0702  0.5268 -0.4654
 6002SOL     OW29638   4.274   2.332  17.182 -0.6695 -0.0183 -0.3000
 6002SOL    HW129639   4.275   2.386  17.103 -0.7051 -0.3106 -0.4987
 6002SOL    HW229640   4.360   2.357  17.215 -1.0043  0.0965  0.4812
 6003SOL     OW29641   1.230   3.988   2.271 -0.4576 -0.6774 -0.4869
 6003SOL    HW129642   1.163   3.927   2.302 -0.7948  0.8726  1.8746
 6003SOL    HW229643   1.176   4.066   2.256 -0.9010 -0.9897 -0.4909
 6004SOL     OW29644   0.594   0.875  10.114 -0.0740  1.0465  0.1199
 6004SOL    HW129645   0.611   0.902  10.023 -0.7118  2.0135  0.2819
 6004SOL    HW229646   0.626   0.785  10.114  0.2083  1.1425 -0.4522
 6005SOL     OW29647   3.237   1.973   3.897 -0.0835  0.3121  0.5639
 6005SOL    HW129648   3.231   1.895   3.841 -0.2360  1.7524 -1.4284
 6005SOL    HW229649   3.298   2.029   3.848 -0.5233 -0.5566 -0.9586
 6006SOL     OW29650   2.823   1.335   6.386 -0.2398 -0.2584 -0.0210
 6006SOL    HW129651   2.841   1.343   6.479  0.6497  0.2266 -0.2268
 6006SOL    HW229652   2.789   1.420   6.357 -2.8138 -1.8305 -1.5716
 6007SOL     OW29653   1.578   1.730   7.148  0.1274  0.0895 -0.2157
 6007SOL    HW129654   1.547   1.651   7.193  0.0774  0.8885  1.1632
 6007SOL    HW229655   1.651   1.760   7.203 -0.2944  1.9900 -0.6735
 6008SOL     OW29656   3.344   0.562  13.627 -0.0013 -0.1718  0.3626
 6008SOL    HW129657   3.417   0.606  13.671  0.5662  0.4897 -1.2338
 6008SOL    HW229658   3.289   0.629  13.588 -2.5879 -1.7084  1.3900
 6009SOL     OW29659   1.433   2.773   7.729  0.9590 -0.1056 -0.0172
 6009SOL    HW129660   1.361   2.823   7.690  0.5899 -0.8589 -0.3103
 6009SOL    HW229661   1.396   2.685   7.720 -1.1198  0.6992  0.5278
 6010SOL     OW29662   0.047   3.128   2.419  0.1082 -0.5935 -0.3129
 6010SOL    HW129663   0.134   3.105   2.386  0.7266  0.3949  0.5964
 6010SOL    HW229664   0.002   3.044   2.423 -1.0873  0.0429 -0.3643
 6011SOL     OW29665   0.327   1.506   8.642  0.2871  0.3286  0.4126
 6011SOL    HW129666   0.308   1.412   8.638 -0.0271  0.4494 -0.9112
 6011SOL    HW229667   0.370   1.521   8.558 -1.0579 -1.5774 -0.6197
 6012SOL     OW29668   0.352   2.728  11.824  0.5346  0.2783  0.6050
 6012SOL    HW129669   0.322   2.637  11.829 -0.2346  0.3082 -3.3728
 6012SOL    HW229670   0.426   2.725  11.764  0.2742 -0.5508  0.3215
 6013SOL     OW29671   3.823   0.519   4.748  0.3444 -0.2185  0.0312
 6013SOL    HW129672   3.829   0.524   4.843  1.2042  1.2282 -0.1097
 6013SOL    HW229673   3.906   0.473   4.734  0.5930  0.2278  0.0370
 6014SOL     OW29674   0.703   1.801   6.074  0.3243  0.5003  0.3296
 6014SOL    HW129675   0.739   1.880   6.114 -0.8921  1.7271 -1.0365
 6014SOL    HW229676   0.773   1.736   6.085 -0.7563 -0.4225  1.7170
 6015SOL     OW29677   1.630   1.406   9.454 -0.0486  0.0461 -0.3250
 6015SOL    HW129678   1.633   1.454   9.372  1.4319  0.1505 -0.2084
 6015SOL    HW229679   1.657   1.477   9.512  1.7193 -1.1297  0.3218
 6016SOL     OW29680   1.280   2.580  13.642 -0.4697 -0.4298  0.3533
 6016SOL    HW129681   1.375   2.592  13.635 -0.7389  2.0151  0.8051
 6016SOL    HW229682   1.272   2.485  13.634 -2.0441 -0.4137  1.6020
 6017SOL     OW29683   4.529   2.897  12.170  0.8388  0.1574  0.5158
 6017SOL    HW129684   4.457   2.950  12.205  1.2150  0.3205  1.0406
 6017SOL    HW229685   4.531   2.930  12.080  2.5107 -0.2067  0.4289
 6018SOL     OW29686   2.276   4.662   2.207 -1.0034 -0.1931  0.6366
 6018SOL    HW129687   2.301   4.681   2.116 -0.5931  1.4452  1.0961
 6018SOL    HW229688   2.181   4.652   2.197 -0.8854 -2.7734  2.2923
 6019SOL     OW29689   4.175   2.268  13.784 -0.2319 -0.3832  0.4206
 6019SOL    HW129690   4.227   2.346  13.802  0.0272 -0.9876  2.2711
 6019SOL    HW229691   4.093   2.277  13.832  0.5276 -1.9662  2.0366
 6020SOL     OW29692   2.079   3.812   7.125 -0.2271  0.2794 -0.3654
 6020SOL    HW129693   1.986   3.795   7.140 -0.0431  0.2576  0.7952
 6020SOL    HW229694   2.094   3.873   7.198 -1.2050 -0.8745  0.8122
 6021SOL     OW29695   0.002   1.758   9.349  0.4445 -0.1200 -0.1601
 6021SOL    HW129696   0.065   1.688   9.331 -1.1403 -1.2304 -1.3891
 6021SOL    HW229697   4.706   1.779   9.261 -0.8232 -1.0848  0.0623
 6022SOL     OW29698   1.078   2.603   6.375  0.0248  0.2728 -0.4778
 6022SOL    HW129699   1.032   2.606   6.459  2.3738  0.6965  0.7805
 6022SOL    HW229700   1.169   2.590   6.399 -0.4650 -0.4110  1.0042
 6023SOL     OW29701   4.013   3.777  11.643 -0.7200 -0.4501 -0.9277
 6023SOL    HW129702   3.924   3.812  11.648 -0.1105  0.9148  0.4805
 6023SOL    HW229703   4.008   3.685  11.672  2.0101 -0.6045 -0.9773
 6024SOL     OW29704   2.999   0.901  12.197 -0.2737 -0.3788 -0.2554
 6024SOL    HW129705   2.993   0.997  12.199  0.1864 -0.3196 -1.5348
 6024SOL    HW229706   3.080   0.883  12.243  0.0252 -0.4716 -0.8214
 6025SOL     OW29707   0.208   1.333   3.322  0.2080  0.5478 -0.1158
 6025SOL    HW129708   0.254   1.416   3.327 -0.1686  0.8102 -1.0070
 6025SOL    HW229709   0.189   1.338   3.228 -1.2873 -0.0191  0.1416
 6026SOL     OW29710   1.995   0.244   2.255  0.1533  0.0459  0.3750
 6026SOL    HW129711   1.949   0.290   2.325  1.6003  0.8130  0.8276
 6026SOL    HW229712   2.086   0.234   2.281  0.4041 -0.6045 -0.7473
 6027SOL     OW29713   2.366   0.647   6.569 -0.1211  0.0643  0.0619
 6027SOL    HW129714   2.300   0.711   6.596  0.4385  0.5932  0.1787
 6027SOL    HW229715   2.341   0.648   6.477  2.1851  0.8387 -0.5419
 6028SOL     OW29716   2.994   1.641   4.404 -0.4864  0.6331 -0.3431
 6028SOL    HW129717   2.933   1.655   4.331 -0.9885  0.1203 -0.0153
 6028SOL    HW229718   2.973   1.715   4.462 -2.1141  0.0799 -0.2222
 6029SOL     OW29719   1.052   4.562   2.324 -0.2772 -1.1331 -0.3333
 6029SOL    HW129720   1.006   4.583   2.243 -0.1569 -2.3330 -0.7259
 6029SOL    HW229721   0.975   4.557   2.381  0.1255 -0.5387  0.2627
 6030SOL     OW29722   2.519   3.413   5.526  0.4732 -0.6511 -0.2180
 6030SOL    HW129723   2.445   3.383   5.472 -0.7350  2.0337 -0.0251
 6030SOL    HW229724   2.583   3.414   5.456  0.3839 -1.5511 -0.3230
 6031SOL     OW29725   0.526   2.660  17.341  0.8178 -0.1926 -0.3725
 6031SOL    HW129726   0.431   2.671  17.344  0.8030 -0.0972 -1.2773
 6031SOL    HW229727   0.557   2.744  17.374 -2.4131 -0.0659  2.4198
 6032SOL     OW29728   0.824   4.662   5.099  0.3996 -0.2451  0.1125
 6032SOL    HW129729   0.771   4.724   5.149 -3.0954  0.2506 -4.1775
 6032SOL    HW229730   0.887   4.631   5.163 -1.3093 -1.6264  1.1345
 6033SOL     OW29731   2.169   1.842   0.834 -0.3811 -0.0077 -0.2850
 6033SOL    HW129732   2.173   1.913   0.898  0.0571 -1.0541  0.8447
 6033SOL    HW229733   2.139   1.888   0.756  0.4064 -0.0511 -0.6034
 6034SOL     OW29734   1.763   0.016   5.138  0.5550  0.0746  0.0767
 6034SOL    HW129735   1.848   4.709   5.127  0.6092  0.8571 -2.6838
 6034SOL    HW229736   1.710   4.672   5.125  0.5417  0.1816 -0.5248
 6035SOL     OW29737   3.290   4.221   6.172 -0.5010  0.4210  0.6953
 6035SOL    HW129738   3.373   4.237   6.218 -0.5315  0.0502  0.8808
 6035SOL    HW229739   3.247   4.303   6.196  0.8581  1.4399 -0.3906
 6036SOL     OW29740   0.810   1.368  17.157  0.0470  0.0679 -0.0640
 6036SOL    HW129741   0.833   1.380  17.065 -0.5071 -0.2444 -0.2425
 6036SOL    HW229742   0.750   1.443  17.164 -0.3881 -0.2595 -0.2697
 6037SOL     OW29743   1.016   1.290   3.540  0.2752 -0.1038  0.6365
 6037SOL    HW129744   0.983   1.227   3.476  1.2744  1.0430 -1.0141
 6037SOL    HW229745   1.005   1.369   3.487 -0.8170 -0.0493  0.9511
 6038SOL     OW29746   2.289   1.398   8.342 -0.0087 -0.7195  0.4436
 6038SOL    HW129747   2.246   1.360   8.266  0.1386  1.8098 -0.9233
 6038SOL    HW229748   2.234   1.471   8.369 -0.4709  0.2469 -3.0719
 6039SOL     OW29749   2.158   0.667  11.234 -0.2555  0.1625  0.2092
 6039SOL    HW129750   2.245   0.705  11.246 -1.2372  2.1878  0.7784
 6039SOL    HW229751   2.105   0.745  11.219 -2.5502 -1.2684  0.7716
 6040SOL     OW29752   3.675   1.960  17.066  0.6010 -0.5027  0.0234
 6040SOL    HW129753   3.726   1.924  16.993  1.1839 -0.8740  0.6128
 6040SOL    HW229754   3.597   2.001  17.030  1.1397  1.0029  0.5548
 6041SOL     OW29755   1.757   2.166   5.096  0.6026 -0.0217 -0.1848
 6041SOL    HW129756   1.836   2.194   5.049 -0.2691  2.9666  0.1453
 6041SOL    HW229757   1.730   2.239   5.152 -1.7716  0.4155 -1.9080
 6042SOL     OW29758   0.826   1.031   5.350  0.3647 -0.0003  0.2174
 6042SOL    HW129759   0.882   1.085   5.405 -1.6567 -1.1656  3.4415
 6042SOL    HW229760   0.770   0.991   5.417 -1.4968 -1.2321 -2.0346
 6043SOL     OW29761   3.694   0.703  12.895 -0.5657  0.0752 -0.1965
 6043SOL    HW129762   3.663   0.784  12.935 -0.3820 -1.7706  3.7045
 6043SOL    HW229763   3.618   0.648  12.912 -0.3486 -0.5928 -1.3591
 6044SOL     OW29764   4.179   2.298  13.305 -0.5569  0.0152  0.7477
 6044SOL    HW129765   4.095   2.344  13.305  1.2548  3.3194 -1.8310
 6044SOL    HW229766   4.147   2.218  13.264 -1.0410  1.8177 -2.3747
 6045SOL     OW29767   3.087   2.002  15.422  0.0598 -0.2947  0.7080
 6045SOL    HW129768   3.177   2.002  15.389 -0.1822 -0.6376  0.0355
 6045SOL    HW229769   3.099   2.061  15.496  0.5062  0.2965  0.1650
 6046SOL     OW29770   4.101   3.005   2.691 -0.3376  0.0710 -0.2568
 6046SOL    HW129771   4.027   3.065   2.695 -1.3230 -1.1874  0.2606
 6046SOL    HW229772   4.131   3.011   2.600 -0.3185  2.0337 -0.1275
 6047SOL     OW29773   0.763   4.112  10.128 -0.0803  0.3390 -0.6059
 6047SOL    HW129774   0.696   4.128  10.195 -0.4302 -2.5613 -0.2704
 6047SOL    HW229775   0.773   4.203  10.099 -4.5683  1.2203  0.4815
 6048SOL     OW29776   2.998   3.562   7.912 -0.1278  0.1320  0.1318
 6048SOL    HW129777   3.037   3.484   7.951 -0.1603  0.0261 -0.0445
 6048SOL    HW229778   3.059   3.626   7.949 -0.9524  1.2297 -0.4085
 6049SOL     OW29779   0.627   0.675  11.296  0.2883  0.0262  0.3807
 6049SOL    HW129780   0.691   0.660  11.226  1.9391  3.9766  1.0618
 6049SOL    HW229781   0.663   0.755  11.334  0.5177  0.1824 -0.1603
 6050SOL     OW29782   0.754   1.984  10.876  0.3654  0.3243  0.3184
 6050SOL    HW129783   0.814   1.945  10.941 -0.1373 -1.3813 -0.2454
 6050SOL    HW229784   0.797   2.070  10.878  0.6263  0.2087 -0.5772
 6051SOL     OW29785   1.426   4.226  17.318  0.3040  0.3643  0.6262
 6051SOL    HW129786   1.350   4.265  17.363 -0.2872 -0.5847  0.4332
 6051SOL    HW229787   1.453   4.307  17.274 -0.3835 -0.6616 -1.6938
 6052SOL     OW29788   4.310   0.320   6.459  0.1527 -0.0961  0.1229
 6052SOL    HW129789   4.326   0.308   6.365  0.1159 -0.9994  0.2354
 6052SOL    HW229790   4.398   0.299   6.489  0.7546  0.6614 -1.0988
 6053SOL     OW29791   1.882   1.807  10.793 -0.4562  0.2864  0.2831
 6053SOL    HW129792   1.857   1.899  10.799  1.9987  1.0162 -0.7421
 6053SOL    HW229793   1.880   1.787  10.886  1.3716  1.5106  0.5817
 6054SOL     OW29794   2.191   3.947   6.521 -0.6242 -0.1373 -0.0780
 6054SOL    HW129795   2.206   3.926   6.613 -1.9534 -1.3832 -0.1603
 6054SOL    HW229796   2.165   4.039   6.521  0.0472  0.0699 -2.2206
 6055SOL     OW29797   3.365   3.681   8.685 -0.4053 -0.0808  0.6482
 6055SOL    HW129798   3.326   3.754   8.637  1.0466 -0.8309 -1.6208
 6055SOL    HW229799   3.359   3.615   8.616 -1.5314  2.6382 -1.8600
 6056SOL     OW29800   1.900   3.758   6.515  0.1010 -0.5824  0.1250
 6056SOL    HW129801   1.902   3.834   6.573 -0.1583 -0.1714 -0.4011
 6056SOL    HW229802   1.903   3.686   6.578  0.6822  0.0400  0.8108
 6057SOL     OW29803   0.157   4.102  12.546 -0.5195  0.8638  0.1672
 6057SOL    HW129804   0.080   4.092  12.491  0.2796 -2.1995 -0.4034
 6057SOL    HW229805   0.155   4.198  12.552  1.5749  0.8516  1.2019
 6058SOL     OW29806   4.243   4.355   2.930  0.2960 -0.1030  0.5201
 6058SOL    HW129807   4.166   4.409   2.946 -0.6772 -1.3483 -0.0082
 6058SOL    HW229808   4.311   4.423   2.927  1.0407 -0.8271  1.1427
 6059SOL     OW29809   1.537   2.573  12.535  0.2063  0.2572  0.5265
 6059SOL    HW129810   1.568   2.648  12.483  1.3941 -0.2274  0.5519
 6059SOL    HW229811   1.579   2.496  12.498  1.1803  0.4034  1.3386
 6060SOL     OW29812   0.420   4.723   5.805  0.5759 -0.0105 -0.7264
 6060SOL    HW129813   0.495   0.037   5.838 -0.8079  0.6055  1.5139
 6060SOL    HW229814   0.350   0.047   5.833  0.3024 -1.1694  1.0154
 6061SOL     OW29815   2.479   1.543   7.026  0.1068 -0.6093 -0.0291
 6061SOL    HW129816   2.432   1.570   7.105 -1.4164  1.7116 -1.7127
 6061SOL    HW229817   2.567   1.530   7.061 -0.0598  2.7171  1.6136
 6062SOL     OW29818   3.868   2.536   8.295  0.0957 -0.3410  0.2756
 6062SOL    HW129819   3.853   2.441   8.287  0.9888 -0.4090 -0.5889
 6062SOL    HW229820   3.908   2.534   8.382 -1.5999 -1.1468  1.0310
 6063SOL     OW29821   3.460   4.645   8.315 -0.3386  0.2843  0.3647
 6063SOL    HW129822   3.545   4.660   8.273 -0.5428 -1.2572 -0.6100
 6063SOL    HW229823   3.395   4.633   8.245  0.7185 -1.5799 -0.2968
 6064SOL     OW29824   2.068   1.916   3.954  0.1086 -0.6164 -0.1482
 6064SOL    HW129825   2.127   1.887   3.884 -0.3355 -1.3163 -0.2406
 6064SOL    HW229826   2.105   2.001   3.976 -1.5367 -0.1032  0.6433
 6065SOL     OW29827   0.285   3.136   1.366 -0.6485 -0.2651 -0.0715
 6065SOL    HW129828   0.352   3.160   1.303  1.5119 -1.2541  1.8404
 6065SOL    HW229829   0.201   3.141   1.321 -1.0466 -2.0743  0.4755
 6066SOL     OW29830   0.615   0.331   1.460  0.0311 -0.0260  0.0507
 6066SOL    HW129831   0.650   0.287   1.539 -0.6962  1.0501  0.9688
 6066SOL    HW229832   0.540   0.372   1.502  0.2876 -1.2931  1.7899
 6067SOL     OW29833   0.915   2.507  11.926 -0.1792 -0.0169 -0.7271
 6067SOL    HW129834   0.826   2.488  11.900 -0.3616 -0.6462  0.3400
 6067SOL    HW229835   0.962   2.424  11.934  1.1053  0.8191  0.5519
 6068SOL     OW29836   2.751   1.883   1.131  0.8696 -0.2265 -0.3869
 6068SOL    HW129837   2.681   1.860   1.192 -1.3072  3.8011 -1.3522
 6068SOL    HW229838   2.759   1.977   1.151 -0.3246 -0.0496 -0.7181
 6069SOL     OW29839   0.237   1.062   1.671  0.0983 -0.6756  0.1101
 6069SOL    HW129840   0.318   1.034   1.630  0.3271 -0.4283  0.3897
 6069SOL    HW229841   0.251   1.053   1.766 -1.3577  0.8057  0.4804
 6070SOL     OW29842   1.777   4.249  11.805  0.2923 -0.9408  0.3058
 6070SOL    HW129843   1.722   4.194  11.861  2.9304 -2.4710  1.4298
 6070SOL    HW229844   1.846   4.184  11.796 -1.3203 -2.3202 -2.0303
 6071SOL     OW29845   2.312   2.704   5.027  0.1076  0.1965  0.0687
 6071SOL    HW129846   2.310   2.781   4.970 -0.5473  1.4741  1.8333
 6071SOL    HW229847   2.296   2.741   5.114 -0.1045 -0.1775  0.1917
 6072SOL     OW29848   4.446   1.377  17.444  0.1822  0.4383  0.2099
 6072SOL    HW129849   4.420   1.354  17.354 -1.8799 -0.7290  1.1189
 6072SOL    HW229850   4.363   1.379  17.491  0.6575 -2.5981  1.1826
 6073SOL     OW29851   2.693   1.386  14.799 -0.2721  0.4133  0.4847
 6073SOL    HW129852   2.723   1.472  14.829 -1.2825  1.0366 -0.3472
 6073SOL    HW229853   2.604   1.408  14.824  0.2545  2.5574  0.4440
 6074SOL     OW29854   2.180   1.152  15.382  0.7955  0.1454  0.3400
 6074SOL    HW129855   2.086   1.158  15.369  1.1699  1.9081 -1.5029
 6074SOL    HW229856   2.200   1.069  15.425 -0.5679 -0.7215 -0.7017
 6075SOL     OW29857   0.474   2.237   7.728 -0.2655  0.9513 -0.1176
 6075SOL    HW129858   0.480   2.206   7.818  0.8044 -1.7919 -1.1092
 6075SOL    HW229859   0.413   2.307   7.749 -1.4442 -0.2721  0.5773
 6076SOL     OW29860   0.859   0.323   3.249 -0.0960 -0.1653 -0.3344
 6076SOL    HW129861   0.867   0.400   3.306  2.4765  0.8455 -2.0291
 6076SOL    HW229862   0.949   0.323   3.216  0.0453  0.2311  0.0580
 6077SOL     OW29863   2.194   0.148  15.702  0.8755 -0.5929  0.4680
 6077SOL    HW129864   2.118   0.094  15.684  0.8984  0.1745 -1.8723
 6077SOL    HW229865   2.256   0.082  15.733 -0.2803 -2.2706 -0.7658
 6078SOL     OW29866   2.523   2.075   2.002 -0.6011 -0.5561 -0.4977
 6078SOL    HW129867   2.551   2.053   2.090  1.7551 -2.0193 -1.6309
 6078SOL    HW229868   2.476   2.156   2.023 -0.7338 -1.2517  1.8583
 6079SOL     OW29869   2.800   0.988   8.905  0.3549  0.2659  0.3585
 6079SOL    HW129870   2.756   0.979   8.820 -0.3797 -0.9896  0.8764
 6079SOL    HW229871   2.815   0.897   8.932  2.0811  0.2526 -0.6347
 6080SOL     OW29872   4.169   3.379  10.528  0.1134 -0.3192  0.3822
 6080SOL    HW129873   4.116   3.345  10.600  0.2834  0.5140  0.9005
 6080SOL    HW229874   4.121   3.460  10.510 -1.1206 -1.5946 -2.1201
 6081SOL     OW29875   2.150   0.813   8.757 -0.3729 -0.4556  0.4186
 6081SOL    HW129876   2.168   0.782   8.668  1.9869 -1.0018  1.0684
 6081SOL    HW229877   2.178   0.743   8.815  2.4528  0.2790 -0.0031
 6082SOL     OW29878   0.206   4.373   1.354 -0.2361  0.1483 -0.5986
 6082SOL    HW129879   0.222   4.450   1.409 -1.0768 -0.4524  0.4861
 6082SOL    HW229880   0.276   4.386   1.290 -1.1125  0.2943 -1.5260
 6083SOL     OW29881   1.684   4.085  16.371 -0.1948  0.2678 -0.0711
 6083SOL    HW129882   1.674   4.122  16.459 -0.7200  0.0051 -0.0222
 6083SOL    HW229883   1.597   4.104  16.338 -0.3844  1.0355  0.8602
 6084SOL     OW29884   0.756   1.917   3.566 -0.2125  0.3232  0.0084
 6084SOL    HW129885   0.667   1.954   3.568  0.4584  1.8733  1.0135
 6084SOL    HW229886   0.804   1.967   3.501  1.7727 -0.9769  0.4943
 6085SOL     OW29887   4.356   2.461   8.644 -0.4357  0.0635 -0.2208
 6085SOL    HW129888   4.429   2.484   8.703 -1.8857 -0.0726  1.6205
 6085SOL    HW229889   4.289   2.522   8.674  0.1771  0.9061 -0.5788
 6086SOL     OW29890   3.120   0.564   1.801  0.3605 -0.1261  0.0781
 6086SOL    HW129891   3.052   0.499   1.816 -0.1696  0.5525  0.6308
 6086SOL    HW229892   3.074   0.647   1.787 -1.8133 -1.5941 -1.4250
 6087SOL     OW29893   3.807   3.024   3.068  0.4856  0.1880  0.5820
 6087SOL    HW129894   3.881   3.009   3.008  0.7773  1.3370  0.6639
 6087SOL    HW229895   3.850   3.093   3.118 -1.6363  0.4784  2.0074
 6088SOL     OW29896   3.681   3.125  16.646 -0.0942  0.5160  0.3498
 6088SOL    HW129897   3.661   3.161  16.733  0.8012  1.9217 -0.0163
 6088SOL    HW229898   3.773   3.099  16.643  0.1402  1.4689 -0.6967
 6089SOL     OW29899   0.043   2.375   9.148  0.3274 -0.2688 -0.1200
 6089SOL    HW129900   4.705   2.433   9.170  2.1741  1.7189  0.7761
 6089SOL    HW229901   0.119   2.426   9.177 -0.3356 -0.4074  1.8415
 6090SOL     OW29902   2.728   0.994  13.014 -0.2284 -0.3017 -0.6859
 6090SOL    HW129903   2.729   1.063  13.080  0.8295 -0.1198 -0.8909
 6090SOL    HW229904   2.695   0.916  13.059  1.0795  0.2574  1.2555
 6091SOL     OW29905   3.694   3.222  15.860 -0.2387 -1.1726 -0.0079
 6091SOL    HW129906   3.610   3.267  15.851  2.1023  2.9500 -1.3277
 6091SOL    HW229907   3.755   3.296  15.856 -2.7816  0.8279 -1.4680
 6092SOL     OW29908   4.535   0.725   2.948 -0.4664  0.4441  0.1400
 6092SOL    HW129909   4.520   0.710   2.854  0.8460 -0.9839  0.1710
 6092SOL    HW229910   4.537   0.638   2.987 -2.4478 -0.7421 -2.3699
 6093SOL     OW29911   4.050   0.892   1.870  0.0213  0.5801  0.5257
 6093SOL    HW129912   4.041   0.987   1.872  2.2314  0.8154 -0.3952
 6093SOL    HW229913   4.054   0.867   1.778 -1.6641 -0.9603  0.8620
 6094SOL     OW29914   3.819   1.894   4.527  0.8540 -0.3410  0.0245
 6094SOL    HW129915   3.783   1.853   4.606 -1.9355 -1.0213 -1.5921
 6094SOL    HW229916   3.753   1.853   4.471 -1.1467  1.1876  1.2381
 6095SOL     OW29917   4.149   0.307   5.455  0.1317  0.0529 -0.2048
 6095SOL    HW129918   4.208   0.337   5.525  0.6054  1.2795 -1.1378
 6095SOL    HW229919   4.178   0.356   5.379 -1.4165  2.1793  0.5777
 6096SOL     OW29920   0.326   1.255   7.866 -0.2366 -0.8435  0.1372
 6096SOL    HW129921   0.303   1.314   7.795 -0.8500 -1.4784 -0.1881
 6096SOL    HW229922   0.298   1.301   7.945  2.1535  2.0844 -0.6947
 6097SOL     OW29923   4.018   3.200   7.217 -0.2326  0.3686  0.3287
 6097SOL    HW129924   4.081   3.157   7.158 -1.9030 -1.1461 -0.3397
 6097SOL    HW229925   3.942   3.143   7.210  0.3141 -0.3740  0.4890
 6098SOL     OW29926   2.255   3.452   4.374  0.5910  0.1030  0.3587
 6098SOL    HW129927   2.265   3.369   4.326  3.3205 -0.1334  1.3397
 6098SOL    HW229928   2.171   3.443   4.418  1.7051 -2.2315  2.0216
 6099SOL     OW29929   2.422   1.203   5.922 -0.0008 -0.4431  0.2249
 6099SOL    HW129930   2.473   1.271   5.967 -1.0111 -0.3062  1.1918
 6099SOL    HW229931   2.331   1.235   5.930  1.1108  2.4350  1.3990
 6100SOL     OW29932   1.294   0.575   8.773  0.0523 -0.3466 -0.0153
 6100SOL    HW129933   1.268   0.521   8.847 -2.2444 -0.9056 -1.2110
 6100SOL    HW229934   1.302   0.506   8.708 -2.4361 -0.1869 -0.5133
 6101SOL     OW29935   2.010   2.212  11.282  0.1613 -0.3497 -0.0885
 6101SOL    HW129936   1.931   2.265  11.298 -0.8741 -1.7056 -0.6986
 6101SOL    HW229937   1.968   2.130  11.308 -0.8251 -0.6054 -2.5362
 6102SOL     OW29938   4.669   3.892   0.737  0.6266  0.2222 -0.0125
 6102SOL    HW129939   4.703   3.909   0.649  0.3251  2.0170  0.2002
 6102SOL    HW229940   4.648   3.982   0.762 -0.7096 -0.2739  0.5955
 6103SOL     OW29941   3.779   0.466   6.780  0.4638 -0.0878  0.1850
 6103SOL    HW129942   3.721   0.391   6.787  0.5647 -0.3624 -1.9585
 6103SOL    HW229943   3.843   0.448   6.849 -1.4049 -2.1666  1.3706
 6104SOL     OW29944   3.496   1.827   7.749  0.4248  0.3334 -0.1615
 6104SOL    HW129945   3.576   1.858   7.707 -0.2843  1.7078 -0.5187
 6104SOL    HW229946   3.525   1.780   7.826 -1.2697 -1.1584 -0.4336
 6105SOL     OW29947   1.361   2.091  16.499 -0.2133 -0.1504  0.2177
 6105SOL    HW129948   1.294   2.023  16.489 -1.9713  1.5392  0.6447
 6105SOL    HW229949   1.319   2.169  16.465  0.4721  0.3160  0.4482
 6106SOL     OW29950   2.561   4.363   6.113 -0.0706  0.1814  0.8481
 6106SOL    HW129951   2.604   4.280   6.090 -1.5081  0.2854 -2.2648
 6106SOL    HW229952   2.629   4.424   6.088 -0.7195  0.4307 -0.3007
 6107SOL     OW29953   4.133   3.397   7.002 -0.0204 -0.0981 -0.3630
 6107SOL    HW129954   4.047   3.364   6.976  0.0756 -1.1143  0.6195
 6107SOL    HW229955   4.183   3.317   7.019  0.0538 -0.1290 -0.7457
 6108SOL     OW29956   2.903   1.995   6.054  0.8395 -0.5099  0.0858
 6108SOL    HW129957   2.900   2.060   5.983 -2.2568  0.7345  1.3139
 6108SOL    HW229958   2.832   1.940   6.020  0.5513 -0.2802  0.3122
 6109SOL     OW29959   0.437   3.352   3.622 -0.4951  0.2288 -0.1194
 6109SOL    HW129960   0.409   3.279   3.566 -0.8763 -0.4841  1.0037
 6109SOL    HW229961   0.380   3.344   3.698 -0.1591  0.7897  0.1851
 6110SOL     OW29962   4.556   1.582   9.156  0.0803  0.0343 -0.6422
 6110SOL    HW129963   4.590   1.661   9.114 -1.8403  1.7404  1.0064
 6110SOL    HW229964   4.477   1.622   9.192 -1.6788 -2.5231 -1.6619
 6111SOL     OW29965   4.070   2.325   5.639 -0.2600 -0.0186 -0.8266
 6111SOL    HW129966   4.128   2.362   5.572  1.9119  2.7260  2.5858
 6111SOL    HW229967   3.990   2.365   5.606  0.2899  1.4858 -0.3338
 6112SOL     OW29968   0.917   1.645   9.185 -0.0532 -0.0765 -0.1318
 6112SOL    HW129969   0.904   1.649   9.090  2.2516 -1.9779 -0.5243
 6112SOL    HW229970   0.910   1.735   9.217 -1.5141  0.0376 -0.7692
 6113SOL     OW29971   3.531   3.774   5.146  0.1307 -0.1122  0.4087
 6113SOL    HW129972   3.483   3.802   5.225  1.3447  1.0116  0.7418
 6113SOL    HW229973   3.451   3.776   5.093  0.4621 -2.8919 -0.1920
 6114SOL     OW29974   2.050   3.609   8.272  0.1848 -0.1982  0.4263
 6114SOL    HW129975   1.998   3.658   8.336 -0.0459 -0.5077  0.4756
 6114SOL    HW229976   2.125   3.586   8.328 -0.2880 -1.3231  0.6064
 6115SOL     OW29977   1.223   0.011   9.223 -0.1017 -0.4569 -0.2242
 6115SOL    HW129978   1.184   4.681   9.282 -0.1503 -0.1914  0.0322
 6115SOL    HW229979   1.314   0.001   9.252 -0.5820  1.3553  1.9011
 6116SOL     OW29980   0.916   1.721   0.992 -0.4564 -0.9321  0.2634
 6116SOL    HW129981   0.854   1.718   0.919 -0.5898  0.6037  0.3267
 6116SOL    HW229982   0.890   1.637   1.029  0.8155 -1.9957 -1.2587
 6117SOL     OW29983   4.482   2.009  11.487  0.3469 -0.0305  0.6619
 6117SOL    HW129984   4.524   1.995  11.402 -0.6668 -2.0040  0.4903
 6117SOL    HW229985   4.535   1.963  11.553 -0.6281  0.7684  2.0144
 6118SOL     OW29986   2.206   0.422   5.017  0.0894  0.2416 -0.0842
 6118SOL    HW129987   2.123   0.438   4.972 -0.6860 -1.0347  0.8627
 6118SOL    HW229988   2.278   0.451   4.962 -1.3428 -0.2782 -2.2449
 6119SOL     OW29989   2.448   3.187  15.635  0.2062 -0.3400  0.6580
 6119SOL    HW129990   2.447   3.092  15.623 -0.5223 -0.3054  0.4241
 6119SOL    HW229991   2.360   3.206  15.666  0.1663  0.3568  0.1055
 6120SOL     OW29992   2.786   3.194  14.025  0.2008  0.1032 -0.4546
 6120SOL    HW129993   2.714   3.251  14.049 -0.7588 -1.1942 -0.2570
 6120SOL    HW229994   2.747   3.146  13.953  2.2445 -0.7422 -1.0141
 6121SOL     OW29995   2.503   1.470  12.508  0.4795  0.0017 -0.6729
 6121SOL    HW129996   2.569   1.445  12.574  2.3547  1.3939 -2.0211
 6121SOL    HW229997   2.421   1.474  12.556  0.4615 -0.5657 -0.6586
 6122SOL     OW29998   2.863   2.938  16.249 -0.6274  0.1722 -0.2466
 6122SOL    HW129999   2.865   2.883  16.170  1.3194  1.7151 -1.2783
 6122SOL    HW230000   2.850   3.025  16.210 -1.0438  0.5615  0.7707
 6123SOL     OW30001   3.254   4.562   8.617 -0.0273  0.5688  0.3848
 6123SOL    HW130002   3.330   4.526   8.572 -0.7697 -1.5045  0.8073
 6123SOL    HW230003   3.260   4.655   8.593  1.2381  0.4126  0.0955
 6124SOL     OW30004   1.180   2.250   6.247 -0.6366 -0.2933  0.4750
 6124SOL    HW130005   1.190   2.183   6.180  0.2751  0.4743 -0.1516
 6124SOL    HW230006   1.085   2.263   6.247 -0.6828 -0.6073  0.9004
 6125SOL     OW30007   1.589   2.407   3.745 -0.2721 -0.2216  0.0394
 6125SOL    HW130008   1.677   2.375   3.766  0.3141  1.8295  0.7078
 6125SOL    HW230009   1.615   2.484   3.694  0.2189 -0.2524  0.2451
 6126SOL     OW30010   0.033   1.753   8.815  0.0166  0.7707 -0.2258
 6126SOL    HW130011   0.009   1.816   8.747 -1.5961 -0.2077 -0.5712
 6126SOL    HW230012   0.026   1.782   8.905  1.5723  0.7893 -0.1046
 6127SOL     OW30013   1.414   0.577   3.314  0.2364 -0.1041  0.2001
 6127SOL    HW130014   1.336   0.632   3.325  1.2330  1.8468 -2.5544
 6127SOL    HW230015   1.453   0.604   3.231  1.0212 -1.1817  0.2164
 6128SOL     OW30016   1.571   0.328  17.514  0.2071  0.4294  0.3357
 6128SOL    HW130017   1.642   0.366  17.461  0.2702 -2.3097 -1.5436
 6128SOL    HW230018   1.550   0.398  17.576 -2.3976  0.5179 -0.6481
 6129SOL     OW30019   2.484   0.669   9.147  0.0237 -0.1139  0.1340
 6129SOL    HW130020   2.407   0.704   9.192  0.1469  1.3898 -0.8525
 6129SOL    HW230021   2.548   0.739   9.160 -0.7869  1.1371 -2.7082
 6130SOL     OW30022   0.113   0.791   1.926 -0.2437 -0.0367  0.0870
 6130SOL    HW130023   0.032   0.824   1.888 -1.6391 -0.9106  2.3477
 6130SOL    HW230024   0.164   0.760   1.851  0.3399 -0.8261  0.8010
 6131SOL     OW30025   2.961   1.174   8.790 -0.5638  0.2528 -0.6931
 6131SOL    HW130026   2.901   1.115   8.835  3.9679 -1.9861  2.5012
 6131SOL    HW230027   2.921   1.259   8.803 -1.3477 -0.3933  1.0085
 6132SOL     OW30028   2.261   1.704   7.426 -0.0365  0.3259 -0.1890
 6132SOL    HW130029   2.351   1.731   7.406  0.4731 -0.0072  1.6581
 6132SOL    HW230030   2.262   1.617   7.386 -1.5330 -0.1341  0.7926
 6133SOL     OW30031   0.250   3.981   4.547 -0.5566  0.0681 -0.0279
 6133SOL    HW130032   0.342   4.007   4.549 -0.4960 -0.0595 -1.2848
 6133SOL    HW230033   0.252   3.905   4.605 -0.8689  1.2968  1.5873
 6134SOL     OW30034   0.412   0.510   7.604 -0.0169 -0.5900  0.2971
 6134SOL    HW130035   0.445   0.600   7.610 -1.1297 -0.1364 -0.2657
 6134SOL    HW230036   0.324   0.530   7.570 -0.7672 -1.4619  1.7050
 6135SOL     OW30037   2.296   1.695  17.232 -0.5239  0.4508  0.5242
 6135SOL    HW130038   2.275   1.770  17.176  0.0380  1.2809  1.4222
 6135SOL    HW230039   2.227   1.686  17.298 -1.4264  1.2590 -0.3179
 6136SOL     OW30040   3.684   0.370  17.315 -0.2638 -0.4754 -0.5185
 6136SOL    HW130041   3.685   0.398  17.407 -1.6777  0.7293 -0.8688
 6136SOL    HW230042   3.634   0.289  17.322  1.3721 -1.2794  1.7535
 6137SOL     OW30043   4.159   1.302   1.185  0.8199  0.2697 -0.3847
 6137SOL    HW130044   4.249   1.322   1.158  1.1858  0.2295  0.8081
 6137SOL    HW230045   4.143   1.379   1.240 -1.4994  0.6330 -1.5879
 6138SOL     OW30046   1.979   2.031   8.269 -0.2211 -0.4431  0.3644
 6138SOL    HW130047   2.008   2.122   8.281 -0.9336 -0.0879 -0.5688
 6138SOL    HW230048   2.049   1.984   8.314 -1.7029 -1.7834  1.2801
 6139SOL     OW30049   3.654   3.354   6.871  0.0922 -0.3475 -0.1433
 6139SOL    HW130050   3.609   3.423   6.822  0.3696 -0.2086 -0.1999
 6139SOL    HW230051   3.637   3.276   6.818  0.6589 -0.7279  0.2420
 6140SOL     OW30052   2.358   0.973   7.743 -0.1793 -0.0647 -0.3064
 6140SOL    HW130053   2.344   0.878   7.741  1.1083 -0.3368  2.5447
 6140SOL    HW230054   2.448   0.971   7.776 -0.1337 -0.0279 -0.4324
 6141SOL     OW30055   1.221   2.408   3.885  0.4296  0.0455 -0.4049
 6141SOL    HW130056   1.296   2.363   3.923 -0.0036  0.2564  0.7021
 6141SOL    HW230057   1.234   2.497   3.919 -0.1590 -0.0813  0.1532
 6142SOL     OW30058   2.150   0.274   4.214 -0.1642  0.1249  0.3088
 6142SOL    HW130059   2.182   0.344   4.272 -2.7222 -0.2308  2.1496
 6142SOL    HW230060   2.169   0.309   4.127  0.8636  1.4660  1.0516
 6143SOL     OW30061   1.389   1.092   9.519  0.4100  0.2947  0.1731
 6143SOL    HW130062   1.328   1.074   9.448 -0.7477  0.1885  1.1926
 6143SOL    HW230063   1.464   1.119   9.466  2.3030 -0.6602  2.3188
 6144SOL     OW30064   3.335   0.569   2.533  0.8272  0.1853  0.5093
 6144SOL    HW130065   3.316   0.545   2.442 -0.5546  1.0127  0.5790
 6144SOL    HW230066   3.300   0.491   2.578  0.4630  0.1843  0.2243
 6145SOL     OW30067   2.559   4.405   7.108 -0.1016 -0.2225 -0.3990
 6145SOL    HW130068   2.629   4.407   7.043 -0.1142 -0.9101 -0.4361
 6145SOL    HW230069   2.481   4.406   7.052 -0.9688 -0.3762  0.8030
 6146SOL     OW30070   4.107   2.815   4.234 -0.6285 -0.1593 -0.5530
 6146SOL    HW130071   4.106   2.807   4.139 -2.1253 -0.2851 -0.5312
 6146SOL    HW230072   4.015   2.829   4.256 -0.2038 -0.3185  1.3139
 6147SOL     OW30073   0.422   2.630   2.694 -0.1682  0.0207  0.3944
 6147SOL    HW130074   0.404   2.550   2.744  1.1147 -0.9529 -0.6771
 6147SOL    HW230075   0.516   2.643   2.709 -0.1108  3.3669 -2.9133
 6148SOL     OW30076   3.815   1.526   1.929 -0.2391 -0.1180 -0.7140
 6148SOL    HW130077   3.869   1.562   1.859  1.2820  1.7736  1.4661
 6148SOL    HW230078   3.786   1.607   1.970 -1.9906 -0.4808 -1.2214
 6149SOL     OW30079   2.957   0.462   5.235 -0.3438 -0.0403  0.0458
 6149SOL    HW130080   2.949   0.375   5.273  0.9746 -0.4740 -0.6937
 6149SOL    HW230081   2.947   0.517   5.313 -0.2210  1.4979 -1.0109
 6150SOL     OW30082   1.068   2.098   2.589  0.1110 -0.1565  0.2393
 6150SOL    HW130083   1.043   2.011   2.557  0.2901  0.5201 -1.7305
 6150SOL    HW230084   1.112   2.087   2.674 -0.6950  0.0051  0.6760
 6151SOL     OW30085   2.085   1.525   2.750 -0.3379 -0.0848 -0.1307
 6151SOL    HW130086   2.034   1.602   2.726 -1.3054 -0.8155 -0.4268
 6151SOL    HW230087   2.092   1.548   2.843  0.9666  0.1317 -0.2835
 6152SOL     OW30088   2.246   4.537  16.548 -0.6749  0.6849 -0.6833
 6152SOL    HW130089   2.335   4.542  16.585 -0.4762  0.1427 -1.0853
 6152SOL    HW230090   2.194   4.540  16.629 -0.8478  0.4087 -0.7855
 6153SOL     OW30091   1.350   0.567   8.104  0.6013  0.0863 -0.2039
 6153SOL    HW130092   1.341   0.650   8.152  0.7305  0.4046 -0.7291
 6153SOL    HW230093   1.346   0.596   8.013  1.5837  3.4938  0.8315
 6154SOL     OW30094   3.849   0.582   3.126 -0.2175  0.0549 -0.1296
 6154SOL    HW130095   3.791   0.652   3.154  0.4184  0.4745  0.1398
 6154SOL    HW230096   3.909   0.632   3.071 -2.0912  1.7561 -0.6056
 6155SOL     OW30097   0.509   4.657  16.537 -0.2195  0.2382  0.0017
 6155SOL    HW130098   0.488   4.599  16.464  0.5179 -0.4783  0.3519
 6155SOL    HW230099   0.484   0.005  16.496 -0.5080 -0.6140 -1.5354
 6156SOL     OW30100   2.628   2.731  13.284  0.3504  0.1156 -0.4875
 6156SOL    HW130101   2.639   2.817  13.243  0.2724  1.0691  1.4722
 6156SOL    HW230102   2.546   2.698  13.247 -0.2768 -0.4850  1.3857
 6157SOL     OW30103   2.864   3.647   7.064  0.2958 -0.0645 -0.1707
 6157SOL    HW130104   2.790   3.597   7.029  0.5595 -0.9675  0.5785
 6157SOL    HW230105   2.824   3.734   7.054  0.6591  0.1452  0.2082
 6158SOL     OW30106   3.018   1.110  14.684 -0.0310  0.2814  0.2277
 6158SOL    HW130107   2.950   1.069  14.630  0.3270  0.2067 -0.1622
 6158SOL    HW230108   2.962   1.119  14.761  0.2440  0.5184  0.4012
 6159SOL     OW30109   2.626   3.589  15.462 -0.5433 -0.5314  0.0758
 6159SOL    HW130110   2.605   3.557  15.550 -0.0305 -0.0155  0.3829
 6159SOL    HW230111   2.713   3.556  15.439  0.4654  1.1153  1.5012
 6160SOL     OW30112   1.184   0.616   0.739  0.0904 -0.2398  0.1470
 6160SOL    HW130113   1.170   0.657   0.824  1.4365 -1.3640  0.9141
 6160SOL    HW230114   1.141   0.532   0.754  1.7963 -1.2562 -0.5755
 6161SOL     OW30115   1.831   3.381   2.698  0.3284 -0.1350  0.3541
 6161SOL    HW130116   1.897   3.451   2.689 -0.3016  0.3156 -0.7917
 6161SOL    HW230117   1.823   3.358   2.605  1.3272  3.4286 -0.6277
 6162SOL     OW30118   4.347   3.516   5.195 -0.2409 -0.0307 -0.1406
 6162SOL    HW130119   4.294   3.586   5.159  0.9322  1.6333  1.3513
 6162SOL    HW230120   4.296   3.483   5.270 -0.5568  0.0753 -0.3106
 6163SOL     OW30121   1.430   2.664   1.715 -0.4949 -0.0681 -0.0146
 6163SOL    HW130122   1.457   2.670   1.623 -0.1960  2.1394  0.2102
 6163SOL    HW230123   1.336   2.660   1.700 -0.2419 -3.7474 -0.6909
 6164SOL     OW30124   3.333   2.035   9.219 -0.8593  0.3633  0.0411
 6164SOL    HW130125   3.301   2.100   9.281 -2.3910 -0.7743  0.4464
 6164SOL    HW230126   3.288   1.958   9.253 -0.4523  1.4393  2.9823
 6165SOL     OW30127   3.819   0.901   8.988 -0.3079 -0.0735  0.4525
 6165SOL    HW130128   3.863   0.833   9.039 -1.5904 -2.4248 -1.5849
 6165SOL    HW230129   3.897   0.956   8.975 -0.2771  0.3458  2.4014
 6166SOL     OW30130   1.130   4.385   4.157 -0.2763 -0.5473 -0.6157
 6166SOL    HW130131   1.055   4.408   4.211 -0.5661 -2.7864 -0.0698
 6166SOL    HW230132   1.171   4.312   4.203  1.1588  0.6887  0.0682
 6167SOL     OW30133   0.281   2.335   0.335  0.0703  0.1054 -0.0844
 6167SOL    HW130134   0.346   2.405   0.341 -0.7443  0.8609  0.0031
 6167SOL    HW230135   0.326   2.265   0.383  2.5192  1.8917  0.2443
 6168SOL     OW30136   1.302   1.229   6.725 -0.3765  0.2320 -0.1167
 6168SOL    HW130137   1.364   1.253   6.655 -1.5267  0.8413 -0.9279
 6168SOL    HW230138   1.361   1.194   6.791  0.3587 -0.5138 -1.1758
 6169SOL     OW30139   4.546   1.553  11.824 -0.4977 -0.4682  0.2084
 6169SOL    HW130140   4.536   1.488  11.893 -0.5920  0.4104  1.0252
 6169SOL    HW230141   4.641   1.538  11.822 -1.1167 -4.5668  2.4807
 6170SOL     OW30142   4.133   4.467   7.806 -0.1781 -0.1055  0.0561
 6170SOL    HW130143   4.153   4.375   7.823  0.0587 -0.7891 -3.9106
 6170SOL    HW230144   4.079   4.462   7.727  1.3136 -0.5776 -0.9308
 6171SOL     OW30145   1.974   4.304   9.202  0.3577 -0.2270 -0.2701
 6171SOL    HW130146   2.004   4.358   9.275 -3.5856  1.2479  0.2577
 6171SOL    HW230147   1.958   4.365   9.130 -4.6502 -0.4762  0.5840
 6172SOL     OW30148   4.609   3.369   3.334 -0.2041  0.0841 -0.8627
 6172SOL    HW130149   4.579   3.452   3.297 -0.3670  1.1157  1.5998
 6172SOL    HW230150   4.522   3.331   3.347  0.5160 -1.3584 -0.2370
 6173SOL     OW30151   2.492   4.477   6.381 -0.1147  0.1363 -0.0037
 6173SOL    HW130152   2.478   4.566   6.349  0.9742 -0.2548 -1.5543
 6173SOL    HW230153   2.516   4.434   6.299  1.2850  1.7522 -0.4278
 6174SOL     OW30154   2.316   3.826   0.898 -0.2496 -0.5543  0.3995
 6174SOL    HW130155   2.297   3.854   0.987 -0.3490 -0.5680  0.3821
 6174SOL    HW230156   2.335   3.913   0.863  0.6101 -0.7077  0.4794
 6175SOL     OW30157   1.649   2.934   6.100 -0.6443  0.2299 -0.1847
 6175SOL    HW130158   1.642   2.891   6.015 -0.1559  1.2351 -0.7287
 6175SOL    HW230159   1.714   2.878   6.143 -1.7978  0.4810  1.8919
 6176SOL     OW30160   2.869   2.409   7.211 -0.1997 -0.1166  0.4617
 6176SOL    HW130161   2.885   2.503   7.222  0.1987  0.1179 -2.0543
 6176SOL    HW230162   2.924   2.371   7.280 -0.0043 -1.9187 -0.6740
 6177SOL     OW30163   3.433   0.770   8.009  0.3022  0.1085  0.6876
 6177SOL    HW130164   3.400   0.770   7.919  1.4699 -0.2537  0.2692
 6177SOL    HW230165   3.480   0.854   8.011  0.8229 -0.1746  0.2617
 6178SOL     OW30166   2.372   0.305  15.584 -0.1115  0.2387  0.3248
 6178SOL    HW130167   2.334   0.392  15.591  2.0310  1.3640 -2.2852
 6178SOL    HW230168   2.303   0.256  15.630  0.8489 -1.2353  0.1719
 6179SOL     OW30169   2.933   1.207   3.800  0.6331 -0.1834  0.3905
 6179SOL    HW130170   2.855   1.184   3.851  0.7777  0.8191  1.0551
 6179SOL    HW230171   2.957   1.121   3.766  1.8875 -0.3153  1.6626
 6180SOL     OW30172   4.134   0.796  12.572  0.2337 -0.1960  0.1084
 6180SOL    HW130173   4.128   0.891  12.563  0.1667 -0.3957 -1.9004
 6180SOL    HW230174   4.187   0.788  12.652  2.4139 -1.7315 -1.4757
 6181SOL     OW30175   1.231   4.315  17.468 -0.4586 -0.0389 -0.4743
 6181SOL    HW130176   1.158   4.377  17.476 -0.9485 -0.5357 -1.1672
 6181SOL    HW230177   1.180   4.235  17.477 -1.1834  0.3937 -0.6894
 6182SOL     OW30178   1.930   0.718  10.977 -0.0721  0.6422  0.5908
 6182SOL    HW130179   1.892   0.762  10.901 -4.2366 -0.0871  2.2534
 6182SOL    HW230180   1.896   0.758  11.057 -0.5112 -1.2112  1.3477
 6183SOL     OW30181   4.706   4.271   1.432  0.4270  0.2339  0.5590
 6183SOL    HW130182   4.638   4.311   1.377  0.3230  0.2694  0.7134
 6183SOL    HW230183   0.055   4.284   1.387  0.0372 -2.0800 -0.8194
 6184SOL     OW30184   2.797   1.347   9.121 -0.2421  0.8407  0.2420
 6184SOL    HW130185   2.822   1.405   9.193  0.9121  0.2649  0.3070
 6184SOL    HW230186   2.869   1.284   9.116  1.8799  3.2827 -0.2048
 6185SOL     OW30187   0.060   4.078   3.740 -0.2269 -0.2408 -0.5486
 6185SOL    HW130188   0.094   4.130   3.667  1.6727  0.0070  0.5280
 6185SOL    HW230189   0.116   4.111   3.811 -0.4123  0.8249 -0.8985
 6186SOL     OW30190   4.175   0.919   5.748  0.5420  0.3762  0.2277
 6186SOL    HW130191   4.199   0.995   5.802 -0.9312  0.6289  0.5251
 6186SOL    HW230192   4.081   0.924   5.766  0.4054 -0.6758 -0.2094
 6187SOL     OW30193   0.170   0.465   8.752 -0.5297  0.0998 -0.6524
 6187SOL    HW130194   0.221   0.385   8.738 -1.8882 -0.6144 -1.5758
 6187SOL    HW230195   0.089   0.445   8.705 -2.0316  1.8104  1.1858
 6188SOL     OW30196   0.475   1.045   2.833  0.6077 -0.2097 -0.2674
 6188SOL    HW130197   0.396   1.089   2.803  2.2764  3.4334  0.7237
 6188SOL    HW230198   0.453   0.956   2.804  2.2265 -1.0403  1.0749
 6189SOL     OW30199   3.920   4.083   0.155 -0.1429 -0.5867  0.4308
 6189SOL    HW130200   3.896   4.029   0.230 -0.6150 -0.8903  0.0598
 6189SOL    HW230201   4.013   4.094   0.177  0.0807 -0.2226 -0.6758
 6190SOL     OW30202   2.478   2.847   3.738 -0.4019  0.1014 -0.1598
 6190SOL    HW130203   2.419   2.772   3.732 -1.0178  0.6304 -0.7033
 6190SOL    HW230204   2.523   2.837   3.822 -0.8244 -2.1181 -0.1879
 6191SOL     OW30205   3.818   3.680  13.562  0.1647  0.1880  0.0218
 6191SOL    HW130206   3.779   3.766  13.577  0.9446 -0.0596  3.3160
 6191SOL    HW230207   3.851   3.688  13.472  0.1157 -0.0819 -0.0216
 6192SOL     OW30208   4.376   1.051   6.777 -0.9349 -0.0892  0.6380
 6192SOL    HW130209   4.422   1.085   6.853 -0.5919 -0.1012  0.4369
 6192SOL    HW230210   4.415   0.963   6.779  3.8670  2.0040 -1.9284
 6193SOL     OW30211   2.771   4.339   5.822  0.0091 -0.0802 -0.1274
 6193SOL    HW130212   2.743   4.323   5.731  0.4427  2.6367 -0.7330
 6193SOL    HW230213   2.821   4.258   5.836  0.4125  0.3742  0.9905
 6194SOL     OW30214   2.270   0.476   0.293 -0.0686  0.2496 -0.2381
 6194SOL    HW130215   2.229   0.436   0.216 -0.0240 -1.0931  0.4300
 6194SOL    HW230216   2.307   0.406   0.347 -2.2730  1.3106  2.6305
 6195SOL     OW30217   3.236   4.340   7.282  0.2453 -0.5498  0.5573
 6195SOL    HW130218   3.233   4.244   7.288  2.3009 -0.6510 -0.3722
 6195SOL    HW230219   3.284   4.349   7.200 -1.5427  1.0417 -0.3151
 6196SOL     OW30220   1.606   3.759   6.466 -0.1171  0.1333 -0.8315
 6196SOL    HW130221   1.572   3.801   6.387 -0.5185  2.7223  0.7157
 6196SOL    HW230222   1.696   3.735   6.445  0.4432  0.2186  1.5219
 6197SOL     OW30223   2.734   4.467   5.251 -0.0004 -0.1045 -0.1633
 6197SOL    HW130224   2.810   4.481   5.195 -0.2423 -2.1331 -0.9638
 6197SOL    HW230225   2.666   4.532   5.231  0.5284  0.2355 -0.8481
 6198SOL     OW30226   1.560   0.288   2.051 -0.0328  0.2139 -0.3675
 6198SOL    HW130227   1.560   0.206   2.100  0.2597 -0.3100 -1.2480
 6198SOL    HW230228   1.537   0.348   2.121  0.2357 -0.1750  0.0578
 6199SOL     OW30229   4.075   0.063   5.398  0.0834  0.0456  0.5653
 6199SOL    HW130230   4.097   0.154   5.418  1.7104 -0.5724  1.6526
 6199SOL    HW230231   4.141   0.050   5.330  0.8039  3.7493  0.5211
 6200SOL     OW30232   4.360   0.160  13.581  0.0660 -0.2862  0.4432
 6200SOL    HW130233   4.432   0.100  13.561 -0.2123 -0.6390  0.5082
 6200SOL    HW230234   4.311   0.156  13.499  0.6661  1.7592 -0.0137
 6201SOL     OW30235   4.668   4.463   4.454 -0.1957  0.3054 -0.0388
 6201SOL    HW130236   0.005   4.434   4.398  1.0042  3.4920 -0.1359
 6201SOL    HW230237   4.670   4.386   4.511 -1.7877 -0.5655 -1.1949
 6202SOL     OW30238   4.662   3.827   2.086  0.0605  0.2358  0.5168
 6202SOL    HW130239   4.695   3.808   1.998  0.1801 -0.0137  0.6173
 6202SOL    HW230240   4.733   3.870   2.133  0.7478  0.8722 -1.1147
 6203SOL     OW30241   4.620   0.187   7.918 -0.3888 -0.1008  0.3489
 6203SOL    HW130242   4.588   0.256   7.860  0.5858 -0.1910 -0.2932
 6203SOL    HW230243   4.630   0.241   7.997  0.7978  1.1344 -0.6342
 6204SOL     OW30244   0.283   2.740   9.105 -0.2948  0.0475 -0.8010
 6204SOL    HW130245   0.338   2.662   9.112 -1.9284 -0.9057  1.6726
 6204SOL    HW230246   0.221   2.706   9.170  0.0740  0.5702 -0.1788
 6205SOL     OW30247   3.741   1.076   8.352  0.5688 -0.1621 -0.2824
 6205SOL    HW130248   3.785   1.037   8.427 -0.0403  0.3548  0.3480
 6205SOL    HW230249   3.750   1.007   8.287 -1.5360 -1.0262  0.3723
 6206SOL     OW30250   4.197   2.660   1.259 -0.2874  0.4836 -0.2996
 6206SOL    HW130251   4.282   2.630   1.291 -0.8199  0.1508  0.7971
 6206SOL    HW230252   4.211   2.678   1.166 -1.1714 -1.2147 -0.7615
 6207SOL     OW30253   1.204   4.550  11.418 -0.2520 -0.7119  0.3966
 6207SOL    HW130254   1.179   4.562  11.326 -3.0421  1.1969  1.3973
 6207SOL    HW230255   1.295   4.522  11.413 -0.3810 -1.0165 -0.2525
 6208SOL     OW30256   2.229   1.988   3.225  0.0199  0.2517 -0.2699
 6208SOL    HW130257   2.151   2.031   3.190 -1.8173 -2.9474 -0.0929
 6208SOL    HW230258   2.237   1.916   3.161 -1.9214  0.9596 -1.2990
 6209SOL     OW30259   1.424   2.828   4.753 -0.5262 -0.3147  0.2041
 6209SOL    HW130260   1.515   2.837   4.782 -0.3113  0.1650 -0.6295
 6209SOL    HW230261   1.415   2.735   4.735  2.3805 -0.3140 -1.2420
 6210SOL     OW30262   2.196   3.248   8.410  0.1601  0.1743  1.0167
 6210SOL    HW130263   2.114   3.217   8.373  0.9620 -0.0429 -0.6200
 6210SOL    HW230264   2.198   3.209   8.497  1.3193  1.4264  1.5587
 6211SOL     OW30265   4.510   1.579   8.470 -0.3739  0.4930 -0.0004
 6211SOL    HW130266   4.602   1.606   8.469 -0.1609 -0.2519 -0.4888
 6211SOL    HW230267   4.486   1.615   8.385  0.6214  1.8726  0.3027
 6212SOL     OW30268   0.063   4.504  10.547 -0.2014 -0.0755  0.0863
 6212SOL    HW130269   4.712   4.486  10.508 -0.9242  0.7794  1.2740
 6212SOL    HW230270   0.079   4.413  10.573 -0.7446 -0.9590 -2.6664
 6213SOL     OW30271   4.214   1.986   7.828 -0.0782  0.8339  0.0939
 6213SOL    HW130272   4.222   2.079   7.846 -1.0581  0.9677 -0.2054
 6213SOL    HW230273   4.119   1.984   7.831 -0.1484  0.2414 -2.7838
 6214SOL     OW30274   3.274   0.253  14.182 -0.1730 -0.4552 -0.0298
 6214SOL    HW130275   3.318   0.328  14.220 -2.1570 -0.4661  2.2696
 6214SOL    HW230276   3.336   0.204  14.128  1.1064  0.9667  0.1450
 6215SOL     OW30277   1.361   0.230   6.284  0.0035  0.2546 -0.3996
 6215SOL    HW130278   1.310   0.305   6.253 -0.7427  0.9663  2.5481
 6215SOL    HW230279   1.435   0.229   6.223  1.3799 -2.7590  1.3616
 6216SOL     OW30280   1.469   4.139  16.162 -0.0666 -0.1287  0.2097
 6216SOL    HW130281   1.519   4.104  16.088 -0.8047  0.3099 -0.5131
 6216SOL    HW230282   1.513   4.223  16.173  0.8842 -0.4213 -1.2965
 6217SOL     OW30283   0.616   2.856  17.717  0.3930  0.4889  0.2444
 6217SOL    HW130284   0.585   2.928   0.033 -0.6107 -0.8248  1.3898
 6217SOL    HW230285   0.543   2.843  17.657  1.1705  1.9367 -1.0217
 6218SOL     OW30286   3.785   4.221   9.783  0.0216 -0.1924  0.9526
 6218SOL    HW130287   3.862   4.169   9.757  0.4778  1.2356 -0.5380
 6218SOL    HW230288   3.764   4.166   9.859  1.9907 -0.4399  1.3227
 6219SOL     OW30289   2.496   4.582   4.461 -0.1501  0.2324  0.1620
 6219SOL    HW130290   2.433   4.634   4.412  0.8968  1.8271  0.4878
 6219SOL    HW230291   2.571   4.641   4.458  0.4119 -0.5898 -1.8578
 6220SOL     OW30292   2.352   2.363  14.801 -0.3456 -0.7080 -0.3661
 6220SOL    HW130293   2.289   2.435  14.802  1.4613  0.8566  1.0283
 6220SOL    HW230294   2.306   2.280  14.792  0.0479 -1.3473  3.6006
 6221SOL     OW30295   2.979   1.804   4.926 -0.3965 -0.0308 -0.1271
 6221SOL    HW130296   2.885   1.803   4.942 -0.1425 -1.5838  1.3466
 6221SOL    HW230297   3.004   1.862   4.999 -3.5946  1.4747 -0.2251
 6222SOL     OW30298   4.336   0.400   1.800  0.1318  0.3952 -0.2480
 6222SOL    HW130299   4.384   0.407   1.718 -0.3082  2.3721 -0.3327
 6222SOL    HW230300   4.331   0.494   1.818 -0.7402  0.3280 -0.1226
 6223SOL     OW30301   1.426   0.821   8.176  0.2231  0.1445  0.5816
 6223SOL    HW130302   1.392   0.899   8.132 -1.0234 -0.4826  0.4372
 6223SOL    HW230303   1.500   0.796   8.120  1.6554  1.3739  1.9288
 6224SOL     OW30304   3.891   2.518   3.815  0.3582  0.2912  0.6774
 6224SOL    HW130305   3.881   2.423   3.822 -0.0507  0.3603  1.0114
 6224SOL    HW230306   3.876   2.549   3.904 -0.7247  2.1189 -0.1531
 6225SOL     OW30307   3.002   1.490   4.808  0.2684  0.0392  0.2361
 6225SOL    HW130308   2.930   1.501   4.870  0.5953 -0.3388  0.6749
 6225SOL    HW230309   3.052   1.421   4.852 -0.4462 -0.7272 -0.1663
 6226SOL     OW30310   0.756   1.314  15.719 -0.0646  0.2593 -0.3196
 6226SOL    HW130311   0.823   1.289  15.656  0.9955  2.2086  0.0610
 6226SOL    HW230312   0.680   1.318  15.661 -1.4894 -4.6050  1.2226
 6227SOL     OW30313   0.618   3.458   6.891 -0.0420  0.3590 -0.0259
 6227SOL    HW130314   0.693   3.505   6.856  0.6718 -0.5663  0.2573
 6227SOL    HW230315   0.576   3.432   6.808 -1.0667  0.5664  0.4275
 6228SOL     OW30316   1.404   0.238   8.017 -0.0848 -0.1571 -0.0468
 6228SOL    HW130317   1.378   0.232   7.925 -0.9886  0.0011  0.2053
 6228SOL    HW230318   1.405   0.330   8.040 -0.2183 -0.0947 -0.2913
 6229SOL     OW30319   3.879   2.283   3.949  0.5986  0.1567 -0.1243
 6229SOL    HW130320   3.903   2.267   4.040  1.9839  1.4048 -0.2719
 6229SOL    HW230321   3.910   2.209   3.897 -0.5752 -1.0978  0.9800
 6230SOL     OW30322   2.146   2.671  14.487  0.2397  0.3342 -0.5919
 6230SOL    HW130323   2.078   2.605  14.476  0.2363  0.2152  0.1207
 6230SOL    HW230324   2.139   2.714  14.402  0.7103  0.1399 -0.7280
 6231SOL     OW30325   3.685   2.635   3.460  0.0329  0.4818 -0.1714
 6231SOL    HW130326   3.608   2.622   3.515 -0.5267 -0.3683 -1.1643
 6231SOL    HW230327   3.742   2.563   3.486  0.0860  0.9277  0.9285
 6232SOL     OW30328   1.692   0.050   1.711 -0.1706  0.6244  0.5398
 6232SOL    HW130329   1.722   4.703   1.671 -0.5170  0.2515  1.0505
 6232SOL    HW230330   1.664   0.013   1.795  2.9875 -0.6695  1.0557
 6233SOL     OW30331   0.680   0.092  12.127 -0.4642  0.4898 -0.3659
 6233SOL    HW130332   0.684   0.079  12.033 -0.7895  0.3519 -0.3626
 6233SOL    HW230333   0.668   0.187  12.130  0.2093  0.5898 -0.9566
 6234SOL     OW30334   1.214   4.692   5.328 -0.3158  0.4286 -0.0591
 6234SOL    HW130335   1.175   4.626   5.271 -1.2244  0.2861  0.7412
 6234SOL    HW230336   1.290   4.712   5.273  0.3648 -1.4381  0.1827
 6235SOL     OW30337   4.547   4.048   4.299  0.7638 -0.4753 -0.1507
 6235SOL    HW130338   4.472   4.084   4.251  1.2530  1.5229  0.6100
 6235SOL    HW230339   4.627   4.061   4.247  1.8634 -0.7789  1.4663
 6236SOL     OW30340   0.144   1.167   4.255  0.2986 -0.0086  0.0663
 6236SOL    HW130341   0.093   1.092   4.283 -0.4310 -0.2921 -1.9968
 6236SOL    HW230342   0.165   1.155   4.162  0.5583 -0.7016  0.2148
 6237SOL     OW30343   1.092   2.817   5.004  0.0608 -0.6107  0.3853
 6237SOL    HW130344   1.020   2.879   5.016  2.0552  1.6113  0.9297
 6237SOL    HW230345   1.170   2.873   5.012  0.8436 -2.1266  3.2064
 6238SOL     OW30346   2.423   1.425   4.361  0.2349 -0.1728  0.1064
 6238SOL    HW130347   2.445   1.421   4.268  2.1486 -2.4937  0.6550
 6238SOL    HW230348   2.472   1.348   4.388  1.3118  0.3010 -0.5008
 6239SOL     OW30349   2.976   0.809   1.758 -0.1306  0.0693  0.1284
 6239SOL    HW130350   2.884   0.783   1.754 -0.9899  2.7004  2.5711
 6239SOL    HW230351   2.978   0.903   1.738 -0.1518 -0.5293 -2.6628
 6240SOL     OW30352   0.836   0.090   7.601 -0.1128  0.4398 -0.3728
 6240SOL    HW130353   0.776   0.016   7.609 -0.1222  0.4605 -0.2515
 6240SOL    HW230354   0.806   0.148   7.671  1.9105 -1.3743  2.0048
 6241SOL     OW30355   4.015   2.737  14.013  0.4577  0.6220  0.0815
 6241SOL    HW130356   4.023   2.654  13.966  2.9504  0.2939  1.0544
 6241SOL    HW230357   4.085   2.784  13.967  0.7092  0.2837  0.1203
 6242SOL     OW30358   4.136   0.959   7.963 -0.5447  0.5218  0.0678
 6242SOL    HW130359   4.105   0.947   7.873 -0.2033  1.6695 -0.1988
 6242SOL    HW230360   4.062   1.011   7.994  1.2827  1.8014  2.2256
 6243SOL     OW30361   2.888   3.444   4.453 -0.2025  0.3395 -0.3539
 6243SOL    HW130362   2.926   3.428   4.540  0.2751 -0.8247 -0.7843
 6243SOL    HW230363   2.910   3.363   4.409 -1.0424 -1.1712  2.0276
 6244SOL     OW30364   3.012   0.291   3.872 -0.2312 -0.3940  0.6216
 6244SOL    HW130365   3.040   0.369   3.825  0.3937 -1.9323 -1.5526
 6244SOL    HW230366   2.938   0.327   3.921 -0.8240  1.7943 -1.9322
 6245SOL     OW30367   3.952   1.740   7.995 -0.3142  0.1290 -0.4836
 6245SOL    HW130368   3.906   1.662   8.026 -1.4686  0.9314 -0.1947
 6245SOL    HW230369   3.951   1.720   7.901  0.1421  0.5902 -0.5886
 6246SOL     OW30370   2.473   3.765   3.635 -0.0645  0.0028  0.3482
 6246SOL    HW130371   2.558   3.808   3.647 -0.3687  0.1370  1.9925
 6246SOL    HW230372   2.423   3.810   3.703  1.0484  0.8546  0.6048
 6247SOL     OW30373   1.918   3.034   6.537 -0.3545  0.1515 -0.2415
 6247SOL    HW130374   2.003   3.028   6.493 -0.1889 -1.8046  0.3679
 6247SOL    HW230375   1.862   3.069   6.468  0.7340  1.2878 -0.5549
 6248SOL     OW30376   1.474   3.470   4.468  0.0598 -0.1427 -0.3954
 6248SOL    HW130377   1.385   3.499   4.488  0.4495  0.5373  0.3496
 6248SOL    HW230378   1.452   3.388   4.425  0.5397 -1.7110  2.3310
 6249SOL     OW30379   2.915   1.628   8.758  0.1506 -0.6106 -0.0373
 6249SOL    HW130380   2.881   1.686   8.827 -1.9205 -1.0025 -0.7140
 6249SOL    HW230381   2.905   1.545   8.805 -1.7323 -0.0665  0.5359
 6250SOL     OW30382   3.278   1.970   7.504 -0.1501 -0.4317 -0.2569
 6250SOL    HW130383   3.189   1.998   7.484  0.7466  1.0976 -2.0667
 6250SOL    HW230384   3.316   2.056   7.520 -0.4502 -0.5996  1.3008
 6251SOL     OW30385   0.633   2.982  11.039  0.1181 -0.0543 -0.0820
 6251SOL    HW130386   0.724   2.959  11.059 -0.1125  0.0573  1.0676
 6251SOL    HW230387   0.651   2.998  10.947 -3.4633 -2.3950 -1.2027
 6252SOL     OW30388   4.179   3.959   0.189 -0.0456  0.1954 -0.4834
 6252SOL    HW130389   4.255   4.017   0.190  0.5141 -0.5888  1.4550
 6252SOL    HW230390   4.194   3.919   0.274 -0.0110  0.8333 -0.1883
 6253SOL     OW30391   0.184   2.545   1.897  0.7161 -0.7821 -0.2116
 6253SOL    HW130392   0.173   2.623   1.844 -1.2215 -0.5720  0.4967
 6253SOL    HW230393   0.185   2.472   1.835  2.4778 -0.4912 -0.5458
 6254SOL     OW30394   3.031   1.760   7.853 -0.9339 -0.6285 -0.4426
 6254SOL    HW130395   3.080   1.789   7.776 -0.4035 -1.1057 -0.2804
 6254SOL    HW230396   3.102   1.718   7.901 -0.8244 -2.2164 -2.0192
 6255SOL     OW30397   2.071   2.164  11.015 -0.5065  0.2835  0.5409
 6255SOL    HW130398   2.056   2.235  11.077 -1.2448 -0.9013  1.7327
 6255SOL    HW230399   2.026   2.091  11.058  0.7275 -0.9881 -0.3245
 6256SOL     OW30400   2.594   2.582   0.370 -0.2878  0.1857  0.0476
 6256SOL    HW130401   2.669   2.566   0.312  0.1410  0.4517  0.5231
 6256SOL    HW230402   2.538   2.637   0.316  0.3652  0.9083  0.1148
 6257SOL     OW30403   2.530   1.876  14.726  0.0791  0.3482  0.3411
 6257SOL    HW130404   2.441   1.860  14.757 -0.6418  3.3365 -0.1820
 6257SOL    HW230405   2.537   1.806  14.662 -0.9209  0.6636 -0.1171
 6258SOL     OW30406   3.665   0.760   8.805  0.6835 -0.4482 -0.0697
 6258SOL    HW130407   3.716   0.814   8.865 -2.8030  2.2954  0.4495
 6258SOL    HW230408   3.593   0.735   8.863 -1.2265 -0.2236 -2.3309
 6259SOL     OW30409   4.619   0.176   2.487 -0.2062 -0.2997  0.3069
 6259SOL    HW130410   4.554   0.235   2.525 -0.1742  1.0506 -1.6871
 6259SOL    HW230411   4.602   0.203   2.396  1.5185 -1.3763 -0.3321
 6260SOL     OW30412   2.013   0.050   4.226 -0.6486 -0.2755  0.7488
 6260SOL    HW130413   2.039   0.018   4.140  1.1765  1.6962  0.5695
 6260SOL    HW230414   2.069   0.126   4.240  0.2885 -0.7599 -0.4785
 6261SOL     OW30415   1.517   1.972   5.422 -0.2947  1.3090  0.7172
 6261SOL    HW130416   1.457   2.046   5.434  0.2134  1.3357  3.0698
 6261SOL    HW230417   1.554   1.973   5.510  0.8888 -1.8750  0.2563
 6262SOL     OW30418   2.506   4.647   1.583  0.6120 -0.2217 -0.0288
 6262SOL    HW130419   2.477   4.674   1.670 -1.3698 -0.9663 -0.4700
 6262SOL    HW230420   2.444   4.577   1.562 -1.3047  0.5720  2.8833
 6263SOL     OW30421   3.327   0.382   4.026  0.0956 -0.1539  0.0029
 6263SOL    HW130422   3.287   0.400   4.111  1.1219 -1.1904  0.7189
 6263SOL    HW230423   3.255   0.341   3.978  1.0900  0.9511 -2.4415
 6264SOL     OW30424   2.554   3.188   5.149 -0.0623  0.1636  0.8485
 6264SOL    HW130425   2.469   3.146   5.143  0.1562 -0.0532 -0.7679
 6264SOL    HW230426   2.558   3.258   5.083  0.2183 -2.0690 -1.4850
 6265SOL     OW30427   1.849   1.554   4.601 -0.3787  0.9750 -0.0589
 6265SOL    HW130428   1.837   1.482   4.663  0.3260  0.5727 -0.3836
 6265SOL    HW230429   1.944   1.566   4.608 -0.2193 -1.2585  1.7056
 6266SOL     OW30430   3.100   2.513   6.326 -0.0233  0.6403 -0.3576
 6266SOL    HW130431   3.138   2.581   6.380  1.1541  0.3183 -0.7783
 6266SOL    HW230432   3.079   2.565   6.249 -2.5785  0.8494  0.4904
 6267SOL     OW30433   0.349   3.107   3.490  0.6909 -0.6604 -0.7887
 6267SOL    HW130434   0.264   3.147   3.473  0.2059 -1.6903 -0.7977
 6267SOL    HW230435   0.331   3.036   3.553 -0.1765  0.7931  0.5927
 6268SOL     OW30436   0.897   3.255   4.704 -0.3143 -0.0193  0.1110
 6268SOL    HW130437   0.861   3.236   4.791 -1.4745  0.2179 -0.3281
 6268SOL    HW230438   0.935   3.167   4.701 -0.4967 -0.1868  2.7585
 6269SOL     OW30439   2.596   3.404  15.670  0.1177 -0.1292  0.1097
 6269SOL    HW130440   2.550   3.401  15.754  1.0218  1.0213  0.6377
 6269SOL    HW230441   2.556   3.337  15.615  1.8028 -0.3935 -0.7705
 6270SOL     OW30442   3.515   0.622  10.391  0.4968 -0.4486 -0.0425
 6270SOL    HW130443   3.467   0.560  10.337 -1.1004 -0.5975  1.5438
 6270SOL    HW230444   3.484   0.707  10.359  3.9645  1.2913  1.1744
 6271SOL     OW30445   2.178   3.274   2.089 -0.4103 -0.3628 -0.8162
 6271SOL    HW130446   2.109   3.304   2.031  0.7596  0.3491 -1.8469
 6271SOL    HW230447   2.141   3.300   2.174  0.9904 -1.7020  0.2018
 6272SOL     OW30448   0.715   2.389   2.258  0.3353  0.2225  0.4945
 6272SOL    HW130449   0.635   2.401   2.309  0.4216 -0.3225  0.7499
 6272SOL    HW230450   0.739   2.482   2.265  0.9765 -0.0433  1.7689
 6273SOL     OW30451   3.841   1.534   3.222 -0.2802 -0.2220  0.1147
 6273SOL    HW130452   3.815   1.443   3.208  0.8333 -0.4674 -0.3077
 6273SOL    HW230453   3.797   1.578   3.149 -0.5877 -1.6359 -0.5445
 6274SOL     OW30454   3.015   0.842   4.866  0.1962 -0.2399 -0.0959
 6274SOL    HW130455   3.007   0.753   4.830 -1.7392 -0.9205  2.0518
 6274SOL    HW230456   3.109   0.841   4.882  0.0147  0.3387  1.0025
 6275SOL     OW30457   2.556   2.416   9.480 -0.2877  0.5752 -0.3856
 6275SOL    HW130458   2.629   2.426   9.541 -1.6567 -0.0792  1.3637
 6275SOL    HW230459   2.557   2.502   9.437 -0.1340  0.2302 -1.0789
 6276SOL     OW30460   0.313   2.626   4.907 -0.1857  0.1791 -0.0107
 6276SOL    HW130461   0.349   2.672   4.983  0.1154  1.7181 -1.0837
 6276SOL    HW230462   0.389   2.597   4.856 -2.0302 -3.1587 -0.8552
 6277SOL     OW30463   0.514   2.775  14.799  0.1134 -0.4390 -0.3724
 6277SOL    HW130464   0.453   2.701  14.796  0.5534 -0.8757  1.5589
 6277SOL    HW230465   0.443   2.838  14.807  0.0983 -0.4365 -0.5108
 6278SOL     OW30466   1.620   3.320   5.328  0.3888  0.8049  0.4030
 6278SOL    HW130467   1.612   3.299   5.235 -0.2769 -1.8611  1.0680
 6278SOL    HW230468   1.707   3.360   5.317  0.3324  0.2990 -1.9884
 6279SOL     OW30469   1.251   2.658   8.106  0.0522 -0.4977 -0.2779
 6279SOL    HW130470   1.300   2.740   8.117  1.7794 -1.2779 -1.9723
 6279SOL    HW230471   1.160   2.685   8.096  1.4016  3.7598 -0.9012
 6280SOL     OW30472   2.304   3.893   8.216 -0.1067  0.0409 -0.7645
 6280SOL    HW130473   2.307   3.862   8.125 -1.7636 -1.8352 -0.1709
 6280SOL    HW230474   2.210   3.902   8.225 -0.1038  0.5717 -1.2385
 6281SOL     OW30475   3.737   4.631   7.663 -0.2287 -0.2705  0.6552
 6281SOL    HW130476   3.813   4.684   7.642 -1.1931  1.0231  0.4009
 6281SOL    HW230477   3.683   4.685   7.722  1.5576  0.1677  1.8816
 6282SOL     OW30478   4.441   3.836   0.419  0.1743  0.7337  0.0236
 6282SOL    HW130479   4.387   3.912   0.442 -1.4861  0.2712 -2.3319
 6282SOL    HW230480   4.372   3.778   0.386  0.8748 -1.1914  1.9621
 6283SOL     OW30481   2.537   3.768   8.277 -0.1446  0.3102 -0.0562
 6283SOL    HW130482   2.510   3.731   8.360  1.9298 -1.3695 -0.1160
 6283SOL    HW230483   2.464   3.827   8.259 -0.0393 -0.5114 -3.2121
 6284SOL     OW30484   3.390   4.400   5.178  0.2443  0.1487 -0.1016
 6284SOL    HW130485   3.363   4.491   5.189 -2.0238 -0.3904 -1.2921
 6284SOL    HW230486   3.432   4.394   5.093  1.4202 -0.0235  0.4826
 6285SOL     OW30487   4.085   2.821   7.621 -0.0284 -0.0908  0.5891
 6285SOL    HW130488   4.169   2.781   7.645  0.8063  1.3670  0.0671
 6285SOL    HW230489   4.108   2.855   7.535 -1.3155  0.9846  0.6787
 6286SOL     OW30490   3.955   2.780   4.865  0.2174  0.4104 -0.1343
 6286SOL    HW130491   3.935   2.717   4.797 -1.6945  0.0775  0.7318
 6286SOL    HW230492   4.030   2.738   4.908 -0.8579 -1.4260 -0.0543
 6287SOL     OW30493   3.759   0.369  16.015 -0.3443  0.3866 -0.1448
 6287SOL    HW130494   3.800   0.350  15.930  1.7440  0.3683  0.8893
 6287SOL    HW230495   3.696   0.297  16.012  0.5075 -0.4054  1.4941
 6288SOL     OW30496   2.112   4.348   8.457  0.3299 -0.1627 -0.5614
 6288SOL    HW130497   2.089   4.358   8.549 -0.5173 -0.3305 -0.7563
 6288SOL    HW230498   2.173   4.277   8.474 -2.9361 -3.1697 -1.3246
 6289SOL     OW30499   4.310   3.101   2.853  0.4906 -0.3914 -1.0936
 6289SOL    HW130500   4.328   3.195   2.851  0.3697 -0.3374  0.0699
 6289SOL    HW230501   4.256   3.093   2.775  2.0206 -1.2978 -2.0712
 6290SOL     OW30502   2.086   0.664   0.273  0.5719 -0.3561  0.5951
 6290SOL    HW130503   2.085   0.699   0.362 -2.1260  1.2336 -0.0634
 6290SOL    HW230504   2.148   0.592   0.285  2.3217  1.1074  0.2301
 6291SOL     OW30505   2.050   0.182   6.630  0.2414  0.6225  0.1890
 6291SOL    HW130506   1.992   0.207   6.558  1.7489 -1.0176 -1.5981
 6291SOL    HW230507   1.993   0.139   6.693 -0.3525  0.0038 -0.7622
 6292SOL     OW30508   2.564   1.202  17.417  0.0881  0.1193 -0.5979
 6292SOL    HW130509   2.654   1.199  17.450  0.7300 -1.1518 -2.4803
 6292SOL    HW230510   2.574   1.284  17.369  3.6115  0.3168  0.5159
 6293SOL     OW30511   3.519   1.615   7.952  0.1840  0.5046  0.4022
 6293SOL    HW130512   3.583   1.587   7.887 -1.4429 -1.3451 -0.4459
 6293SOL    HW230513   3.544   1.569   8.032  2.3155  0.2153 -0.4457
 6294SOL     OW30514   1.099   0.107  12.178 -0.3156  0.2535 -0.0883
 6294SOL    HW130515   1.041   0.044  12.221  1.4407 -1.0678  0.3159
 6294SOL    HW230516   1.170   0.044  12.172  0.3953  1.1591 -1.2530
 6295SOL     OW30517   0.594   2.106   2.704 -0.4044 -0.0901  0.3104
 6295SOL    HW130518   0.580   2.082   2.796  1.2139  0.2635  0.6578
 6295SOL    HW230519   0.538   2.039   2.666 -0.2070 -0.3274  0.4392
 6296SOL     OW30520   2.302   4.414   6.004  0.3125 -0.3375 -0.8727
 6296SOL    HW130521   2.316   4.504   5.975 -2.8824  0.6569  0.6785
 6296SOL    HW230522   2.379   4.392   6.056 -0.5258  0.4026  0.6815
 6297SOL     OW30523   3.529   2.926   2.724 -0.3804  0.2864  0.3039
 6297SOL    HW130524   3.467   2.943   2.795 -0.4978  1.2191 -0.0273
 6297SOL    HW230525   3.570   2.852   2.769 -2.1333 -2.1974 -2.1695
 6298SOL     OW30526   0.816   4.474  16.498 -0.0634  0.4092 -0.1177
 6298SOL    HW130527   0.746   4.505  16.440  0.1881 -0.7164 -1.0223
 6298SOL    HW230528   0.867   4.555  16.500 -0.1688  0.4807 -0.2658
 6299SOL     OW30529   2.860   1.002   5.643 -0.4487  0.4593  0.5978
 6299SOL    HW130530   2.817   1.019   5.559  2.2018 -1.6918 -1.1858
 6299SOL    HW230531   2.795   1.044   5.701 -0.4328 -2.4782  2.7280
 6300SOL     OW30532   1.028   1.667  15.098 -0.6332  0.0546 -0.2157
 6300SOL    HW130533   1.001   1.624  15.178  1.3793 -0.9989 -0.0982
 6300SOL    HW230534   0.997   1.753  15.124 -2.6292 -0.0082 -2.4033
 6301SOL     OW30535   2.946   1.676   2.960 -0.1207  0.0274 -0.1865
 6301SOL    HW130536   2.995   1.700   2.881  0.5873 -0.9953 -0.0392
 6301SOL    HW230537   2.984   1.732   3.027  1.8159  0.0484 -1.3024
 6302SOL     OW30538   3.626   1.377   5.889  0.2695 -0.1138 -0.0046
 6302SOL    HW130539   3.664   1.323   5.959 -0.6306  1.8236  2.0081
 6302SOL    HW230540   3.556   1.424   5.935  0.6927  1.9127 -1.4159
 6303SOL     OW30541   2.998   3.154  13.881 -0.0812  0.2378  0.9402
 6303SOL    HW130542   2.925   3.158  13.942 -1.8483 -0.4275 -1.1364
 6303SOL    HW230543   2.949   3.142  13.800 -0.0972  1.3840  0.7916
 6304SOL     OW30544   0.654   2.866   3.890  0.0904 -0.0345  0.1035
 6304SOL    HW130545   0.657   2.961   3.879  0.3002 -0.1288 -0.6681
 6304SOL    HW230546   0.565   2.846   3.920 -0.2271 -0.0595 -0.8508
 6305SOL     OW30547   4.301   0.699   9.519  0.3870 -0.0455  0.0991
 6305SOL    HW130548   4.263   0.612   9.508  0.1107 -0.1022  1.4735
 6305SOL    HW230549   4.273   0.709   9.611 -1.6721  1.1935 -0.6682
 6306SOL     OW30550   0.544   0.727   1.623  0.3522 -0.0423  0.1832
 6306SOL    HW130551   0.509   0.642   1.598 -0.9612  0.0533  1.6829
 6306SOL    HW230552   0.633   0.722   1.588 -0.1554 -1.7149 -0.8239
 6307SOL     OW30553   2.937   0.232  14.578  0.4756 -0.3733 -0.4672
 6307SOL    HW130554   2.853   0.241  14.533  0.5382  3.0409  0.0717
 6307SOL    HW230555   3.004   0.243  14.511  0.9650 -2.0905 -0.2689
 6308SOL     OW30556   4.346   3.593  17.218 -0.2136 -0.2671  0.1918
 6308SOL    HW130557   4.314   3.619  17.305  0.2151  1.1742 -0.0735
 6308SOL    HW230558   4.381   3.674  17.182 -0.1322 -0.9687 -1.2909
 6309SOL     OW30559   0.155   0.835  14.639 -0.2755 -0.1042 -0.2734
 6309SOL    HW130560   0.166   0.886  14.719 -1.0094  1.6004 -1.2562
 6309SOL    HW230561   0.207   0.885  14.577 -2.1100  0.2646 -1.5090
 6310SOL     OW30562   2.484   1.252  11.625 -0.8309 -0.2051 -0.5174
 6310SOL    HW130563   2.414   1.291  11.573 -1.3668  0.3261  0.6278
 6310SOL    HW230564   2.465   1.159  11.624  0.2693 -0.4265 -2.3193
 6311SOL     OW30565   1.399   2.436   5.810  0.1578 -0.1533  0.0439
 6311SOL    HW130566   1.461   2.474   5.748 -2.6231 -0.1675 -2.7903
 6311SOL    HW230567   1.381   2.521   5.851  1.7831 -0.4041  1.2913
 6312SOL     OW30568   3.099   0.682   6.869 -0.1057 -0.4793  0.2407
 6312SOL    HW130569   3.136   0.715   6.788 -0.1154  1.5879  1.0878
 6312SOL    HW230570   3.163   0.613   6.885 -0.0358 -0.1966  1.1900
 6313SOL     OW30571   1.995   4.426   7.322 -0.2427  0.3475 -0.2733
 6313SOL    HW130572   1.962   4.509   7.355  1.7708  0.2615  1.9221
 6313SOL    HW230573   2.082   4.429   7.361 -0.8141  0.7993  0.9559
 6314SOL     OW30574   4.219   4.424   8.960 -0.0317 -0.3813 -0.3840
 6314SOL    HW130575   4.242   4.474   9.038  2.4593 -0.9492 -0.7271
 6314SOL    HW230576   4.131   4.454   8.939 -0.1613 -1.9470 -2.0999
 6315SOL     OW30577   0.685   1.959  14.827 -0.4464 -0.1572  0.0661
 6315SOL    HW130578   0.777   1.940  14.847 -0.5197 -0.2660  0.3074
 6315SOL    HW230579   0.676   2.022  14.756  0.0879 -0.7548 -0.5367
 6316SOL     OW30580   3.381   3.359   1.210  0.1652 -0.7029  0.0616
 6316SOL    HW130581   3.390   3.454   1.209 -2.7583 -0.4235 -1.4144
 6316SOL    HW230582   3.292   3.343   1.176  0.1240 -0.9351  0.2795
 6317SOL     OW30583   0.450   2.014  11.336  0.0976  0.1121 -0.2460
 6317SOL    HW130584   0.385   2.085  11.341  1.3733  1.0927  2.4073
 6317SOL    HW230585   0.465   2.013  11.242 -0.4009  0.4013 -0.3313
 6318SOL     OW30586   1.750   3.533   2.393  0.6268  0.4551 -0.2875
 6318SOL    HW130587   1.660   3.564   2.395  0.8138  1.0733 -1.2029
 6318SOL    HW230588   1.790   3.584   2.321 -1.9478  0.2830 -1.8309
 6319SOL     OW30589   1.429   1.461   3.453  0.0486  0.1746 -0.1146
 6319SOL    HW130590   1.336   1.481   3.463  0.6681  2.4628  0.9706
 6319SOL    HW230591   1.418   1.422   3.366 -1.5358 -0.3446  0.3075
 6320SOL     OW30592   0.583   0.249   5.716  0.2957 -0.2762  0.4856
 6320SOL    HW130593   0.625   0.188   5.776  1.3077 -2.3231 -2.2924
 6320SOL    HW230594   0.622   0.328   5.752  0.0059 -0.3203  0.8966
 6321SOL     OW30595   4.354   2.484   1.814 -0.2667 -0.3916  0.3296
 6321SOL    HW130596   4.274   2.461   1.767 -0.1818 -1.0295  0.4983
 6321SOL    HW230597   4.415   2.487   1.741 -0.6581 -0.5441  0.0011
 6322SOL     OW30598   4.342   2.821   3.601 -0.1892 -0.0656 -0.1869
 6322SOL    HW130599   4.292   2.819   3.519 -0.6148  0.1153  0.0698
 6322SOL    HW230600   4.300   2.893   3.649  0.1857 -0.4837  0.7666
 6323SOL     OW30601   3.890   2.318   1.513 -0.5591  0.8105 -0.0235
 6323SOL    HW130602   3.917   2.409   1.526 -1.6218  0.7992  2.3535
 6323SOL    HW230603   3.838   2.330   1.433  0.7667 -1.9631 -1.2521
 6324SOL     OW30604   1.330   1.677   7.513  0.1378  0.2543  0.6841
 6324SOL    HW130605   1.412   1.714   7.546  0.3642  0.2599  0.1203
 6324SOL    HW230606   1.285   1.665   7.596 -0.5385  1.6573  0.5200
 6325SOL     OW30607   4.621   1.548  14.301  0.2442  0.7015 -0.1865
 6325SOL    HW130608   4.637   1.617  14.365  0.5279  0.8598 -0.4270
 6325SOL    HW230609   4.701   1.545  14.248 -0.3441 -1.0260 -0.9767
 6326SOL     OW30610   0.107   1.146   8.436 -0.0347 -0.4707 -0.4750
 6326SOL    HW130611   0.158   1.065   8.429  0.0094 -0.3733 -1.2287
 6326SOL    HW230612   0.082   1.153   8.344  2.0472  0.6628 -0.9753
 6327SOL     OW30613   3.515   3.831   8.854 -0.0856 -0.3322 -0.1595
 6327SOL    HW130614   3.589   3.850   8.796 -0.0652 -1.3434 -0.4756
 6327SOL    HW230615   3.473   3.772   8.791  1.4201  1.6244 -3.0066
 6328SOL     OW30616   0.983   0.007   4.104  0.0600 -0.0290  0.0898
 6328SOL    HW130617   0.929   0.000   4.182  2.5726  1.3946  1.9782
 6328SOL    HW230618   1.060   4.702   4.144  0.9741  0.8985 -0.7171
 6329SOL     OW30619   4.588   4.671   8.555  0.6906 -0.0449 -0.6357
 6329SOL    HW130620   4.539   0.007   8.512  0.7727  1.0321  1.0368
 6329SOL    HW230621   4.581   4.596   8.495 -0.2310  0.1244 -0.7395
 6330SOL     OW30622   0.053   1.174  17.648  0.7144  0.1125  0.1858
 6330SOL    HW130623   4.708   1.158  17.597 -0.5678  1.1558  1.8476
 6330SOL    HW230624   0.066   1.266  17.624  0.3961  0.3351  0.8517
 6331SOL     OW30625   0.749   1.068   0.840  0.7487 -0.2947  0.3481
 6331SOL    HW130626   0.670   1.021   0.865  0.0244  0.4225 -0.6406
 6331SOL    HW230627   0.742   1.150   0.889 -0.9197 -0.1292 -0.1804
 6332SOL     OW30628   0.460   0.621  14.515  0.0591  0.2087  0.0373
 6332SOL    HW130629   0.491   0.543  14.560 -1.0935 -1.1839 -1.5854
 6332SOL    HW230630   0.375   0.602  14.476 -1.0561  1.1688  2.0090
 6333SOL     OW30631   2.646   3.769   4.863  1.0292  0.7403 -0.8681
 6333SOL    HW130632   2.711   3.725   4.808  0.0216 -2.4133  0.4495
 6333SOL    HW230633   2.648   3.857   4.826  2.7423  0.3860 -1.6122
 6334SOL     OW30634   3.861   3.761  13.925  0.5327 -0.0582  0.1449
 6334SOL    HW130635   3.850   3.683  13.979 -0.8658 -0.8715 -1.3350
 6334SOL    HW230636   3.776   3.773  13.883  0.4477 -0.5255  0.1832
 6335SOL     OW30637   3.880   3.642   4.531 -0.2774  0.0330  0.1415
 6335SOL    HW130638   3.946   3.711   4.537 -1.7318  1.3555  0.7883
 6335SOL    HW230639   3.799   3.685   4.556 -0.5555 -0.5170  0.1867
 6336SOL     OW30640   1.011   0.334   8.233  0.2516  0.1872 -0.3049
 6336SOL    HW130641   0.987   0.276   8.306 -0.0656  1.9974  1.0305
 6336SOL    HW230642   1.005   0.419   8.277 -0.3193 -0.7740  1.4721
 6337SOL     OW30643   4.210   2.296   9.396  0.3711 -0.7491 -0.0415
 6337SOL    HW130644   4.151   2.312   9.322  0.6088 -1.4489 -0.3803
 6337SOL    HW230645   4.271   2.367   9.376 -0.7955 -0.1041 -1.2883
 6338SOL     OW30646   4.483   3.642  10.444 -0.0516 -0.7624  0.1825
 6338SOL    HW130647   4.496   3.728  10.405  1.5031 -0.7874  0.6484
 6338SOL    HW230648   4.571   3.607  10.429 -0.8531 -1.0922 -3.7776
 6339SOL     OW30649   3.589   3.802   3.429  0.6397 -0.4622 -0.0768
 6339SOL    HW130650   3.556   3.734   3.488 -0.2118 -0.1456 -0.1864
 6339SOL    HW230651   3.634   3.861   3.489 -1.5368  2.7986 -1.6253
 6340SOL     OW30652   2.847   2.284  14.306 -0.5280 -0.3019 -0.0054
 6340SOL    HW130653   2.761   2.324  14.323  0.4578  0.8512  2.4116
 6340SOL    HW230654   2.894   2.293  14.389 -0.7921  1.4840 -0.0511
 6341SOL     OW30655   2.613   1.366   6.077 -0.4804  0.2161  0.0702
 6341SOL    HW130656   2.560   1.431   6.123 -0.1930  0.4316  0.0936
 6341SOL    HW230657   2.691   1.415   6.051 -1.2294  1.0572 -0.5690
 6342SOL     OW30658   2.276   3.171   8.662 -0.0164  0.4101 -0.0905
 6342SOL    HW130659   2.282   3.144   8.753 -0.3983  3.2605  0.7881
 6342SOL    HW230660   2.364   3.194   8.631 -0.0936  0.9607  0.0951
 6343SOL     OW30661   4.713   4.501   7.054  0.1824 -0.0505 -0.2153
 6343SOL    HW130662   0.066   4.472   7.030 -0.2849 -1.5794 -0.0597
 6343SOL    HW230663   4.710   4.455   7.138 -0.7568  0.2099 -0.1029
 6344SOL     OW30664   4.073   1.519   6.731 -0.7405 -0.4324  0.2311
 6344SOL    HW130665   4.119   1.449   6.684 -0.5526  0.5373 -1.0310
 6344SOL    HW230666   3.986   1.479   6.735 -0.7883 -0.5090 -1.5281
 6345SOL     OW30667   0.496   2.560   9.499  0.2956  0.5051  0.0425
 6345SOL    HW130668   0.427   2.537   9.561  1.9836 -2.0937  0.9355
 6345SOL    HW230669   0.548   2.480   9.505 -1.0105 -0.3462  0.1712
 6346SOL     OW30670   1.237   3.175   6.544 -0.1577  0.2698 -0.4049
 6346SOL    HW130671   1.211   3.241   6.608  0.5710  0.4188 -0.2607
 6346SOL    HW230672   1.223   3.225   6.464  0.1530  0.6098 -0.2468
 6347SOL     OW30673   0.935   3.411   2.357  0.0837 -0.3105 -0.0391
 6347SOL    HW130674   1.029   3.408   2.343  0.1092 -1.2443  0.3135
 6347SOL    HW230675   0.906   3.334   2.308 -0.0925  0.3439 -0.9501
 6348SOL     OW30676   0.854   1.847   6.394  0.1136 -0.0913  0.4047
 6348SOL    HW130677   0.873   1.911   6.326 -0.8430  2.2574  2.3519
 6348SOL    HW230678   0.935   1.802   6.419  0.6677  0.8250  0.2357
 6349SOL     OW30679   0.267   1.535   2.923  0.6324 -0.1691 -0.1416
 6349SOL    HW130680   0.325   1.566   2.992 -0.6667 -0.6543  1.1813
 6349SOL    HW230681   0.280   1.605   2.858  1.5535 -0.2536 -0.0414
 6350SOL     OW30682   4.003   4.264   5.556 -0.4984  0.6099 -0.4244
 6350SOL    HW130683   3.917   4.286   5.592 -0.0495  2.3604 -0.4476
 6350SOL    HW230684   4.057   4.341   5.572  0.4395 -0.4384  1.4929
 6351SOL     OW30685   3.138   4.260  16.457  0.1021 -0.3697  0.0922
 6351SOL    HW130686   3.208   4.201  16.430  1.1466  0.6961  0.4539
 6351SOL    HW230687   3.183   4.344  16.445 -1.5515  0.6534  0.9876
 6352SOL     OW30688   4.254   0.143   2.820  0.4091 -0.3707 -0.0415
 6352SOL    HW130689   4.195   0.206   2.862  1.0234  0.7231 -0.8176
 6352SOL    HW230690   4.300   0.107   2.896  0.0531 -0.4971  0.1128
 6353SOL     OW30691   2.163   3.505   8.035 -0.3798 -0.0449  0.2921
 6353SOL    HW130692   2.242   3.482   8.083 -1.4037  1.4752  2.7043
 6353SOL    HW230693   2.106   3.531   8.107  0.7124  1.1941  0.7036
 6354SOL     OW30694   1.261   4.149   3.382 -0.1039  0.6472 -0.2029
 6354SOL    HW130695   1.247   4.056   3.404 -1.6261  1.1844  1.0853
 6354SOL    HW230696   1.172   4.179   3.367  0.2012  2.5016  1.7142
 6355SOL     OW30697   0.284   1.267   3.902 -0.0598 -0.2422 -0.3770
 6355SOL    HW130698   0.265   1.262   3.808  1.3906  1.2033 -0.7428
 6355SOL    HW230699   0.194   1.248   3.929 -0.0514  0.4566  0.1488
 6356SOL     OW30700   1.589   3.810   7.764  1.1596 -0.2421  0.4016
 6356SOL    HW130701   1.551   3.822   7.677  1.3559 -0.9223  0.2270
 6356SOL    HW230702   1.659   3.874   7.767  0.2757  0.7080  0.9351
 6357SOL     OW30703   4.396   2.488   9.293  0.5543 -0.5492 -0.1956
 6357SOL    HW130704   4.463   2.513   9.228 -0.7449 -1.8402 -2.0168
 6357SOL    HW230705   4.441   2.515   9.373 -0.6675 -0.4418  0.4520
 6358SOL     OW30706   1.704   1.187   0.712  0.3187  0.0239  0.2643
 6358SOL    HW130707   1.611   1.207   0.727  0.2962  0.2032 -0.1100
 6358SOL    HW230708   1.731   1.279   0.706 -4.1999  1.1756 -2.7741
 6359SOL     OW30709   3.531   3.281   7.304  0.0781 -0.0981 -0.4817
 6359SOL    HW130710   3.591   3.342   7.260  1.7095 -0.0375  1.8473
 6359SOL    HW230711   3.600   3.224   7.337  1.3157  2.3557  1.1781
 6360SOL     OW30712   1.903   0.865   8.692  0.2312 -0.3487 -0.4295
 6360SOL    HW130713   1.912   0.929   8.622  1.3827 -0.0684 -0.0235
 6360SOL    HW230714   1.992   0.852   8.726  0.2867 -2.8519 -1.4794
 6361SOL     OW30715   1.842   0.286   7.240 -0.7847  0.1618 -0.3067
 6361SOL    HW130716   1.802   0.327   7.164  0.2676 -1.0333 -1.5072
 6361SOL    HW230717   1.932   0.261   7.220 -0.9365 -0.1874 -0.5535
 6362SOL     OW30718   0.870   3.063   4.451 -0.4156  0.1846  0.0180
 6362SOL    HW130719   0.918   3.144   4.436  1.0739 -0.4768  1.2590
 6362SOL    HW230720   0.863   3.035   4.359  0.3673 -0.5852  0.1871
 6363SOL     OW30721   2.094   3.650  10.408  0.0320  0.1806 -0.3611
 6363SOL    HW130722   2.176   3.620  10.446  1.3582  1.5917 -2.0989
 6363SOL    HW230723   2.039   3.643  10.486  0.0306  2.0222 -0.1995
 6364SOL     OW30724   2.325   0.051  17.682 -0.3389  0.0521 -0.0025
 6364SOL    HW130725   2.325   0.068   0.038 -2.4764 -0.4522  0.0893
 6364SOL    HW230726   2.318   0.136  17.639  0.1078 -0.0846 -0.3503
 6365SOL     OW30727   2.140   4.721  14.352  0.0976  0.1007  0.4727
 6365SOL    HW130728   2.107   0.043  14.421 -0.1475  0.0944  0.3644
 6365SOL    HW230729   2.091   4.641  14.372 -0.4926  0.0908 -0.9543
 6366SOL     OW30730   3.145   2.793  13.735  0.5339  0.5021 -0.3189
 6366SOL    HW130731   3.174   2.884  13.728 -0.7379  0.6560 -3.2089
 6366SOL    HW230732   3.228   2.746  13.722 -0.5831 -0.6818 -3.1785
 6367SOL     OW30733   3.575   1.600   2.519 -0.3644 -0.2884 -0.0812
 6367SOL    HW130734   3.549   1.551   2.597 -1.5851 -2.0081 -1.5681
 6367SOL    HW230735   3.493   1.649   2.516 -0.9983 -1.1604  2.5583
 6368SOL     OW30736   0.302   4.219   6.789  0.7347 -0.6485  0.6841
 6368SOL    HW130737   0.345   4.298   6.821  2.7402 -2.2060  1.8505
 6368SOL    HW230738   0.212   4.245   6.807  0.5273 -0.9162  0.0449
 6369SOL     OW30739   0.108   0.942   5.079  0.9184 -0.5395  0.3149
 6369SOL    HW130740   0.126   1.029   5.115  0.0945 -0.5992  0.8646
 6369SOL    HW230741   0.110   0.966   4.986  0.1378  0.2151  0.4981
 6370SOL     OW30742   3.917   3.133  16.045  0.2908 -0.1715  0.7277
 6370SOL    HW130743   3.855   3.167  15.981 -1.5387 -0.1682  2.4972
 6370SOL    HW230744   3.991   3.179  16.006  1.8411 -2.1354  1.3517
 6371SOL     OW30745   1.411   1.265  16.873 -0.0234 -0.1938 -0.2385
 6371SOL    HW130746   1.319   1.257  16.901 -0.0372  1.4849  0.2418
 6371SOL    HW230747   1.454   1.248  16.957  0.2102  1.4937 -0.0106
 6372SOL     OW30748   3.368   0.215  10.217 -0.4984 -0.4886 -0.7953
 6372SOL    HW130749   3.418   0.201  10.136 -1.6138 -0.9033 -1.4022
 6372SOL    HW230750   3.387   0.309  10.222  0.4739 -0.6984 -0.4413
 6373SOL     OW30751   3.090   2.351   2.827 -0.3879 -0.2119  0.1387
 6373SOL    HW130752   3.076   2.282   2.762 -1.2825 -2.0516  2.2983
 6373SOL    HW230753   2.999   2.380   2.823 -0.5541 -0.6907  0.4268
 6374SOL     OW30754   0.806   1.485   4.537 -0.1547  0.3915  0.5826
 6374SOL    HW130755   0.775   1.487   4.447 -2.3027  1.3001  1.3318
 6374SOL    HW230756   0.879   1.424   4.547  1.0944  1.6324 -0.9967
 6375SOL     OW30757   3.231   1.936   5.874  0.8571  0.4943  0.4968
 6375SOL    HW130758   3.309   1.897   5.835 -1.0035 -0.7804 -1.9746
 6375SOL    HW230759   3.217   1.880   5.950 -0.9401  3.5890  2.4674
 6376SOL     OW30760   2.002   4.523  15.003  0.5458  0.0584 -0.3028
 6376SOL    HW130761   2.052   4.469  14.942  0.2543 -0.0042 -0.4878
 6376SOL    HW230762   2.057   4.600  15.015 -0.5264  0.9124 -0.8571
 6377SOL     OW30763   1.125   4.486   5.581  0.7523 -0.0370 -0.1452
 6377SOL    HW130764   1.031   4.480   5.596  0.9211 -0.5240  0.7348
 6377SOL    HW230765   1.135   4.567   5.530  1.4678  0.6525  1.0748
 6378SOL     OW30766   4.611   1.138   0.856 -0.5020 -0.1227  0.6320
 6378SOL    HW130767   4.599   1.219   0.807  1.2335  0.1373  0.6512
 6378SOL    HW230768   4.521   1.115   0.879 -0.5084 -1.1593 -0.3947
 6379SOL     OW30769   0.873   1.324   0.955 -0.6262  0.1051 -0.0816
 6379SOL    HW130770   0.954   1.276   0.971 -1.2037 -1.0767 -0.7857
 6379SOL    HW230771   0.871   1.376   1.036 -0.2899  0.3023 -0.2011
 6380SOL     OW30772   3.393   4.230  15.132 -0.1896  0.3897  0.2341
 6380SOL    HW130773   3.396   4.306  15.073  0.7174  0.3156  0.1855
 6380SOL    HW230774   3.308   4.189  15.119  0.5218 -0.9773  0.0007
 6381SOL     OW30775   0.748   1.412   5.749 -0.0670 -0.0442  0.0202
 6381SOL    HW130776   0.799   1.357   5.689 -0.7291 -0.2173 -0.3858
 6381SOL    HW230777   0.664   1.366   5.748  0.8677 -1.7939  2.3328
 6382SOL     OW30778   0.781   4.035  17.282  1.1136  0.4983  0.0118
 6382SOL    HW130779   0.806   4.062  17.371  2.2072  0.7333 -0.3547
 6382SOL    HW230780   0.726   4.110  17.259  2.4347  1.8142  1.0935
 6383SOL     OW30781   3.612   0.292   2.100  0.7488 -0.0767 -0.0361
 6383SOL    HW130782   3.637   0.209   2.139 -1.4243  0.0911  1.7238
 6383SOL    HW230783   3.523   0.309   2.133  0.5380 -0.4034 -0.4414
 6384SOL     OW30784   3.171   4.726  14.604 -0.0429 -0.1586 -0.0194
 6384SOL    HW130785   3.082   4.704  14.631 -0.3109 -0.3165 -1.0325
 6384SOL    HW230786   3.156   0.082  14.576 -0.1171 -0.2399 -0.2416
 6385SOL     OW30787   0.272   0.749   1.723 -0.1588  0.6690 -0.3388
 6385SOL    HW130788   0.363   0.775   1.708  0.6635 -1.8760  0.0942
 6385SOL    HW230789   0.235   0.714   1.642 -1.2716  0.1293  0.3975
 6386SOL     OW30790   3.954   2.980   0.013  0.3434 -0.1458 -0.1665
 6386SOL    HW130791   3.890   3.051   0.026 -0.1729 -0.5497 -0.5137
 6386SOL    HW230792   3.945   2.953  17.660 -0.3008 -1.9792  0.4492
 6387SOL     OW30793   3.550   3.532  16.791 -0.5071  0.2048 -0.2439
 6387SOL    HW130794   3.643   3.524  16.768 -0.0611 -1.9033  2.3834
 6387SOL    HW230795   3.564   3.579  16.873  0.5019  4.4634 -2.8469
 6388SOL     OW30796   1.009   2.727   4.312 -0.5657  0.1309 -0.0999
 6388SOL    HW130797   0.950   2.657   4.340 -1.2521  0.7550  0.0349
 6388SOL    HW230798   0.975   2.750   4.225  2.0979  0.5601 -1.0277
 6389SOL     OW30799   3.246   2.216   5.833 -0.6039 -0.3261 -0.2420
 6389SOL    HW130800   3.220   2.124   5.837  0.1993 -0.4541  2.4505
 6389SOL    HW230801   3.335   2.213   5.798 -0.6276  1.1745 -0.4164
 6390SOL     OW30802   4.629   3.991   6.807 -0.1668  0.1119 -0.2301
 6390SOL    HW130803   4.633   3.897   6.819  3.8392  0.2359 -0.6334
 6390SOL    HW230804   4.537   4.003   6.785  0.1727 -0.1965 -1.8347
 6391SOL     OW30805   0.626   4.218   7.754  0.0085 -0.7611  0.4790
 6391SOL    HW130806   0.716   4.212   7.787 -0.2299 -0.4782  1.1834
 6391SOL    HW230807   0.567   4.198   7.826 -0.4510  1.0281  0.6018
 6392SOL     OW30808   3.710   1.553   7.769 -0.2029 -0.0849  0.4602
 6392SOL    HW130809   3.667   1.537   7.685 -0.2858 -1.5477  0.7833
 6392SOL    HW230810   3.769   1.621   7.735  0.7484 -1.2168 -0.1713
 6393SOL     OW30811   1.726   1.420   5.048  0.4162 -0.5400 -0.0977
 6393SOL    HW130812   1.710   1.461   4.963  0.0228 -3.1743 -1.2899
 6393SOL    HW230813   1.820   1.440   5.052  0.1542  0.7560 -0.3387
 6394SOL     OW30814   2.796   2.254   6.667  0.4429 -0.3602  0.5454
 6394SOL    HW130815   2.855   2.180   6.682  0.1953 -0.9327 -1.2830
 6394SOL    HW230816   2.859   2.322   6.641  0.0976  0.7824  2.6679
 6395SOL     OW30817   0.859   0.534   3.413  0.3480 -0.4587  0.2328
 6395SOL    HW130818   0.869   0.572   3.500  0.1186 -0.6217  0.3292
 6395SOL    HW230819   0.783   0.572   3.368  0.9928 -0.4451 -0.8576
 6396SOL     OW30820   0.993   4.660  15.602  0.4824 -0.0319  0.1648
 6396SOL    HW130821   1.036   4.576  15.586  1.6083  1.0290 -2.3209
 6396SOL    HW230822   1.043   4.711  15.538 -0.8994  1.4483  0.2610
 6397SOL     OW30823   1.750   2.147   7.192 -0.3411  0.3215 -0.2608
 6397SOL    HW130824   1.768   2.129   7.284 -0.3571 -0.0221 -0.3260
 6397SOL    HW230825   1.679   2.212   7.202  0.0422  0.8116 -0.7481
 6398SOL     OW30826   2.017   3.138   3.850  0.8788 -0.1497 -0.2135
 6398SOL    HW130827   1.950   3.190   3.805  0.6662 -0.3949 -0.1797
 6398SOL    HW230828   2.063   3.105   3.773 -0.1604 -0.8447 -0.5426
 6399SOL     OW30829   0.054   2.170  13.630  0.1119 -0.2571  0.1736
 6399SOL    HW130830   0.080   2.112  13.702  1.8596  1.3185  0.8055
 6399SOL    HW230831   4.727   2.224  13.680 -1.3887  0.8507 -2.8967
 6400SOL     OW30832   1.333   0.084   8.817 -0.2871 -0.5888  0.0039
 6400SOL    HW130833   1.393   0.047   8.883 -0.8783 -0.0700  0.8347
 6400SOL    HW230834   1.395   0.139   8.769 -0.4471 -1.7097 -1.4919
 6401SOL     OW30835   0.773   2.137  16.660  0.6140  0.1364 -0.0043
 6401SOL    HW130836   0.695   2.103  16.615  1.9129 -1.7565 -0.8605
 6401SOL    HW230837   0.752   2.230  16.652  3.6283  0.7656 -0.7938
 6402SOL     OW30838   0.973   4.581   4.625  0.1119 -0.7434  0.4508
 6402SOL    HW130839   0.955   4.511   4.688 -3.3663  0.1591  0.4209
 6402SOL    HW230840   1.000   4.646   4.691 -0.2863 -1.7203  1.5817
 6403SOL     OW30841   4.481   0.129   6.046  0.3298  0.1503 -0.0150
 6403SOL    HW130842   4.517   0.208   6.085 -2.6208  0.7611  1.4909
 6403SOL    HW230843   4.553   0.108   5.987  2.5698 -0.9030  3.0926
 6404SOL     OW30844   2.880   3.927   5.614 -0.0383  0.0609  0.0839
 6404SOL    HW130845   2.790   3.948   5.636  0.0700  0.7208 -0.1098
 6404SOL    HW230846   2.866   3.847   5.564  0.9258  0.1694 -0.3649
 6405SOL     OW30847   0.456   1.590   8.410 -0.0620 -0.8994  0.2794
 6405SOL    HW130848   0.512   1.659   8.445 -1.1451 -0.4720  1.1667
 6405SOL    HW230849   0.381   1.632   8.368  0.6913  0.7856  0.6166
 6406SOL     OW30850   4.652   4.185   2.496 -0.0285  0.4605 -0.0067
 6406SOL    HW130851   4.636   4.206   2.588  1.2759  4.2451 -0.6641
 6406SOL    HW230852   4.580   4.232   2.455 -0.2920 -1.4255 -1.6975
 6407SOL     OW30853   1.803   0.597   7.317 -0.1381  0.2230  0.1725
 6407SOL    HW130854   1.858   0.646   7.378  1.9930 -2.4501  0.4013
 6407SOL    HW230855   1.798   0.509   7.355 -2.4533 -0.0092 -0.7112
 6408SOL     OW30856   1.523   3.320   8.768 -0.0768 -0.4818  0.6027
 6408SOL    HW130857   1.452   3.312   8.705 -1.2404 -1.7561  2.0937
 6408SOL    HW230858   1.493   3.281   8.850  0.1048  0.0843  0.9349
 6409SOL     OW30859   2.763   3.367   8.971 -0.5322  0.2109 -1.1254
 6409SOL    HW130860   2.775   3.462   8.982 -2.8120  0.1153  2.0884
 6409SOL    HW230861   2.704   3.365   8.895 -1.3316 -2.1104 -0.4337
 6410SOL     OW30862   4.232   3.294  11.984  0.1471  0.3770  0.1290
 6410SOL    HW130863   4.268   3.279  12.071 -0.5178 -0.2159  0.2967
 6410SOL    HW230864   4.204   3.385  11.990  1.3842  0.9004 -1.9936
 6411SOL     OW30865   0.535   4.618  17.613 -0.0952  0.4293 -0.3853
 6411SOL    HW130866   0.520   4.688  17.677  0.2212  0.7022 -0.6038
 6411SOL    HW230867   0.455   4.567  17.623  0.6857 -0.8758 -0.8807
 6412SOL     OW30868   2.757   3.710  12.633  0.1644  0.1240  0.4929
 6412SOL    HW130869   2.791   3.648  12.698 -0.6280  0.0411  0.8249
 6412SOL    HW230870   2.821   3.740  12.569  0.5539 -1.6273  0.0636
 6413SOL     OW30871   3.784   2.285   0.873 -0.2644 -0.1454 -0.1793
 6413SOL    HW130872   3.863   2.270   0.925  0.1439  0.8596 -0.5245
 6413SOL    HW230873   3.727   2.265   0.947 -0.4766  0.8121 -0.0880
 6414SOL     OW30874   4.593   2.586   6.042 -0.2756  0.1989  0.2983
 6414SOL    HW130875   4.675   2.581   5.993 -1.5705 -0.3686 -1.8323
 6414SOL    HW230876   4.620   2.566   6.132  0.8183 -3.3765 -0.8249
 6415SOL     OW30877   0.167   1.880   5.283 -0.3662 -0.0861  0.4620
 6415SOL    HW130878   0.107   1.850   5.214  0.0139  0.5400 -0.1410
 6415SOL    HW230879   0.139   1.829   5.359 -0.6695 -0.6154 -0.0076
 6416SOL     OW30880   2.053   2.285   3.424  0.4576  0.3734  0.1657
 6416SOL    HW130881   2.015   2.197   3.425  2.1671 -0.3420  1.6978
 6416SOL    HW230882   2.001   2.335   3.361  0.9701 -0.8605 -1.2665
 6417SOL     OW30883   0.817   0.688   4.381  0.4930 -0.1767 -0.3867
 6417SOL    HW130884   0.790   0.779   4.369 -0.3623 -0.5536 -1.3388
 6417SOL    HW230885   0.905   0.703   4.415  0.6717 -0.8265 -0.5654
 6418SOL     OW30886   4.069   3.924  15.028 -0.1993  0.0724  0.0559
 6418SOL    HW130887   3.981   3.943  15.060 -0.1664  0.2930  0.0166
 6418SOL    HW230888   4.106   3.887  15.108 -1.4073 -2.3041 -0.5109
 6419SOL     OW30889   0.207   3.752   1.106 -0.3759  0.0874  1.1810
 6419SOL    HW130890   0.204   3.684   1.172 -2.8385 -0.1796  0.7982
 6419SOL    HW230891   0.123   3.736   1.063 -0.1225  3.4122 -0.6186
 6420SOL     OW30892   1.053   3.044  16.001  0.1718  0.0426  0.5410
 6420SOL    HW130893   1.078   3.117  16.057 -0.8354 -0.3916  1.5687
 6420SOL    HW230894   1.049   3.076  15.911 -2.0195  0.4936  0.8033
 6421SOL     OW30895   3.789   2.823   5.066 -0.0234  0.5779 -0.0887
 6421SOL    HW130896   3.819   2.835   4.976 -1.0656  2.0065 -0.2502
 6421SOL    HW230897   3.817   2.736   5.093 -1.9682 -0.6244 -1.9914
 6422SOL     OW30898   2.228   1.246   5.468 -0.0777  0.5718 -0.1171
 6422SOL    HW130899   2.151   1.202   5.503  1.5642 -1.4343  0.9676
 6422SOL    HW230900   2.183   1.297   5.401  0.9355  0.8301 -0.6021
 6423SOL     OW30901   4.097   1.805   7.132 -0.2840 -0.4059  0.1022
 6423SOL    HW130902   4.047   1.854   7.067 -0.0372 -0.1947  0.0727
 6423SOL    HW230903   4.085   1.716   7.100  0.9180 -0.4315 -0.2453
 6424SOL     OW30904   0.214   1.046   0.758 -0.2231  0.4001 -0.1620
 6424SOL    HW130905   0.249   1.128   0.724  2.1790  1.1644  4.2366
 6424SOL    HW230906   0.252   0.992   0.689  0.6383  0.3797  0.3312
 6425SOL     OW30907   3.364   2.661   4.938 -0.7117 -0.6623 -0.7415
 6425SOL    HW130908   3.378   2.566   4.940 -0.2287 -0.5528  1.0005
 6425SOL    HW230909   3.376   2.665   5.033  1.4341 -1.3377 -0.9939
 6426SOL     OW30910   1.143   3.571   4.821  0.1534  0.2391 -0.1719
 6426SOL    HW130911   1.079   3.550   4.754  0.8182  1.6164 -1.2406
 6426SOL    HW230912   1.186   3.487   4.834  1.8534  0.9472 -1.2966
 6427SOL     OW30913   3.304   4.410  15.587 -0.5757 -0.5028  0.0311
 6427SOL    HW130914   3.372   4.390  15.523 -0.8574  0.0168 -0.4219
 6427SOL    HW230915   3.229   4.363  15.552 -1.2175 -1.2785  2.4391
 6428SOL     OW30916   4.727   1.249   5.861  0.1239 -0.1292 -0.5252
 6428SOL    HW130917   4.722   1.318   5.795  0.2801  0.3820  0.0023
 6428SOL    HW230918   4.665   1.185   5.824  0.2342 -0.7304  0.3231
 6429SOL     OW30919   4.465   2.732   3.089 -0.0440 -0.0667 -0.2934
 6429SOL    HW130920   4.484   2.823   3.109  0.9396 -0.0078 -1.4851
 6429SOL    HW230921   4.504   2.703   3.172 -0.9169  1.5279  0.6796
 6430SOL     OW30922   2.784   1.571   3.983 -0.3221  0.2132 -0.4263
 6430SOL    HW130923   2.811   1.531   3.900  1.3330 -2.3958  1.3940
 6430SOL    HW230924   2.722   1.638   3.954 -0.7067  0.5748  1.2305
 6431SOL     OW30925   3.874   1.508   2.318 -0.5728  0.1200 -0.5769
 6431SOL    HW130926   3.793   1.533   2.274 -1.5093 -0.7109  0.6706
 6431SOL    HW230927   3.936   1.495   2.246  0.5696  1.7573  0.1171
 6432SOL     OW30928   0.278   2.020   0.901  0.0743  0.3220  0.0916
 6432SOL    HW130929   0.361   1.986   0.932 -1.2213 -3.0881 -0.1605
 6432SOL    HW230930   0.309   2.105   0.870  0.0745  0.6503  0.9948
 6433SOL     OW30931   1.270   2.738   8.421  0.0539 -0.1363 -0.2205
 6433SOL    HW130932   1.178   2.731   8.448 -0.1967  4.7209  0.2440
 6433SOL    HW230933   1.271   2.714   8.328  1.6367  0.9589 -0.4831
 6434SOL     OW30934   2.213   0.503   4.325  0.0463  0.3750  0.4145
 6434SOL    HW130935   2.285   0.556   4.290  1.3293 -2.3057 -0.9827
 6434SOL    HW230936   2.139   0.556   4.297  0.0306  0.7012  1.0700
 6435SOL     OW30937   2.990   0.963  15.059 -0.1773 -0.3098  0.0796
 6435SOL    HW130938   2.974   0.980  15.152  0.6326  0.8005  0.0243
 6435SOL    HW230939   2.940   1.031  15.014 -0.3330 -0.0556  0.6346
 6436SOL     OW30940   0.960   2.835   5.706 -0.3003 -0.1409  0.1155
 6436SOL    HW130941   1.026   2.777   5.667 -0.2384  1.0919 -1.6464
 6436SOL    HW230942   0.928   2.892   5.636  0.9169  3.5779  2.6232
 6437SOL     OW30943   0.122   4.482   5.370 -0.4126  0.2164 -0.3566
 6437SOL    HW130944   0.109   4.462   5.463 -0.8525  0.9852 -0.2520
 6437SOL    HW230945   0.156   4.399   5.337  0.8465  0.6428 -0.1440
 6438SOL     OW30946   1.795   2.357  13.737 -0.2170  0.4961  0.6114
 6438SOL    HW130947   1.854   2.311  13.676  0.0983  4.1409 -1.7937
 6438SOL    HW230948   1.724   2.356  13.673 -0.4211 -0.3324  0.8514
 6439SOL     OW30949   4.243   3.377   9.994  0.2302 -0.1040  0.3288
 6439SOL    HW130950   4.337   3.384   9.982  0.0325  0.3529 -0.9371
 6439SOL    HW230951   4.201   3.445   9.941  1.3404  1.6195  1.6329
 6440SOL     OW30952   0.442   2.379   6.946 -0.5297 -0.0092  0.0779
 6440SOL    HW130953   0.434   2.313   6.877 -0.1765  1.5720 -1.5002
 6440SOL    HW230954   0.364   2.370   7.000 -1.3261  1.0959 -0.8693
 6441SOL     OW30955   3.509   1.451   9.225 -0.0196 -0.0238  0.4001
 6441SOL    HW130956   3.438   1.386   9.226 -1.1275  1.1604 -2.4999
 6441SOL    HW230957   3.545   1.435   9.138  2.3131 -0.4302  1.4329
 6442SOL     OW30958   0.084   4.266  10.663 -0.7645  0.0486 -0.3996
 6442SOL    HW130959   0.041   4.226  10.738  1.6409  2.4256  2.2369
 6442SOL    HW230960   0.025   4.234  10.595  1.2829 -1.6400 -1.4034
 6443SOL     OW30961   4.594   2.272   5.854 -0.4306  0.1430  0.1685
 6443SOL    HW130962   4.572   2.198   5.797 -0.7540 -0.2350  0.7816
 6443SOL    HW230963   4.620   2.333   5.786 -1.2620  0.7621  0.4092
 6444SOL     OW30964   0.200   1.485   5.983  0.1646  0.3488 -0.3615
 6444SOL    HW130965   0.162   1.516   6.065  0.1210 -0.7742  0.0410
 6444SOL    HW230966   0.292   1.512   5.985  0.3129 -0.2358  0.5272
 6445SOL     OW30967   3.530   2.476   8.289  0.4249 -0.4863 -0.1033
 6445SOL    HW130968   3.587   2.526   8.347 -0.4705 -0.4873  0.7726
 6445SOL    HW230969   3.443   2.499   8.321 -0.6932 -2.7894 -1.4132
 6446SOL     OW30970   0.357   0.286  14.538 -0.2503  0.4733 -0.0866
 6446SOL    HW130971   0.308   0.209  14.566  0.9866 -0.8330 -1.5115
 6446SOL    HW230972   0.323   0.355  14.594  0.5495 -1.1984  2.4559
 6447SOL     OW30973   3.070   0.479   1.448 -0.0459 -0.0221 -0.1616
 6447SOL    HW130974   2.978   0.471   1.473 -0.1468  1.9286  0.0791
 6447SOL    HW230975   3.064   0.548   1.383 -1.4934  0.6816  0.7153
 6448SOL     OW30976   1.864   1.588   3.367  0.1099 -0.3760 -0.2263
 6448SOL    HW130977   1.922   1.637   3.425  0.4647 -1.0756  0.0156
 6448SOL    HW230978   1.857   1.631   3.282 -0.7677 -0.0636  0.0046
 6449SOL     OW30979   4.302   0.091   0.738  0.0693  0.7151 -0.5765
 6449SOL    HW130980   4.299   0.022   0.804  0.9346 -0.5821 -1.8922
 6449SOL    HW230981   4.271   0.043   0.661  1.4776 -2.8393  1.0657
 6450SOL     OW30982   0.757   2.223   8.537  0.0169  1.1324  0.0033
 6450SOL    HW130983   0.735   2.164   8.466  0.8987  1.6428 -0.6965
 6450SOL    HW230984   0.701   2.298   8.519  0.5514  1.9933  1.9116
 6451SOL     OW30985   0.077   0.267   6.869  0.4141  0.5175  0.2990
 6451SOL    HW130986   4.734   0.214   6.847  1.6018  0.1824 -3.0768
 6451SOL    HW230987   0.123   0.221   6.939 -2.1320  1.2579  2.4519
 6452SOL     OW30988   0.676   3.375   6.340 -0.3785  0.3821 -0.9269
 6452SOL    HW130989   0.758   3.329   6.322  0.2766  0.7010  1.2904
 6452SOL    HW230990   0.609   3.316   6.306 -0.9874 -0.4275  1.7174
 6453SOL     OW30991   3.301   2.461   5.338 -0.2972  0.1923 -0.2353
 6453SOL    HW130992   3.232   2.458   5.404 -0.1525 -2.0700 -0.1897
 6453SOL    HW230993   3.365   2.403   5.379  0.5713  2.4231  1.5869
 6454SOL     OW30994   0.866   4.213   5.522  0.0985 -1.0649 -0.7495
 6454SOL    HW130995   0.788   4.187   5.570  0.9115 -0.5978  0.8362
 6454SOL    HW230996   0.848   4.302   5.494  0.6490 -1.3245 -1.9616
 6455SOL     OW30997   4.004   2.613   1.459 -0.4646  0.4024  0.0852
 6455SOL    HW130998   4.015   2.706   1.479  1.6251  0.1153  0.3094
 6455SOL    HW230999   4.056   2.616   1.379 -1.0427 -2.1574 -0.3560
 6456SOL     OW31000   4.574   0.929  12.994  0.0022  0.1475 -0.1258
 6456SOL    HW131001   4.505   0.988  12.960 -0.1715  1.1259  1.9342
 6456SOL    HW231002   4.654   0.978  12.975  1.2133 -2.1212 -0.7920
 6457SOL     OW31003   1.760   4.267   2.765  0.3487 -0.0912  0.1556
 6457SOL    HW131004   1.849   4.301   2.758  0.6372 -0.7384  0.8569
 6457SOL    HW231005   1.756   4.227   2.851  0.3471 -0.5452 -0.0537
 6458SOL     OW31006   0.042   0.273   1.805  0.0122  0.3211 -0.7851
 6458SOL    HW131007   4.727   0.312   1.733 -1.6231  0.5937  0.5130
 6458SOL    HW231008   0.112   0.337   1.822 -0.9822  1.1595  0.1230
 6459SOL     OW31009   3.180   1.934  10.391 -0.5788 -0.1066 -0.0522
 6459SOL    HW131010   3.121   2.009  10.376  0.7626  0.8842 -0.3612
 6459SOL    HW231011   3.135   1.900  10.468 -1.8691  0.8381 -0.3827
 6460SOL     OW31012   3.679   1.221   9.542  0.7179  0.1002 -0.0857
 6460SOL    HW131013   3.607   1.159   9.529 -1.3350  2.8613 -1.8598
 6460SOL    HW231014   3.699   1.267   9.461 -0.5003 -0.9815 -0.9994
 6461SOL     OW31015   1.272   1.577   6.967 -0.1168 -0.1254 -0.4282
 6461SOL    HW131016   1.325   1.653   6.945  1.0861 -0.5826  0.8722
 6461SOL    HW231017   1.254   1.604   7.057 -1.8271 -0.5799 -0.6500
 6462SOL     OW31018   4.082   3.198   6.074 -0.2021 -0.1930 -0.6107
 6462SOL    HW131019   4.128   3.194   6.159  0.9913 -0.0752 -1.2492
 6462SOL    HW231020   4.039   3.113   6.066 -0.1553 -0.5559  2.6986
 6463SOL     OW31021   4.130   2.708   5.063 -0.4112  0.3805  0.1622
 6463SOL    HW131022   4.185   2.779   5.096 -1.1037 -0.5414  3.3710
 6463SOL    HW231023   4.183   2.632   5.086 -0.8130  1.1160  3.6478
 6464SOL     OW31024   2.466   0.982  16.357 -0.3801 -0.3625  0.6386
 6464SOL    HW131025   2.504   1.058  16.314 -0.0452 -0.2507  1.1345
 6464SOL    HW231026   2.377   1.011  16.379 -1.1253 -2.3235  0.2795
 6465SOL     OW31027   4.498   3.293   4.525  0.1618  0.4719  0.3155
 6465SOL    HW131028   4.567   3.232   4.549  0.7047  1.5723  1.5230
 6465SOL    HW231029   4.544   3.327   4.448  0.1685 -0.4738 -0.0958
 6466SOL     OW31030   4.097   3.500   1.915 -0.6554  0.3719 -0.6364
 6466SOL    HW131031   4.182   3.523   1.954 -1.1148  0.1886  0.4716
 6466SOL    HW231032   4.116   3.432   1.850 -1.8086 -0.2222 -0.3481
 6467SOL     OW31033   2.183   1.998   8.683  0.0329  0.5067 -0.2659
 6467SOL    HW131034   2.151   1.908   8.675  1.3438 -0.1978  2.4421
 6467SOL    HW231035   2.103   2.049   8.694  1.8881  3.1821  0.7936
 6468SOL     OW31036   2.914   4.468   5.052  0.4150  0.5412  0.1473
 6468SOL    HW131037   2.883   4.484   4.962 -2.7133 -0.4466  1.0609
 6468SOL    HW231038   2.943   4.377   5.042 -1.3188 -0.0332  0.2507
 6469SOL     OW31039   1.902   1.075  14.330  0.2101  0.5964 -0.1765
 6469SOL    HW131040   1.969   1.025  14.283 -0.3918 -0.5878  0.2406
 6469SOL    HW231041   1.897   1.159  14.285 -0.7929 -0.6723 -2.4534
 6470SOL     OW31042   4.356   4.306   1.587 -0.1189  0.4081 -0.1562
 6470SOL    HW131043   4.412   4.241   1.545 -0.5772  0.0787 -0.2621
 6470SOL    HW231044   4.281   4.306   1.527  0.5410  1.5649 -0.9841
 6471SOL     OW31045   3.347   0.558   2.246  0.4145  0.2405  0.0206
 6471SOL    HW131046   3.330   0.500   2.172  3.5952 -1.4322  0.6241
 6471SOL    HW231047   3.438   0.531   2.259  1.2154  1.8114 -2.3045
 6472SOL     OW31048   1.091   0.339   9.373  0.7213 -0.1216 -0.6152
 6472SOL    HW131049   1.043   0.402   9.428  1.5974  0.1094 -0.1219
 6472SOL    HW231050   1.031   0.327   9.299  1.3841 -2.0004 -0.8393
 6473SOL     OW31051   0.800   1.788   0.540 -0.5868  0.4767  0.2353
 6473SOL    HW131052   0.859   1.731   0.492 -0.9017  3.2670 -3.4354
 6473SOL    HW231053   0.862   1.812   0.609 -0.5184 -2.4305  1.1929
 6474SOL     OW31054   2.558   4.428  15.761 -0.1700 -0.4585  0.6246
 6474SOL    HW131055   2.610   4.361  15.716 -2.7202 -1.4120 -0.8979
 6474SOL    HW231056   2.619   4.501  15.761 -1.1893  0.3869 -3.9955
 6475SOL     OW31057   3.389   1.597   3.150  0.2300  0.6037 -0.1430
 6475SOL    HW131058   3.305   1.601   3.105  0.4466  1.0975 -0.4976
 6475SOL    HW231059   3.361   1.594   3.242 -1.3779  0.5591 -0.6364
 6476SOL     OW31060   0.399   1.637   3.605 -0.4027  0.1327  0.3991
 6476SOL    HW131061   0.381   1.722   3.645  3.0499  1.2125 -0.3018
 6476SOL    HW231062   0.494   1.646   3.595 -0.1045  0.1662  3.3180
 6477SOL     OW31063   1.457   2.418   6.808  0.1296 -0.1996  0.0864
 6477SOL    HW131064   1.464   2.433   6.714  1.7833 -1.8116 -0.0395
 6477SOL    HW231065   1.548   2.394   6.826  0.2388  1.3811  1.7468
 6478SOL     OW31066   1.189   4.424   3.169 -0.3140 -0.7775  0.2216
 6478SOL    HW131067   1.260   4.392   3.225 -0.3638  0.1489  0.7923
 6478SOL    HW231068   1.237   4.498   3.131 -0.4139 -0.8222  0.0034
 6479SOL     OW31069   3.319   1.373   2.453 -0.1263  0.8249  0.2851
 6479SOL    HW131070   3.410   1.349   2.471  0.2549  2.7811  1.0109
 6479SOL    HW231071   3.281   1.313   2.517 -2.5606  2.2214  0.1646
 6480SOL     OW31072   2.841   4.646   0.150 -0.0671  0.3081 -0.4811
 6480SOL    HW131073   2.914   4.656   0.089 -0.5163  1.1107 -0.8902
 6480SOL    HW231074   2.822   4.553   0.156  0.7997  0.2748  1.8614
 6481SOL     OW31075   1.565   2.510   5.087 -0.0820  0.2862 -0.2329
 6481SOL    HW131076   1.475   2.481   5.074  0.1554  0.0998 -1.4456
 6481SOL    HW231077   1.593   2.460   5.163  2.4609 -0.2961 -1.5652
 6482SOL     OW31078   0.979   0.380   5.807  0.0985 -0.0539 -0.0911
 6482SOL    HW131079   0.931   0.365   5.888  2.2819 -2.1976  0.8002
 6482SOL    HW231080   1.004   0.289   5.792  0.5588 -0.1297  1.1915
 6483SOL     OW31081   1.105   3.959   8.393  0.2777 -0.3182  0.2574
 6483SOL    HW131082   1.101   3.933   8.485  1.7168 -0.0868  0.3726
 6483SOL    HW231083   1.166   3.892   8.365  0.3032  0.2823 -1.1101
 6484SOL     OW31084   1.122   1.242  16.954  0.0364 -0.4310 -0.4109
 6484SOL    HW131085   1.088   1.160  16.919 -0.6356 -0.6019  0.6621
 6484SOL    HW231086   1.050   1.303  16.938  0.2799  0.6786  2.6235
 6485SOL     OW31087   4.731   2.377   2.894  0.0454 -0.0124 -0.5651
 6485SOL    HW131088   4.678   2.406   2.968 -1.0396  0.9055 -1.7040
 6485SOL    HW231089   4.701   2.443   2.831  1.6279  3.0244  1.8755
 6486SOL     OW31090   2.802   2.320  13.780  0.2710 -0.3908  0.1384
 6486SOL    HW131091   2.857   2.399  13.772  1.2447 -0.7845  3.0489
 6486SOL    HW231092   2.720   2.339  13.734  0.1645 -1.1791  0.0122
 6487SOL     OW31093   0.981   0.067   1.379  0.1791  0.2985 -0.0835
 6487SOL    HW131094   1.014   0.153   1.350  2.3065 -0.6093 -0.3714
 6487SOL    HW231095   1.047   0.009   1.343 -0.1558 -0.7301  0.9764
 6488SOL     OW31096   2.465   0.321   1.495  0.3136  0.6392  0.0857
 6488SOL    HW131097   2.432   0.383   1.560 -0.7759 -1.1932  1.2848
 6488SOL    HW231098   2.410   0.325   1.417 -0.4437 -2.2400  0.4483
 6489SOL     OW31099   0.190   4.589   7.555  0.1185 -0.3977  0.4279
 6489SOL    HW131100   0.180   4.618   7.646 -0.9178  1.4111 -0.2584
 6489SOL    HW231101   0.140   4.508   7.554 -0.4646 -0.0517  1.1134
 6490SOL     OW31102   4.528   2.194   7.273 -0.2841  0.2413 -0.2217
 6490SOL    HW131103   4.451   2.149   7.238  0.5000 -2.4436  1.5814
 6490SOL    HW231104   4.575   2.222   7.194 -1.7026 -0.1929 -1.2191
 6491SOL     OW31105   2.430   4.470   5.247 -0.5559  0.0331 -0.7389
 6491SOL    HW131106   2.374   4.544   5.227 -1.4373 -0.7347 -1.1376
 6491SOL    HW231107   2.379   4.398   5.210 -1.6560 -0.3280  1.4888
 6492SOL     OW31108   2.986   0.130  12.433  0.5988  0.6312  0.1367
 6492SOL    HW131109   2.992   0.122  12.528 -1.6200 -1.1648  0.1130
 6492SOL    HW231110   2.901   0.091  12.414  0.9322 -0.8413  1.6223
 6493SOL     OW31111   3.372   0.600   0.908  0.3940  0.6606 -0.1188
 6493SOL    HW131112   3.397   0.605   1.000  0.0487  1.2128 -0.0515
 6493SOL    HW231113   3.282   0.568   0.917  0.1579  0.8031 -1.9452
 6494SOL     OW31114   4.637   1.442   5.699  0.3084 -0.0988  0.4353
 6494SOL    HW131115   4.636   1.515   5.760 -0.1793 -1.4913  2.0988
 6494SOL    HW231116   4.542   1.429   5.700  0.3033 -0.2541 -2.4223
 6495SOL     OW31117   3.759   1.909  14.145 -0.0943 -0.4032 -0.0901
 6495SOL    HW131118   3.684   1.907  14.086  0.9625  0.3695 -1.4601
 6495SOL    HW231119   3.825   1.857  14.100  0.0623  0.8496 -1.3097
 6496SOL     OW31120   1.361   4.455   7.330 -0.2412  0.4535 -0.1345
 6496SOL    HW131121   1.411   4.399   7.390  0.7324  0.5649 -0.8360
 6496SOL    HW231122   1.279   4.407   7.345  1.7820 -2.7987  0.7693
 6497SOL     OW31123   3.408   1.876  12.010 -0.7456 -0.0387 -0.3306
 6497SOL    HW131124   3.333   1.852  11.956 -1.2786  0.6185  0.1172
 6497SOL    HW231125   3.388   1.969  12.019  1.9308  0.5093 -0.1038
 6498SOL     OW31126   0.919   3.147   1.844  0.2752  0.0674 -0.2476
 6498SOL    HW131127   0.862   3.223   1.834  0.9642  0.9501  2.2541
 6498SOL    HW231128   0.884   3.109   1.925 -0.7938 -0.0153 -0.7556
 6499SOL     OW31129   3.864   0.935   6.435 -0.3304 -0.2669 -0.2240
 6499SOL    HW131130   3.905   0.872   6.494 -2.5744 -1.3153  0.2354
 6499SOL    HW231131   3.946   0.983   6.421 -0.4386  0.2844  0.9981
 6500SOL     OW31132   3.961   0.887   7.122  0.0370  0.1522 -0.1496
 6500SOL    HW131133   3.921   0.973   7.115  1.5593  1.1092  3.2175
 6500SOL    HW231134   4.022   0.900   7.049  1.5428 -1.5012  0.7889
 6501SOL     OW31135   3.955   1.720   9.330  0.2174  0.2109 -0.1826
 6501SOL    HW131136   4.018   1.702   9.400 -0.2267 -1.0214 -0.0927
 6501SOL    HW231137   3.974   1.811   9.309  0.5248 -0.3051 -2.0748
 6502SOL     OW31138   0.629   1.114   3.616  0.0335  0.0027  0.1083
 6502SOL    HW131139   0.600   1.096   3.526  1.0920 -1.4761  0.0543
 6502SOL    HW231140   0.621   1.209   3.624 -0.8819 -0.2668  2.2541
 6503SOL     OW31141   2.596   0.419   4.397  0.1285  0.2988  0.3445
 6503SOL    HW131142   2.610   0.441   4.489 -1.8770  1.8819  0.2737
 6503SOL    HW231143   2.534   0.346   4.405  1.8216 -1.6199 -4.1337
 6504SOL     OW31144   3.851   0.293   3.148 -0.5366  0.7450  0.1668
 6504SOL    HW131145   3.875   0.297   3.055 -2.8325 -1.9624 -0.5821
 6504SOL    HW231146   3.837   0.384   3.171 -0.1043  0.6952  0.6141
 6505SOL     OW31147   3.316   4.400   2.970 -0.5908 -0.3953 -0.2248
 6505SOL    HW131148   3.286   4.408   3.061 -2.0243  1.1365 -0.8458
 6505SOL    HW231149   3.405   4.432   2.982 -1.0715  0.3066  1.5123
 6506SOL     OW31150   3.558   4.062   5.191  0.2667 -0.3763 -0.3269
 6506SOL    HW131151   3.543   3.967   5.189  0.3991 -0.3812 -1.2769
 6506SOL    HW231152   3.560   4.088   5.283 -0.4119 -1.6594  0.0653
 6507SOL     OW31153   0.161   4.460  12.054  0.6331 -0.0052 -0.0071
 6507SOL    HW131154   0.115   4.388  12.098  2.1983  0.1545  1.8600
 6507SOL    HW231155   0.122   4.536  12.098  0.5725 -0.4554  0.7239
 6508SOL     OW31156   4.683   3.385   1.067 -0.5313  0.5940  0.5780
 6508SOL    HW131157   4.596   3.416   1.094 -1.1248  0.1277 -0.7801
 6508SOL    HW231158   4.703   3.460   1.011 -0.8634 -0.3823 -0.8423
 6509SOL     OW31159   2.126   4.431   3.387  0.2218  0.7014  0.4627
 6509SOL    HW131160   2.136   4.339   3.413  0.5660  1.1921  1.9959
 6509SOL    HW231161   2.094   4.473   3.467 -3.1792 -2.2446  0.6677
 6510SOL     OW31162   1.172   0.157  16.849 -0.6807 -0.1318  0.3271
 6510SOL    HW131163   1.199   0.153  16.757 -0.3849  1.6581  0.3398
 6510SOL    HW231164   1.179   0.249  16.872 -1.8961 -0.7015  2.9867
 6511SOL     OW31165   4.489   1.053   8.929 -0.2664  0.0601 -0.1750
 6511SOL    HW131166   4.451   1.052   8.841 -0.5431 -1.0590 -0.0419
 6511SOL    HW231167   4.432   1.118   8.971 -0.0615  1.6357 -2.3463
 6512SOL     OW31168   0.740   3.594   5.270 -0.1483 -0.3933  0.0246
 6512SOL    HW131169   0.722   3.581   5.364 -0.4267 -2.7602 -0.3617
 6512SOL    HW231170   0.673   3.659   5.250  0.9253  0.6111 -0.2636
 6513SOL     OW31171   1.458   1.419  17.416  0.3868  0.3901  0.0589
 6513SOL    HW131172   1.377   1.368  17.425  1.1633 -0.8570 -0.1197
 6513SOL    HW231173   1.524   1.352  17.430  2.0383  1.9264 -0.3563
 6514SOL     OW31174   4.159   2.259   8.683 -0.8576 -0.3117  0.0067
 6514SOL    HW131175   4.214   2.330   8.649  0.3402 -0.5404  1.4420
 6514SOL    HW231176   4.097   2.297   8.745  0.5955 -0.1293  1.3645
 6515SOL     OW31177   4.196   2.889  16.091 -0.0666  0.1276 -0.1851
 6515SOL    HW131178   4.135   2.822  16.122  0.6885 -1.2314 -1.6575
 6515SOL    HW231179   4.140   2.942  16.034  0.3312  0.4758 -0.2533
 6516SOL     OW31180   3.352   0.439  14.538  0.4334 -0.0429  0.3408
 6516SOL    HW131181   3.276   0.451  14.596  0.3236 -0.1258  0.2147
 6516SOL    HW231182   3.424   0.427  14.601  0.7626  2.1548  0.3982
 6517SOL     OW31183   1.816   2.680   6.741  0.5327  0.5845  0.3485
 6517SOL    HW131184   1.810   2.628   6.822  2.1357 -1.0746 -0.5748
 6517SOL    HW231185   1.903   2.655   6.708 -0.4002  0.6706 -2.1575
 6518SOL     OW31186   1.842   1.963  16.974 -0.1515 -0.2427 -0.0607
 6518SOL    HW131187   1.855   2.029  16.905 -1.1998 -0.1180 -0.1303
 6518SOL    HW231188   1.933   1.939  16.992 -0.1715  1.4807  2.3723
 6519SOL     OW31189   2.958   3.795   2.911 -0.1924  0.5760 -0.2880
 6519SOL    HW131190   2.893   3.857   2.880 -0.5750  0.1275 -0.3776
 6519SOL    HW231191   3.008   3.783   2.830 -1.3317 -1.3025 -0.7192
 6520SOL     OW31192   0.215   0.488  10.408  0.9264 -0.2937  0.0101
 6520SOL    HW131193   0.125   0.464  10.388  1.4256 -0.4811 -1.9423
 6520SOL    HW231194   0.206   0.536  10.491  0.1663 -3.0366  1.4974
 6521SOL     OW31195   2.841   1.644   6.283 -0.0191  0.8009  0.0545
 6521SOL    HW131196   2.766   1.678   6.331  0.1832  1.6370 -0.2167
 6521SOL    HW231197   2.912   1.699   6.316  0.0723 -1.1710  3.1663
 6522SOL     OW31198   3.445   3.708   3.211  0.5096 -0.2403  0.8116
 6522SOL    HW131199   3.487   3.736   3.293  0.3147 -0.2490  0.9138
 6522SOL    HW231200   3.361   3.749   3.227  0.3589 -0.3839  0.3662
 6523SOL     OW31201   1.141   1.492  16.659  0.5689  0.2509  0.0922
 6523SOL    HW131202   1.142   1.412  16.606  1.6014 -0.8314  1.7314
 6523SOL    HW231203   1.232   1.489  16.689  0.3151 -0.6679  0.8003
 6524SOL     OW31204   4.709   0.952   0.658 -0.4007  0.8961  0.4064
 6524SOL    HW131205   0.008   1.025   0.709  1.0672 -0.7133  1.7502
 6524SOL    HW231206   4.620   0.986   0.649  0.5340  1.8284 -5.3230
 6525SOL     OW31207   2.074   1.477   3.117  0.7115  0.2110 -0.6004
 6525SOL    HW131208   2.038   1.471   3.205 -0.8506 -0.3049 -1.2638
 6525SOL    HW231209   1.997   1.463   3.062 -0.5438  0.0184  1.2129
 6526SOL     OW31210   1.450   4.092   5.427 -0.0807  0.1894 -0.1777
 6526SOL    HW131211   1.398   4.011   5.428 -1.1921  0.9230  0.4710
 6526SOL    HW231212   1.375   4.151   5.424 -0.8209 -0.7429 -0.1952
 6527SOL     OW31213   0.749   0.726   5.967 -0.2895 -0.2202  0.3523
 6527SOL    HW131214   0.826   0.782   5.975 -1.0859  1.1365 -1.6350
 6527SOL    HW231215   0.720   0.728   6.059 -1.4585  1.7542 -0.0650
 6528SOL     OW31216   3.792   1.854   5.314  0.4575  0.5934 -0.3247
 6528SOL    HW131217   3.849   1.794   5.266  1.5607  0.2019  1.4825
 6528SOL    HW231218   3.723   1.796   5.346  1.7867 -0.2632  0.9779
 6529SOL     OW31219   0.674   2.388  11.811  0.6921  0.1788  0.1830
 6529SOL    HW131220   0.724   2.328  11.754  0.3886 -0.3588  0.4833
 6529SOL    HW231221   0.636   2.442  11.742  1.8483  0.9411  0.1350
 6530SOL     OW31222   3.051   0.250   6.808 -0.2258 -0.0507  0.0603
 6530SOL    HW131223   3.046   0.155   6.794 -0.1905 -0.0945  0.3505
 6530SOL    HW231224   2.963   0.260   6.844 -0.4510 -0.2228 -0.4336
 6531SOL     OW31225   0.347   0.499   2.390 -0.0827 -0.4121 -0.1700
 6531SOL    HW131226   0.393   0.446   2.325 -2.1546 -1.9719 -0.3623
 6531SOL    HW231227   0.407   0.513   2.463  0.5039 -3.7501  0.0127
 6532SOL     OW31228   0.575   3.772  17.273 -0.9633  0.0473 -0.3779
 6532SOL    HW131229   0.562   3.842  17.210  1.9243  0.4633 -0.5211
 6532SOL    HW231230   0.525   3.812  17.345 -0.3008  1.1616 -0.5437
 6533SOL     OW31231   2.945   3.617   7.637 -0.5584 -0.1184  0.0481
 6533SOL    HW131232   2.944   3.585   7.727  1.9439  1.2648  0.5679
 6533SOL    HW231233   3.008   3.560   7.594  1.6185  1.7252  0.8182
 6534SOL     OW31234   3.036   3.149  13.068  0.2324 -0.4870  0.4260
 6534SOL    HW131235   2.971   3.193  13.124  0.0792  1.4533 -1.2864
 6534SOL    HW231236   2.980   3.164  12.992 -0.9007 -1.2848  1.0933
 6535SOL     OW31237   1.494   4.394  16.464  0.7827 -0.1715  0.1475
 6535SOL    HW131238   1.410   4.436  16.480 -0.1589 -1.2789 -1.9049
 6535SOL    HW231239   1.481   4.307  16.501  4.8007 -0.3509  1.1078
 6536SOL     OW31240   0.855   1.164  15.491  0.2905 -0.1277  0.5561
 6536SOL    HW131241   0.907   1.162  15.411 -0.6601  1.2360 -0.0887
 6536SOL    HW231242   0.856   1.072  15.519 -0.8391 -0.2559  0.1753
 6537SOL     OW31243   4.024   0.838  12.229 -0.0386  0.2004 -0.0632
 6537SOL    HW131244   4.105   0.795  12.255 -1.2159 -1.5057  0.7623
 6537SOL    HW231245   4.012   0.787  12.149 -1.7405 -0.3394  0.5320
 6538SOL     OW31246   1.519   1.646   8.339  0.4553  0.2750  0.3906
 6538SOL    HW131247   1.523   1.553   8.320  0.0242  0.2746  0.3054
 6538SOL    HW231248   1.546   1.686   8.256 -2.5060  2.6902  0.5773
 6539SOL     OW31249   4.686   4.199  15.319  0.2433  0.1253  0.1354
 6539SOL    HW131250   4.709   4.107  15.323  2.1478  0.6297  0.8699
 6539SOL    HW231251   4.620   4.189  15.250  0.0180  0.4258  0.3029
 6540SOL     OW31252   1.822   0.267   4.210  0.3356  0.0765 -1.0046
 6540SOL    HW131253   1.853   0.185   4.247  2.5589  1.0723 -0.7043
 6540SOL    HW231254   1.873   0.271   4.129  0.7948  0.2299 -0.7058
 6541SOL     OW31255   1.243   0.763   2.313  0.5724  0.2033  0.0803
 6541SOL    HW131256   1.256   0.831   2.378 -1.6406  0.8807 -0.1891
 6541SOL    HW231257   1.216   0.809   2.234  1.9177  1.1141  0.1640
 6542SOL     OW31258   4.376   2.675   6.409 -0.7462  0.1274 -0.0260
 6542SOL    HW131259   4.459   2.722   6.419 -1.3689  1.4693 -1.2420
 6542SOL    HW231260   4.367   2.653   6.316  0.4044 -0.1933 -0.0672
 6543SOL     OW31261   1.416   0.213   0.094  0.4377 -0.6553  0.0200
 6543SOL    HW131262   1.483   0.236   0.029 -0.3959  0.7098 -0.3667
 6543SOL    HW231263   1.474   0.154   0.141  0.7244  0.8694  1.5591
 6544SOL     OW31264   2.784   0.747  11.847  0.2199  0.0367  0.6186
 6544SOL    HW131265   2.791   0.823  11.789  1.3474  1.6360  2.9068
 6544SOL    HW231266   2.716   0.691  11.809  0.5634  1.0290 -1.5066
 6545SOL     OW31267   2.888   1.162  14.923 -0.1080 -0.2737 -0.2933
 6545SOL    HW131268   2.799   1.197  14.920  0.3401  1.0295  1.6062
 6545SOL    HW231269   2.936   1.228  14.973  0.4048 -0.6702 -0.2614
 6546SOL     OW31270   2.868   3.461   5.637  0.3151  0.8263 -0.5264
 6546SOL    HW131271   2.811   3.389   5.666  1.0657 -0.1231 -1.3755
 6546SOL    HW231272   2.900   3.484   5.724 -0.2176 -1.2346  0.2126
 6547SOL     OW31273   0.319   0.846   7.829  0.2601  0.0209 -0.2028
 6547SOL    HW131274   0.337   0.753   7.842 -2.3036 -0.3330  1.0151
 6547SOL    HW231275   0.239   0.834   7.778 -0.9567  0.7481  1.5296
 6548SOL     OW31276   4.489   3.742   4.256 -0.3555 -0.0818 -0.1195
 6548SOL    HW131277   4.525   3.677   4.195  0.8392  1.3561 -0.9709
 6548SOL    HW231278   4.485   3.820   4.200 -0.7602 -1.9854 -2.7476
 6549SOL     OW31279   3.950   4.221   5.282 -0.0769  0.0419 -0.3491
 6549SOL    HW131280   3.995   4.250   5.361  0.0364  0.6055 -0.6189
 6549SOL    HW231281   3.880   4.174   5.326 -0.8294  0.8196 -0.7188
 6550SOL     OW31282   2.451   4.560   0.606  0.4751  0.4380 -0.4551
 6550SOL    HW131283   2.529   4.562   0.661 -0.0144  0.1453  0.2459
 6550SOL    HW231284   2.468   4.481   0.555  0.7420  0.4776 -0.4312
 6551SOL     OW31285   4.354   1.084   0.876 -0.7084  0.1713  0.5019
 6551SOL    HW131286   4.291   1.032   0.925 -0.5745  1.2312  1.7925
 6551SOL    HW231287   4.299   1.099   0.799  1.3630 -1.1684 -1.2142
 6552SOL     OW31288   3.655   3.072   7.415 -0.6190  0.9449 -0.0655
 6552SOL    HW131289   3.651   2.978   7.434 -2.4819  1.1955  0.7298
 6552SOL    HW231290   3.687   3.113   7.495 -1.4582  2.0400 -0.2922
 6553SOL     OW31291   3.913   4.425   9.480  0.0693  0.2305 -0.6963
 6553SOL    HW131292   3.974   4.440   9.552 -1.5710 -2.0542  1.1339
 6553SOL    HW231293   3.859   4.356   9.517  0.9399  1.5684  3.0474
 6554SOL     OW31294   4.072   2.331  12.898  0.1649 -0.4214 -0.5939
 6554SOL    HW131295   4.089   2.237  12.903  1.6219 -0.1084  0.3288
 6554SOL    HW231296   4.079   2.357  12.806  2.6691 -1.5538 -0.7266
 6555SOL     OW31297   1.889   1.319  17.080  0.4062  0.0999 -0.3737
 6555SOL    HW131298   1.833   1.242  17.087  0.9575 -0.3477 -0.8685
 6555SOL    HW231299   1.825   1.386  17.101 -0.0536 -0.7389  0.8711
 6556SOL     OW31300   4.185   1.114   8.266  0.4998  0.2203 -0.0634
 6556SOL    HW131301   4.097   1.128   8.230  0.0066 -2.4106  0.0736
 6556SOL    HW231302   4.176   1.037   8.323 -1.1698 -0.9658 -1.9437
 6557SOL     OW31303   2.645   3.628   2.758  0.0184  0.2070  0.1685
 6557SOL    HW131304   2.702   3.697   2.722  3.8092 -2.5728  0.8967
 6557SOL    HW231305   2.695   3.618   2.839 -0.9264  0.6035  0.8080
 6558SOL     OW31306   4.578   2.871   6.396  0.4753  0.1142  0.2700
 6558SOL    HW131307   4.570   2.966   6.393  1.3748  0.3734  5.0035
 6558SOL    HW231308   4.668   2.856   6.367 -0.1475  0.8494 -1.9641
 6559SOL     OW31309   1.356   0.328   9.335  0.0274  0.4999  0.1018
 6559SOL    HW131310   1.271   0.292   9.360  0.5679 -0.7396  0.1500
 6559SOL    HW231311   1.409   0.286   9.402 -0.9765 -0.8351  0.0541
 6560SOL     OW31312   3.801   3.064   7.117  0.0492 -0.2733 -0.3586
 6560SOL    HW131313   3.725   3.115   7.088  0.8561 -0.2426 -2.4077
 6560SOL    HW231314   3.765   2.976   7.112 -3.1312  0.9167  1.3532
 6561SOL     OW31315   1.807   0.164   7.966 -0.7654 -0.6942  0.5400
 6561SOL    HW131316   1.886   0.214   7.988 -1.1754 -0.0794  0.6010
 6561SOL    HW231317   1.769   0.155   8.053 -0.0456 -2.6745  0.6471
 6562SOL     OW31318   4.238   3.105   9.341 -0.0317  0.1481 -0.1585
 6562SOL    HW131319   4.184   3.137   9.269  0.7731 -0.7902 -1.1837
 6562SOL    HW231320   4.199   3.148   9.416 -0.7803 -1.3314  0.3034
 6563SOL     OW31321   4.669   4.422   7.544  0.6013 -0.1882  0.1021
 6563SOL    HW131322   4.674   4.347   7.603 -1.6113 -1.4998 -1.3702
 6563SOL    HW231323   4.594   4.465   7.584  0.0628 -1.5627  0.5450
 6564SOL     OW31324   3.364   1.068  14.073 -0.2913  0.3251  0.3282
 6564SOL    HW131325   3.446   1.117  14.079  0.7877 -1.8752  3.8886
 6564SOL    HW231326   3.345   1.061  13.980 -0.1255 -1.2712  0.4103
 6565SOL     OW31327   0.211   2.073   3.696  0.3446  0.1317 -0.6748
 6565SOL    HW131328   0.247   2.161   3.683 -1.6722  1.0974  0.2581
 6565SOL    HW231329   0.123   2.082   3.660 -0.7536  1.1553  2.2499
 6566SOL     OW31330   3.362   2.555   3.178  0.3401 -0.6266  0.4903
 6566SOL    HW131331   3.297   2.493   3.145  2.1636 -1.2930 -1.8424
 6566SOL    HW231332   3.443   2.518   3.142  0.2987  1.1306 -1.4595
 6567SOL     OW31333   3.985   4.565  12.155 -0.4517 -0.3275 -0.0583
 6567SOL    HW131334   4.020   4.624  12.089  3.5295  0.5160  2.8160
 6567SOL    HW231335   3.931   4.629  12.202  0.1808  0.7083 -0.7299
 6568SOL     OW31336   0.962   1.065   0.390  0.0791 -0.4123  0.3730
 6568SOL    HW131337   1.009   1.139   0.429  0.4584 -0.0251 -0.8338
 6568SOL    HW231338   0.896   1.055   0.458 -0.4798 -1.2133 -0.2907
 6569SOL     OW31339   0.424   1.382   5.034 -0.0546 -0.3011 -0.1272
 6569SOL    HW131340   0.431   1.412   4.943  1.0708  0.0942  0.0885
 6569SOL    HW231341   0.374   1.453   5.074  0.8029  0.3314 -0.1792
 6570SOL     OW31342   0.453   3.864   3.409 -0.0621 -0.4897 -0.4347
 6570SOL    HW131343   0.395   3.869   3.333  0.7741 -0.4663 -1.0698
 6570SOL    HW231344   0.481   3.772   3.411  1.1502 -0.1089  0.3316
 6571SOL     OW31345   3.230   3.353   8.665 -0.2782 -0.4013 -0.6874
 6571SOL    HW131346   3.210   3.396   8.748  2.0996  1.1184 -0.9208
 6571SOL    HW231347   3.324   3.342   8.677 -0.2729 -0.1090 -0.4558
 6572SOL     OW31348   3.583   4.450   2.939 -0.5016  0.1661 -0.2274
 6572SOL    HW131349   3.653   4.516   2.942 -0.4954  0.2417 -1.9236
 6572SOL    HW231350   3.634   4.373   2.911  0.5923  0.4379  0.9981
 6573SOL     OW31351   0.351   1.509   4.795  0.4016 -0.0295  0.0833
 6573SOL    HW131352   0.425   1.569   4.790  0.0236  0.5298  1.2104
 6573SOL    HW231353   0.324   1.510   4.703 -0.3350  0.7600  0.3047
 6574SOL     OW31354   0.473   4.598   1.318  0.0570  0.2473  0.3564
 6574SOL    HW131355   0.467   4.682   1.272 -1.1390 -0.0508 -0.0359
 6574SOL    HW231356   0.522   4.629   1.395  1.0092  0.7366 -0.4420
 6575SOL     OW31357   4.689   2.574   2.381  0.7466 -0.1776 -0.1183
 6575SOL    HW131358   0.040   2.571   2.339  0.6748  0.4096 -0.3108
 6575SOL    HW231359   4.630   2.512   2.338  2.5053 -0.5664 -1.9672
 6576SOL     OW31360   3.505   1.285   3.572 -0.0324 -0.1045 -0.1811
 6576SOL    HW131361   3.492   1.308   3.480  0.0990 -0.6289 -0.3292
 6576SOL    HW231362   3.592   1.246   3.579 -0.6907 -1.4673  0.3077
 6577SOL     OW31363   2.032   4.315   2.589 -0.6961  0.4648 -0.0055
 6577SOL    HW131364   2.100   4.259   2.552 -0.5250  0.5804  0.1347
 6577SOL    HW231365   1.948   4.287   2.552 -0.8706 -0.3717  1.0111
 6578SOL     OW31366   1.032   0.489   8.674 -0.4785  0.2356 -0.2402
 6578SOL    HW131367   1.073   0.493   8.587 -0.3825  1.2190 -0.1532
 6578SOL    HW231368   1.055   0.399   8.696  1.0221  0.5452 -0.5650
 6579SOL     OW31369   2.188   2.839   7.617  0.5824  0.4697 -0.0811
 6579SOL    HW131370   2.114   2.779   7.610  0.3019  0.8207 -0.1387
 6579SOL    HW231371   2.195   2.839   7.713  0.0434 -0.0165 -0.0449
 6580SOL     OW31372   4.274   1.739   3.206  0.2878 -0.5918  0.3292
 6580SOL    HW131373   4.291   1.724   3.113  0.5555  2.1552 -0.0428
 6580SOL    HW231374   4.269   1.834   3.204  1.2833 -0.5760 -1.0321
 6581SOL     OW31375   2.274   2.899  17.170  0.0509 -0.0728 -0.6120
 6581SOL    HW131376   2.332   2.907  17.246 -2.7544 -2.2529  1.7377
 6581SOL    HW231377   2.281   2.978  17.117 -2.1961  0.9616  0.6527
 6582SOL     OW31378   1.678   2.155   4.274 -0.3343  0.1532  0.3220
 6582SOL    HW131379   1.656   2.065   4.298  0.7496 -1.4146 -4.5590
 6582SOL    HW231380   1.774   2.145   4.271 -0.3939 -0.5119  0.5117
 6583SOL     OW31381   0.112   4.235   2.063 -0.1774 -0.0100  0.3606
 6583SOL    HW131382   0.156   4.220   1.979  0.9705  1.4986  0.7015
 6583SOL    HW231383   0.132   4.325   2.086  0.6202  0.2411 -1.3098
 6584SOL     OW31384   1.540   1.425   8.944  0.3425  0.1093  0.4509
 6584SOL    HW131385   1.595   1.419   9.022  1.3780  2.0982 -0.1236
 6584SOL    HW231386   1.483   1.349   8.955  0.9350 -0.5932 -1.4061
 6585SOL     OW31387   1.055   1.367   1.399 -0.3456  0.0401 -0.3471
 6585SOL    HW131388   1.078   1.447   1.445  1.5678 -0.4805 -0.3855
 6585SOL    HW231389   0.964   1.352   1.426  1.0455 -1.2174  3.7265
 6586SOL     OW31390   1.012   0.050   9.536  0.1983 -0.2681  0.1653
 6586SOL    HW131391   1.024   0.127   9.480  0.2755  1.3935  2.4704
 6586SOL    HW231392   1.070   0.065   9.610 -1.7337 -1.8675  1.9988
 6587SOL     OW31393   4.064   1.291  14.057 -0.0840 -0.5061  0.4301
 6587SOL    HW131394   4.075   1.312  13.964 -0.0587 -1.6094  0.1756
 6587SOL    HW231395   4.046   1.381  14.084 -0.7599 -0.1865 -1.1120
 6588SOL     OW31396   3.628   0.313   8.682  0.1324 -0.1227 -0.0153
 6588SOL    HW131397   3.604   0.298   8.774  0.2682  1.6718  0.3147
 6588SOL    HW231398   3.679   0.233   8.671 -0.1085 -0.1313 -0.9955
 6589SOL     OW31399   2.599   1.543   8.700  0.4200  0.0739 -0.1375
 6589SOL    HW131400   2.588   1.510   8.610 -0.9667  1.4504 -0.4629
 6589SOL    HW231401   2.509   1.542   8.734  0.7927  1.0128  0.8531
 6590SOL     OW31402   0.509   1.334   8.868 -0.3815 -1.1665 -0.1368
 6590SOL    HW131403   0.457   1.326   8.788  2.4197 -2.4526 -1.8405
 6590SOL    HW231404   0.438   1.332   8.932 -2.1612 -3.1031 -2.1965
 6591SOL     OW31405   1.538   4.010   9.423  0.3135  0.0789 -0.1832
 6591SOL    HW131406   1.479   4.085   9.410  0.0671  0.2465  2.0029
 6591SOL    HW231407   1.616   4.058   9.451  0.5297 -0.0954 -0.4865
 6592SOL     OW31408   4.348   2.973   7.208  0.3379 -0.7913  0.2269
 6592SOL    HW131409   4.267   2.938   7.246  0.6337  1.8217  3.2445
 6592SOL    HW231410   4.406   2.948   7.280  1.8727  0.9035 -0.4415
 6593SOL     OW31411   2.791   1.964  14.969  0.9878  0.6515  0.2154
 6593SOL    HW131412   2.708   1.919  14.984  0.8866  1.2111  1.3853
 6593SOL    HW231413   2.818   1.996  15.056 -0.0775  4.3842 -0.8326
 6594SOL     OW31414   0.379   3.686   6.871  0.1527 -0.5802  0.0212
 6594SOL    HW131415   0.450   3.723   6.819  0.5868 -0.4112  0.7391
 6594SOL    HW231416   0.306   3.737   6.836  0.3013  0.4002  1.1270
 6595SOL     OW31417   3.980   0.821   5.063  0.3823  0.9917  0.4375
 6595SOL    HW131418   3.910   0.863   5.113  0.0149  1.3802 -0.4039
 6595SOL    HW231419   3.943   0.842   4.978  2.4014 -1.1182 -0.9734
 6596SOL     OW31420   0.590   3.863  16.984 -0.3203 -0.0135 -0.4458
 6596SOL    HW131421   0.561   3.880  16.894 -0.1260  0.7580 -0.3599
 6596SOL    HW231422   0.652   3.935  16.987 -0.1780 -0.0868 -1.5685
 6597SOL     OW31423   0.157   4.353   3.180 -0.0259 -0.0152  0.4183
 6597SOL    HW131424   0.130   4.410   3.252 -0.8630  0.0441  0.0607
 6597SOL    HW231425   0.131   4.267   3.213 -0.4541 -0.0852 -0.1000
 6598SOL     OW31426   4.536   2.906   3.364  0.2881 -0.1296  0.5478
 6598SOL    HW131427   4.487   2.985   3.342 -0.4131 -0.8133 -0.3600
 6598SOL    HW231428   4.625   2.940   3.357 -0.7737  2.6661  0.6407
 6599SOL     OW31429   0.484   1.372  16.150 -0.0317  0.6925 -0.5991
 6599SOL    HW131430   0.452   1.456  16.183  0.0984  0.2282  0.6811
 6599SOL    HW231431   0.513   1.389  16.060  2.9709 -2.4734 -0.2368
 6600SOL     OW31432   2.458   3.751   8.521 -0.3354  0.7422 -0.2914
 6600SOL    HW131433   2.454   3.826   8.579  0.1518 -0.0535  0.7720
 6600SOL    HW231434   2.369   3.723   8.539 -0.7756  0.2991 -3.1769
 6601SOL     OW31435   0.252   4.291   4.819  0.3903 -0.0120 -0.3196
 6601SOL    HW131436   0.318   4.355   4.792  0.2339  0.2246 -0.1492
 6601SOL    HW231437   0.291   4.263   4.902 -1.9136  0.3347  0.8706
 6602SOL     OW31438   2.540   3.780  12.952 -0.1668 -0.4841  0.1284
 6602SOL    HW131439   2.573   3.842  13.017 -0.9358  1.1843 -1.0758
 6602SOL    HW231440   2.539   3.834  12.873 -0.1728  0.7317  0.9710
 6603SOL     OW31441   3.980   0.084  14.578 -0.6586  0.2478 -0.2613
 6603SOL    HW131442   3.998   0.097  14.671 -0.6590  0.9245 -0.3522
 6603SOL    HW231443   4.002   4.726  14.576 -0.6401  0.2502 -0.1621
 6604SOL     OW31444   1.650   3.280  16.785  0.1448  0.5222 -0.1388
 6604SOL    HW131445   1.724   3.262  16.842 -0.3437 -1.3095 -0.0892
 6604SOL    HW231446   1.617   3.361  16.825  0.2113  0.8076 -0.6549
 6605SOL     OW31447   4.704   1.120   9.190 -0.0843 -0.3164  0.4095
 6605SOL    HW131448   0.054   1.093   9.225 -0.1590 -0.0660  0.7900
 6605SOL    HW231449   4.725   1.149   9.102  0.1788 -2.5986 -0.2750
 6606SOL     OW31450   0.932   3.797   5.667 -0.1394  0.1900  0.8792
 6606SOL    HW131451   1.022   3.826   5.655 -0.6429  0.9760 -0.9919
 6606SOL    HW231452   0.946   3.741   5.743  0.1472  0.9451  1.3814
 6607SOL     OW31453   1.268   4.516   1.449  0.1445  0.3644  0.1939
 6607SOL    HW131454   1.245   4.559   1.367 -0.2092 -0.9544 -0.3927
 6607SOL    HW231455   1.347   4.570   1.457  0.5538 -0.4165  1.5332
 6608SOL     OW31456   2.443   1.216   6.282 -0.2878  0.5059  0.4578
 6608SOL    HW131457   2.410   1.305   6.294 -1.3490  0.1081  0.5575
 6608SOL    HW231458   2.497   1.229   6.204 -1.7568 -1.1480 -0.8318
 6609SOL     OW31459   3.956   3.600   5.025 -0.0818  0.4797  0.0958
 6609SOL    HW131460   3.998   3.600   4.939 -0.0243 -1.3762  0.1443
 6609SOL    HW231461   4.004   3.679   5.051  0.3148 -0.7287  2.9280
 6610SOL     OW31462   0.822   3.417   5.956 -0.4117 -0.2326  0.0153
 6610SOL    HW131463   0.727   3.411   5.943 -0.6107  0.8026  0.9522
 6610SOL    HW231464   0.858   3.402   5.868 -0.7590 -0.8837 -0.0187
 6611SOL     OW31465   3.082   4.358  15.448 -0.1978  0.1058 -0.1964
 6611SOL    HW131466   3.040   4.286  15.495 -0.9866 -0.9170 -2.4475
 6611SOL    HW231467   3.008   4.415  15.428 -1.4002 -0.4504  2.6270
 6612SOL     OW31468   2.049   1.498   6.125  0.2584  0.3051 -0.2308
 6612SOL    HW131469   2.041   1.562   6.195  1.5282 -0.5006  0.6567
 6612SOL    HW231470   1.994   1.544   6.062  0.4943 -1.0967 -1.4822
 6613SOL     OW31471   2.641   3.000   7.663  0.3191 -0.7783  0.6629
 6613SOL    HW131472   2.703   3.015   7.593 -3.7059 -1.8041 -3.1332
 6613SOL    HW231473   2.574   3.065   7.643 -1.0025 -1.6115  2.3294
 6614SOL     OW31474   0.480   1.445  13.032 -0.2866  0.2580  0.3369
 6614SOL    HW131475   0.399   1.476  13.073  0.0475 -1.2078  2.1554
 6614SOL    HW231476   0.524   1.526  13.009  1.1747 -0.3584  0.9647
 6615SOL     OW31477   1.938   3.425   2.007 -0.1142 -0.7148 -0.1585
 6615SOL    HW131478   1.857   3.383   1.978 -0.5657 -0.4812  0.7730
 6615SOL    HW231479   1.910   3.514   2.027 -1.9323 -1.0344 -1.3386
 6616SOL     OW31480   4.224   3.235  16.694  0.2574 -0.2392 -0.5803
 6616SOL    HW131481   4.276   3.173  16.644 -0.0485 -0.3906 -0.7104
 6616SOL    HW231482   4.286   3.250  16.765 -1.0386  2.3263  0.0359
 6617SOL     OW31483   1.693   3.359   3.672  0.0037  0.1076  0.2273
 6617SOL    HW131484   1.672   3.286   3.615  1.9937  0.2540 -0.7154
 6617SOL    HW231485   1.774   3.386   3.629 -0.0291 -0.7141 -0.3459
 6618SOL     OW31486   0.454   0.609   2.639 -0.0163 -0.0113 -0.2230
 6618SOL    HW131487   0.485   0.699   2.628 -0.2671 -0.0163 -0.9779
 6618SOL    HW231488   0.382   0.619   2.701  0.7638 -1.3683  0.9323
 6619SOL     OW31489   2.635   0.263   2.857 -0.2315 -0.3353  0.1235
 6619SOL    HW131490   2.595   0.250   2.943 -3.4485  3.8232 -0.7381
 6619SOL    HW231491   2.577   0.208   2.804 -1.2030  1.6768 -0.9258
 6620SOL     OW31492   3.944   3.760   3.708  0.3801 -0.1021  0.1048
 6620SOL    HW131493   3.917   3.770   3.799  0.8443  2.0500  0.0011
 6620SOL    HW231494   3.925   3.842   3.663 -3.1769 -0.2323  1.3798
 6621SOL     OW31495   4.164   3.083   7.958  0.0411 -0.4958  0.3821
 6621SOL    HW131496   4.112   3.004   7.944 -1.4875  0.1170  2.6194
 6621SOL    HW231497   4.255   3.073   7.930 -0.7974 -1.7725 -1.8787
 6622SOL     OW31498   2.124   3.919  10.345  0.2116  0.1514 -0.0060
 6622SOL    HW131499   2.186   3.928  10.417  0.3105 -1.5190  0.1213
 6622SOL    HW231500   2.120   3.823  10.345  0.1417  0.1420  2.7315
 6623SOL     OW31501   3.397   0.281  12.944  0.5048 -0.1050 -0.3120
 6623SOL    HW131502   3.431   0.236  12.867 -0.2451 -0.4190 -0.4665
 6623SOL    HW231503   3.455   0.240  13.008 -1.0408 -1.5157  0.2067
 6624SOL     OW31504   2.697   2.096  14.737  0.2867 -0.6024 -0.2448
 6624SOL    HW131505   2.633   2.037  14.696  1.6583 -0.1793 -3.0296
 6624SOL    HW231506   2.737   2.046  14.808 -0.8160 -1.7596 -0.4460
 6625SOL     OW31507   2.357   1.289   4.983  0.0796  0.2801 -0.4507
 6625SOL    HW131508   2.403   1.295   5.066  1.6572 -2.5751 -1.1091
 6625SOL    HW231509   2.290   1.224   5.005 -1.6112  1.9702 -0.5477
 6626SOL     OW31510   3.845   4.487   4.244  0.5629 -0.3214  0.5546
 6626SOL    HW131511   3.908   4.439   4.298 -0.0290 -0.4390  1.1352
 6626SOL    HW231512   3.889   4.518   4.165 -1.2307  2.0444  0.4675
 6627SOL     OW31513   1.142   2.980  13.746 -0.2560  0.1677 -0.3728
 6627SOL    HW131514   1.107   2.964  13.834  0.3575  0.4839 -0.0653
 6627SOL    HW231515   1.077   3.044  13.717 -2.1699 -1.6517 -0.0991
 6628SOL     OW31516   0.505   4.365   5.292 -0.4777 -0.1050 -0.5383
 6628SOL    HW131517   0.515   4.356   5.387 -0.1612  2.2547 -0.3575
 6628SOL    HW231518   0.591   4.352   5.251  0.2293  0.2300  0.8251
 6629SOL     OW31519   1.186   2.111   7.408  0.2293  0.2419  0.5967
 6629SOL    HW131520   1.246   2.043   7.377 -1.2716 -1.3142  1.0838
 6629SOL    HW231521   1.151   2.063   7.483  1.2081 -0.0918  0.8326
 6630SOL     OW31522   3.655   0.342   8.369  0.0066  0.6396  0.7709
 6630SOL    HW131523   3.651   0.422   8.316 -1.6799 -0.2673 -0.4529
 6630SOL    HW231524   3.659   0.372   8.460 -2.9941  2.0472  0.4696
 6631SOL     OW31525   0.034   2.153   1.975  0.0713 -0.6966 -0.2245
 6631SOL    HW131526   4.676   2.162   1.955  0.3074  2.4552  0.0483
 6631SOL    HW231527   0.038   2.067   1.934  0.9567 -1.4241  1.3519
 6632SOL     OW31528   4.706   0.711   2.222  0.0405 -0.0077  0.2312
 6632SOL    HW131529   0.037   0.732   2.156  1.3059  0.1747  1.5598
 6632SOL    HW231530   0.037   0.702   2.291 -2.0428  0.3590  2.2700
 6633SOL     OW31531   0.270   1.049   7.578  0.6589  0.6697  0.2550
 6633SOL    HW131532   0.304   1.024   7.492 -1.2291  1.6226 -0.7548
 6633SOL    HW231533   0.343   1.083   7.630  1.4993 -1.1931  0.2965
 6634SOL     OW31534   1.652   3.747   9.227  0.0919  0.1646  0.3685
 6634SOL    HW131535   1.711   3.784   9.293  1.0857 -0.3405 -0.2302
 6634SOL    HW231536   1.714   3.702   9.168  0.9168  0.4511  1.0110
 6635SOL     OW31537   2.576   2.845   9.521 -0.5016  0.3442  0.0806
 6635SOL    HW131538   2.492   2.807   9.545 -1.1913 -0.2522 -3.1742
 6635SOL    HW231539   2.626   2.777   9.475 -0.9914 -0.1173  0.2365
 6636SOL     OW31540   3.361   4.379   7.042 -0.4222  0.1123  0.2993
 6636SOL    HW131541   3.448   4.416   7.050 -1.1427  2.0674 -0.8989
 6636SOL    HW231542   3.359   4.378   6.946  0.1665  0.3905  0.2874
 6637SOL     OW31543   2.124   3.825   5.905  0.3854 -0.1155 -0.0893
 6637SOL    HW131544   2.102   3.791   5.992 -2.3957  1.0018 -0.3381
 6637SOL    HW231545   2.036   3.838   5.870  0.0494 -4.5357 -0.9131
 6638SOL     OW31546   1.551   0.046   4.340 -0.4133 -0.1860  0.2846
 6638SOL    HW131547   1.467   4.735   4.341 -0.0049 -0.8355  3.6238
 6638SOL    HW231548   1.539   0.116   4.275  1.4976  0.1477  0.3057
 6639SOL     OW31549   2.979   4.159   5.061 -0.3143 -0.4036  0.4880
 6639SOL    HW131550   3.074   4.168   5.050 -0.3928  0.0610  0.2003
 6639SOL    HW231551   2.960   4.110   4.980 -0.7796 -0.0708  0.3974
 6640SOL     OW31552   0.148   1.568   6.236 -0.1361  0.2207  0.0243
 6640SOL    HW131553   0.230   1.523   6.256 -1.5371 -2.8602 -1.0922
 6640SOL    HW231554   0.184   1.655   6.255  0.0866  0.2428 -0.5111
 6641SOL     OW31555   2.285   0.564   7.290  0.4085 -0.2184 -0.1099
 6641SOL    HW131556   2.341   0.639   7.311 -0.6712  0.8700 -1.1317
 6641SOL    HW231557   2.344   0.491   7.312 -0.3347 -0.6484  0.4617
 6642SOL     OW31558   1.284   4.031   2.001 -0.2396 -0.1302 -0.1786
 6642SOL    HW131559   1.229   4.086   2.058  0.2207  0.1334  0.0185
 6642SOL    HW231560   1.308   3.970   2.071 -1.0294  0.8107  0.9357
 6643SOL     OW31561   3.189   1.741  14.201  0.6257 -0.0928 -0.1701
 6643SOL    HW131562   3.094   1.732  14.197  0.4987  1.6515 -1.2298
 6643SOL    HW231563   3.220   1.661  14.158 -1.0977 -0.6873 -0.3167
 6644SOL     OW31564   1.192   0.979   1.240  0.4769  0.1887  0.2462
 6644SOL    HW131565   1.217   1.072   1.235 -0.5634  0.4868  0.5825
 6644SOL    HW231566   1.230   0.951   1.156 -0.7922  2.9150 -1.2533
 6645SOL     OW31567   0.211   2.227   8.090 -0.5490 -0.7126  0.2171
 6645SOL    HW131568   0.306   2.242   8.081 -0.7820  0.8257  0.2773
 6645SOL    HW231569   0.179   2.315   8.111  0.8716 -0.2487  0.4472
 6646SOL     OW31570   2.740   3.939   8.355  0.5074 -0.0752 -0.5543
 6646SOL    HW131571   2.669   3.893   8.311  1.1563 -2.0239  0.4754
 6646SOL    HW231572   2.793   3.973   8.283 -0.5375 -0.4217 -1.4854
 6647SOL     OW31573   1.986   1.509   3.761 -0.0847 -0.0773 -0.1015
 6647SOL    HW131574   1.897   1.483   3.784 -0.1851  0.4279  0.0951
 6647SOL    HW231575   2.036   1.492   3.841 -1.3679 -2.4031  0.1831
 6648SOL     OW31576   2.665   2.916   3.404  0.2200  0.6108  0.4380
 6648SOL    HW131577   2.720   2.950   3.474 -0.0723 -0.0732  1.0047
 6648SOL    HW231578   2.695   2.965   3.328  2.4151  1.5881  1.9525
 6649SOL     OW31579   4.411   3.046   6.849  0.0958  0.1368 -0.3001
 6649SOL    HW131580   4.456   2.974   6.895 -1.0720 -1.1561 -1.1826
 6649SOL    HW231581   4.392   3.000   6.767  0.6533 -0.6778  0.0177
 6650SOL     OW31582   0.736   4.460   8.762 -0.1676 -0.6626 -0.3147
 6650SOL    HW131583   0.790   4.474   8.684  0.1607 -1.2179 -0.1818
 6650SOL    HW231584   0.703   4.549   8.771  0.9398 -0.2186 -0.7239
 6651SOL     OW31585   3.174   1.769   0.199  0.2766 -0.1310 -0.2099
 6651SOL    HW131586   3.122   1.789   0.276  0.4030  1.9798 -0.6861
 6651SOL    HW231587   3.102   1.739   0.144  1.3609 -2.1827 -0.5362
 6652SOL     OW31588   4.523   1.497   4.251 -0.0113  0.0248  0.9963
 6652SOL    HW131589   4.472   1.509   4.172  1.9960 -0.6862 -0.4078
 6652SOL    HW231590   4.465   1.433   4.293 -0.6641 -0.4869 -0.7295
 6653SOL     OW31591   2.245   1.359  14.511 -0.6636 -0.1734 -0.2355
 6653SOL    HW131592   2.150   1.358  14.515 -0.8059 -0.4854 -3.2274
 6653SOL    HW231593   2.251   1.450  14.480  1.2775 -0.7028 -1.4426
 6654SOL     OW31594   4.553   2.588  15.815 -0.2780  0.1196  0.0837
 6654SOL    HW131595   4.566   2.551  15.903 -2.8398  0.2945  0.5524
 6654SOL    HW231596   4.467   2.626  15.835 -0.4663 -1.1446  1.7201
 6655SOL     OW31597   2.063   2.932  10.202  0.5449  0.2060  0.8098
 6655SOL    HW131598   2.079   2.922  10.295  1.3923 -1.7541  0.4675
 6655SOL    HW231599   2.009   3.010  10.190  0.9261  0.7037  2.3952
 6656SOL     OW31600   0.981   2.264  10.714  0.3828  0.1461  0.0278
 6656SOL    HW131601   0.893   2.256  10.751 -0.3077  1.5933 -1.3232
 6656SOL    HW231602   1.044   2.289  10.782  0.3390  0.1096  0.0814
 6657SOL     OW31603   0.764   1.730  16.897  0.5462  0.0849 -0.2302
 6657SOL    HW131604   0.727   1.703  16.981 -0.0416  0.2829 -0.4320
 6657SOL    HW231605   0.842   1.675  16.895  1.9271  1.9580  1.0453
 6658SOL     OW31606   2.933   3.183   4.346 -0.3387  0.1559 -0.0533
 6658SOL    HW131607   2.843   3.178   4.316 -0.3737 -0.2129  0.1216
 6658SOL    HW231608   2.964   3.093   4.332  1.0839  0.5224  0.6691
 6659SOL     OW31609   0.908   0.711   4.002 -0.0075  0.7012 -0.5877
 6659SOL    HW131610   0.831   0.759   4.032 -1.0184 -1.8158  0.8533
 6659SOL    HW231611   0.864   0.641   3.954 -3.2866  1.3540  1.4712
 6660SOL     OW31612   0.717   0.026  17.080  0.1076 -0.0397  0.5598
 6660SOL    HW131613   0.747   0.062  16.996 -2.3400  0.6963  0.0142
 6660SOL    HW231614   0.744   4.669  17.086  2.7913  0.7062  0.0961
 6661SOL     OW31615   1.559   2.986   7.851 -0.2151 -0.3784  0.5940
 6661SOL    HW131616   1.525   3.052   7.791  0.7770 -1.4072 -1.1085
 6661SOL    HW231617   1.527   2.905   7.812 -0.5761 -1.0208  2.2390
 6662SOL     OW31618   0.180   3.173   7.306 -0.1146 -0.1830  0.0205
 6662SOL    HW131619   0.202   3.146   7.217  0.5349  0.6952 -0.0842
 6662SOL    HW231620   0.263   3.202   7.345  0.6669 -2.9325  0.3798
 6663SOL     OW31621   1.884   1.197  12.810  0.0971  0.1407  0.1159
 6663SOL    HW131622   1.931   1.274  12.778  2.1503 -1.4614 -0.7217
 6663SOL    HW231623   1.943   1.123  12.796 -2.0225 -1.7931  1.4345
 6664SOL     OW31624   1.178   1.480   8.837 -0.1485 -0.3149 -0.1063
 6664SOL    HW131625   1.085   1.498   8.825  0.2850  1.0721 -1.3308
 6664SOL    HW231626   1.174   1.385   8.838  0.7435 -0.3488  0.6553
 6665SOL     OW31627   0.216   4.002   7.026  0.0763 -0.6190  0.2840
 6665SOL    HW131628   0.309   4.025   7.028 -0.3857  1.3396 -1.6047
 6665SOL    HW231629   0.200   3.983   6.934  1.0968  2.4775 -0.5367
 6666SOL     OW31630   3.591   4.725   3.729  0.5346  0.2423  0.2037
 6666SOL    HW131631   3.687   4.731   3.729  0.6552 -1.6961 -0.1993
 6666SOL    HW231632   3.568   4.653   3.789  3.2204  0.6035  1.6650
 6667SOL     OW31633   1.666   0.656  16.902  0.3045 -0.1612 -0.0296
 6667SOL    HW131634   1.688   0.588  16.966 -4.0230 -2.2789 -0.8037
 6667SOL    HW231635   1.607   0.607  16.846 -0.4495 -1.2895  1.7400
 6668SOL     OW31636   1.756   4.436  16.362  0.5222  0.7819 -0.0639
 6668SOL    HW131637   1.685   4.449  16.424 -0.6388  0.1073 -1.2715
 6668SOL    HW231638   1.711   4.379  16.300  0.9913  1.1167 -0.7183
 6669SOL     OW31639   4.114   0.997   0.999 -0.1359  0.3684  0.0034
 6669SOL    HW131640   4.075   0.987   1.086  2.1438 -0.3112  0.9464
 6669SOL    HW231641   4.064   1.074   0.970 -0.1045  0.3076 -0.2152
 6670SOL     OW31642   3.273   0.986   8.874 -0.6825  0.1836  0.7749
 6670SOL    HW131643   3.213   0.942   8.935 -1.8190  0.3256 -0.2264
 6670SOL    HW231644   3.259   0.944   8.789  1.6178  0.5674  0.2201
 6671SOL     OW31645   3.036   3.108   6.888  0.0264  0.4268 -0.8329
 6671SOL    HW131646   2.947   3.141   6.878 -0.2141  0.1795  0.4705
 6671SOL    HW231647   3.017   3.026   6.934  1.4826  1.2589  1.2562
 6672SOL     OW31648   3.034   0.923   7.860 -0.4980 -0.1338 -0.4260
 6672SOL    HW131649   3.095   0.937   7.932 -1.1959  2.0026 -0.2504
 6672SOL    HW231650   3.086   0.869   7.800  0.3619 -0.2305  0.4083
 6673SOL     OW31651   2.849   1.482   3.735 -0.0293  0.0519  0.1025
 6673SOL    HW131652   2.771   1.455   3.688 -0.3421 -2.8671  2.3009
 6673SOL    HW231653   2.913   1.411   3.741 -1.2166 -1.1340 -1.3691
 6674SOL     OW31654   0.556   1.418   8.106 -0.0887  0.2473 -0.0727
 6674SOL    HW131655   0.461   1.409   8.117 -0.1450 -0.4885 -1.1400
 6674SOL    HW231656   0.593   1.391   8.190 -1.8533  0.1884  0.6890
 6675SOL     OW31657   2.055   0.987   4.492  0.3358  0.0306  0.3489
 6675SOL    HW131658   2.082   1.075   4.518  0.2325  0.3611 -0.6688
 6675SOL    HW231659   2.048   1.006   4.399 -0.7730 -0.2500  0.3756
 6676SOL     OW31660   1.980   0.004  11.878 -0.3236 -0.2123  0.2243
 6676SOL    HW131661   1.962   4.649  11.905 -0.0632 -0.5214 -0.6481
 6676SOL    HW231662   2.012   4.724  11.789 -0.1415  1.0680  0.0752
 6677SOL     OW31663   3.539   0.128   7.331  0.0674  0.1926  0.0822
 6677SOL    HW131664   3.528   0.124   7.426 -3.3338 -0.2669 -0.3407
 6677SOL    HW231665   3.500   0.048   7.297  0.5714  0.3992 -1.0052
 6678SOL     OW31666   0.651   3.097   6.610 -0.7881 -0.1375 -0.1522
 6678SOL    HW131667   0.739   3.080   6.576 -0.2973  0.8979  0.6237
 6678SOL    HW231668   0.612   3.037   6.546  0.4250 -1.1975  0.1032
 6679SOL     OW31669   4.323   0.658   4.983  0.4403 -0.2222  0.2834
 6679SOL    HW131670   4.253   0.625   5.038  0.5010 -1.0317 -0.1350
 6679SOL    HW231671   4.275   0.708   4.917  0.4092 -0.0232  0.4566
 6680SOL     OW31672   4.374   1.554  11.126  0.3312  0.0831  0.3439
 6680SOL    HW131673   4.380   1.522  11.216 -0.6002 -2.6727 -0.5466
 6680SOL    HW231674   4.465   1.552  11.098 -0.1149  0.3003 -1.1549
 6681SOL     OW31675   4.728   0.403   3.582 -0.4187 -0.0557  0.1906
 6681SOL    HW131676   0.074   0.449   3.559 -1.3206  2.1292  1.4157
 6681SOL    HW231677   4.733   0.410   3.677 -0.1268  3.2169 -0.0672
 6682SOL     OW31678   3.250   3.904  10.208 -0.4089  0.2593  0.1639
 6682SOL    HW131679   3.330   3.876  10.164  0.0028  2.1174 -0.2770
 6682SOL    HW231680   3.190   3.844  10.163 -0.1716  0.4727 -0.4306
 6683SOL     OW31681   1.854   1.777  17.330  0.3999  0.3332 -0.3147
 6683SOL    HW131682   1.800   1.787  17.409  0.4800  0.6203 -0.2961
 6683SOL    HW231683   1.792   1.782  17.258 -0.3112 -2.1481  0.1417
 6684SOL     OW31684   1.668   2.890   2.352  0.1831  0.1720 -0.4035
 6684SOL    HW131685   1.671   2.802   2.314 -0.9446 -0.0095 -0.0578
 6684SOL    HW231686   1.622   2.929   2.278  0.4093 -0.6119 -0.9522
 6685SOL     OW31687   1.906   0.487   5.234 -0.0440 -0.4116 -0.3817
 6685SOL    HW131688   1.831   0.537   5.203 -1.2672 -1.0851  1.4621
 6685SOL    HW231689   1.950   0.488   5.149 -1.7067 -1.5262 -1.2491
 6686SOL     OW31690   0.223   4.656   3.346 -0.0918 -0.1573  0.0262
 6686SOL    HW131691   0.305   4.631   3.302 -1.7198 -1.7587 -2.1227
 6686SOL    HW231692   0.251   0.008   3.374  4.0404 -1.9903  1.6610
 6687SOL     OW31693   3.488   3.095  17.144  0.4014 -0.3820  0.4718
 6687SOL    HW131694   3.567   3.062  17.102 -0.3944  2.2356 -3.1187
 6687SOL    HW231695   3.506   3.059  17.231 -0.6731  1.3239  1.4039
 6688SOL     OW31696   4.574   2.860   9.305  0.3559  0.0297  0.3150
 6688SOL    HW131697   4.663   2.883   9.276  0.7596 -1.8362  0.0447
 6688SOL    HW231698   4.525   2.930   9.263  0.7385 -0.5815 -1.1718
 6689SOL     OW31699   3.480   0.066  14.544  0.0591  0.1557 -0.2863
 6689SOL    HW131700   3.401   0.031  14.504  0.6372  0.2679 -1.5295
 6689SOL    HW231701   3.541   0.060  14.471 -1.4844 -1.9967 -1.3800
 6690SOL     OW31702   1.543   2.490   7.493 -0.6060  0.0774  0.1901
 6690SOL    HW131703   1.546   2.504   7.588 -2.1042  2.1558 -0.0730
 6690SOL    HW231704   1.461   2.535   7.476 -0.9391 -0.6058 -0.0127
 6691SOL     OW31705   0.238   4.302   7.606  0.3393  0.0943  0.5034
 6691SOL    HW131706   0.270   4.244   7.675 -1.2626 -2.2702 -0.7409
 6691SOL    HW231707   0.210   4.237   7.541  2.4640  1.3333 -1.6494
 6692SOL     OW31708   1.531   4.639  17.700  0.0127  0.4612 -1.2892
 6692SOL    HW131709   1.487   4.555  17.710  1.9045 -0.4522 -0.6198
 6692SOL    HW231710   1.530   4.677   0.050 -1.0520 -0.4473 -0.9118
 6693SOL     OW31711   1.058   2.959   3.513 -0.0075  0.4046 -0.1988
 6693SOL    HW131712   0.978   3.004   3.483 -0.3392 -1.1808 -1.7056
 6693SOL    HW231713   1.053   2.980   3.606  2.5466 -2.7824  0.6500
 6694SOL     OW31714   3.961   3.485   4.759 -0.0138  0.0699 -0.0006
 6694SOL    HW131715   4.056   3.488   4.755 -0.0248  0.4707  0.0828
 6694SOL    HW231716   3.921   3.524   4.682  2.7076  2.8566  0.0250
 6695SOL     OW31717   1.840   4.575   3.335  0.1725 -0.5182  0.0847
 6695SOL    HW131718   1.921   4.612   3.299  1.4388 -3.4041 -0.0318
 6695SOL    HW231719   1.857   4.585   3.428  1.3399 -0.0986 -0.1734
 6696SOL     OW31720   3.905   0.102   4.806  0.8627  0.2193  0.3518
 6696SOL    HW131721   3.926   0.059   4.724  2.1748  2.0881 -0.2924
 6696SOL    HW231722   3.860   0.025   4.840  1.8760 -0.0905  0.9870
 6697SOL     OW31723   2.073   0.159   1.722  0.2755 -0.0021  0.1608
 6697SOL    HW131724   1.989   0.180   1.683  0.7378  0.7898 -0.4008
 6697SOL    HW231725   2.113   0.244   1.739  1.9450 -0.2620 -2.5140
 6698SOL     OW31726   2.031   2.264  12.969  0.4963  0.1166  0.4804
 6698SOL    HW131727   2.125   2.282  12.968  0.2327  1.4624  0.7744
 6698SOL    HW231728   1.996   2.349  12.944 -0.1249 -0.8177 -1.8695
 6699SOL     OW31729   2.141   0.094   4.484 -0.4510 -0.1276  0.4532
 6699SOL    HW131730   2.050   0.100   4.511 -0.2448  3.3808  0.3919
 6699SOL    HW231731   2.165   0.186   4.471  1.4644 -0.4982  1.2946
 6700SOL     OW31732   2.559   3.977  16.414 -0.4969 -0.2498 -0.4055
 6700SOL    HW131733   2.497   4.048  16.398  1.0657  0.9476 -1.2229
 6700SOL    HW231734   2.536   3.914  16.346 -1.4420 -0.0617 -0.2584
 6701SOL     OW31735   1.433   0.119   1.631  0.3960 -0.0433 -0.5047
 6701SOL    HW131736   1.526   0.104   1.647  0.5649  2.6588  1.0496
 6701SOL    HW231737   1.422   0.096   1.539 -1.8623 -2.6810  0.4329
 6702SOL     OW31738   4.101   1.085   5.481 -0.2885 -0.0813 -0.1528
 6702SOL    HW131739   4.112   1.016   5.415 -1.1570  0.3703 -0.7665
 6702SOL    HW231740   4.043   1.046   5.546 -0.8288  0.2091 -0.4642
 6703SOL     OW31741   2.686   4.024   9.731 -0.0946  0.0385  0.3837
 6703SOL    HW131742   2.770   4.018   9.775 -0.6136 -0.9173  1.2450
 6703SOL    HW231743   2.661   4.116   9.741  0.9000  0.3815 -0.2994
 6704SOL     OW31744   3.836   2.118   7.181  0.4699 -0.5493  0.2826
 6704SOL    HW131745   3.791   2.150   7.103 -0.4797 -2.6482 -0.0272
 6704SOL    HW231746   3.887   2.193   7.212  0.8374 -1.1153  1.0268
 6705SOL     OW31747   1.176   1.547  15.769 -0.5539  0.9877  0.3608
 6705SOL    HW131748   1.262   1.536  15.809 -0.5121  0.1852  0.0546
 6705SOL    HW231749   1.158   1.638  15.794  0.0647  1.1661  0.1553
 6706SOL     OW31750   3.109   0.961   9.096 -0.0448 -0.0948  0.5205
 6706SOL    HW131751   3.054   0.883   9.092  0.4376 -0.4541  0.9983
 6706SOL    HW231752   3.160   0.958   9.177  0.8432  1.2685  0.0219
 6707SOL     OW31753   0.607   1.388   3.613  0.2691 -0.4479 -0.1139
 6707SOL    HW131754   0.654   1.457   3.567 -1.2228  1.5991  1.4501
 6707SOL    HW231755   0.625   1.410   3.705  1.5284 -0.7045 -0.3028
 6708SOL     OW31756   2.857   2.067  13.813 -0.8271  0.3867 -0.2601
 6708SOL    HW131757   2.830   2.150  13.774  0.1072  0.3941 -0.8964
 6708SOL    HW231758   2.784   2.007  13.800  0.5703 -0.5499 -3.6205
 6709SOL     OW31759   1.811   0.831   5.860 -0.9229 -0.1646  0.0522
 6709SOL    HW131760   1.893   0.880   5.853 -0.8229 -0.4466 -0.6655
 6709SOL    HW231761   1.761   0.899   5.906 -1.0415 -0.1677 -0.0730
 6710SOL     OW31762   0.375   1.818  13.095  0.5112 -0.0145  0.2872
 6710SOL    HW131763   0.379   1.876  13.019  0.1202 -0.7906 -0.3198
 6710SOL    HW231764   0.458   1.843  13.137 -0.7962  1.1106  2.1795
 6711SOL     OW31765   2.943   0.156   7.677  0.0474  0.8201  0.1902
 6711SOL    HW131766   2.938   0.066   7.645 -0.5188  0.2851  1.8176
 6711SOL    HW231767   2.968   0.140   7.768  1.3726 -0.0447 -0.3336
 6712SOL     OW31768   2.891   2.761   3.023 -0.8293  0.1403 -0.1768
 6712SOL    HW131769   2.922   2.799   2.940  1.4291 -3.1935 -0.8625
 6712SOL    HW231770   2.951   2.806   3.082 -0.1592  0.5067 -1.1251
 6713SOL     OW31771   1.941   2.736   5.941 -0.2605 -0.2461  0.0977
 6713SOL    HW131772   1.947   2.820   5.895 -0.9462  0.5590  1.4846
 6713SOL    HW231773   1.851   2.723   5.971 -1.9962  3.0710 -3.5470
 6714SOL     OW31774   3.293   1.281   5.900 -0.7403  0.2541 -0.1205
 6714SOL    HW131775   3.277   1.351   5.836  0.0470  0.7406  0.2043
 6714SOL    HW231776   3.325   1.339   5.969  1.6197 -0.3785 -0.6682
 6715SOL     OW31777   0.918   2.542  10.403 -0.4880  0.1856  0.2075
 6715SOL    HW131778   0.837   2.584  10.431 -1.4279  0.7963 -3.4816
 6715SOL    HW231779   0.985   2.592  10.450 -0.8148  0.3198  0.5315
 6716SOL     OW31780   1.839   2.598   6.999  0.2797 -0.1103 -0.1707
 6716SOL    HW131781   1.755   2.621   7.040 -0.0753 -1.3952 -0.1710
 6716SOL    HW231782   1.886   2.540   7.059 -1.1320 -2.1275 -1.0062
 6717SOL     OW31783   0.770   1.887   2.267 -0.5572 -0.4433 -0.3507
 6717SOL    HW131784   0.774   1.982   2.269  1.2949 -0.5522  1.0532
 6717SOL    HW231785   0.838   1.873   2.333 -0.3226 -0.9942 -0.7086
 6718SOL     OW31786   4.224   1.571   7.906 -0.4397  0.0368  0.2550
 6718SOL    HW131787   4.307   1.617   7.893 -0.6405  0.6549  1.1752
 6718SOL    HW231788   4.186   1.627   7.973 -1.4931 -1.6602  1.0749
 6719SOL     OW31789   4.194   1.003  16.422 -0.4188  0.4622 -0.8799
 6719SOL    HW131790   4.264   1.011  16.486 -0.0963 -0.4991 -1.1148
 6719SOL    HW231791   4.239   0.947  16.359 -1.6116 -1.7454  0.2315
 6720SOL     OW31792   2.963   4.374   4.064  0.7225  0.2649 -0.4135
 6720SOL    HW131793   2.932   4.460   4.092 -2.5948 -1.2439  0.5585
 6720SOL    HW231794   3.051   4.362   4.099  0.1563 -0.6917  0.6773
 6721SOL     OW31795   2.013   1.663   0.368  0.1972 -0.1370  0.3167
 6721SOL    HW131796   2.075   1.736   0.362  0.8830 -0.6210  1.6314
 6721SOL    HW231797   1.936   1.709   0.333 -1.0251 -3.3012 -1.1883
 6722SOL     OW31798   0.372   3.710   8.121  0.2834 -0.0999 -0.0953
 6722SOL    HW131799   0.299   3.695   8.181  1.3638 -0.4572  1.1244
 6722SOL    HW231800   0.372   3.625   8.077  1.2976 -0.5920  0.8389
 6723SOL     OW31801   1.400   4.153  16.512 -0.2605  0.6615  0.4432
 6723SOL    HW131802   1.308   4.127  16.512  0.0302 -0.3339  2.4669
 6723SOL    HW231803   1.425   4.130  16.601 -1.0719  1.3429  0.8448
 6724SOL     OW31804   4.274   3.209   5.276  0.4290  0.2190  0.3636
 6724SOL    HW131805   4.266   3.270   5.350  3.1648 -0.4803  1.2611
 6724SOL    HW231806   4.214   3.137   5.291  0.3434  0.0674 -0.6930
 6725SOL     OW31807   3.548   3.662   5.969  0.1073 -0.4110  0.3184
 6725SOL    HW131808   3.621   3.647   6.030  0.4513 -0.6526 -0.1508
 6725SOL    HW231809   3.524   3.754   5.978 -0.7043 -0.7849  1.9652
 6726SOL     OW31810   0.919   3.339  13.471  0.2508  0.1243  0.4010
 6726SOL    HW131811   0.920   3.404  13.400  1.1662 -0.3562 -0.0196
 6726SOL    HW231812   0.923   3.256  13.423  2.8147  0.1900  0.5264
 6727SOL     OW31813   4.590   0.047   7.145 -0.1741 -0.7354 -0.0308
 6727SOL    HW131814   4.581   0.033   7.240 -0.5538  0.9104  0.1798
 6727SOL    HW231815   4.525   4.718   7.116 -0.8908 -0.9221  1.9838
 6728SOL     OW31816   2.455   2.540   4.009 -0.7946 -0.4691 -0.1617
 6728SOL    HW131817   2.507   2.620   4.021 -0.3114 -0.3898 -2.7143
 6728SOL    HW231818   2.372   2.561   4.051 -0.3580  0.2056  0.3693
 6729SOL     OW31819   0.871   2.257   5.876  0.1743 -0.0806  0.3172
 6729SOL    HW131820   0.803   2.272   5.941 -0.3275  0.0844 -0.2506
 6729SOL    HW231821   0.897   2.168   5.898  1.3301  0.9768  3.3773
 6730SOL     OW31822   2.558   1.786   8.962 -0.3545 -0.2684  0.3411
 6730SOL    HW131823   2.469   1.751   8.969 -0.3417 -0.5774 -1.1485
 6730SOL    HW231824   2.543   1.846   8.889 -2.1389 -1.1903 -0.0453
 6731SOL     OW31825   3.722   3.251   5.044 -0.0677  0.2726 -0.3953
 6731SOL    HW131826   3.809   3.263   5.005  0.1354 -0.8617 -0.2906
 6731SOL    HW231827   3.748   3.188   5.112 -0.6122  0.0895 -0.3542
 6732SOL     OW31828   1.502   0.989   1.788 -0.0253 -0.3127  0.7848
 6732SOL    HW131829   1.460   0.924   1.844 -0.9215  0.2930  0.8138
 6732SOL    HW231830   1.489   0.935   1.710 -0.2101 -1.4695  1.6087
 6733SOL     OW31831   1.307   0.847   6.835 -0.1396  0.1925  0.0233
 6733SOL    HW131832   1.366   0.922   6.827  1.5762 -1.4555 -3.0224
 6733SOL    HW231833   1.279   0.839   6.743  1.2616 -0.6677 -0.3163
 6734SOL     OW31834   1.628   0.220  17.032 -0.1920 -0.2681  0.4798
 6734SOL    HW131835   1.701   0.161  17.048  0.8288  0.4293 -1.5922
 6734SOL    HW231836   1.609   0.198  16.941  1.7678  1.7073 -0.3859
 6735SOL     OW31837   1.656   3.161  12.304 -0.6094 -0.3893  0.7885
 6735SOL    HW131838   1.704   3.221  12.246  0.1835  0.3066  2.1762
 6735SOL    HW231839   1.606   3.223  12.357 -3.5984 -2.2526  0.1749
 6736SOL     OW31840   3.583   1.103  13.047 -0.2181  0.0146 -0.2819
 6736SOL    HW131841   3.577   1.057  12.963 -1.1881 -1.2901  0.5053
 6736SOL    HW231842   3.498   1.148  13.048 -0.5541 -0.5890 -1.9771
 6737SOL     OW31843   1.009   2.643   9.160  0.4963  0.7592  0.0712
 6737SOL    HW131844   1.014   2.562   9.109 -2.5310  1.3242 -1.1055
 6737SOL    HW231845   1.051   2.618   9.242  1.7018 -2.4156 -1.5307
 6738SOL     OW31846   3.052   1.839   3.149 -0.1226  1.0445  0.0456
 6738SOL    HW131847   3.044   1.834   3.244  3.1537  0.8206  0.3031
 6738SOL    HW231848   3.123   1.901   3.134 -0.0790  0.6726 -1.3195
 6739SOL     OW31849   4.504   1.334   6.087  0.6251  0.3350  0.1090
 6739SOL    HW131850   4.492   1.310   5.995 -2.2924  0.2436  0.5207
 6739SOL    HW231851   4.598   1.317   6.092  0.2057 -2.4386 -1.6087
 6740SOL     OW31852   1.283   2.758   7.377  0.2498  0.3464  0.1863
 6740SOL    HW131853   1.340   2.683   7.363 -1.2570 -0.7225 -0.2020
 6740SOL    HW231854   1.225   2.729   7.448  0.4856  0.3241  0.3710
 6741SOL     OW31855   1.295   0.504   4.155 -0.4957  0.2167  0.4571
 6741SOL    HW131856   1.374   0.526   4.106 -0.4651  0.5223  0.6447
 6741SOL    HW231857   1.226   0.472   4.097  0.9253  1.6404 -2.0146
 6742SOL     OW31858   3.697   2.137   0.658  0.0398  0.5214 -0.2305
 6742SOL    HW131859   3.745   2.162   0.736 -0.1889 -2.6764  0.9519
 6742SOL    HW231860   3.611   2.116   0.695  1.5425 -0.8166  2.5193
 6743SOL     OW31861   1.430   4.187   3.102 -0.0473 -0.4959 -0.3612
 6743SOL    HW131862   1.386   4.106   3.129 -0.5632 -0.3567 -0.7763
 6743SOL    HW231863   1.479   4.192   3.184  0.8245 -1.4960 -0.8347
 6744SOL     OW31864   4.105   1.994   5.325 -0.0887 -0.0259 -0.7347
 6744SOL    HW131865   4.025   2.044   5.342  0.7171  1.4066 -1.1569
 6744SOL    HW231866   4.176   2.046   5.362 -1.5592  0.6274  1.1379
 6745SOL     OW31867   1.502   0.815   7.371 -0.7523 -0.1023  0.4035
 6745SOL    HW131868   1.493   0.750   7.302 -0.1187 -1.1099  1.2606
 6745SOL    HW231869   1.500   0.759   7.449  1.2255 -0.3068  0.3236
 6746SOL     OW31870   3.583   0.714  15.191  0.1855 -0.4863  1.0362
 6746SOL    HW131871   3.641   0.789  15.202 -1.1717  0.4016  2.0427
 6746SOL    HW231872   3.555   0.694  15.280  0.5175  2.7121  1.8583
 6747SOL     OW31873   2.917   2.308   2.059 -0.0098 -0.0214  0.3967
 6747SOL    HW131874   2.850   2.350   2.112 -1.3622  0.8625 -2.0128
 6747SOL    HW231875   2.997   2.307   2.111  0.0677 -1.5587  0.2433
 6748SOL     OW31876   1.359   3.107   5.532  0.1048  0.1095 -0.1404
 6748SOL    HW131877   1.356   3.018   5.567  0.2122  0.4810  0.8190
 6748SOL    HW231878   1.285   3.099   5.472  1.3231 -1.6524 -1.3978
 6749SOL     OW31879   3.760   3.963   7.457 -0.6254  0.3883 -0.0806
 6749SOL    HW131880   3.676   4.009   7.449 -0.3627  0.7356 -0.8095
 6749SOL    HW231881   3.741   3.874   7.485  0.2866 -0.2691 -1.5980
 6750SOL     OW31882   1.200   0.954   5.010  0.0235 -0.2325 -0.5536
 6750SOL    HW131883   1.126   1.008   4.983  0.3604  0.5453  0.0800
 6750SOL    HW231884   1.202   0.967   5.105 -1.1820  0.7415 -0.6562
 6751SOL     OW31885   4.198   0.977   4.364 -0.0308 -0.3872  0.0279
 6751SOL    HW131886   4.126   1.018   4.412  1.6271  2.7338 -0.1627
 6751SOL    HW231887   4.156   0.971   4.278 -1.7931 -3.1837  1.0456
 6752SOL     OW31888   4.474   0.793   6.767 -0.3729 -0.1719 -0.9659
 6752SOL    HW131889   4.422   0.731   6.717 -0.4380 -0.2657 -0.7841
 6752SOL    HW231890   4.553   0.740   6.775 -0.3724 -0.0023  0.1576
 6753SOL     OW31891   4.588   3.316  11.108  0.1862  0.0637 -0.1779
 6753SOL    HW131892   4.601   3.410  11.095  0.0669  0.0980 -0.0510
 6753SOL    HW231893   4.544   3.320  11.193 -3.2081 -0.3152 -1.9156
 6754SOL     OW31894   2.931   4.092   6.244 -0.0010  0.4426 -0.4815
 6754SOL    HW131895   3.001   4.064   6.185 -1.5840 -0.8782 -1.7364
 6754SOL    HW231896   2.915   4.014   6.298 -0.7694 -0.4325 -1.9746
 6755SOL     OW31897   2.975   1.584  13.284  0.3977 -0.0045  0.2459
 6755SOL    HW131898   2.994   1.677  13.273 -1.2329  0.4394  1.1272
 6755SOL    HW231899   2.947   1.585  13.376  1.8277 -1.6043  0.7084
 6756SOL     OW31900   1.465   4.402   8.583 -0.4517 -0.7769 -0.2489
 6756SOL    HW131901   1.461   4.374   8.675  1.8703 -1.7123 -0.4403
 6756SOL    HW231902   1.377   4.436   8.563 -0.2713 -0.7275 -0.9488
 6757SOL     OW31903   2.991   2.181   4.642  0.4902  0.6898  0.2709
 6757SOL    HW131904   2.956   2.176   4.732 -0.2367 -1.1704 -0.1189
 6757SOL    HW231905   3.016   2.089   4.638 -0.5194  0.3596  1.1679
 6758SOL     OW31906   0.566   4.477   3.514  0.1056  0.0800  0.1629
 6758SOL    HW131907   0.629   4.474   3.441 -0.5315 -1.5384 -0.3061
 6758SOL    HW231908   0.617   4.457   3.592  0.7051  0.8337 -0.0279
 6759SOL     OW31909   0.420   3.311   4.886  0.0205 -0.5613  0.3110
 6759SOL    HW131910   0.469   3.393   4.897  1.5731 -1.6295  1.4429
 6759SOL    HW231911   0.403   3.296   4.979 -0.1651 -0.0845  0.3538
 6760SOL     OW31912   2.973   2.404  10.676 -0.4455  0.0271 -0.0465
 6760SOL    HW131913   2.887   2.442  10.656 -0.9161 -1.2295 -0.3786
 6760SOL    HW231914   2.969   2.310  10.657  1.3708  0.2289 -1.4328
 6761SOL     OW31915   1.681   0.954  15.354  0.0453  0.3173  0.5258
 6761SOL    HW131916   1.710   0.989  15.439 -1.1546 -0.1346  1.1180
 6761SOL    HW231917   1.589   0.972  15.371  0.3692  0.7355  1.8380
 6762SOL     OW31918   1.745   1.722   5.740 -0.9108 -0.0990 -0.1185
 6762SOL    HW131919   1.650   1.733   5.739 -1.0369 -1.0461  1.8549
 6762SOL    HW231920   1.771   1.796   5.686 -2.6384  1.0365  0.6047
 6763SOL     OW31921   2.083   2.328   7.567 -0.3834 -0.3814  0.2349
 6763SOL    HW131922   2.034   2.410   7.556  1.3462  0.6342  0.1133
 6763SOL    HW231923   2.033   2.276   7.504 -2.1890 -1.4087  2.5147
 6764SOL     OW31924   4.488   1.694   9.479  0.0497  0.1297  0.0636
 6764SOL    HW131925   4.473   1.602   9.456  0.2419 -0.0029  0.4626
 6764SOL    HW231926   4.572   1.715   9.439  0.3958  0.4377  0.9463
 6765SOL     OW31927   4.288   2.139  13.522 -0.7562  0.8382  0.2743
 6765SOL    HW131928   4.235   2.199  13.470  0.5050  0.8706 -0.9801
 6765SOL    HW231929   4.274   2.180  13.607  3.4623  0.5788  1.0840
 6766SOL     OW31930   3.829   3.204   8.662  0.4215 -0.2350  0.4551
 6766SOL    HW131931   3.760   3.257   8.623  0.6894 -0.5177 -0.4069
 6766SOL    HW231932   3.906   3.261   8.652 -0.7730  1.5765  1.6979
 6767SOL     OW31933   0.467   4.637   8.962 -0.4979 -0.4981  0.0365
 6767SOL    HW131934   0.495   4.620   9.051  0.0225  0.2928  0.0247
 6767SOL    HW231935   0.392   4.696   8.971  0.0920 -0.0447  1.9056
 6768SOL     OW31936   3.866   3.141   5.654  0.8077 -0.0668  0.2728
 6768SOL    HW131937   3.882   3.197   5.578 -1.8048  3.8901  2.6008
 6768SOL    HW231938   3.953   3.102   5.658  0.4430 -0.8898  0.1277
 6769SOL     OW31939   2.265   1.282   3.993 -0.2755 -0.2063 -0.2822
 6769SOL    HW131940   2.191   1.342   3.995 -0.6490 -0.7062  1.2466
 6769SOL    HW231941   2.219   1.199   3.989  0.2269 -0.5259  0.5795
 6770SOL     OW31942   3.018   2.025  16.179 -0.4564  1.0764 -0.3046
 6770SOL    HW131943   2.990   1.997  16.266  0.6248  1.8178  0.2833
 6770SOL    HW231944   3.100   1.976  16.171 -1.1464  0.2159 -1.8812
 6771SOL     OW31945   2.385   2.990   8.083 -0.6872  0.2380  0.0667
 6771SOL    HW131946   2.460   3.009   8.027 -0.7075 -1.6939 -0.6325
 6771SOL    HW231947   2.345   3.076   8.087 -3.8283 -1.2764  0.9476
 6772SOL     OW31948   0.307   0.285   4.719 -0.0790 -0.0830 -0.3589
 6772SOL    HW131949   0.331   0.241   4.638 -0.4495 -1.1851  0.1208
 6772SOL    HW231950   0.225   0.331   4.706 -1.2100 -2.4644 -1.6216
 6773SOL     OW31951   2.588   2.226   9.094  0.1176  0.2415 -0.2254
 6773SOL    HW131952   2.518   2.285   9.124  0.3970  0.8822 -0.8394
 6773SOL    HW231953   2.540   2.185   9.022 -0.5789 -0.1360  0.4563
 6774SOL     OW31954   1.431   4.387   1.112 -0.0120  0.2610 -0.0445
 6774SOL    HW131955   1.501   4.451   1.127  0.6259 -0.6101  0.7038
 6774SOL    HW231956   1.412   4.357   1.201 -2.6525  0.4967 -0.5349
 6775SOL     OW31957   3.790   2.446   7.909  0.2086  0.0357  0.2679
 6775SOL    HW131958   3.758   2.426   7.821  0.2002  0.3830  0.1890
 6775SOL    HW231959   3.724   2.414   7.971 -0.7446 -0.4128 -0.9930
 6776SOL     OW31960   1.968   1.450   6.905  0.0481 -0.3401  0.2993
 6776SOL    HW131961   2.000   1.539   6.889 -1.4439  0.3053  0.8846
 6776SOL    HW231962   2.033   1.392   6.865  0.4982 -1.1516  2.1876
 6777SOL     OW31963   0.325   0.990  11.584  0.1416 -0.1026  0.3013
 6777SOL    HW131964   0.337   0.905  11.625  0.3466 -0.8397 -1.2976
 6777SOL    HW231965   0.283   0.964  11.502 -1.1804 -0.2053  0.9996
 6778SOL     OW31966   3.898   3.467   5.285  0.3623  0.0460 -0.2254
 6778SOL    HW131967   3.911   3.492   5.193 -0.2381 -2.5349 -0.9994
 6778SOL    HW231968   3.910   3.550   5.332 -1.4160  0.3337 -0.2761
 6779SOL     OW31969   4.637   1.524  10.810  0.2478  0.1505  0.5075
 6779SOL    HW131970   4.576   1.454  10.788 -1.1642  0.8843  2.1080
 6779SOL    HW231971   4.602   1.559  10.892  0.8116 -1.3712  1.3942
 6780SOL     OW31972   2.340   3.862   4.380 -0.3315 -0.3702  0.0259
 6780SOL    HW131973   2.260   3.915   4.387 -1.4843 -2.0260 -0.7839
 6780SOL    HW231974   2.307   3.803   4.313  0.1809  0.6350 -1.1189
 6781SOL     OW31975   3.107   4.518   2.809  0.3484  0.0865  0.2526
 6781SOL    HW131976   3.185   4.471   2.840  1.5204  0.5861 -1.8843
 6781SOL    HW231977   3.115   4.512   2.714 -2.0782  1.0818 -0.0139
 6782SOL     OW31978   3.620   2.253   3.903 -0.2457  0.0312  0.0827
 6782SOL    HW131979   3.608   2.272   3.810  0.8080 -0.9756 -0.2597
 6782SOL    HW231980   3.715   2.266   3.907 -0.3401  0.0597  2.4612
 6783SOL     OW31981   1.758   0.550   1.526 -0.0702  0.3385  0.3011
 6783SOL    HW131982   1.817   0.477   1.547 -0.3961 -0.3441 -1.1313
 6783SOL    HW231983   1.828   0.612   1.502  0.5027  0.0963  1.3314
 6784SOL     OW31984   3.065   2.415  14.479  0.4451  0.8374  0.6119
 6784SOL    HW131985   3.116   2.334  14.471 -0.0390  0.6153 -0.1917
 6784SOL    HW231986   2.987   2.382  14.525 -0.0618  1.4401  0.1879
 6785SOL     OW31987   4.621   2.702   5.132 -0.0381 -0.3304  0.0553
 6785SOL    HW131988   4.613   2.768   5.063 -0.1883  0.6328  0.9798
 6785SOL    HW231989   4.664   2.638   5.077 -2.4874 -0.8047 -1.3118
 6786SOL     OW31990   3.734   1.025   4.102  0.1757  0.2716  0.0886
 6786SOL    HW131991   3.710   1.105   4.055 -1.2327 -1.4367 -2.1203
 6786SOL    HW231992   3.704   0.951   4.050 -1.5060  1.1764 -0.2163
 6787SOL     OW31993   0.550   2.612   9.240  0.3540  0.0526 -0.0391
 6787SOL    HW131994   0.542   2.521   9.211  0.9483 -0.2691  0.7984
 6787SOL    HW231995   0.529   2.598   9.332  0.5971 -1.6480 -0.2303
 6788SOL     OW31996   4.282   3.604  10.900 -0.0225 -0.4372 -0.7003
 6788SOL    HW131997   4.325   3.519  10.911  0.7255  0.3072  1.9913
 6788SOL    HW231998   4.275   3.613  10.805 -1.8506  1.0401 -0.4363
 6789SOL     OW31999   2.658   3.409  17.461 -0.1833  0.1347 -0.2642
 6789SOL    HW132000   2.664   3.483  17.521 -1.2755  0.2737 -0.3145
 6789SOL    HW232001   2.578   3.443  17.419  0.3208  1.8579  0.1898
 6790SOL     OW32002   3.455   0.717   8.975 -0.0689 -0.0966 -0.6391
 6790SOL    HW132003   3.406   0.640   8.946  0.1334 -1.6195  3.0156
 6790SOL    HW232004   3.383   0.781   8.980  0.2795  0.2191  0.4529
 6791SOL     OW32005   0.113   2.306   9.436 -0.1751  0.5367 -0.0943
 6791SOL    HW132006   0.100   2.211   9.440  0.0984  0.4028 -1.9789
 6791SOL    HW232007   0.143   2.320   9.346  0.2221 -2.0039 -0.3610
 6792SOL     OW32008   3.634   1.504  12.615  0.4552 -0.0026 -0.4258
 6792SOL    HW132009   3.601   1.429  12.565 -1.7288  0.2825  0.5926
 6792SOL    HW232010   3.548   1.547  12.618  1.1701  1.3388  0.5966
 6793SOL     OW32011   0.825   1.961  10.019  0.1262  0.5312  0.3676
 6793SOL    HW132012   0.738   1.922  10.026  0.4654  0.1184  2.2078
 6793SOL    HW232013   0.809   2.043  10.065  0.4664  0.7693  0.0682
 6794SOL     OW32014   3.457   2.068   2.245 -0.4942 -0.0559 -0.3869
 6794SOL    HW132015   3.394   1.996   2.255  0.2147 -0.2822  2.5913
 6794SOL    HW232016   3.523   2.008   2.209  1.5530  1.5033  0.7563
 6795SOL     OW32017   1.437   1.175   9.030  0.0423  0.3060  0.4365
 6795SOL    HW132018   1.367   1.217   9.080  2.0279  2.3203  1.5494
 6795SOL    HW232019   1.410   1.084   9.032  0.1440  0.2831  0.8273
 6796SOL     OW32020   4.134   1.602   7.346 -0.3842 -0.7255 -0.1479
 6796SOL    HW132021   4.202   1.601   7.412 -1.0251  0.8162  0.5168
 6796SOL    HW232022   4.181   1.656   7.282 -0.6243  0.8162  0.9923
 6797SOL     OW32023   1.193   2.932   4.261  0.1869 -0.0413  0.3724
 6797SOL    HW132024   1.206   2.944   4.355  1.2519  1.5740  0.0152
 6797SOL    HW232025   1.167   2.840   4.255 -0.7387  0.0682  2.8280
 6798SOL     OW32026   2.966   4.654   3.031  0.3470  0.6786  0.1056
 6798SOL    HW132027   2.937   4.726   2.975  2.2338  0.8632 -0.6054
 6798SOL    HW232028   3.020   4.607   2.968 -0.2135  0.7067 -0.3983
 6799SOL     OW32029   1.121   1.201   8.829 -0.2292 -0.3307  0.1890
 6799SOL    HW132030   1.134   1.174   8.920 -2.4129 -0.9808  0.3157
 6799SOL    HW232031   1.172   1.137   8.780  1.9130  0.6161  1.1714
 6800SOL     OW32032   2.683   4.213  15.657  0.1028 -0.2553  0.0564
 6800SOL    HW132033   2.702   4.219  15.563  3.1548 -0.1094  0.6668
 6800SOL    HW232034   2.666   4.120  15.666 -0.0853 -0.3017 -0.8323
 6801SOL     OW32035   1.401   1.674   8.829  0.1139  0.5648  0.0650
 6801SOL    HW132036   1.437   1.608   8.888  0.0166 -0.5897 -1.1584
 6801SOL    HW232037   1.320   1.634   8.799 -1.5849  2.1776  2.4887
 6802SOL     OW32038   4.685   3.309   1.335 -0.4676 -0.6629  0.5326
 6802SOL    HW132039   4.718   3.335   1.248 -0.0482  0.6207  1.0681
 6802SOL    HW232040   4.649   3.398   1.343  2.3407  0.6665 -1.2283
 6803SOL     OW32041   2.565   3.507  12.802 -0.0013  0.7109  0.1459
 6803SOL    HW132042   2.508   3.530  12.875  0.0970  0.0192  0.4477
 6803SOL    HW232043   2.637   3.467  12.851  0.6869  1.9895  0.1783
 6804SOL     OW32044   1.822   0.488  17.319  0.2254 -0.1485  0.2714
 6804SOL    HW132045   1.807   0.579  17.343  1.5543 -0.5556  2.6216
 6804SOL    HW232046   1.917   0.498  17.322  0.0613  1.2105  0.6736
 6805SOL     OW32047   0.628   0.712  13.186 -0.0583 -0.6768 -0.2447
 6805SOL    HW132048   0.575   0.650  13.235  1.1954 -0.7662  0.9885
 6805SOL    HW232049   0.677   0.756  13.255 -1.5667  1.4103 -0.4883
 6806SOL     OW32050   2.647   1.959  11.880  0.0102  1.2902 -0.6249
 6806SOL    HW132051   2.719   1.900  11.856  2.3917  3.8289  0.2762
 6806SOL    HW232052   2.577   1.895  11.884  0.9941  0.4037  2.3525
 6807SOL     OW32053   3.445   2.774   4.219  0.5053  0.5700 -0.3648
 6807SOL    HW132054   3.437   2.694   4.271 -0.5905 -0.7167 -2.5012
 6807SOL    HW232055   3.405   2.841   4.275 -1.2097 -0.7232 -0.0232
 6808SOL     OW32056   3.874   3.021   6.152 -0.3993  0.1207  0.3444
 6808SOL    HW132057   3.940   2.972   6.201 -0.7610 -0.1348  0.5749
 6808SOL    HW232058   3.808   3.044   6.218 -1.7662  3.4942 -2.1783
 6809SOL     OW32059   2.240   0.370   6.612 -0.0514 -0.1090  0.2384
 6809SOL    HW132060   2.168   0.308   6.627  1.0059 -1.3100  0.3286
 6809SOL    HW232061   2.196   0.451   6.584 -1.0124 -1.4945 -2.2732
 6810SOL     OW32062   4.311   3.548   8.130 -0.3489 -0.2818 -0.4294
 6810SOL    HW132063   4.301   3.510   8.043  1.6373 -1.3203 -0.2071
 6810SOL    HW232064   4.371   3.618   8.106 -0.0738 -0.8458 -1.3830
 6811SOL     OW32065   2.719   1.502   9.365  0.3974 -0.2322  0.2636
 6811SOL    HW132066   2.730   1.411   9.392 -2.5663 -0.2588  1.4074
 6811SOL    HW232067   2.768   1.545   9.435  0.4547  0.7955 -0.3997
 6812SOL     OW32068   3.423   0.926   9.223  0.0784 -0.6459  0.2259
 6812SOL    HW132069   3.438   0.947   9.315 -0.4547  1.4226 -0.1483
 6812SOL    HW232070   3.493   0.964   9.169  0.2028 -2.3224 -0.7821
 6813SOL     OW32071   3.740   1.369   8.394 -0.0919  0.4129  0.1323
 6813SOL    HW132072   3.761   1.331   8.479 -3.3969  0.9096  1.1725
 6813SOL    HW232073   3.739   1.290   8.340  1.9324  1.2730 -1.1591
 6814SOL     OW32074   2.955   3.833   3.583 -0.4093  0.2669  0.3028
 6814SOL    HW132075   3.041   3.875   3.579 -0.7827  1.1098  1.2041
 6814SOL    HW232076   2.970   3.775   3.658 -1.7527 -0.8926 -0.3152
 6815SOL     OW32077   1.128   2.325   4.504 -0.3860  0.5406  0.0723
 6815SOL    HW132078   1.221   2.308   4.490  0.2222  3.1285  1.0656
 6815SOL    HW232079   1.093   2.296   4.420 -0.5884 -0.9892  0.6819
 6816SOL     OW32080   0.485   2.241  12.128 -0.2082  0.4224 -0.0274
 6816SOL    HW132081   0.492   2.256  12.034 -0.3478 -1.3950 -0.3265
 6816SOL    HW232082   0.448   2.327  12.149 -0.8494 -0.2303  1.5799
 6817SOL     OW32083   2.449   0.853   7.319  0.6995  0.0310 -0.5049
 6817SOL    HW132084   2.379   0.875   7.381  2.4908  0.0894  1.4802
 6817SOL    HW232085   2.528   0.892   7.356  0.4067 -0.5691  0.7531
 6818SOL     OW32086   2.442   2.357   0.350 -0.3255 -0.0025  0.4654
 6818SOL    HW132087   2.500   2.433   0.337  1.4853 -1.7526 -1.6668
 6818SOL    HW232088   2.501   2.282   0.341 -0.4280 -0.0047 -0.2218
 6819SOL     OW32089   2.817   3.784   2.211 -0.1064  0.0819 -0.4066
 6819SOL    HW132090   2.903   3.745   2.228  0.3897  0.6536 -1.5903
 6819SOL    HW232091   2.792   3.756   2.123 -0.0736  0.7822 -0.6447
 6820SOL     OW32092   3.124   0.731  14.919 -0.1695  0.3646 -0.1670
 6820SOL    HW132093   3.096   0.800  14.980  0.2841  1.1512 -0.8438
 6820SOL    HW232094   3.137   0.666  14.987 -1.5752 -0.8073 -1.0136
 6821SOL     OW32095   0.805   3.002   5.510  0.0554 -0.1837  0.1198
 6821SOL    HW132096   0.799   2.926   5.451  1.4945 -1.9148  2.1751
 6821SOL    HW232097   0.742   2.990   5.580 -1.5556  1.4375 -1.0676
 6822SOL     OW32098   3.324   3.533   2.829  0.1975 -0.0857  0.1928
 6822SOL    HW132099   3.373   3.547   2.748 -0.1127 -1.0469 -0.1632
 6822SOL    HW232100   3.323   3.624   2.859 -2.4779 -0.5346  1.4759
 6823SOL     OW32101   0.865   0.350  10.286 -0.0102 -0.2569  0.2409
 6823SOL    HW132102   0.820   0.331  10.369  0.4612 -2.3406  0.0150
 6823SOL    HW232103   0.916   0.427  10.310  0.3458 -0.4728  0.1835
 6824SOL     OW32104   4.031   0.746   6.592 -0.5868 -0.0178  0.5290
 6824SOL    HW132105   4.084   0.694   6.531 -2.5858 -1.0994 -0.2807
 6824SOL    HW232106   3.984   0.675   6.635 -0.6832 -0.2045  0.1176
 6825SOL     OW32107   2.180   0.312   7.552 -0.2575 -0.2915  0.2115
 6825SOL    HW132108   2.090   0.306   7.584 -1.1164 -1.5750 -2.4521
 6825SOL    HW232109   2.185   0.407   7.545 -0.8360 -0.1730  1.2948
 6826SOL     OW32110   2.843   0.058  11.781  0.0590  0.2080 -0.1245
 6826SOL    HW132111   2.880   0.102  11.704 -0.4909 -0.2332 -0.6317
 6826SOL    HW232112   2.914   0.055  11.846 -0.1868 -2.2371 -0.0034
 6827SOL     OW32113   1.887   4.665  16.817 -0.2267 -0.0440 -0.0548
 6827SOL    HW132114   1.909   4.718  16.741  2.6481  1.6634  1.9906
 6827SOL    HW232115   1.792   4.651  16.818 -0.2409  0.1420  1.6321
 6828SOL     OW32116   2.019   1.262   2.530  0.3662  0.4427 -0.1931
 6828SOL    HW132117   2.071   1.261   2.450  0.5153 -0.7287 -0.0882
 6828SOL    HW232118   1.942   1.311   2.503  0.4414  0.4797 -0.3412
 6829SOL     OW32119   0.517   3.721   8.393  0.0481 -0.6920  0.1442
 6829SOL    HW132120   0.488   3.672   8.316  0.9733  1.1623 -1.3580
 6829SOL    HW232121   0.436   3.731   8.445  0.8252 -1.3954  1.5027
 6830SOL     OW32122   2.612   2.300   6.875  0.1307 -0.2995 -0.0049
 6830SOL    HW132123   2.546   2.231   6.868 -0.7830  0.3725  2.2128
 6830SOL    HW232124   2.662   2.290   6.794 -1.8021  0.3284 -1.2806
 6831SOL     OW32125   2.342   1.491  17.583  0.4512 -0.3338  0.2347
 6831SOL    HW132126   2.370   1.412  17.630  2.4274  0.3465  0.2155
 6831SOL    HW232127   2.396   1.555  17.630 -0.0554  0.5920 -0.4470
 6832SOL     OW32128   2.949   3.841  10.930 -0.4414 -0.7882  0.0391
 6832SOL    HW132129   2.982   3.773  10.873 -0.2450 -0.0536 -0.7215
 6832SOL    HW232130   2.950   3.785  11.008 -0.9504  1.8294  1.9282
 6833SOL     OW32131   3.337   4.137   8.409  0.0077  0.0850  0.6106
 6833SOL    HW132132   3.335   4.229   8.384 -0.0148  0.3656  1.6439
 6833SOL    HW232133   3.396   4.113   8.338 -0.3902  0.5367  0.1324
 6834SOL     OW32134   3.895   0.021  10.017  0.4877 -0.4947 -0.3575
 6834SOL    HW132135   3.982   0.040   9.982  1.1307 -0.9708  0.9613
 6834SOL    HW232136   3.839   0.056   9.948  1.6694 -0.3235 -1.2403
 6835SOL     OW32137   0.519   0.762   4.825 -0.1121 -0.2406 -0.2343
 6835SOL    HW132138   0.579   0.747   4.751  1.2098 -1.1798  1.0383
 6835SOL    HW232139   0.450   0.703   4.793 -0.1056 -0.0701 -0.5601
 6836SOL     OW32140   3.786   0.657   0.992  0.2960  0.4903 -0.0563
 6836SOL    HW132141   3.767   0.665   1.086  0.1123  2.7566 -0.2808
 6836SOL    HW232142   3.764   0.746   0.966  0.8795  0.3369 -1.0733
 6837SOL     OW32143   0.070   1.369   9.784 -0.1214 -0.0380  0.1547
 6837SOL    HW132144   0.047   1.327   9.867  0.1945  0.1573  0.3404
 6837SOL    HW232145   0.146   1.419   9.812 -1.0222  0.7933  1.1393
 6838SOL     OW32146   0.555   0.461  14.748  0.2302 -0.3075  0.2328
 6838SOL    HW132147   0.635   0.511  14.764  0.7034 -0.2071 -2.5083
 6838SOL    HW232148   0.545   0.388  14.810 -1.3290  1.6347  2.2910
 6839SOL     OW32149   1.774   1.850   7.312 -0.0606 -0.4815 -0.5560
 6839SOL    HW132150   1.867   1.845   7.331 -0.0604  0.1213 -0.4179
 6839SOL    HW232151   1.728   1.871   7.393 -0.5822 -2.3670 -0.3587
 6840SOL     OW32152   0.931   0.165   4.582  0.1899  0.3008  0.3443
 6840SOL    HW132153   0.866   0.161   4.512  0.3839  1.4431  0.0989
 6840SOL    HW232154   0.997   0.216   4.534 -0.7905  2.0548  0.8758
 6841SOL     OW32155   0.712   2.413   7.652 -0.7354  0.3235 -0.4458
 6841SOL    HW132156   0.773   2.346   7.681 -1.2362 -0.1486 -0.4801
 6841SOL    HW232157   0.625   2.376   7.666 -0.9387  0.6730 -0.7934
 6842SOL     OW32158   1.005   0.579   5.207 -0.2915  0.0380 -0.0166
 6842SOL    HW132159   0.992   0.485   5.218  1.5088  0.1380  3.0753
 6842SOL    HW232160   0.923   0.610   5.170  0.9440  0.0795 -2.7059
 6843SOL     OW32161   0.661   4.463   2.259  0.2072  0.1866 -0.2052
 6843SOL    HW132162   0.689   4.413   2.183 -2.4604 -2.4764  0.5493
 6843SOL    HW232163   0.617   4.534   2.212  0.4929  0.4580 -0.0602
 6844SOL     OW32164   2.259   0.459   9.985 -0.0527  0.2417 -0.0852
 6844SOL    HW132165   2.299   0.379  10.020 -1.4648  0.2796  1.6042
 6844SOL    HW232166   2.188   0.472  10.048 -1.2089 -0.9270 -1.1721
 6845SOL     OW32167   1.601   4.281   4.420 -0.1170 -0.1280  0.6907
 6845SOL    HW132168   1.585   4.196   4.460 -0.1108 -0.5512 -0.2080
 6845SOL    HW232169   1.550   4.336   4.480  2.2956 -0.8479  3.4465
 6846SOL     OW32170   0.863   4.484   5.620  0.0899 -0.0370  0.6513
 6846SOL    HW132171   0.840   4.500   5.711 -1.0629 -1.1604  0.5585
 6846SOL    HW232172   0.774   4.486   5.585  0.6550 -0.3058 -0.7907
 6847SOL     OW32173   1.794   0.419  16.043  0.2174 -0.1437  0.2652
 6847SOL    HW132174   1.737   0.471  15.986 -1.0890  1.2236  2.7964
 6847SOL    HW232175   1.739   0.342  16.058 -0.3159  0.4210  1.2775
 6848SOL     OW32176   2.837   1.825   8.925 -0.2200  0.3351 -0.0761
 6848SOL    HW132177   2.749   1.798   8.952  0.2899 -1.0157  0.2499
 6848SOL    HW232178   2.845   1.917   8.951 -0.5040  0.6135 -0.9879
 6849SOL     OW32179   4.259   3.271   4.752  0.2181 -0.2632 -0.4753
 6849SOL    HW132180   4.210   3.219   4.815  1.8520 -0.4756  0.6267
 6849SOL    HW232181   4.313   3.310   4.821  0.0654 -0.7284 -0.0899
 6850SOL     OW32182   4.050   1.317   0.543  0.4247  0.0286 -0.1786
 6850SOL    HW132183   4.035   1.344   0.452 -0.2017 -1.1702 -0.4314
 6850SOL    HW232184   4.079   1.398   0.584 -0.9547  0.4873 -0.1030
 6851SOL     OW32185   4.532   2.178   2.763 -0.0667 -0.4128 -0.1776
 6851SOL    HW132186   4.576   2.249   2.810 -2.7154  1.3074 -0.2661
 6851SOL    HW232187   4.551   2.202   2.672 -1.7562  0.5652 -0.2675
 6852SOL     OW32188   3.286   3.883   8.509  0.3325  0.1620 -0.3388
 6852SOL    HW132189   3.318   3.963   8.467 -2.3389  1.6326  0.4697
 6852SOL    HW232190   3.262   3.828   8.434  1.6823 -1.8729  0.7004
 6853SOL     OW32191   1.184   1.032   9.885 -0.0696 -0.3201 -0.4367
 6853SOL    HW132192   1.147   1.092   9.820  0.4290  1.2703  0.7424
 6853SOL    HW232193   1.100   0.992   9.910  0.2191  0.2562  1.4902
 6854SOL     OW32194   4.144   2.529   2.731 -0.0042  0.3428  0.1466
 6854SOL    HW132195   4.176   2.619   2.738 -0.1764  0.7021 -3.5053
 6854SOL    HW232196   4.106   2.523   2.818  0.3750 -0.0944  0.2836
 6855SOL     OW32197   1.010   4.134   9.837 -0.3428  0.2928  0.6144
 6855SOL    HW132198   0.942   4.070   9.858 -0.3189 -0.0825 -0.4201
 6855SOL    HW232199   1.081   4.071   9.825 -1.1726 -0.5849  0.2733
 6856SOL     OW32200   1.873   3.455  14.085  0.6050  0.3407 -0.1978
 6856SOL    HW132201   1.937   3.396  14.125 -0.0310 -1.6280 -2.1139
 6856SOL    HW232202   1.794   3.401  14.080 -0.9940  2.4688  1.6704
 6857SOL     OW32203   1.606   0.035   5.639  0.1372 -1.1538 -0.2450
 6857SOL    HW132204   1.677   0.094   5.666 -2.1192  1.0640  0.7907
 6857SOL    HW232205   1.623   0.019   5.547  3.2540  2.6564 -0.3759
 6858SOL     OW32206   2.939   2.266   9.180 -0.1225 -0.1640 -0.0881
 6858SOL    HW132207   2.864   2.233   9.230  0.9229 -0.4935  1.2701
 6858SOL    HW232208   2.894   2.308   9.107 -1.0593 -1.3752 -0.1862
 6859SOL     OW32209   4.618   4.050   1.179 -0.3507 -0.1676 -0.1293
 6859SOL    HW132210   4.596   3.959   1.158  0.7217 -0.0376 -1.7753
 6859SOL    HW232211   4.675   4.027   1.253  0.2769  0.3425 -0.4537
 6860SOL     OW32212   4.475   0.975   8.660 -0.3788 -0.1794  0.5797
 6860SOL    HW132213   4.565   1.001   8.639 -0.3944 -0.6200 -0.0209
 6860SOL    HW232214   4.471   0.882   8.680  1.7291 -0.4494 -0.2980
 6861SOL     OW32215   2.474   2.168   2.349  0.0045 -0.6781  0.0253
 6861SOL    HW132216   2.451   2.258   2.329  0.4056 -0.0218  2.4517
 6861SOL    HW232217   2.472   2.173   2.445  0.8979  0.7190 -0.0263
 6862SOL     OW32218   2.556   3.405   8.805 -0.8739 -0.1846 -0.6626
 6862SOL    HW132219   2.533   3.343   8.736  0.6365 -1.1394 -0.3056
 6862SOL    HW232220   2.570   3.483   8.750  1.0323  0.1856  0.3375
 6863SOL     OW32221   4.154   2.220   4.921  0.5831 -0.1595  0.0486
 6863SOL    HW132222   4.102   2.146   4.890 -0.4821 -0.1679  1.8791
 6863SOL    HW232223   4.104   2.234   5.001 -0.6632  0.2344 -0.8103
 6864SOL     OW32224   1.969   2.062   1.772  0.4362 -0.4922 -0.6233
 6864SOL    HW132225   1.905   2.084   1.705 -0.3270 -1.1492 -0.1189
 6864SOL    HW232226   1.915   2.065   1.851  1.3223 -0.6088 -0.0056
 6865SOL     OW32227   0.148   3.156   4.562  0.3332  0.1383 -0.2276
 6865SOL    HW132228   0.161   3.171   4.468  2.3747 -3.9646 -0.5994
 6865SOL    HW232229   0.054   3.136   4.560  0.6413 -1.3068 -0.2623
 6866SOL     OW32230   4.251   1.724   6.797  1.4300  0.1950 -0.3159
 6866SOL    HW132231   4.178   1.662   6.801  0.7900  0.9039 -1.0459
 6866SOL    HW232232   4.286   1.714   6.708  2.9631  1.3806  0.1570
 6867SOL     OW32233   3.898   1.990   2.633 -0.3678 -0.3013 -0.1140
 6867SOL    HW132234   3.832   1.923   2.614  0.3653 -0.5432 -1.8607
 6867SOL    HW232235   3.851   2.069   2.658 -1.4581 -1.0549  0.2532
 6868SOL     OW32236   2.512   1.643   9.261 -0.5644  0.2464  0.0985
 6868SOL    HW132237   2.496   1.605   9.174 -0.6158  1.5202 -0.4567
 6868SOL    HW232238   2.581   1.587   9.295  0.2408  1.1378 -0.0434
 6869SOL     OW32239   2.509   1.385  15.445 -0.0364  0.0701 -0.2806
 6869SOL    HW132240   2.428   1.356  15.402 -0.1282 -0.0533 -0.0290
 6869SOL    HW232241   2.491   1.478  15.454 -0.3078  0.1107 -1.2227
 6870SOL     OW32242   1.492   2.517  13.926 -0.6513 -0.1260  0.0672
 6870SOL    HW132243   1.411   2.466  13.923 -1.3125  0.9906 -0.8458
 6870SOL    HW232244   1.536   2.495  14.009  2.5817  0.6005 -1.4384
 6871SOL     OW32245   3.112   3.146   2.756 -0.1545  0.2808 -0.1262
 6871SOL    HW132246   3.116   3.074   2.819 -2.7457 -1.0286 -1.4366
 6871SOL    HW232247   3.164   3.211   2.802 -1.0191  0.9031 -0.0233
 6872SOL     OW32248   1.584   0.893   3.809  0.1317 -0.5277 -0.9138
 6872SOL    HW132249   1.515   0.828   3.822 -1.7159  0.9296 -3.5679
 6872SOL    HW232250   1.551   0.968   3.860 -0.2716 -1.0418 -0.4272
 6873SOL     OW32251   0.922   1.047   7.942 -0.5499  0.2273  0.5296
 6873SOL    HW132252   0.964   0.965   7.915 -0.6240  0.3037  0.1845
 6873SOL    HW232253   0.872   1.078   7.867  0.1366 -0.9163 -0.3940
 6874SOL     OW32254   1.368   2.283   8.658 -0.1172  0.2737 -0.1109
 6874SOL    HW132255   1.430   2.344   8.698 -1.3604  0.9788  0.7615
 6874SOL    HW232256   1.399   2.299   8.569 -1.7744 -1.2664 -0.9591
 6875SOL     OW32257   1.048   0.566  10.194 -0.6085  0.2256 -0.4817
 6875SOL    HW132258   1.022   0.605  10.278  0.0691 -0.2715 -0.0394
 6875SOL    HW232259   1.111   0.627  10.155 -0.7584  1.1843  0.7345
 6876SOL     OW32260   0.712   1.637   3.498 -0.0104  0.1477  0.2304
 6876SOL    HW132261   0.789   1.626   3.442 -0.2554 -0.2857 -0.0216
 6876SOL    HW232262   0.728   1.724   3.534  2.7865 -0.1974 -0.1299
 6877SOL     OW32263   0.469   1.887   2.210  0.3838  0.2870  0.2035
 6877SOL    HW132264   0.445   1.972   2.173 -2.3408 -0.7576 -0.4858
 6877SOL    HW232265   0.541   1.901   2.271  2.0633 -0.5567 -1.5750
 6878SOL     OW32266   3.899   3.505   4.187 -0.4281  0.0316 -0.1625
 6878SOL    HW132267   3.842   3.444   4.235 -1.7165  2.3415  1.2726
 6878SOL    HW232268   3.936   3.445   4.122 -0.0956  2.5705 -2.3099
 6879SOL     OW32269   2.664   3.949  17.462 -0.4673  0.0261 -0.1751
 6879SOL    HW132270   2.599   3.919  17.525 -2.2335 -0.9686 -2.4864
 6879SOL    HW232271   2.696   3.870  17.418  0.4999  0.0546  0.4697
 6880SOL     OW32272   0.124   1.633  17.337 -0.1135 -0.3541 -0.4916
 6880SOL    HW132273   0.179   1.578  17.392  0.7406  0.5123 -0.4708
 6880SOL    HW232274   0.131   1.711  17.393 -1.1576 -1.8208  1.6650
 6881SOL     OW32275   3.130   1.043  16.493 -1.0438  0.0050  0.0376
 6881SOL    HW132276   3.055   1.083  16.536  0.3726  0.2314  2.3188
 6881SOL    HW232277   3.179   1.121  16.465  1.2344 -2.0246 -1.7089
 6882SOL     OW32278   4.733   0.796   7.541 -0.0561 -0.2992 -0.1447
 6882SOL    HW132279   4.707   0.881   7.505  2.5018  0.4329 -0.2454
 6882SOL    HW232280   0.073   0.770   7.489 -0.7331 -0.3583 -1.0859
 6883SOL     OW32281   1.220   3.577   5.751 -0.4077 -0.2877  0.1144
 6883SOL    HW132282   1.259   3.661   5.726  2.0503 -1.6361 -0.6329
 6883SOL    HW232283   1.155   3.565   5.682 -2.0944 -0.1871  1.6804
 6884SOL     OW32284   4.698   1.343   7.576 -0.0366 -0.1851  0.3405
 6884SOL    HW132285   4.720   1.436   7.585 -0.2486 -0.2955  2.1117
 6884SOL    HW232286   4.704   1.327   7.482 -0.8449 -0.0933  0.2732
 6885SOL     OW32287   0.068   3.149  16.338 -0.0725 -0.1184  0.2883
 6885SOL    HW132288   4.712   3.163  16.311  0.5652 -0.1307 -1.7956
 6885SOL    HW232289   0.082   3.230  16.387 -1.8878 -1.7595  3.5296
 6886SOL     OW32290   4.174   0.702   8.022  0.1965  0.4504 -0.4807
 6886SOL    HW132291   4.168   0.675   7.930  2.3468 -0.8331 -0.2479
 6886SOL    HW232292   4.168   0.797   8.027 -1.1824  0.3698 -0.6829
 6887SOL     OW32293   0.012   4.647   5.575 -0.3384 -0.1109  0.3439
 6887SOL    HW132294   0.028   4.615   5.486  0.5545  0.2851  0.3654
 6887SOL    HW232295   0.021   4.573   5.635 -0.8342  0.1276  0.7116
 6888SOL     OW32296   3.294   1.076   7.729 -0.5875 -0.7734 -0.7029
 6888SOL    HW132297   3.334   0.991   7.710  0.2915 -0.4372 -0.3653
 6888SOL    HW232298   3.244   1.089   7.649 -1.0739  2.4283  0.1162
 6889SOL     OW32299   4.496   4.041   2.018 -0.1063  0.1140 -0.0851
 6889SOL    HW132300   4.523   3.963   2.067  0.8984 -0.5743 -1.7551
 6889SOL    HW232301   4.532   4.020   1.932 -1.8259 -0.3618 -0.6864
 6890SOL     OW32302   1.277   1.035   8.690 -0.1716 -0.2284 -0.2668
 6890SOL    HW132303   1.296   0.951   8.648 -3.0433 -0.0610 -1.8924
 6890SOL    HW232304   1.322   1.093   8.629 -1.3268 -0.0485 -0.9483
 6891SOL     OW32305   3.871   1.655   7.448  0.2422  0.0003  0.1312
 6891SOL    HW132306   3.934   1.637   7.378 -2.0693 -0.8711 -1.7246
 6891SOL    HW232307   3.830   1.737   7.423 -0.3971 -0.3462  0.0318
 6892SOL     OW32308   1.443   4.415   9.694 -0.1163 -0.7392  0.8729
 6892SOL    HW132309   1.531   4.443   9.717  0.0388 -1.0500  0.6532
 6892SOL    HW232310   1.414   4.341   9.747 -1.7810  0.2472  1.3692
 6893SOL     OW32311   4.317   3.475   6.043  0.0673 -0.2355  0.1508
 6893SOL    HW132312   4.282   3.563   6.030  0.5207 -0.1030 -0.1722
 6893SOL    HW232313   4.244   3.422   6.012  0.6065 -1.3733  0.7971
 6894SOL     OW32314   0.251   3.420   6.840  0.7587 -1.1993  0.1705
 6894SOL    HW132315   0.321   3.485   6.841 -1.0051  0.6671  2.2146
 6894SOL    HW232316   0.195   3.456   6.909 -0.4315  1.1492 -2.0078
 6895SOL     OW32317   0.211   1.664   4.042  0.2452  0.3218 -0.1561
 6895SOL    HW132318   0.204   1.580   4.089  1.3350  0.5449  0.4199
 6895SOL    HW232319   0.201   1.640   3.950  2.2568  0.3321 -0.3813
 6896SOL     OW32320   3.701   3.101   3.869  0.3673  0.6794 -0.3014
 6896SOL    HW132321   3.706   3.100   3.965  0.5193  0.1214 -0.3102
 6896SOL    HW232322   3.714   3.007   3.854 -0.7681  0.3265  0.9198
 6897SOL     OW32323   2.308   2.229  11.167  0.1730 -0.3926  0.6652
 6897SOL    HW132324   2.213   2.219  11.166 -0.1396  2.4588  0.4095
 6897SOL    HW232325   2.342   2.180  11.092  0.9574 -0.0054  0.7678
 6898SOL     OW32326   4.674   1.935   2.688 -0.4262 -0.7367  0.0950
 6898SOL    HW132327   4.615   1.995   2.733  0.4442 -1.0731  1.6917
 6898SOL    HW232328   4.602   1.878   2.660 -0.5494 -0.2906 -0.4861
 6899SOL     OW32329   4.705   4.299   8.929  0.4588  0.0352 -0.2424
 6899SOL    HW132330   4.723   4.369   8.866  3.6176 -1.8655 -1.3940
 6899SOL    HW232331   0.020   4.230   8.887  0.5311 -1.0369  1.6422
 6900SOL     OW32332   2.265   2.465  13.731  0.9788 -0.7156  0.1240
 6900SOL    HW132333   2.204   2.419  13.789  2.1033 -2.7035 -0.2650
 6900SOL    HW232334   2.199   2.514  13.682 -1.3031 -2.3167  1.5794
 6901SOL     OW32335   0.809   4.316   5.229  0.1913  0.3891  0.1481
 6901SOL    HW132336   0.897   4.308   5.193  0.0920 -0.4126  0.0687
 6901SOL    HW232337   0.811   4.410   5.248 -0.3150  0.6131 -0.8809
 6902SOL     OW32338   2.226   4.193   7.072  0.0184  0.0340  0.2981
 6902SOL    HW132339   2.222   4.115   7.016 -1.1073  0.0447  0.3736
 6902SOL    HW232340   2.180   4.255   7.015 -0.0315  1.3362  1.7680
 6903SOL     OW32341   3.385   2.351   3.549 -0.4796 -0.4428 -0.1860
 6903SOL    HW132342   3.321   2.330   3.481 -2.3165  1.1279  1.0178
 6903SOL    HW232343   3.376   2.270   3.599  0.6561 -1.3405 -1.4593
 6904SOL     OW32344   4.054   2.902   6.634  0.3819  0.1230 -0.5161
 6904SOL    HW132345   3.966   2.866   6.632  0.3231  0.2260  0.7016
 6904SOL    HW232346   4.052   2.953   6.715  0.0415  0.7831 -0.9396
 6905SOL     OW32347   2.734   1.427  11.532  0.6006 -0.0120  0.2505
 6905SOL    HW132348   2.714   1.360  11.466  0.3712  1.2796 -0.9974
 6905SOL    HW232349   2.735   1.375  11.612 -3.1440  0.7174  0.8118
 6906SOL     OW32350   0.358   3.413  16.833  0.1291  1.0226 -0.0465
 6906SOL    HW132351   0.410   3.493  16.838  0.1771  0.9028  1.2251
 6906SOL    HW232352   0.371   3.381  16.922 -1.2906 -2.2618 -1.0121
 6907SOL     OW32353   3.916   4.172   4.344  0.1997  0.1143 -0.4683
 6907SOL    HW132354   3.899   4.168   4.250  0.2227 -0.6413 -0.4409
 6907SOL    HW232355   3.892   4.083   4.371  0.8550 -0.0075 -0.2976
 6908SOL     OW32356   2.807   1.900  17.537 -1.2400  0.3396 -0.0272
 6908SOL    HW132357   2.819   1.806  17.547 -1.6367  0.2135 -0.7488
 6908SOL    HW232358   2.739   1.920  17.601  0.2055 -2.6430  2.4022
 6909SOL     OW32359   0.069   0.420   5.536 -0.2567  0.5061  0.3155
 6909SOL    HW132360   0.129   0.370   5.591 -0.3209  0.3794  0.2700
 6909SOL    HW232361   0.038   0.349   5.480 -0.2574  0.2615  0.6256
 6910SOL     OW32362   4.693   2.089   5.137 -0.2870  0.0780  0.0016
 6910SOL    HW132363   4.686   2.012   5.080 -0.3006  0.8932 -1.0874
 6910SOL    HW232364   4.687   2.043   5.220 -0.1802  2.2209  1.1872
 6911SOL     OW32365   2.783   4.563   8.036  0.6146 -0.7554 -0.0048
 6911SOL    HW132366   2.694   4.574   8.070  0.8802 -3.5742  1.6482
 6911SOL    HW232367   2.796   4.603   7.951  0.9775 -0.2182  0.3019
 6912SOL     OW32368   1.259   0.957   5.264 -0.2285 -0.1190 -0.0647
 6912SOL    HW132369   1.206   0.994   5.334 -0.4423  0.1553 -0.3736
 6912SOL    HW232370   1.249   0.864   5.284  1.2362 -0.8159 -2.6172
 6913SOL     OW32371   4.192   1.737   6.109  0.7505 -0.3230 -0.1908
 6913SOL    HW132372   4.153   1.737   6.196  0.0896  2.3307 -0.4908
 6913SOL    HW232373   4.117   1.776   6.064 -0.5965 -0.1399  2.2554
 6914SOL     OW32374   0.066   4.381   5.627 -0.7835 -0.5681 -0.4638
 6914SOL    HW132375   0.012   4.344   5.697 -0.9842 -0.1870 -0.4211
 6914SOL    HW232376   0.156   4.363   5.657 -0.9763 -1.1630 -0.2405
 6915SOL     OW32377   4.336   2.995   5.844  0.2221  0.0830  0.1408
 6915SOL    HW132378   4.327   2.996   5.940  1.1310 -0.6339  0.2346
 6915SOL    HW232379   4.429   2.985   5.827  0.8874  3.6680  1.4995
 6916SOL     OW32380   1.759   1.603  17.574 -0.0613 -0.1187 -0.0796
 6916SOL    HW132381   1.715   1.660  17.637  0.2666  1.7810 -1.5835
 6916SOL    HW232382   1.838   1.581  17.623 -0.6814 -1.8108  0.1941
 6917SOL     OW32383   1.499   0.343   7.097  0.2146  0.7044 -0.2384
 6917SOL    HW132384   1.406   0.363   7.088  0.3979  2.5231  1.9875
 6917SOL    HW232385   1.531   0.326   7.009 -1.2287  1.7749 -0.9565
 6918SOL     OW32386   1.606   4.488  17.475 -0.4493 -0.1493 -0.5124
 6918SOL    HW132387   1.591   4.554  17.542  0.2915  0.7397 -1.2125
 6918SOL    HW232388   1.546   4.515  17.406 -3.1343 -0.7792  1.6210
 6919SOL     OW32389   3.984   1.920  13.320  0.3784  0.4038  0.6768
 6919SOL    HW132390   4.041   1.892  13.392  1.1508  0.5336  0.1149
 6919SOL    HW232391   4.049   1.958  13.261  1.2746  1.4297  2.3425
 6920SOL     OW32392   2.773   1.957  17.268  0.3813  0.0752 -0.0725
 6920SOL    HW132393   2.849   2.009  17.294  0.7537 -0.0974 -0.8114
 6920SOL    HW232394   2.744   1.931  17.355  1.2941  0.7185  0.4279
 6921SOL     OW32395   2.796   1.055  15.710  0.1861 -0.2907  0.0756
 6921SOL    HW132396   2.864   1.083  15.649 -0.1547 -0.2825 -0.2990
 6921SOL    HW232397   2.724   1.031  15.651 -0.3862  0.0264  0.6444
 6922SOL     OW32398   3.843   3.630  14.701 -0.0655  0.2549 -0.1310
 6922SOL    HW132399   3.754   3.647  14.732  0.0465 -1.8916  1.3982
 6922SOL    HW232400   3.900   3.697  14.738  1.8902 -0.2499 -2.2410
 6923SOL     OW32401   3.679   2.801   7.108  0.2152  0.4371 -0.1295
 6923SOL    HW132402   3.620   2.764   7.042  1.2426 -1.0505 -0.2189
 6923SOL    HW232403   3.754   2.823   7.052  0.0431  0.1536 -0.4739
 6924SOL     OW32404   0.330   0.104   3.643 -0.1068 -0.9294  0.0095
 6924SOL    HW132405   0.279   0.126   3.565 -2.2673 -0.2774  1.6145
 6924SOL    HW232406   0.403   0.162   3.622 -0.5858  0.2047  1.5240
 6925SOL     OW32407   1.388   1.988   1.618 -0.1188 -0.3247 -0.2872
 6925SOL    HW132408   1.443   1.973   1.695  0.7320 -3.5237 -1.5227
 6925SOL    HW232409   1.423   2.069   1.581  0.9769  0.0329  1.5104
 6926SOL     OW32410   2.275   4.050   9.580 -0.2893  0.1697 -0.7895
 6926SOL    HW132411   2.300   4.029   9.490 -1.9934  0.7162 -1.3789
 6926SOL    HW232412   2.276   3.961   9.615  0.2198  0.7071  0.5559
 6927SOL     OW32413   2.814   4.102   1.104  0.0594  0.3129 -0.5940
 6927SOL    HW132414   2.824   4.097   1.199 -1.6252 -1.0637 -0.4729
 6927SOL    HW232415   2.844   4.191   1.085 -2.1667  1.4543  1.3106
 6928SOL     OW32416   0.537   0.441   8.322  0.0502 -0.8325 -0.0517
 6928SOL    HW132417   0.613   0.495   8.341 -0.1671 -0.5853  0.1175
 6928SOL    HW232418   0.516   0.409   8.410  1.1125 -2.9426 -0.5418
 6929SOL     OW32419   0.745   3.571   5.559 -0.2832 -0.6792  0.1293
 6929SOL    HW132420   0.812   3.503   5.557  0.1344 -0.1933 -2.0093
 6929SOL    HW232421   0.800   3.649   5.564  0.6281 -1.3684  0.8098
 6930SOL     OW32422   0.791   0.438  10.765 -0.9959  0.0030 -0.5137
 6930SOL    HW132423   0.823   0.355  10.731 -0.7509  0.9452 -2.6051
 6930SOL    HW232424   0.739   0.409  10.840  0.0877  1.1570  0.6922
 6931SOL     OW32425   3.946   1.482   5.030  0.2720  0.2746 -0.3690
 6931SOL    HW132426   3.917   1.391   5.021  1.3775 -0.1065 -0.0905
 6931SOL    HW232427   4.034   1.476   4.993  0.6142 -2.5317  0.8555
 6932SOL     OW32428   0.707   1.250   4.117 -0.3667  0.0161 -0.0042
 6932SOL    HW132429   0.644   1.181   4.136 -0.8164 -0.2640 -2.5746
 6932SOL    HW232430   0.643   1.318   4.094 -0.1691  0.1164 -0.2620
 6933SOL     OW32431   2.558   4.507   6.661 -0.9867  0.3183 -0.1264
 6933SOL    HW132432   2.640   4.537   6.623  0.5179 -1.5356  1.6845
 6933SOL    HW232433   2.517   4.498   6.574  1.6664 -3.2371 -0.9577
 6934SOL     OW32434   3.166   1.563   6.846  0.1840 -0.5370  0.0236
 6934SOL    HW132435   3.167   1.610   6.930  0.0988 -0.6834  0.1061
 6934SOL    HW232436   3.226   1.616   6.793 -0.8453 -0.8542 -1.4625
 6935SOL     OW32437   1.223   3.395   2.371 -0.0259 -0.3975  0.2739
 6935SOL    HW132438   1.203   3.381   2.464 -5.4524 -0.7837 -0.9744
 6935SOL    HW232439   1.255   3.308   2.347  0.0989 -0.1583 -0.4352
 6936SOL     OW32440   1.813   2.401   2.866 -0.4487 -0.3009 -0.7505
 6936SOL    HW132441   1.823   2.478   2.810 -0.7387  0.6467  0.5154
 6936SOL    HW232442   1.719   2.386   2.862 -0.3408 -0.7636 -1.6312
 6937SOL     OW32443   1.715   4.049   6.931  1.0033 -0.4707 -0.5972
 6937SOL    HW132444   1.706   4.108   7.006 -0.5900 -0.8534 -0.4936
 6937SOL    HW232445   1.623   4.046   6.906  0.4556 -0.4805  1.4204
 6938SOL     OW32446   3.081   1.689   5.808  0.2930  0.1355  0.4666
 6938SOL    HW132447   2.992   1.705   5.775  0.2117 -0.6648  0.3044
 6938SOL    HW232448   3.133   1.750   5.756  1.4323  0.0944  1.5720
 6939SOL     OW32449   3.549   0.091  16.771  0.0585  0.2352  0.5667
 6939SOL    HW132450   3.538   0.099  16.866  0.9675 -3.4774  0.9908
 6939SOL    HW232451   3.645   0.089  16.771  0.0499 -0.5374 -0.4311
 6940SOL     OW32452   2.195   2.185   1.762  0.3061  0.1286  0.0600
 6940SOL    HW132453   2.261   2.124   1.733 -0.7435 -0.3118 -1.3887
 6940SOL    HW232454   2.112   2.140   1.747  1.1509 -2.2492  2.4999
 6941SOL     OW32455   4.512   0.102  12.326 -0.3504  0.3994  0.3101
 6941SOL    HW132456   4.504   0.098  12.422  0.8421  0.1400  0.3978
 6941SOL    HW232457   4.450   0.040  12.287 -1.7706  1.7131  0.4987
 6942SOL     OW32458   3.198   1.237   4.012 -0.5661 -0.0742 -0.2122
 6942SOL    HW132459   3.125   1.293   4.036 -0.2465  0.6997 -1.0532
 6942SOL    HW232460   3.236   1.277   3.934 -1.8274 -1.1790 -1.4035
 6943SOL     OW32461   4.457   2.873   0.717 -0.4241  0.4348 -0.3898
 6943SOL    HW132462   4.486   2.789   0.752  0.8832  0.8860 -0.3797
 6943SOL    HW232463   4.363   2.870   0.736 -0.2062 -0.3253  0.5501
 6944SOL     OW32464   1.767   2.386   0.009  0.2789 -0.6805  0.1003
 6944SOL    HW132465   1.675   2.361   0.018  0.1322 -0.0144  0.4396
 6944SOL    HW232466   1.779   2.417  17.658 -1.1616  3.1634  1.2681
 6945SOL     OW32467   1.361   3.369  13.315  0.3032  0.4912  0.3168
 6945SOL    HW132468   1.356   3.289  13.262 -1.3339  0.5954  0.3139
 6945SOL    HW232469   1.447   3.405  13.297  1.0711 -1.2831  0.4751
 6946SOL     OW32470   4.693   3.905   5.671 -0.2463  0.3165 -0.3940
 6946SOL    HW132471   4.603   3.884   5.647 -0.2250 -1.0075  0.6404
 6946SOL    HW232472   4.728   3.948   5.593  0.2307  1.8466  0.6769
 6947SOL     OW32473   0.207   3.699   9.577 -0.6542  0.5268 -0.0246
 6947SOL    HW132474   0.196   3.743   9.493 -0.9874 -0.1458 -0.3282
 6947SOL    HW232475   0.273   3.755   9.619 -2.4435  2.7257 -0.1339
 6948SOL     OW32476   3.306   0.419   7.051  0.2022  0.5809  0.3623
 6948SOL    HW132477   3.368   0.472   7.001  0.1111  0.5231  0.1874
 6948SOL    HW232478   3.348   0.408   7.136  0.6413  1.1879  0.2280
 6949SOL     OW32479   1.125   0.986  17.708  0.0627  0.3479 -0.0565
 6949SOL    HW132480   1.081   1.066  17.679 -1.5224 -0.5479 -0.1335
 6949SOL    HW232481   1.066   0.959   0.040 -0.5316  0.9951 -0.3011
 6950SOL     OW32482   4.338   1.399  15.871 -0.2956 -0.4883 -0.3009
 6950SOL    HW132483   4.264   1.364  15.820 -1.6150  0.9618  0.6248
 6950SOL    HW232484   4.380   1.448  15.800 -0.5428  0.2621  0.0743
 6951SOL     OW32485   3.751   4.054   9.028 -0.2868 -0.2139 -0.3268
 6951SOL    HW132486   3.754   4.145   8.998  0.2519 -0.5520 -1.3061
 6951SOL    HW232487   3.805   4.051   9.107 -1.1700 -2.2241  0.2064
 6952SOL     OW32488   3.833   0.913   3.625  0.2451 -0.2955 -0.1480
 6952SOL    HW132489   3.788   0.829   3.639 -0.5600  0.2384  0.4042
 6952SOL    HW232490   3.885   0.892   3.546  2.2467 -1.7746  1.5497
 6953SOL     OW32491   2.990   3.356   9.211 -0.5792  0.1076  0.0581
 6953SOL    HW132492   2.931   3.282   9.196  1.0845 -1.0658 -0.6433
 6953SOL    HW232493   2.935   3.413   9.264  2.5845  1.5395  1.7845
 6954SOL     OW32494   1.009   1.748   3.534  0.3935  0.2253  0.0556
 6954SOL    HW132495   1.089   1.799   3.528  1.4844 -1.5452 -0.4134
 6954SOL    HW232496   0.939   1.811   3.518  1.9096  2.3621  1.8888
 6955SOL     OW32497   3.847   1.501   1.334  0.0395 -0.0913 -0.1583
 6955SOL    HW132498   3.829   1.478   1.243  0.5961 -1.3928  0.0457
 6955SOL    HW232499   3.941   1.485   1.343  0.1071  0.2152 -0.3401
 6956SOL     OW32500   1.287   1.933  15.117  0.3270  0.1995 -0.2637
 6956SOL    HW132501   1.250   1.910  15.031 -1.7202 -2.1340  1.2277
 6956SOL    HW232502   1.373   1.970  15.097  1.5793 -0.8608  3.1109
 6957SOL     OW32503   1.967   4.159   4.572  0.6682 -0.6628 -0.2056
 6957SOL    HW132504   1.975   4.180   4.479  1.6531 -0.4016 -0.0614
 6957SOL    HW232505   1.965   4.241   4.621 -0.3570  0.3091 -1.8627
 6958SOL     OW32506   4.728   2.765   7.615  0.3735 -0.2313  0.0242
 6958SOL    HW132507   0.063   2.824   7.587 -0.3356  0.5911 -0.0301
 6958SOL    HW232508   4.732   2.694   7.551 -0.5952  0.3865 -0.7068
 6959SOL     OW32509   2.213   2.839   0.164 -0.4328 -0.1747  0.0030
 6959SOL    HW132510   2.231   2.919   0.213  0.5460  0.2308 -1.0303
 6959SOL    HW232511   2.141   2.872   0.110 -1.0167 -0.8606  0.3667
 6960SOL     OW32512   4.730   3.295   9.999 -0.3955  0.1181 -0.1432
 6960SOL    HW132513   0.062   3.275   9.934  0.8860  0.4971  1.0725
 6960SOL    HW232514   4.707   3.212  10.039  2.0724  0.6611  2.3699
 6961SOL     OW32515   1.964   2.206   2.997 -0.1036  0.4514  0.4535
 6961SOL    HW132516   2.044   2.188   2.947  0.2336 -3.2597  2.4098
 6961SOL    HW232517   1.922   2.280   2.952  1.1789  1.8294  1.5649
 6962SOL     OW32518   1.369   1.665  17.526 -0.2868  0.1569 -0.7908
 6962SOL    HW132519   1.393   1.744  17.476 -0.2224 -0.4667 -1.7409
 6962SOL    HW232520   1.403   1.596  17.470 -2.3438 -2.3626  1.0935
 6963SOL     OW32521   3.429   0.843   6.724 -0.2190  0.1450 -0.1349
 6963SOL    HW132522   3.456   0.873   6.638 -1.1251 -0.3350 -0.5857
 6963SOL    HW232523   3.492   0.885   6.783 -0.7621 -1.0870  1.3385
 6964SOL     OW32524   2.231   0.742   5.737  0.1916  0.3082 -0.4596
 6964SOL    HW132525   2.155   0.690   5.763  0.4632  0.6902  1.1062
 6964SOL    HW232526   2.296   0.721   5.805  0.0881  1.5180  0.0269
 6965SOL     OW32527   1.662   3.007  16.889 -0.3620 -0.3555  0.7430
 6965SOL    HW132528   1.722   3.069  16.931 -2.2749  1.1879  1.1804
 6965SOL    HW232529   1.581   3.057  16.894  0.5229  0.9038  2.4685
 6966SOL     OW32530   4.696   3.628   4.086  0.6301 -0.5869  0.0355
 6966SOL    HW132531   4.670   3.713   4.051  0.4633 -0.2290  1.0208
 6966SOL    HW232532   0.020   3.600   4.016 -0.4881  0.4789 -1.3161
 6967SOL     OW32533   3.839   1.256   3.158  0.4432 -0.9566  0.4550
 6967SOL    HW132534   3.840   1.247   3.063  1.3040  0.3520  0.3461
 6967SOL    HW232535   3.834   1.167   3.193 -0.8449 -0.8747  0.4606
 6968SOL     OW32536   1.008   2.889   6.326 -0.3525  0.1880 -0.8260
 6968SOL    HW132537   0.996   2.811   6.379 -0.0037  0.5105 -0.2702
 6968SOL    HW232538   1.100   2.892   6.299 -0.1646 -1.1800 -0.3429
 6969SOL     OW32539   2.036   3.579   5.104 -0.8662  0.2102 -0.1662
 6969SOL    HW132540   2.005   3.573   5.013 -1.8231  0.5542  0.1387
 6969SOL    HW232541   2.078   3.665   5.106  0.6726 -0.5948  2.0389
 6970SOL     OW32542   3.065   1.121   5.821 -0.1801  0.0739  0.4910
 6970SOL    HW132543   3.138   1.178   5.843  0.7736 -1.4083  1.1376
 6970SOL    HW232544   2.999   1.189   5.806 -0.0598  0.1140  0.1532
 6971SOL     OW32545   1.764   2.325   7.701  0.2028 -0.3074  0.8718
 6971SOL    HW132546   1.847   2.350   7.742 -0.3582  1.5017  0.9286
 6971SOL    HW232547   1.724   2.411   7.686  1.2799 -0.3052 -1.9546
 6972SOL     OW32548   4.041   1.457   2.100  0.4047  0.2593  0.2987
 6972SOL    HW132549   3.986   1.400   2.046  1.6360  0.3769 -1.0698
 6972SOL    HW232550   4.071   1.520   2.034  1.3523 -1.2090 -0.6802
 6973SOL     OW32551   1.970   1.722   7.179  0.3873  0.0362  0.0238
 6973SOL    HW132552   1.946   1.639   7.220  0.7211  0.2915  0.7395
 6973SOL    HW232553   1.887   1.755   7.146  1.6305  1.2816 -1.8597
 6974SOL     OW32554   2.338   0.727   4.203 -0.2260 -0.1529  0.0892
 6974SOL    HW132555   2.432   0.707   4.208  0.2331  2.1163  0.2570
 6974SOL    HW232556   2.332   0.805   4.258 -0.1538  1.3925 -2.1136
 6975SOL     OW32557   1.681   4.007   5.805 -0.0284  1.2021  0.2159
 6975SOL    HW132558   1.619   4.010   5.878 -1.8786  1.9588 -1.3815
 6975SOL    HW232559   1.745   4.073   5.831 -0.3457  1.5336  0.1550
 6976SOL     OW32560   4.147   1.671  14.925 -0.2070  0.0710 -0.2835
 6976SOL    HW132561   4.151   1.682  15.020 -0.3535  2.0063 -0.4967
 6976SOL    HW232562   4.116   1.581  14.925  1.0042 -0.3537  2.0553
 6977SOL     OW32563   3.786   0.291   3.870 -0.1638  0.2347  0.2823
 6977SOL    HW132564   3.710   0.338   3.834  0.7379  1.0597 -0.5231
 6977SOL    HW232565   3.841   0.280   3.792 -0.8697  2.3938 -0.5233
 6978SOL     OW32566   1.840   2.734   3.603 -0.1339 -0.2007  0.4540
 6978SOL    HW132567   1.918   2.685   3.630  0.4307  0.3204 -0.2287
 6978SOL    HW232568   1.849   2.726   3.508  1.9152 -0.6395  0.6733
 6979SOL     OW32569   1.675   1.719  12.414 -0.4010 -0.0760 -0.4348
 6979SOL    HW132570   1.599   1.694  12.361 -1.6115  1.0137  0.7760
 6979SOL    HW232571   1.684   1.813  12.396  1.5844 -0.1979 -0.1185
 6980SOL     OW32572   3.310   1.604   5.038 -0.1120 -0.3101  0.6851
 6980SOL    HW132573   3.320   1.619   4.944  1.7880  0.3285  0.9995
 6980SOL    HW232574   3.221   1.567   5.035 -0.6001  1.0197 -0.7132
 6981SOL     OW32575   3.643   2.385   3.161 -0.0677  0.4828 -0.0476
 6981SOL    HW132576   3.678   2.469   3.190 -0.6546  1.2889 -1.6644
 6981SOL    HW232577   3.707   2.353   3.097 -0.6799 -0.6070 -0.1099
 6982SOL     OW32578   3.029   3.357   8.138 -0.3591  0.1184 -0.0862
 6982SOL    HW132579   2.941   3.333   8.164  0.2935  0.0583  2.0379
 6982SOL    HW232580   3.082   3.337   8.215  0.9141 -1.4531 -1.3650
 6983SOL     OW32581   2.599   2.259   3.877 -0.4804 -0.0251 -0.1746
 6983SOL    HW132582   2.551   2.254   3.794 -0.9112  0.9997  0.0137
 6983SOL    HW232583   2.563   2.340   3.913 -0.6362 -0.1843  0.0283
 6984SOL     OW32584   1.250   1.505   6.703 -0.3278  0.6634 -0.6738
 6984SOL    HW132585   1.250   1.410   6.700 -1.5409  0.6166  1.1259
 6984SOL    HW232586   1.270   1.519   6.795 -1.6595  1.7426 -0.5554
 6985SOL     OW32587   4.638   3.265   8.203 -0.0626 -0.3552 -0.4784
 6985SOL    HW132588   4.549   3.231   8.216  0.2681 -0.7242  0.8051
 6985SOL    HW232589   4.674   3.232   8.285 -0.4089  0.1389 -0.1299
 6986SOL     OW32590   2.211   0.941  10.587  0.1165  0.2175  0.0696
 6986SOL    HW132591   2.116   0.944  10.604  0.0207  0.8659 -0.5811
 6986SOL    HW232592   2.233   0.848  10.589 -0.0040  0.2241  1.4527
 6987SOL     OW32593   0.117   3.376   5.243  0.0370 -0.6929 -0.5148
 6987SOL    HW132594   0.024   3.396   5.246 -0.0099 -1.0712  0.4001
 6987SOL    HW232595   0.121   3.290   5.203 -3.2993 -1.0674 -0.0449
 6988SOL     OW32596   0.028   2.678   0.969 -0.1258  0.5834  0.0357
 6988SOL    HW132597   0.060   2.768   0.977 -0.4468  0.5920  1.1918
 6988SOL    HW232598   4.729   2.684   0.880 -2.3985  0.6086  0.8921
 6989SOL     OW32599   1.787   0.754   6.452 -0.3069 -0.2990  0.7365
 6989SOL    HW132600   1.720   0.760   6.520 -2.3977 -0.4441 -1.3020
 6989SOL    HW232601   1.735   0.793   6.381  1.2518  0.9163  0.2612
 6990SOL     OW32602   4.643   0.578   7.911  0.2075  0.0191 -0.2024
 6990SOL    HW132603   4.711   0.645   7.919 -1.4639  1.6975 -0.1161
 6990SOL    HW232604   4.567   0.625   7.875 -0.2940 -1.6966 -1.3795
 6991SOL     OW32605   3.653   0.215   5.530  0.1896 -0.3383  0.1081
 6991SOL    HW132606   3.611   0.138   5.491 -0.7338 -0.6045  1.6039
 6991SOL    HW232607   3.686   0.182   5.614  0.1505 -2.2010 -0.6088
 6992SOL     OW32608   1.803   0.479   2.666  0.0505 -0.2427  0.3580
 6992SOL    HW132609   1.791   0.532   2.745  0.6500  1.4142 -0.6692
 6992SOL    HW232610   1.713   0.467   2.636  0.2162 -2.0386  0.5601
 6993SOL     OW32611   4.441   3.487   1.123  0.1114  0.3113 -0.1695
 6993SOL    HW132612   4.357   3.454   1.155 -0.9732  1.7316 -1.5505
 6993SOL    HW232613   4.453   3.564   1.178 -0.3324  1.2618 -1.4174
 6994SOL     OW32614   3.536   0.334   7.833  0.2964  0.7843 -0.0741
 6994SOL    HW132615   3.573   0.419   7.811 -0.0011  0.6540 -1.0991
 6994SOL    HW232616   3.586   0.314   7.912  0.6339  1.2639 -0.1701
 6995SOL     OW32617   2.606   2.957   9.065  0.1356  0.3623  0.0554
 6995SOL    HW132618   2.574   2.869   9.085 -0.0623  0.4493  0.1229
 6995SOL    HW232619   2.656   2.949   8.984 -1.3675 -1.6730 -0.6644
 6996SOL     OW32620   0.642   4.247   8.506  0.5890  0.5652 -0.0459
 6996SOL    HW132621   0.605   4.180   8.450  1.5245 -0.4562  0.5657
 6996SOL    HW232622   0.567   4.256   8.565  1.3564  0.5512  0.9529
 6997SOL     OW32623   4.145   3.621  14.409  0.2596 -1.3613 -0.6454
 6997SOL    HW132624   4.218   3.683  14.410 -0.7951 -0.1526  2.1173
 6997SOL    HW232625   4.150   3.586  14.320 -1.3877 -0.0353 -1.2605
 6998SOL     OW32626   3.927   2.404   8.765  0.2871 -0.0208 -0.4067
 6998SOL    HW132627   3.899   2.377   8.853 -0.5218 -0.8390 -0.9111
 6998SOL    HW232628   3.856   2.365   8.714  1.1912 -1.1021 -0.8248
 6999SOL     OW32629   3.731   3.252   8.925  0.1609  0.0357 -0.3370
 6999SOL    HW132630   3.761   3.236   8.836 -1.1694 -1.5387 -0.5192
 6999SOL    HW232631   3.788   3.325   8.949 -0.1161 -0.1639  0.9353
 7000SOL     OW32632   0.178   3.757  17.690 -0.1026 -0.2358 -0.6182
 7000SOL    HW132633   0.185   3.845  17.728 -0.7366  0.3843 -1.9250
 7000SOL    HW232634   0.227   3.714   0.022 -1.6827 -3.0233 -1.2311
 7001SOL     OW32635   4.210   4.391  17.013 -0.3876 -0.2638 -0.7921
 7001SOL    HW132636   4.133   4.443  17.040 -1.6096 -2.5720  0.1409
 7001SOL    HW232637   4.207   4.427  16.924 -1.8864 -1.4763 -1.2312
 7002SOL     OW32638   3.431   1.999   8.395 -0.1669 -0.3014  0.2486
 7002SOL    HW132639   3.339   2.026   8.394  0.7157  2.6485 -1.3085
 7002SOL    HW232640   3.445   1.980   8.487 -0.6847 -1.8622 -0.0006
 7003SOL     OW32641   3.778   2.857   6.624  0.2500 -0.1371  0.4932
 7003SOL    HW132642   3.766   2.930   6.564 -2.6653 -1.2341 -0.2517
 7003SOL    HW232643   3.792   2.895   6.711 -2.1465 -1.4621  1.4551
 7004SOL     OW32644   0.157   2.397  11.147 -0.2416 -0.2134 -0.5974
 7004SOL    HW132645   0.111   2.481  11.138 -0.9151 -0.4643  0.4978
 7004SOL    HW232646   0.175   2.364  11.058 -1.5342 -0.6280 -0.7013
 7005SOL     OW32647   2.996   0.993   2.216 -0.5427 -0.5184  0.4464
 7005SOL    HW132648   3.021   1.007   2.307  1.6870  0.0576 -0.2585
 7005SOL    HW232649   3.038   1.068   2.174 -1.4224 -0.1015  0.3058
 7006SOL     OW32650   1.743   3.198   6.065 -0.2720  0.3198 -0.0249
 7006SOL    HW132651   1.725   3.123   6.008 -1.7971  1.5628 -1.1860
 7006SOL    HW232652   1.669   3.259   6.067 -1.3196 -0.8868 -3.2395
 7007SOL     OW32653   2.177   0.392   4.565  0.3248  0.4977  0.3325
 7007SOL    HW132654   2.162   0.427   4.477 -0.2617 -0.3147  0.1062
 7007SOL    HW232655   2.092   0.357   4.591  0.3712 -1.1400 -1.7070
 7008SOL     OW32656   1.606   0.000  15.766  0.3136 -0.2893 -0.0383
 7008SOL    HW132657   1.678   0.060  15.747  1.9422 -0.8940  4.1690
 7008SOL    HW232658   1.544   0.009  15.694 -0.5281  0.0807  0.7408
 7009SOL     OW32659   0.033   1.020   9.805 -0.4887  0.0146 -0.8637
 7009SOL    HW132660   0.045   1.086   9.873 -1.6859 -1.0119  0.3394
 7009SOL    HW232661   4.673   1.015   9.798 -0.3616 -0.6588 -2.0932
 7010SOL     OW32662   3.352   0.861   4.423  0.4615  0.4272 -0.4336
 7010SOL    HW132663   3.301   0.941   4.431 -2.8520 -1.5701 -1.5734
 7010SOL    HW232664   3.300   0.806   4.483  0.9055  1.3070  0.7467
 7011SOL     OW32665   0.326   0.285   7.935  0.5594 -0.0254  0.3169
 7011SOL    HW132666   0.412   0.284   7.977  0.0118 -0.7671  1.4092
 7011SOL    HW232667   0.343   0.209   7.878 -0.2951 -1.0027  1.3515
 7012SOL     OW32668   2.980   2.869   4.908 -0.1837 -0.3636 -1.0268
 7012SOL    HW132669   3.038   2.906   4.974 -0.1013 -2.7690  0.2460
 7012SOL    HW232670   2.904   2.920   4.934 -1.1482 -0.9096 -2.7012
 7013SOL     OW32671   1.105   1.652   6.535 -0.3911 -0.0928  0.0663
 7013SOL    HW132672   1.041   1.588   6.504 -1.6460  2.5409 -2.8837
 7013SOL    HW232673   1.163   1.596   6.585 -2.8816 -2.9680 -0.2718
 7014SOL     OW32674   3.823   3.663   7.476 -0.1255 -0.0539  0.5699
 7014SOL    HW132675   3.860   3.619   7.400  1.6230 -3.6201  3.4501
 7014SOL    HW232676   3.872   3.617   7.544 -2.2166 -2.8364  0.1754
 7015SOL     OW32677   3.802   1.211   2.896  0.5430 -0.1296  0.2565
 7015SOL    HW132678   3.745   1.142   2.931  0.0141  0.5661  0.7742
 7015SOL    HW232679   3.832   1.172   2.814  1.2610  0.3529  0.2981
 7016SOL     OW32680   3.553   2.149   9.817 -0.2121  0.5698 -0.4226
 7016SOL    HW132681   3.485   2.083   9.804  0.2295  0.2376 -1.0582
 7016SOL    HW232682   3.538   2.206   9.741 -1.7390  1.1024  0.2742
 7017SOL     OW32683   0.737   2.852   5.011 -0.3833  0.1996  0.2399
 7017SOL    HW132684   0.709   2.764   5.036 -0.6813 -0.4870 -2.4991
 7017SOL    HW232685   0.801   2.833   4.942 -0.3614 -1.2041  0.6425
 7018SOL     OW32686   0.638   1.536   7.333 -0.0701 -0.1701 -0.6337
 7018SOL    HW132687   0.567   1.477   7.359 -2.3988  2.1278 -1.7929
 7018SOL    HW232688   0.623   1.548   7.240 -1.0981  1.7852 -0.2060
 7019SOL     OW32689   3.111   1.306   5.006 -0.0091 -0.5732 -0.6479
 7019SOL    HW132690   3.178   1.284   5.072  1.9215  2.5958 -1.5119
 7019SOL    HW232691   3.057   1.227   5.008  1.7674 -1.8052 -1.4013
 7020SOL     OW32692   4.046   2.692   1.992  0.7013  0.0922 -0.0247
 7020SOL    HW132693   3.954   2.692   1.964  1.3473  1.6604 -2.1535
 7020SOL    HW232694   4.085   2.653   1.914 -0.2435  0.0467 -0.4729
 7021SOL     OW32695   1.421   3.457  12.450  0.2887 -0.0988 -0.4178
 7021SOL    HW132696   1.465   3.473  12.533 -1.2549 -0.4721  0.4670
 7021SOL    HW232697   1.365   3.383  12.475  1.2723 -0.4413  0.7499
 7022SOL     OW32698   2.244   1.590   5.365  0.6215 -0.2218  0.1159
 7022SOL    HW132699   2.211   1.511   5.322  1.2441 -0.8382  0.7760
 7022SOL    HW232700   2.220   1.652   5.297 -1.3880 -0.3232  0.7304
 7023SOL     OW32701   1.163   4.589   4.858  0.3071 -0.5128 -0.1071
 7023SOL    HW132702   1.168   4.682   4.881 -2.0812 -0.8162  1.6718
 7023SOL    HW232703   1.195   4.546   4.937  2.4572 -0.1730 -0.8126
 7024SOL     OW32704   4.370   4.489   3.511 -0.5975 -0.4264  0.4499
 7024SOL    HW132705   4.444   4.475   3.571  0.6062 -2.0338 -1.4055
 7024SOL    HW232706   4.336   4.568   3.552  0.7756  0.4318 -0.0449
 7025SOL     OW32707   1.115   0.377  12.181 -0.4843  0.8583  0.1903
 7025SOL    HW132708   1.123   0.281  12.180  0.9590  0.9841  0.0862
 7025SOL    HW232709   1.051   0.400  12.248 -1.2941 -0.6384 -0.0795
 7026SOL     OW32710   0.282   2.408   9.617  0.3635  0.1412 -0.0707
 7026SOL    HW132711   0.204   2.377   9.571 -1.3556 -0.1453  3.0106
 7026SOL    HW232712   0.305   2.325   9.658  1.1584 -1.1438 -3.1557
 7027SOL     OW32713   4.243   3.361   2.591 -0.4924 -0.3141  0.1259
 7027SOL    HW132714   4.279   3.311   2.518 -0.1735 -0.2055  0.2130
 7027SOL    HW232715   4.242   3.451   2.559 -0.4932 -0.1951  0.4592
 7028SOL     OW32716   3.081   1.370   7.780  0.4660  0.8440 -0.5984
 7028SOL    HW132717   3.020   1.346   7.710 -1.8395  0.5491  1.5289
 7028SOL    HW232718   3.115   1.453   7.745  1.5509  0.6477 -0.0131
 7029SOL     OW32719   2.764   0.355   0.045  0.7999 -0.6016 -0.0634
 7029SOL    HW132720   2.737   0.407  17.708  0.3976 -1.8463 -0.7829
 7029SOL    HW232721   2.735   0.264   0.035  0.5401 -0.3849 -1.2671
 7030SOL     OW32722   3.386   0.227   2.254  0.3999  0.3855 -0.3430
 7030SOL    HW132723   3.446   0.168   2.298  1.8264  1.4604 -0.8477
 7030SOL    HW232724   3.323   0.252   2.322 -0.6944 -1.3247 -0.7307
 7031SOL     OW32725   3.820   3.081   5.211 -0.1343 -0.1087 -0.0858
 7031SOL    HW132726   3.886   3.085   5.280 -0.3507  0.5054  0.0933
 7031SOL    HW232727   3.836   2.991   5.183 -1.4675 -0.3922  0.0529
 7032SOL     OW32728   1.988   0.054   3.217 -0.0761  0.8665  0.1335
 7032SOL    HW132729   1.938   0.135   3.210  1.3635  1.6726 -0.7903
 7032SOL    HW232730   2.013   0.048   3.124 -2.1942 -4.2752 -0.0964
 7033SOL     OW32731   4.126   3.807   5.041 -0.5516  0.0766 -0.5126
 7033SOL    HW132732   4.198   3.774   4.987  0.6054  0.3896  0.8482
 7033SOL    HW232733   4.113   3.894   5.003 -0.5681  0.5971  0.6670
 7034SOL     OW32734   4.635   2.499   6.757 -0.1416 -0.4839  0.4154
 7034SOL    HW132735   4.676   2.433   6.700 -3.0116 -1.0943 -0.9588
 7034SOL    HW232736   4.700   2.561   6.788  0.8874 -0.9182 -0.8729
 7035SOL     OW32737   2.511   0.453   2.403  0.5331  0.7752  0.7248
 7035SOL    HW132738   2.574   0.428   2.336 -0.7096 -0.8131  0.1270
 7035SOL    HW232739   2.506   0.547   2.387 -0.7983  0.5958  0.0915
 7036SOL     OW32740   2.390   0.752   8.210 -0.0277  0.5159 -0.0346
 7036SOL    HW132741   2.391   0.822   8.275  1.7446 -0.4527  0.9796
 7036SOL    HW232742   2.473   0.764   8.165  0.4508  0.5787  0.8716
 7037SOL     OW32743   1.313   2.933   8.118 -0.6793 -0.6004  0.1498
 7037SOL    HW132744   1.241   2.965   8.062  0.5599 -1.0050 -1.6573
 7037SOL    HW232745   1.383   2.995   8.099 -1.1338  0.3611  1.6281
 7038SOL     OW32746   3.513   1.588   8.546  0.1333  0.6436  0.3026
 7038SOL    HW132747   3.519   1.610   8.453  0.6107  1.4923  0.5384
 7038SOL    HW232748   3.454   1.657   8.575 -0.6140  1.3141 -2.8765
 7039SOL     OW32749   0.322   2.218   8.879 -0.0316 -0.2207  0.0110
 7039SOL    HW132750   0.299   2.194   8.789  2.0773  2.5543 -1.2474
 7039SOL    HW232751   0.346   2.309   8.862 -2.1350  0.4192  0.4037
 7040SOL     OW32752   2.410   2.276   3.070  0.2033  0.2594  0.2928
 7040SOL    HW132753   2.493   2.232   3.092  0.3068 -0.4082 -1.4508
 7040SOL    HW232754   2.410   2.335   3.146 -3.2776  1.4736 -0.6856
 7041SOL     OW32755   3.177   0.739  10.416 -0.0866  0.6356  0.0294
 7041SOL    HW132756   3.218   0.715  10.499 -0.3281 -0.0467 -0.0502
 7041SOL    HW232757   3.116   0.666  10.403 -1.0670  1.4655 -0.1131
 7042SOL     OW32758   1.251   0.362   3.402  0.7502 -0.3041 -0.0679
 7042SOL    HW132759   1.175   0.385   3.455  1.7908  1.3549  0.7045
 7042SOL    HW232760   1.295   0.444   3.379 -0.5944  0.5253  0.3155
 7043SOL     OW32761   4.222   0.114   5.988 -0.1360  0.2290 -0.1646
 7043SOL    HW132762   4.315   0.123   6.011  0.0952 -0.5913 -0.7565
 7043SOL    HW232763   4.227   0.142   5.896  0.9648  0.3589 -0.0699
 7044SOL     OW32764   3.237   1.502  12.973 -0.3583  0.5801  0.7347
 7044SOL    HW132765   3.265   1.443  12.903  1.5982  1.5105  0.7458
 7044SOL    HW232766   3.311   1.514  13.032 -1.3850  1.3200  1.8813
 7045SOL     OW32767   3.727   3.506   6.439  0.0412  0.3652 -0.6021
 7045SOL    HW132768   3.728   3.600   6.453  1.6057  0.5770 -2.1003
 7045SOL    HW232769   3.780   3.503   6.360  0.3681 -0.7183 -0.3519
 7046SOL     OW32770   1.340   3.018   4.959 -0.1830 -0.3148 -0.4323
 7046SOL    HW132771   1.369   3.037   5.049 -2.1589  0.9847 -0.0592
 7046SOL    HW232772   1.380   2.932   4.951 -0.8386 -0.5187 -1.4745
 7047SOL     OW32773   0.026   2.359   6.566  0.6035 -0.4315  0.2190
 7047SOL    HW132774   0.038   2.378   6.473  0.5925  2.1828  0.7456
 7047SOL    HW232775   4.733   2.268   6.559 -0.0505 -0.4389  2.7042
 7048SOL     OW32776   2.585   0.590  16.097 -0.6286  0.2988  0.4414
 7048SOL    HW132777   2.523   0.629  16.159  0.1297 -0.1747  1.4968
 7048SOL    HW232778   2.629   0.668  16.061  0.8996 -0.1659  1.2986
 7049SOL     OW32779   2.165   0.659  17.734 -0.0749  0.3378  0.4139
 7049SOL    HW132780   2.156   0.563  17.738 -3.2185  0.6539  1.3544
 7049SOL    HW232781   2.145   0.665   0.089 -2.7862  0.7509 -0.1984
 7050SOL     OW32782   0.123   4.313   4.269  0.2483 -0.4121  0.2958
 7050SOL    HW132783   0.207   4.318   4.313 -0.3113  2.5581  1.0481
 7050SOL    HW232784   0.112   4.400   4.230 -0.1325 -1.5294 -2.1237
 7051SOL     OW32785   2.312   1.777  14.882 -0.1214 -0.1221 -0.1160
 7051SOL    HW132786   2.321   1.695  14.930 -0.2102  1.0497  1.9041
 7051SOL    HW232787   2.266   1.836  14.942 -1.0948 -2.2274  1.1823
 7052SOL     OW32788   4.628   4.403   3.696 -0.2266 -0.3696  0.0446
 7052SOL    HW132789   4.622   4.498   3.689 -1.8131 -0.5602 -1.1889
 7052SOL    HW232790   4.693   4.386   3.764  0.8891  0.8901 -0.7161
 7053SOL     OW32791   4.487   0.723  16.892  0.0306 -0.3187  0.3838
 7053SOL    HW132792   4.400   0.748  16.861  0.1863  1.1523  1.0914
 7053SOL    HW232793   4.548   0.762  16.828 -0.3127 -0.3324  0.0499
 7054SOL     OW32794   1.016   3.576  15.400  0.1229  0.2115  0.2598
 7054SOL    HW132795   1.107   3.552  15.416 -0.1138 -0.0776  1.1303
 7054SOL    HW232796   1.025   3.668  15.373  0.6168 -0.1039 -0.6297
 7055SOL     OW32797   4.530   0.926   7.072 -0.5574 -0.0229 -0.4648
 7055SOL    HW132798   4.595   0.929   7.002 -1.1472 -1.2635 -1.0670
 7055SOL    HW232799   4.565   0.858   7.130  1.4731  0.7745 -0.7542
 7056SOL     OW32800   2.774   3.075  16.500  0.2107  0.1302 -0.4936
 7056SOL    HW132801   2.712   3.146  16.482  0.1728  0.1401 -0.3275
 7056SOL    HW232802   2.819   3.072  16.416 -0.1685  1.4492 -0.7502
 7057SOL     OW32803   2.516   1.608  14.649 -0.1838  0.5228  0.2509
 7057SOL    HW132804   2.460   1.548  14.698  1.2219 -1.2988 -0.3564
 7057SOL    HW232805   2.513   1.561  14.565 -1.3867  2.8816 -1.0389
 7058SOL     OW32806   0.739   1.881   9.142  0.1699 -0.3968  0.3666
 7058SOL    HW132807   0.663   1.875   9.085 -0.4049  3.4147  0.7449
 7058SOL    HW232808   0.747   1.973   9.167  4.4731 -0.1258 -2.0372
 7059SOL     OW32809   0.534   1.265   3.239 -0.0372 -0.1994 -0.3443
 7059SOL    HW132810   0.507   1.329   3.304 -0.2486 -2.4557  1.7729
 7059SOL    HW232811   0.513   1.311   3.157  2.0931  1.3254 -0.0185
 7060SOL     OW32812   3.123   3.146   5.484  0.2145 -0.2665 -0.1409
 7060SOL    HW132813   3.137   3.126   5.577 -1.4883  0.4765  0.2810
 7060SOL    HW232814   3.163   3.232   5.473 -1.6167  0.7409  1.2255
 7061SOL     OW32815   3.537   2.550   9.247  0.3657  0.3182  0.3648
 7061SOL    HW132816   3.551   2.461   9.278  0.6941  0.8842  1.8557
 7061SOL    HW232817   3.511   2.595   9.328  0.0395 -0.6989  0.8161
 7062SOL     OW32818   3.927   1.771   2.337  0.6148 -0.3927 -0.4150
 7062SOL    HW132819   3.878   1.704   2.385 -2.2812  0.3667 -2.3324
 7062SOL    HW232820   3.879   1.851   2.359  3.3262  0.1952  3.2872
 7063SOL     OW32821   0.241   1.073   3.357 -0.1311  0.7701 -0.2309
 7063SOL    HW132822   0.242   1.022   3.276  1.5998 -0.7906  0.7803
 7063SOL    HW232823   0.239   1.165   3.332 -2.6571  1.1710  1.5237
 7064SOL     OW32824   1.476   2.401   0.078 -0.4547  0.1797 -0.3435
 7064SOL    HW132825   1.433   2.349   0.010 -0.8536  1.0800 -0.7760
 7064SOL    HW232826   1.498   2.337   0.146 -0.8953  0.2815 -0.1122
 7065SOL     OW32827   1.208   0.641   1.735  0.6137 -0.6827  0.3515
 7065SOL    HW132828   1.227   0.604   1.650  1.6193  0.4856  0.0676
 7065SOL    HW232829   1.211   0.565   1.793  0.8125 -0.5940  0.4561
 7066SOL     OW32830   3.248   1.944   3.442  0.1618  0.0625  0.7577
 7066SOL    HW132831   3.293   1.961   3.359 -0.5993 -2.8330 -0.2725
 7066SOL    HW232832   3.321   1.907   3.491  2.1451  1.0237 -1.4272
 7067SOL     OW32833   2.653   3.579   8.576  0.1932  0.3385 -0.4984
 7067SOL    HW132834   2.585   3.636   8.539  3.1217  3.2806 -1.3962
 7067SOL    HW232835   2.735   3.625   8.555  0.5644 -0.1491 -0.1133
 7068SOL     OW32836   4.455   4.505   2.908 -0.4612 -0.0942  0.3660
 7068SOL    HW132837   4.476   4.569   2.841 -1.8123  2.3250  2.2727
 7068SOL    HW232838   4.541   4.474   2.937 -0.0483  1.3296  0.6620
 7069SOL     OW32839   4.358   1.980   7.172  0.3856  0.4549 -0.1604
 7069SOL    HW132840   4.404   1.910   7.126 -2.3342 -1.8273  0.5815
 7069SOL    HW232841   4.265   1.961   7.159  0.8471 -1.5777 -0.4811
 7070SOL     OW32842   3.717   2.648   8.857 -0.3162  0.1863  0.2769
 7070SOL    HW132843   3.660   2.682   8.926  0.0307 -2.1971  1.7372
 7070SOL    HW232844   3.759   2.570   8.893  0.6217  0.6884  0.2848
 7071SOL     OW32845   4.603   1.527   4.559 -0.4245 -0.1974  0.4670
 7071SOL    HW132846   4.629   1.445   4.516  0.2523  0.8093 -1.0181
 7071SOL    HW232847   4.594   1.594   4.491  2.3242  0.5148  0.8423
 7072SOL     OW32848   3.110   0.617   7.485  0.1493  0.1214  0.3211
 7072SOL    HW132849   3.043   0.552   7.469  0.0659  0.4960 -0.8146
 7072SOL    HW232850   3.128   0.651   7.397  0.7980  0.5184  0.5995
 7073SOL     OW32851   3.300   4.286   3.955  0.4908  0.3766  0.7329
 7073SOL    HW132852   3.256   4.281   3.870  2.6659  1.2477 -0.4454
 7073SOL    HW232853   3.291   4.199   3.994 -0.0377 -0.6259 -1.6086
 7074SOL     OW32854   1.376   3.306   3.690  0.0737 -0.1536  0.1807
 7074SOL    HW132855   1.468   3.300   3.715 -0.3786  2.2634  2.5227
 7074SOL    HW232856   1.364   3.400   3.701 -1.8071 -0.6035  2.0866
 7075SOL     OW32857   0.496   3.625   4.946  0.1250  0.3180 -0.1069
 7075SOL    HW132858   0.502   3.658   5.036  1.4866 -0.1073 -0.0404
 7075SOL    HW232859   0.406   3.648   4.926  0.2810  1.4012  0.4398
 7076SOL     OW32860   1.213   4.435  11.751 -0.4387 -0.1425  0.4217
 7076SOL    HW132861   1.153   4.421  11.825 -0.9114 -3.4811 -0.5998
 7076SOL    HW232862   1.199   4.529  11.743 -0.9943 -0.2973 -0.3895
 7077SOL     OW32863   0.183   4.049   8.589  0.8394  0.0758  0.6775
 7077SOL    HW132864   0.169   4.144   8.599  1.2006  0.0779  1.1460
 7077SOL    HW232865   0.204   4.047   8.496 -2.4776 -2.3292 -0.0464
 7078SOL     OW32866   0.686   2.744   8.294 -0.2738  0.0929  0.6584
 7078SOL    HW132867   0.703   2.774   8.383 -0.2991 -0.6860  0.9273
 7078SOL    HW232868   0.653   2.820   8.247  0.4072  0.7516  1.2498
 7079SOL     OW32869   0.921   1.976   5.468  0.0396  0.5127  0.2511
 7079SOL    HW132870   0.888   1.948   5.554 -1.1287  2.8525  0.5508
 7079SOL    HW232871   0.967   2.056   5.493  0.3135  0.7778 -1.1483
 7080SOL     OW32872   4.704   0.968   6.790 -0.2165  0.2701 -0.5963
 7080SOL    HW132873   4.716   0.989   6.697  0.3661 -3.1735 -1.3051
 7080SOL    HW232874   4.728   0.876   6.779 -1.4961 -0.0766 -0.5306
 7081SOL     OW32875   2.471   1.669   4.501  0.4771 -0.2355 -0.2103
 7081SOL    HW132876   2.436   1.583   4.478  1.6116 -0.0819 -2.5690
 7081SOL    HW232877   2.464   1.713   4.416 -1.5654 -2.6461 -1.3081
 7082SOL     OW32878   3.395   3.390   6.081  0.0462 -0.0643 -0.1740
 7082SOL    HW132879   3.443   3.352   6.007  0.1641 -1.2212  0.5072
 7082SOL    HW232880   3.428   3.335   6.152  0.7768 -0.3207 -0.7077
 7083SOL     OW32881   3.061   3.796   8.989  0.5793  0.2406  0.1731
 7083SOL    HW132882   3.074   3.751   9.072 -0.1678 -1.4408 -0.6322
 7083SOL    HW232883   2.973   3.834   8.989  0.1734 -0.6997 -1.2067
 7084SOL     OW32884   3.202   1.054  14.903 -0.1932  0.1978  0.1758
 7084SOL    HW132885   3.138   1.006  14.955 -0.0108 -0.6315 -0.3568
 7084SOL    HW232886   3.156   1.040  14.820 -0.3390 -1.5807  0.5491
 7085SOL     OW32887   1.677   2.103   0.041  0.0832 -0.3447 -0.1058
 7085SOL    HW132888   1.766   2.137   0.031 -0.0619  0.1593  0.2857
 7085SOL    HW232889   1.696   2.017   0.079 -1.2571 -0.0027  1.3222
 7086SOL     OW32890   4.618   0.496   2.051 -0.4520 -0.1677  0.3011
 7086SOL    HW132891   4.601   0.535   1.966 -0.0835  1.0563  0.7875
 7086SOL    HW232892   4.658   0.575   2.087 -0.1071 -0.8681  1.4604
 7087SOL     OW32893   4.046   2.856   3.970  0.6885  0.0303  0.6379
 7087SOL    HW132894   3.977   2.792   3.955 -1.1746  1.9221  1.1474
 7087SOL    HW232895   4.124   2.822   3.926  2.3906  2.1360  2.0429
 7088SOL     OW32896   1.901   0.403   9.872 -0.4359  0.1824  0.4249
 7088SOL    HW132897   1.810   0.426   9.853  0.0807  0.7596 -1.4039
 7088SOL    HW232898   1.896   0.377   9.964 -1.9745 -0.5595  0.1322
 7089SOL     OW32899   1.454   3.743   2.551  0.2409  0.1728 -0.1330
 7089SOL    HW132900   1.436   3.832   2.521 -3.1202 -0.1455  0.9562
 7089SOL    HW232901   1.417   3.694   2.478  1.0001 -2.0398  0.9525
 7090SOL     OW32902   2.170   3.798  12.410  0.2758 -0.1440 -0.1450
 7090SOL    HW132903   2.131   3.773  12.326 -1.6747 -1.2086  1.1108
 7090SOL    HW232904   2.262   3.818  12.392  0.1793 -0.2560 -0.7905
 7091SOL     OW32905   1.407   4.487   3.980  0.3781  0.2917 -0.1342
 7091SOL    HW132906   1.387   4.545   4.053 -3.1639  1.3739 -1.9843
 7091SOL    HW232907   1.438   4.406   4.020  2.0097  0.3281 -1.2977
 7092SOL     OW32908   3.070   3.597   6.494  0.2701  0.0032 -0.3105
 7092SOL    HW132909   3.000   3.547   6.451  0.7652  1.0298 -2.3270
 7092SOL    HW232910   3.050   3.602   6.587 -0.3589 -0.1998 -0.4285
 7093SOL     OW32911   4.101   3.668   8.819 -0.1317 -0.2286 -0.0764
 7093SOL    HW132912   4.189   3.695   8.792  0.1473 -1.6824 -0.6304
 7093SOL    HW232913   4.087   3.732   8.888 -1.7849 -0.3520 -0.2955
 7094SOL     OW32914   2.195   3.200  15.713 -0.1714 -0.1461 -0.6395
 7094SOL    HW132915   2.130   3.186  15.644  0.7194 -2.3534 -1.0482
 7094SOL    HW232916   2.156   3.174  15.796  2.4896  0.1536  0.7112
 7095SOL     OW32917   2.332   0.579   2.698 -0.2311 -0.3672 -0.3826
 7095SOL    HW132918   2.285   0.604   2.778 -0.8802 -0.8596 -0.6088
 7095SOL    HW232919   2.417   0.582   2.741 -0.8622  0.5532  0.7974
 7096SOL     OW32920   3.475   1.672  15.038  0.1055  0.5179 -0.0421
 7096SOL    HW132921   3.431   1.691  15.121  3.2694  1.5554  1.4233
 7096SOL    HW232922   3.559   1.629  15.057  0.9955  2.5763  0.6283
 7097SOL     OW32923   1.971   0.815   7.800 -0.0777 -0.1867 -0.1815
 7097SOL    HW132924   1.923   0.732   7.798 -0.6701  0.2462 -3.4542
 7097SOL    HW232925   1.917   0.877   7.850  0.8198  0.3663  0.1020
 7098SOL     OW32926   0.471   0.481   6.897 -0.6115  0.2488  0.1473
 7098SOL    HW132927   0.439   0.400   6.937 -1.6399  0.2873 -0.5779
 7098SOL    HW232928   0.524   0.459   6.820 -1.1050  1.1394 -0.4489
 7099SOL     OW32929   1.656   2.602   3.088  0.2215  0.5128  0.5238
 7099SOL    HW132930   1.586   2.608   3.153 -0.5493  2.0107 -0.4367
 7099SOL    HW232931   1.610   2.600   3.004 -0.5040 -1.8628  0.9811
 7100SOL     OW32932   0.403   3.602   4.554  0.2236 -0.3564 -0.0678
 7100SOL    HW132933   0.355   3.671   4.599  0.4920  0.6261 -1.3092
 7100SOL    HW232934   0.368   3.525   4.600 -0.4824  1.3274  2.2173
 7101SOL     OW32935   0.364   0.843   5.428 -0.3094  0.1953  0.1981
 7101SOL    HW132936   0.326   0.801   5.351  3.0587  0.8447 -1.8441
 7101SOL    HW232937   0.290   0.888   5.468 -0.6832  1.2961 -1.7252
 7102SOL     OW32938   0.558   0.023   4.221 -0.6791  0.0136  0.2548
 7102SOL    HW132939   0.513   0.105   4.242  2.4401  1.3198  1.7511
 7102SOL    HW232940   0.614   0.049   4.148  1.1713 -0.4532  1.5148
 7103SOL     OW32941   3.734   2.526   4.558  0.2538  0.4298  0.0928
 7103SOL    HW132942   3.680   2.555   4.631  0.9154  0.7243  0.4576
 7103SOL    HW232943   3.792   2.469   4.607 -0.3710  0.2210  0.5841
 7104SOL     OW32944   1.629   3.726   8.126 -0.0094 -0.5856 -0.1926
 7104SOL    HW132945   1.723   3.721   8.106  0.1126 -1.8969  0.6413
 7104SOL    HW232946   1.614   3.820   8.123 -2.2468 -0.9069  0.7112
 7105SOL     OW32947   3.783   2.156  12.635 -0.3362  0.4270 -0.1520
 7105SOL    HW132948   3.763   2.063  12.624  0.4909 -0.0053  1.9341
 7105SOL    HW232949   3.708   2.187  12.685  1.3990  0.4181  2.4676
 7106SOL     OW32950   4.089   3.254   9.175 -0.7110  0.1008  0.1020
 7106SOL    HW132951   4.143   3.330   9.152  0.1519 -1.2831 -2.3699
 7106SOL    HW232952   4.083   3.205   9.093 -0.9908 -0.2528  0.3318
 7107SOL     OW32953   4.261   3.449   3.873 -0.5239  0.0132 -0.6549
 7107SOL    HW132954   4.303   3.385   3.815 -1.3690  2.2632 -3.7286
 7107SOL    HW232955   4.254   3.533   3.828  2.2919  0.4574 -0.2340
 7108SOL     OW32956   3.019   1.335  15.050 -0.0626  0.0242  0.1795
 7108SOL    HW132957   3.021   1.343  15.146 -0.4046 -1.8004  0.3332
 7108SOL    HW232958   3.101   1.374  15.020  0.8334 -1.3846  0.7783
 7109SOL     OW32959   3.700   0.961  10.351 -0.3760 -0.4146  0.7005
 7109SOL    HW132960   3.756   0.956  10.274  0.5065 -0.0427  1.3101
 7109SOL    HW232961   3.769   0.973  10.417 -1.3224 -1.8881  1.9641
 7110SOL     OW32962   1.905   3.523   7.156  0.2254  0.0758  0.6175
 7110SOL    HW132963   1.872   3.611   7.173  0.2082  0.1109  0.4095
 7110SOL    HW232964   1.972   3.525   7.224  0.7557  2.6454  0.0468
 7111SOL     OW32965   0.918   4.191  11.639  0.5962  0.7393  0.2606
 7111SOL    HW132966   0.950   4.282  11.644 -0.8993  1.2932 -0.3230
 7111SOL    HW232967   0.908   4.181  11.545 -1.0029 -0.4596  0.5739
 7112SOL     OW32968   1.055   2.331   7.424  0.0715  0.0956 -0.2019
 7112SOL    HW132969   1.110   2.253   7.409 -0.7976 -0.7427  1.0131
 7112SOL    HW232970   1.019   2.301   7.507  2.6469  1.5701  1.4371
 7113SOL     OW32971   3.664   1.704   4.379  0.3910 -0.1311  0.4808
 7113SOL    HW132972   3.570   1.698   4.358 -0.2104  2.6323  2.3961
 7113SOL    HW232973   3.697   1.761   4.310  2.0328 -1.3252  0.2971
 7114SOL     OW32974   3.925   1.192   1.302 -0.3152  0.2367  0.5634
 7114SOL    HW132975   3.941   1.097   1.299 -0.2679  0.2410  0.6772
 7114SOL    HW232976   3.986   1.225   1.236 -1.4444 -1.8403 -1.5048
 7115SOL     OW32977   1.848   1.925   0.926  0.0647 -0.2541  0.5912
 7115SOL    HW132978   1.900   1.904   1.004 -0.4120 -0.2496  0.9064
 7115SOL    HW232979   1.789   1.849   0.925  0.2237 -0.3906  1.3929
 7116SOL     OW32980   0.573   4.312  16.563 -0.6228  0.0306 -0.1129
 7116SOL    HW132981   0.519   4.307  16.642  0.3056 -0.5648  0.4832
 7116SOL    HW232982   0.628   4.384  16.591 -0.7009  0.5758 -1.3302
 7117SOL     OW32983   1.326   4.287   8.028 -0.5636 -0.1282 -0.5241
 7117SOL    HW132984   1.374   4.370   8.023  2.7196 -1.9040  0.8919
 7117SOL    HW232985   1.308   4.267   8.120  1.3797  0.2910 -0.0536
 7118SOL     OW32986   2.116   1.738   6.259  0.7782  0.2782 -0.3077
 7118SOL    HW132987   2.047   1.783   6.307 -0.7431 -0.3864 -1.8722
 7118SOL    HW232988   2.177   1.718   6.330  1.3370 -0.8963 -1.1321
 7119SOL     OW32989   0.997   2.498   2.039 -0.0722  0.2587  0.0734
 7119SOL    HW132990   1.040   2.563   2.094  0.7212 -0.3501  0.1639
 7119SOL    HW232991   0.907   2.522   2.063 -0.3095  1.2315 -1.7280
 7120SOL     OW32992   2.240   1.519  16.640  1.0726  0.1649  0.4330
 7120SOL    HW132993   2.198   1.467  16.571  0.8349 -0.9195  1.4010
 7120SOL    HW232994   2.181   1.496  16.712 -0.2464 -0.1244 -0.7347
 7121SOL     OW32995   1.276   2.315  13.023  0.2725 -0.3182  0.5757
 7121SOL    HW132996   1.235   2.375  12.961 -0.7729  0.2547  1.8047
 7121SOL    HW232997   1.359   2.294  12.981 -0.0852  1.0927 -0.8218
 7122SOL     OW32998   0.467   4.680   6.150 -0.4581 -0.2793 -0.6218
 7122SOL    HW132999   0.500   4.708   6.235 -0.9437 -0.2056 -0.4576
 7122SOL    HW233000   0.439   4.592   6.173  2.4967 -1.6512 -2.2534
 7123SOL     OW33001   2.489   1.530   3.101  0.3429  0.0565 -0.1511
 7123SOL    HW133002   2.489   1.625   3.090  0.7635  0.1029  0.2294
 7123SOL    HW233003   2.570   1.503   3.058 -0.4911 -0.3298 -1.4965
 7124SOL     OW33004   1.951   2.151   8.685  0.5008 -0.7584 -0.6341
 7124SOL    HW133005   1.913   2.217   8.627  0.4662  1.1666  1.5675
 7124SOL    HW233006   1.878   2.142   8.746  0.5445 -0.8201 -0.5906
 7125SOL     OW33007   1.651   2.799   0.535 -0.3200  0.0858 -0.3951
 7125SOL    HW133008   1.560   2.810   0.564  0.1327 -1.1347  1.5134
 7125SOL    HW233009   1.704   2.854   0.593  0.6239 -2.5753  1.2909
 7126SOL     OW33010   4.245   3.562   4.776 -0.1857  0.0612 -0.9782
 7126SOL    HW133011   4.311   3.524   4.719  1.3544  1.1883  0.0607
 7126SOL    HW233012   4.301   3.614   4.833 -0.2922  0.2186 -1.0185
 7127SOL     OW33013   2.266   4.501   9.834  0.2030  0.3461  0.1069
 7127SOL    HW133014   2.201   4.444   9.875  1.7009  0.0990  2.2121
 7127SOL    HW233015   2.303   4.448   9.763  0.2985  1.0198 -0.3456
 7128SOL     OW33016   1.597   0.683   0.886 -0.5876  0.0138 -0.3004
 7128SOL    HW133017   1.610   0.597   0.927 -1.4532  1.2186  2.5151
 7128SOL    HW233018   1.645   0.744   0.942  2.2938 -1.9201 -0.6651
 7129SOL     OW33019   3.141   3.438   0.406  0.0576  0.0713  0.6578
 7129SOL    HW133020   3.124   3.384   0.483  3.3369 -0.9272  0.6443
 7129SOL    HW233021   3.234   3.423   0.393 -0.4269 -2.0698 -0.3806
 7130SOL     OW33022   4.662   0.444  16.678  0.4334 -0.2933 -0.2439
 7130SOL    HW133023   0.020   0.441  16.705 -0.0337  0.3871  1.4849
 7130SOL    HW233024   4.630   0.364  16.722 -1.1784  0.3898 -0.1842
 7131SOL     OW33025   0.572   0.393   6.251 -0.4774  0.1645 -0.5054
 7131SOL    HW133026   0.549   0.409   6.160 -0.1436  0.1789 -0.5855
 7131SOL    HW233027   0.623   0.313   6.242 -3.6229 -1.5982 -2.9283
 7132SOL     OW33028   4.329   4.497   8.691 -0.4356 -0.4926  0.4508
 7132SOL    HW133029   4.310   4.450   8.772 -3.4891  0.8369  0.5083
 7132SOL    HW233030   4.359   4.584   8.715 -1.4994  0.5360 -1.9892
 7133SOL     OW33031   0.010   0.259   6.137  0.2090  0.3504 -0.3171
 7133SOL    HW133032   0.011   0.296   6.225  0.5913 -1.8461  0.6054
 7133SOL    HW233033   0.078   0.192   6.145  0.6963  0.8969  0.0990
 7134SOL     OW33034   2.945   4.208   4.321  0.1722 -0.6078  0.2188
 7134SOL    HW133035   2.932   4.272   4.251  0.9691  1.1470  1.6675
 7134SOL    HW233036   3.040   4.212   4.331  0.1676 -3.5034  1.3535
 7135SOL     OW33037   4.287   2.728   9.018  0.2403 -0.0082 -0.1824
 7135SOL    HW133038   4.231   2.695   9.088  2.8910  0.1987  2.0340
 7135SOL    HW233039   4.291   2.820   9.042 -2.0261  0.1415 -0.4201
 7136SOL     OW33040   0.986   0.529   1.149  0.1329 -0.0410  0.2420
 7136SOL    HW133041   0.991   0.450   1.095  2.0265 -0.7683  1.4611
 7136SOL    HW233042   0.927   0.494   1.215 -0.4072  0.7712  0.1927
 7137SOL     OW33043   0.499   3.120  15.045  0.5387 -0.0399 -0.2657
 7137SOL    HW133044   0.451   3.095  14.966 -0.3798 -1.1842  0.6464
 7137SOL    HW233045   0.459   3.203  15.072 -1.5427 -1.6591  1.6355
 7138SOL     OW33046   3.545   1.196   1.047 -0.2045 -0.9089  0.6758
 7138SOL    HW133047   3.638   1.214   1.046 -0.0075 -1.7274  2.8803
 7138SOL    HW233048   3.504   1.242   0.974  0.7756  0.3011  0.9052
 7139SOL     OW33049   0.351   0.624  16.361  0.0545  0.0548  0.2206
 7139SOL    HW133050   0.295   0.588  16.293  0.0287  0.0032  0.2692
 7139SOL    HW233051   0.395   0.686  16.303 -0.0534 -1.7107 -1.7656
 7140SOL     OW33052   2.532   3.718   5.557  0.0656 -0.1268  0.6367
 7140SOL    HW133053   2.558   3.734   5.467 -2.2752  2.5247  0.4664
 7140SOL    HW233054   2.556   3.625   5.566  0.5832 -0.0142  0.4346
 7141SOL     OW33055   2.003   1.464  17.453 -0.2147 -0.2053 -0.4181
 7141SOL    HW133056   1.934   1.447  17.389 -0.1403 -0.3924 -0.4497
 7141SOL    HW233057   2.081   1.445  17.400 -0.5872 -0.7716 -0.7670
 7142SOL     OW33058   0.741   1.437  13.272 -0.2235  0.1014  0.0995
 7142SOL    HW133059   0.658   1.410  13.309  1.5435 -1.1575  3.1355
 7142SOL    HW233060   0.793   1.357  13.270  0.1444  0.3481 -0.5491
 7143SOL     OW33061   2.726   3.168  17.428 -0.5267  0.7453 -0.4202
 7143SOL    HW133062   2.784   3.173  17.353  1.1993  1.2808  0.9509
 7143SOL    HW233063   2.705   3.262  17.429 -0.7285  0.6951  0.9953
 7144SOL     OW33064   4.268   2.004   6.809 -0.5741  0.1925 -0.1682
 7144SOL    HW133065   4.236   1.916   6.788  0.2208 -0.7079  2.4925
 7144SOL    HW233066   4.200   2.024   6.874 -1.1701 -1.2520 -0.3477
 7145SOL     OW33067   2.258   0.805   2.874 -0.2155  0.1343 -0.2402
 7145SOL    HW133068   2.248   0.832   2.965 -1.0718 -0.9473 -0.0202
 7145SOL    HW233069   2.182   0.855   2.845 -0.6325  1.1709  2.6548
 7146SOL     OW33070   2.713   3.738   7.559  0.5829 -0.3511 -0.3714
 7146SOL    HW133071   2.675   3.689   7.487  2.9287 -0.7918 -1.3323
 7146SOL    HW233072   2.792   3.683   7.567  0.8910 -0.0387 -1.2391
 7147SOL     OW33073   3.733   1.358  12.857  0.0695 -0.2720 -0.5982
 7147SOL    HW133074   3.714   1.393  12.769  0.0719 -1.0001 -0.8849
 7147SOL    HW233075   3.649   1.352  12.902  1.5572 -0.0620  2.1911
 7148SOL     OW33076   1.581   0.115   7.297 -0.1208 -0.4861 -0.0852
 7148SOL    HW133077   1.509   0.058   7.320 -0.8611 -0.2426 -1.8030
 7148SOL    HW233078   1.537   0.175   7.237 -2.8468 -0.5422  1.8923
 7149SOL     OW33079   2.395   4.224   7.696  0.1765 -0.3157  0.0846
 7149SOL    HW133080   2.411   4.310   7.658 -1.4451  0.0131  0.1285
 7149SOL    HW233081   2.440   4.172   7.629 -1.1816  0.4848 -1.4531
 7150SOL     OW33082   1.521   4.320   7.510  0.0014  0.5849 -0.5679
 7150SOL    HW133083   1.450   4.324   7.573 -1.3163 -0.6015 -1.9635
 7150SOL    HW233084   1.593   4.343   7.569 -1.1517 -0.7146  1.3178
 7151SOL     OW33085   1.284   2.236   7.656  0.1096  0.9421  0.6857
 7151SOL    HW133086   1.309   2.157   7.703  1.3330  1.3470  0.6946
 7151SOL    HW233087   1.290   2.207   7.565  1.5906  0.4351  0.9558
 7152SOL     OW33088   4.688   1.866  13.811 -0.3176  0.5143 -0.2156
 7152SOL    HW133089   4.624   1.922  13.766  0.8744  1.4406 -0.7685
 7152SOL    HW233090   4.730   1.929  13.869  0.7079 -0.0868 -0.3012
 7153SOL     OW33091   4.655   4.367   3.034  0.6943  0.1538  0.4426
 7153SOL    HW133092   4.637   4.280   3.068  0.1121 -1.0293 -2.8766
 7153SOL    HW233093   4.719   4.393   3.100  0.6138  1.3681  0.0381
 7154SOL     OW33094   0.984   3.244   5.456 -0.0705  0.0742 -0.1186
 7154SOL    HW133095   0.950   3.277   5.373  1.1888 -2.9090 -1.7860
 7154SOL    HW233096   0.973   3.151   5.436  0.6268 -0.3789  1.6172
 7155SOL     OW33097   4.274   0.433   8.034  0.0052  0.2699  0.6913
 7155SOL    HW133098   4.240   0.382   7.961  1.6635  0.3815 -0.1488
 7155SOL    HW233099   4.235   0.519   8.017 -3.3184 -1.7088 -1.4587
 7156SOL     OW33100   4.557   2.376   2.215  0.1213 -0.1746  0.0461
 7156SOL    HW133101   4.508   2.418   2.145 -1.0138 -3.1928 -0.9874
 7156SOL    HW233102   4.561   2.282   2.196  0.3576 -0.3069  0.7759
 7157SOL     OW33103   2.426   2.929  15.267  0.1583 -0.1530  0.1281
 7157SOL    HW133104   2.358   2.968  15.212 -0.1710 -0.7307  0.1245
 7157SOL    HW233105   2.443   2.849  15.217 -0.7798  1.3546 -2.6116
 7158SOL     OW33106   2.804   0.349   8.226 -0.1024 -0.0644  0.3845
 7158SOL    HW133107   2.802   0.443   8.245  1.0410 -0.4752  2.4672
 7158SOL    HW233108   2.893   0.334   8.193 -0.1042  1.7098 -0.4364
 7159SOL     OW33109   4.583   0.575  16.077 -0.0634 -0.4054  0.2938
 7159SOL    HW133110   4.622   0.662  16.083 -0.5033 -0.3115  1.9010
 7159SOL    HW233111   4.622   0.556  15.992  1.7569 -0.6568  1.1642
 7160SOL     OW33112   4.181   1.572   9.034  0.1884 -0.2434 -0.2493
 7160SOL    HW133113   4.213   1.591   8.946 -0.4873  0.0733 -0.4253
 7160SOL    HW233114   4.258   1.592   9.088  1.1070 -1.0968 -1.2230
 7161SOL     OW33115   0.032   3.961  10.250 -0.4257  0.3399  0.2526
 7161SOL    HW133116   0.101   3.935  10.310 -0.0412  0.4734 -0.1331
 7161SOL    HW233117   0.046   3.890  10.188 -0.3238 -0.6797  1.4452
 7162SOL     OW33118   3.464   2.886   6.828  0.0360  0.0661  0.0005
 7162SOL    HW133119   3.404   2.815   6.806  1.4993 -0.9448 -0.7816
 7162SOL    HW233120   3.401   2.955   6.809 -2.3180 -2.5481 -1.7446
 7163SOL     OW33121   3.279   1.024   3.036 -0.0638 -0.2994  0.6097
 7163SOL    HW133122   3.302   1.116   3.048 -0.2404 -0.1382 -0.2711
 7163SOL    HW233123   3.212   1.006   3.102 -1.9959  0.1388 -1.2362
 7164SOL     OW33124   4.639   1.582   6.367  0.7565  0.0598  0.3582
 7164SOL    HW133125   4.712   1.550   6.315 -0.0278  0.3343 -0.9262
 7164SOL    HW233126   4.670   1.667   6.399 -1.6914  1.1294 -0.0318
 7165SOL     OW33127   0.368   1.159   9.309  0.2515 -0.1509 -0.2854
 7165SOL    HW133128   0.332   1.186   9.393 -0.1714  2.9541 -1.4763
 7165SOL    HW233129   0.408   1.240   9.279 -1.6998  0.8170 -0.2533
 7166SOL     OW33130   0.230   0.706  11.599 -0.2430 -0.0701 -0.1272
 7166SOL    HW133131   0.137   0.726  11.587 -0.7926 -1.9163  0.9745
 7166SOL    HW233132   0.232   0.656  11.680  0.2319 -2.0418 -1.3580
 7167SOL     OW33133   4.216   4.003   9.075 -0.7591 -0.5064 -0.2992
 7167SOL    HW133134   4.226   3.989   8.981  1.8905 -0.6389 -0.0075
 7167SOL    HW233135   4.287   4.066   9.085  0.8474 -2.6870  2.0244
 7168SOL     OW33136   0.277   3.040  10.368  0.5896  0.1689  0.7289
 7168SOL    HW133137   0.228   2.982  10.310  0.3399  2.0357 -0.9606
 7168SOL    HW233138   0.303   2.985  10.441  0.8703  0.4292  0.8276
 7169SOL     OW33139   1.472   4.618  16.995 -0.3802 -0.5552  0.4158
 7169SOL    HW133140   1.463   4.712  17.014 -0.7708 -0.1784 -1.6287
 7169SOL    HW233141   1.451   4.611  16.902  0.9836  0.5521  0.0181
 7170SOL     OW33142   4.073   0.081   3.838  0.9149 -0.1621 -0.5210
 7170SOL    HW133143   4.008   0.150   3.832 -0.7725 -1.9142 -2.1488
 7170SOL    HW233144   4.101   0.104   3.927 -0.6610  0.7872 -0.2727
 7171SOL     OW33145   1.751   1.908   5.209  0.7507  0.0535  0.1040
 7171SOL    HW133146   1.661   1.883   5.187  1.5929  0.2072 -3.5361
 7171SOL    HW233147   1.736   2.001   5.192  1.4681  0.4620  1.7447
 7172SOL     OW33148   3.502   1.011  17.234  0.2368 -0.0526  0.0903
 7172SOL    HW133149   3.426   1.059  17.266  1.7451  1.0225  2.0425
 7172SOL    HW233150   3.463   0.968  17.158 -1.0726  0.1086  0.6791
 7173SOL     OW33151   0.380   3.693   9.975  0.1315 -0.0748 -0.2385
 7173SOL    HW133152   0.453   3.730  10.026 -1.0730  0.7780  0.8809
 7173SOL    HW233153   0.401   3.600   9.976 -2.3311 -0.6381 -0.7947
 7174SOL     OW33154   4.263   2.484   7.817 -0.2939 -0.4750 -0.3110
 7174SOL    HW133155   4.198   2.419   7.845  0.0857 -0.5027  0.5322
 7174SOL    HW233156   4.337   2.457   7.872 -0.8564 -2.9037 -0.7647
 7175SOL     OW33157   1.932   3.853   8.914  0.0846 -0.2146 -0.0256
 7175SOL    HW133158   1.885   3.925   8.956  0.7265  0.0384  0.2576
 7175SOL    HW233159   2.021   3.880   8.936 -0.1684 -0.2433  1.0617
 7176SOL     OW33160   3.659   0.051  14.348  0.1743  0.0761  0.1709
 7176SOL    HW133161   3.729   4.734  14.309 -0.6389 -1.3397  0.5877
 7176SOL    HW233162   3.684   0.139  14.320  4.5278 -1.0524  0.4966
 7177SOL     OW33163   2.164   0.386   6.076 -0.3673  0.6090 -0.2907
 7177SOL    HW133164   2.123   0.472   6.083 -0.7084  0.5103 -1.1771
 7177SOL    HW233165   2.128   0.350   5.995  2.3778 -1.6704 -0.5004
 7178SOL     OW33166   4.228   1.222   3.611 -0.2034  0.1745 -0.0531
 7178SOL    HW133167   4.309   1.224   3.560  0.0433 -0.8422  0.2920
 7178SOL    HW233168   4.245   1.151   3.673  2.3444 -0.3281 -1.3022
 7179SOL     OW33169   3.356   2.331   7.177 -0.3136  0.5402 -0.0507
 7179SOL    HW133170   3.281   2.273   7.193  1.2281 -1.0868  1.3342
 7179SOL    HW233171   3.358   2.363   7.267  0.6489  1.8090 -0.5205
 7180SOL     OW33172   2.588   0.629  12.897 -0.0204  0.2577  0.1838
 7180SOL    HW133173   2.583   0.645  12.803 -0.2417  0.8500  0.3023
 7180SOL    HW233174   2.506   0.580  12.910  0.6639 -1.1243 -0.6629
 7181SOL     OW33175   1.071   1.122   6.820  0.7412  0.4245  0.5145
 7181SOL    HW133176   1.055   1.139   6.913  0.8335  2.4852  0.1582
 7181SOL    HW233177   1.158   1.154   6.796  0.0590  1.9977  0.1351
 7182SOL     OW33178   2.571   4.585   2.695 -0.2775  0.1262 -0.3980
 7182SOL    HW133179   2.660   4.617   2.677  0.3988 -0.8690  1.1910
 7182SOL    HW233180   2.579   4.500   2.652  0.4057  0.7070 -1.4246
 7183SOL     OW33181   0.571   0.327   8.083  0.3654 -0.2140 -0.0004
 7183SOL    HW133182   0.552   0.385   8.156  0.0716 -0.8373  0.4169
 7183SOL    HW233183   0.660   0.353   8.057  0.2389  0.6289  0.4060
 7184SOL     OW33184   2.345   2.940   0.852  0.1261  0.2135 -0.0070
 7184SOL    HW133185   2.308   2.878   0.914 -1.0704  1.0652  0.1225
 7184SOL    HW233186   2.425   2.896   0.823 -0.3984 -1.0296  0.4252
 7185SOL     OW33187   1.704   1.037  16.731  0.5065  0.7407  0.7930
 7185SOL    HW133188   1.797   1.015  16.734 -0.3032 -2.6509  1.7631
 7185SOL    HW233189   1.676   0.984  16.657 -0.9583  0.1261  1.7756
 7186SOL     OW33190   0.586   3.205   4.288 -0.3774  0.2231  0.1438
 7186SOL    HW133191   0.612   3.214   4.380  1.8133  1.9454 -0.6170
 7186SOL    HW233192   0.511   3.263   4.273 -0.4464  0.5169  1.6726
 7187SOL     OW33193   0.481   4.461   4.771 -0.3529  0.4176  0.0978
 7187SOL    HW133194   0.572   4.463   4.802 -0.7840  0.1502  1.3710
 7187SOL    HW233195   0.520   4.478   4.685  0.0904  1.8295  0.5774
 7188SOL     OW33196   2.772   2.951   6.563  0.0834 -0.5336 -0.7696
 7188SOL    HW133197   2.860   2.935   6.528  0.5220 -0.6144  0.3591
 7188SOL    HW233198   2.717   2.952   6.485  0.2187  2.7615 -0.8147
 7189SOL     OW33199   3.763   2.708   5.568  0.1185  0.4718  0.0276
 7189SOL    HW133200   3.831   2.733   5.504 -0.1699  2.0355  0.3252
 7189SOL    HW233201   3.686   2.749   5.529  0.4209 -0.7493 -1.8578
 7190SOL     OW33202   3.919   1.442  12.398  0.0353  0.3748  0.4913
 7190SOL    HW133203   3.844   1.470  12.345 -0.2589 -2.0816 -0.3837
 7190SOL    HW233204   3.901   1.491  12.479 -0.1582  0.3207  0.4813
 7191SOL     OW33205   1.666   0.114  16.753  0.6558  0.1294 -0.1303
 7191SOL    HW133206   1.628   0.110  16.665  2.5298 -0.2536 -0.9159
 7191SOL    HW233207   1.757   0.104  16.728  0.7229 -0.4232  0.3485
 7192SOL     OW33208   1.044   1.604   1.531 -0.3524  0.7388 -0.2401
 7192SOL    HW133209   1.128   1.647   1.518 -0.9523  1.4626 -1.6474
 7192SOL    HW233210   0.985   1.675   1.556 -0.7286  0.1510  0.5572
 7193SOL     OW33211   1.966   2.265   0.727 -0.5521 -0.3673  0.1746
 7193SOL    HW133212   1.995   2.231   0.642  0.0345 -0.1509  0.2873
 7193SOL    HW233213   1.872   2.253   0.719 -0.6916 -0.1850  1.4514
 7194SOL     OW33214   3.946   0.709   4.256  0.4588 -0.1403 -0.2958
 7194SOL    HW133215   4.005   0.674   4.323 -0.5928 -0.8598  0.2544
 7194SOL    HW233216   3.889   0.637   4.230 -1.8084  0.7576  2.1492
 7195SOL     OW33217   3.801   4.091  12.140 -0.4320 -0.1400 -0.0426
 7195SOL    HW133218   3.844   4.176  12.138 -0.0999 -0.3236 -1.0885
 7195SOL    HW233219   3.722   4.117  12.186  0.2554  0.9488  0.5095
 7196SOL     OW33220   2.971   0.431  13.139  0.6071  1.0013  0.4790
 7196SOL    HW133221   2.943   0.348  13.177  1.0028 -0.2680 -2.0643
 7196SOL    HW233222   3.051   0.454  13.187  1.8213  1.1834 -1.6361
 7197SOL     OW33223   3.870   3.750   3.999  0.5415  0.4562  0.6181
 7197SOL    HW133224   3.780   3.778   4.019  0.0720 -0.7568  0.2377
 7197SOL    HW233225   3.861   3.655   4.007  0.9107  0.4856  1.4521
 7198SOL     OW33226   0.448   2.238   9.959  0.3831 -0.7436 -0.4363
 7198SOL    HW133227   0.486   2.243   9.872  2.9532  0.4658  0.7544
 7198SOL    HW233228   0.420   2.330   9.957 -0.4137 -0.9400  1.4234
 7199SOL     OW33229   2.098   0.558  17.420  0.6803 -0.6817 -0.4765
 7199SOL    HW133230   2.094   0.603  17.336  3.1178  1.6736  0.6582
 7199SOL    HW233231   2.193   0.555  17.433  0.5350  1.4033  1.0525
 7200SOL     OW33232   2.608   0.852   7.787 -0.1968  0.1907  0.4198
 7200SOL    HW133233   2.686   0.890   7.747  0.2309 -2.2659 -1.0623
 7200SOL    HW233234   2.647   0.775   7.828  0.7607 -0.1185 -1.0997
 7201SOL     OW33235   4.427   3.861   8.430 -0.0457  0.2178  0.1335
 7201SOL    HW133236   4.352   3.801   8.433 -0.9579  1.3580  0.2418
 7201SOL    HW233237   4.395   3.932   8.375  1.5925  0.1370 -0.9257
 7202SOL     OW33238   0.367   2.376   7.414  0.3994  0.3344  0.1357
 7202SOL    HW133239   0.357   2.383   7.509  1.6431 -1.0585  0.3717
 7202SOL    HW233240   0.400   2.465   7.402 -0.7644  0.7671  0.0838
 7203SOL     OW33241   2.906   1.497  11.288  0.2600  0.4974 -0.3985
 7203SOL    HW133242   2.994   1.534  11.297 -0.3830  1.8538  0.2273
 7203SOL    HW233243   2.898   1.453  11.203  3.3909 -2.1742  0.7019
 7204SOL     OW33244   4.728   0.567  15.817 -0.1380 -0.4468  0.7804
 7204SOL    HW133245   0.055   0.630  15.778 -0.9617 -0.8833 -1.1985
 7204SOL    HW233246   0.027   0.489  15.774  2.9021  2.2618 -1.7527
 7205SOL     OW33247   2.400   1.981   6.993  0.1920 -0.3053 -0.4621
 7205SOL    HW133248   2.489   1.971   7.027 -0.1752  0.2083  0.6205
 7205SOL    HW233249   2.342   1.931   7.050  1.8346  0.5809  1.9893
 7206SOL     OW33250   2.625   2.459   5.695 -0.1054  0.4437  0.0046
 7206SOL    HW133251   2.700   2.459   5.636 -0.5187 -1.0234 -0.5260
 7206SOL    HW233252   2.558   2.512   5.652 -0.0413  0.0565 -0.5777
 7207SOL     OW33253   2.176   3.666   9.013  0.1114  0.4716 -0.3536
 7207SOL    HW133254   2.180   3.747   8.961  2.7662  1.0231  0.6943
 7207SOL    HW233255   2.181   3.597   8.947  0.9659  0.3675 -0.1726
 7208SOL     OW33256   0.215   2.499  16.870  0.1260 -0.0018 -0.5795
 7208SOL    HW133257   0.204   2.503  16.775 -4.0653 -1.9294 -0.1384
 7208SOL    HW233258   0.301   2.456  16.869 -0.4212 -1.1009 -0.0916
 7209SOL     OW33259   0.440   0.131  14.009  0.3956 -0.0092 -0.2725
 7209SOL    HW133260   0.433   0.181  13.928 -0.8122  0.2094 -0.0355
 7209SOL    HW233261   0.521   0.157  14.053 -0.4993  1.3350  0.6043
 7210SOL     OW33262   0.337   1.686   7.924 -0.0797 -0.5139 -0.4651
 7210SOL    HW133263   0.267   1.661   7.983  0.7259  0.5795  0.9612
 7210SOL    HW233264   0.321   1.780   7.912 -1.9237 -0.9815 -1.6784
 7211SOL     OW33265   1.026   3.101   8.788 -0.0017  0.4920  0.3141
 7211SOL    HW133266   1.000   3.189   8.761  1.3236  1.1219  1.1006
 7211SOL    HW233267   0.956   3.080   8.850  0.4645  0.6796  0.9031
 7212SOL     OW33268   4.251   2.404   7.323 -0.0441  0.1713  0.1653
 7212SOL    HW133269   4.326   2.462   7.311  0.5589 -0.4100  1.0628
 7212SOL    HW233270   4.226   2.381   7.233 -0.2200  0.0826  0.2363
 7213SOL     OW33271   3.651   2.186   7.739 -0.3426  0.1254 -0.3629
 7213SOL    HW133272   3.687   2.168   7.825 -0.3751 -2.4862 -0.8855
 7213SOL    HW233273   3.671   2.099   7.704 -1.3302 -0.5830  0.8364
 7214SOL     OW33274   3.228   2.181   2.457 -0.6577 -0.5576  0.4144
 7214SOL    HW133275   3.172   2.258   2.445 -0.6524 -0.3651  1.5865
 7214SOL    HW233276   3.294   2.185   2.389 -1.6303 -2.0402 -0.6186
 7215SOL     OW33277   1.913   4.180   7.134 -0.2199 -0.3184 -0.3433
 7215SOL    HW133278   1.959   4.150   7.055  0.6767 -1.2973  0.5611
 7215SOL    HW233279   1.967   4.249   7.173  0.4773 -0.8396 -0.4015
 7216SOL     OW33280   1.359   3.242   9.293 -0.1081 -0.4710 -0.3165
 7216SOL    HW133281   1.304   3.173   9.330 -1.4366  0.4487 -0.5713
 7216SOL    HW233282   1.425   3.265   9.358 -0.6679  0.1560  0.0329
 7217SOL     OW33283   4.530   1.441   3.736  0.1479  0.0459 -0.1021
 7217SOL    HW133284   4.457   1.456   3.675  0.5385 -1.5416 -0.9656
 7217SOL    HW233285   4.577   1.523   3.728 -0.5845  0.4270 -0.5433
 7218SOL     OW33286   4.521   0.929   9.398  0.7463 -0.2275 -0.1377
 7218SOL    HW133287   4.503   0.835   9.401 -2.9993  0.4729 -0.1243
 7218SOL    HW233288   4.531   0.941   9.303  0.4421  0.9092 -0.0178
 7219SOL     OW33289   0.490   0.968  12.820 -0.0520 -0.4253 -0.0163
 7219SOL    HW133290   0.477   0.967  12.725  0.1718  1.7886 -0.0691
 7219SOL    HW233291   0.429   0.903  12.855 -3.2649  1.9324 -1.3214
 7220SOL     OW33292   3.656   0.042   2.246  0.6352 -0.4442 -0.0806
 7220SOL    HW133293   3.748   0.037   2.270  1.3384  2.8119 -2.1168
 7220SOL    HW233294   3.648   4.687   2.212  1.1606 -1.1456  1.6853
 7221SOL     OW33295   3.249   1.308   7.473  0.5665  0.5920 -0.4417
 7221SOL    HW133296   3.314   1.363   7.430  0.8814 -0.1234 -0.8654
 7221SOL    HW233297   3.188   1.377   7.499 -0.7757  0.0654 -2.2265
 7222SOL     OW33298   0.897   2.555   6.172 -0.4388 -0.2696  0.4721
 7222SOL    HW133299   0.945   2.574   6.252 -1.4778 -1.4008  1.3731
 7222SOL    HW233300   0.945   2.598   6.101  0.1738 -1.3043  0.2632
 7223SOL     OW33301   0.116   2.420   5.291 -0.2045  0.7600 -0.5653
 7223SOL    HW133302   0.196   2.406   5.342 -0.7359 -0.2905  0.0028
 7223SOL    HW233303   0.122   2.367   5.211 -2.5001 -1.9798  1.0703
 7224SOL     OW33304   0.032   4.565   1.229  0.0264  0.0152  0.2928
 7224SOL    HW133305   0.072   4.612   1.302  3.4982  0.4701 -1.8898
 7224SOL    HW233306   0.102   4.502   1.213 -0.3955 -0.6487  1.0853
 7225SOL     OW33307   2.054   0.360   1.353 -0.2621  0.1187 -0.2281
 7225SOL    HW133308   1.990   0.406   1.299 -0.6213 -0.6127 -0.4233
 7225SOL    HW233309   2.052   0.403   1.439 -0.7717  0.9670 -0.6613
 7226SOL     OW33310   1.958   4.652   7.488 -0.7495  0.2820 -0.2789
 7226SOL    HW133311   2.048   4.671   7.462  0.0360  0.4406  2.5743
 7226SOL    HW233312   1.903   4.730   7.483 -2.2396 -0.8210 -1.0530
 7227SOL     OW33313   1.477   0.692  17.201  0.0251 -0.0316 -0.3514
 7227SOL    HW133314   1.503   0.606  17.169 -0.2830 -0.4252  0.4356
 7227SOL    HW233315   1.469   0.682  17.296  3.4663 -1.4006 -0.1934
 7228SOL     OW33316   1.357   0.933   1.556  0.3552  0.2209 -0.3719
 7228SOL    HW133317   1.361   0.886   1.473  2.0411 -2.4295  1.2276
 7228SOL    HW233318   1.394   1.020   1.540  0.0094  0.1941 -1.2845
 7229SOL     OW33319   2.473   1.696  12.698  0.4064 -0.1672 -0.3229
 7229SOL    HW133320   2.483   1.614  12.747  2.7715 -0.7049 -1.7074
 7229SOL    HW233321   2.552   1.734  12.735  1.6800 -1.6323 -1.5477
 7230SOL     OW33322   3.388   1.604  14.788 -0.4414 -0.3874  0.4665
 7230SOL    HW133323   3.416   1.633  14.876  0.6354  0.8700 -0.2815
 7230SOL    HW233324   3.476   1.585  14.755 -0.8759 -0.7857 -0.4546
 7231SOL     OW33325   0.068   3.624   3.463  0.0955  0.0604  0.6235
 7231SOL    HW133326   0.083   3.684   3.536  2.2115 -1.2308  1.2476
 7231SOL    HW233327   4.708   3.628   3.451  0.2060  1.0800  0.0202
 7232SOL     OW33328   2.914   2.603  13.754  0.0052 -1.2720 -0.9388
 7232SOL    HW133329   2.996   2.641  13.786 -1.3722  1.2975 -0.5518
 7232SOL    HW233330   2.939   2.559  13.672  2.5040 -1.5517 -0.0435
 7233SOL     OW33331   1.396   2.753  12.330  0.5559  0.7437 -0.3942
 7233SOL    HW133332   1.456   2.698  12.280 -0.9385 -1.8412  0.6755
 7233SOL    HW233333   1.307   2.719  12.326  0.5719  0.7022 -0.3926
 7234SOL     OW33334   3.151   0.183   7.092  0.3178  0.2999  0.2309
 7234SOL    HW133335   3.192   0.269   7.075  1.2105 -0.0376  0.6502
 7234SOL    HW233336   3.071   0.195   7.041  0.2352 -2.9577 -0.3838
 7235SOL     OW33337   3.862   3.523  14.453 -0.4430  0.3882 -0.5289
 7235SOL    HW133338   3.954   3.540  14.432 -0.7003  0.1913 -1.7979
 7235SOL    HW233339   3.840   3.585  14.523 -1.3447  0.5265 -0.9382
 7236SOL     OW33340   0.829   3.923   5.064 -0.5028  0.4874  0.3941
 7236SOL    HW133341   0.782   3.859   5.010  3.0485 -1.7947  0.0594
 7236SOL    HW233342   0.874   3.975   4.997 -1.3520  1.3745  0.5190
 7237SOL     OW33343   1.411   1.075  17.677 -0.2647  0.2865 -0.7686
 7237SOL    HW133344   1.365   1.122  17.608 -0.5652  2.3554  0.8562
 7237SOL    HW233345   1.337   1.023  17.709 -1.3152  0.5799 -2.7143
 7238SOL     OW33346   1.027   2.727   5.316  0.0944  0.5866 -0.1637
 7238SOL    HW133347   0.945   2.775   5.304 -1.7381 -2.1025  1.5226
 7238SOL    HW233348   1.008   2.649   5.264  0.0015  1.3893 -1.3164
 7239SOL     OW33349   3.664   3.824   8.283 -0.4025  0.7131  0.1439
 7239SOL    HW133350   3.674   3.729   8.287 -1.5994  0.5544 -0.6518
 7239SOL    HW233351   3.720   3.838   8.207  0.2914  0.1865  0.5567
 7240SOL     OW33352   3.796   4.642   4.935  0.5049  0.2019  0.3819
 7240SOL    HW133353   3.809   4.548   4.948  3.0969  0.2218 -1.9853
 7240SOL    HW233354   3.709   4.671   4.962  0.3125 -2.0707  2.1692
 7241SOL     OW33355   1.690   0.510  13.702  0.2073 -0.5369  0.8887
 7241SOL    HW133356   1.716   0.442  13.763  3.8788  0.4648  0.4387
 7241SOL    HW233357   1.762   0.572  13.715 -0.7367  1.2623 -2.4175
 7242SOL     OW33358   4.191   1.246   6.677 -0.4916 -0.9249  0.0635
 7242SOL    HW133359   4.166   1.223   6.766 -0.1229 -0.2081  0.3581
 7242SOL    HW233360   4.234   1.168   6.641  2.9174 -0.6715  3.5717
 7243SOL     OW33361   2.437   3.744   6.448 -0.3893 -0.4995  0.6716
 7243SOL    HW133362   2.359   3.716   6.496 -0.2561 -1.7577  0.1744
 7243SOL    HW233363   2.427   3.686   6.372 -0.3459  1.8740 -1.1355
 7244SOL     OW33364   3.572   2.123   4.661 -0.3969  0.1862 -0.6289
 7244SOL    HW133365   3.584   2.034   4.630 -0.4061  0.4054 -1.2772
 7244SOL    HW233366   3.484   2.129   4.622  0.7820 -0.2119 -3.3762
 7245SOL     OW33367   2.199   2.708  15.419 -1.3917 -0.0189  0.0956
 7245SOL    HW133368   2.107   2.722  15.395 -1.3974 -2.7827 -1.5752
 7245SOL    HW233369   2.203   2.745  15.506  1.8391  0.7823 -0.3760
 7246SOL     OW33370   3.100   2.355   3.698 -0.0063 -0.3183  0.4364
 7246SOL    HW133371   3.056   2.354   3.613 -0.4840 -0.7761  0.6881
 7246SOL    HW233372   3.040   2.302   3.751  1.4485 -0.1263  2.2651
 7247SOL     OW33373   1.743   2.951   3.352  0.2520  0.3510 -0.1978
 7247SOL    HW133374   1.786   2.909   3.277 -0.3721  1.7723 -1.3434
 7247SOL    HW233375   1.731   2.873   3.406 -2.2760  0.4048 -0.7066
 7248SOL     OW33376   1.398   1.822   6.975  0.1945 -0.0114 -0.1206
 7248SOL    HW133377   1.428   1.881   6.905 -1.5860  1.6584  0.5120
 7248SOL    HW233378   1.482   1.805   7.018 -1.3450 -2.9716  1.6710
 7249SOL     OW33379   2.618   3.651   6.696 -0.3681  0.0124 -0.3570
 7249SOL    HW133380   2.601   3.620   6.608  0.9271  0.4052 -0.7454
 7249SOL    HW233381   2.579   3.739   6.694 -2.5005 -0.9193 -0.5034
 7250SOL     OW33382   2.834   1.759   5.809  0.1636 -0.3102  0.7629
 7250SOL    HW133383   2.743   1.733   5.802 -0.1335 -0.0126  3.3348
 7250SOL    HW233384   2.815   1.850   5.834  2.2322 -0.0247  1.3057
 7251SOL     OW33385   4.248   4.081   9.532  0.1834 -0.9634 -0.3830
 7251SOL    HW133386   4.268   4.117   9.446  1.3966  1.1842  0.7722
 7251SOL    HW233387   4.309   4.132   9.586 -1.0784  0.3025 -0.1514
 7252SOL     OW33388   1.256   0.378   8.987  0.5053  0.3283 -0.0520
 7252SOL    HW133389   1.234   0.459   9.033  0.2360  0.1612  0.1103
 7252SOL    HW233390   1.182   0.321   9.006  0.2386  0.9674  0.8263
 7253SOL     OW33391   0.013   1.664   0.850  0.2100  0.1025 -0.1466
 7253SOL    HW133392   0.064   1.648   0.930  1.5290  1.2104 -0.7628
 7253SOL    HW233393   0.069   1.617   0.789  0.2057  4.4593 -3.5478
 7254SOL     OW33394   4.503   3.752   1.212  0.6907  0.5562 -0.0757
 7254SOL    HW133395   4.507   3.779   1.120 -2.1496  0.7097 -0.1469
 7254SOL    HW233396   4.431   3.807   1.241  2.7343  1.6660  2.8744
 7255SOL     OW33397   3.593   4.355   9.631  0.0947 -0.1898  0.4851
 7255SOL    HW133398   3.607   4.273   9.584 -0.1832 -0.4012  0.7741
 7255SOL    HW233399   3.653   4.330   9.701 -0.6795  1.7870  1.8584
 7256SOL     OW33400   0.322   3.058   9.132  0.2369  0.2794 -0.1038
 7256SOL    HW133401   0.406   3.014   9.119 -0.8116 -1.1330 -2.0829
 7256SOL    HW233402   0.343   3.148   9.109 -0.2082  0.2149 -0.7456
 7257SOL     OW33403   2.857   3.031   2.896  0.1376 -0.5568 -0.1475
 7257SOL    HW133404   2.829   3.122   2.890 -0.1973 -0.5690  1.0254
 7257SOL    HW233405   2.897   3.025   2.810  0.9153 -0.9695  0.2492
 7258SOL     OW33406   3.681   3.881   4.818  0.7300 -0.3472 -0.8143
 7258SOL    HW133407   3.775   3.863   4.821  0.5772 -1.3176 -1.7531
 7258SOL    HW233408   3.646   3.839   4.897  0.0082  1.7586 -0.0049
 7259SOL     OW33409   0.227   3.611   5.141  0.2405  0.4469  0.3765
 7259SOL    HW133410   0.154   3.656   5.099  0.7355  0.4488 -0.4901
 7259SOL    HW233411   0.199   3.521   5.159  1.3945 -0.4857 -2.5701
 7260SOL     OW33412   3.048   0.217   4.795  0.0446  0.1892 -0.0906
 7260SOL    HW133413   3.011   0.236   4.881 -0.6465  2.5957 -0.9346
 7260SOL    HW233414   3.103   0.294   4.780  2.3009 -1.1716  1.2371
 7261SOL     OW33415   3.472   2.298   8.505  0.0197  0.2966 -0.5906
 7261SOL    HW133416   3.515   2.349   8.436 -2.0252  0.7186 -1.5487
 7261SOL    HW233417   3.381   2.299   8.475 -0.3153  0.9175  0.4303
 7262SOL     OW33418   1.728   3.275   7.368  0.0888  0.2418 -0.0936
 7262SOL    HW133419   1.641   3.315   7.360  0.0389  0.0238 -0.6066
 7262SOL    HW233420   1.745   3.251   7.278 -1.1734  0.7149 -0.4609
 7263SOL     OW33421   4.107   0.868   9.390  0.1319 -0.3201  0.3110
 7263SOL    HW133422   4.107   0.936   9.458 -0.5893  1.3222 -1.3408
 7263SOL    HW233423   4.182   0.811   9.408 -0.0294 -0.8903 -0.8537
 7264SOL     OW33424   0.369   1.543   1.777 -0.1750 -0.3019 -0.1681
 7264SOL    HW133425   0.390   1.616   1.835  1.3971 -1.8378  1.2130
 7264SOL    HW233426   0.302   1.507   1.835  1.1976 -0.4933  1.3054
 7265SOL     OW33427   2.640   1.019  13.826 -0.4423  0.0157  0.1797
 7265SOL    HW133428   2.607   1.048  13.741  0.2641 -1.8681 -0.7425
 7265SOL    HW233429   2.672   1.106  13.853 -0.5568 -0.0710  0.5905
 7266SOL     OW33430   0.555   1.451  10.405  0.4973 -0.3974  0.0964
 7266SOL    HW133431   0.495   1.402  10.462 -1.3526  1.0369 -0.6131
 7266SOL    HW233432   0.575   1.383  10.341  1.0069  0.0757 -0.2406
 7267SOL     OW33433   1.241   4.159   7.398  0.5421  0.1036 -0.4785
 7267SOL    HW133434   1.174   4.206   7.349  0.9278 -0.4509 -1.5293
 7267SOL    HW233435   1.218   4.179   7.489 -1.9762  0.1177 -1.1111
 7268SOL     OW33436   0.932   2.225   2.049  0.2045 -0.8161 -0.0734
 7268SOL    HW133437   0.991   2.215   2.124 -2.0708  2.6593  2.2320
 7268SOL    HW233438   0.946   2.319   2.037  0.4741 -0.9478 -0.7914
 7269SOL     OW33439   3.262   0.398   1.988 -0.6938 -0.3900  0.1326
 7269SOL    HW133440   3.261   0.431   1.898 -0.3968 -0.9136 -0.0602
 7269SOL    HW233441   3.300   0.311   1.981  0.2923  0.0044  0.5506
 7270SOL     OW33442   3.258   4.194   9.309  0.1721 -0.3558  0.3516
 7270SOL    HW133443   3.181   4.250   9.311  0.1053 -0.5011  2.2750
 7270SOL    HW233444   3.260   4.175   9.403 -1.3596 -0.2506  0.3953
 7271SOL     OW33445   4.520   1.954   6.638  0.2229 -0.3468 -0.0250
 7271SOL    HW133446   4.488   1.871   6.602 -1.1158 -0.0202  0.4238
 7271SOL    HW233447   4.450   1.975   6.699  1.8745 -0.0242  1.7742
 7272SOL     OW33448   4.106   3.509  14.669 -0.4199  0.5423 -0.1895
 7272SOL    HW133449   4.019   3.542  14.693 -0.2195  0.0680  1.1478
 7272SOL    HW233450   4.119   3.579  14.605  2.0934  3.3545  3.3828
 7273SOL     OW33451   2.449   3.540  14.830 -0.6583  0.2833 -0.1285
 7273SOL    HW133452   2.534   3.504  14.805 -0.3644 -0.1958  1.5745
 7273SOL    HW233453   2.417   3.584  14.750  3.2862 -2.2336 -3.1033
 7274SOL     OW33454   4.303   2.025   9.219 -0.3791 -0.3326 -0.2005
 7274SOL    HW133455   4.331   2.052   9.307 -0.6267  1.4341 -0.6647
 7274SOL    HW233456   4.210   2.013   9.236 -0.2389 -0.6270  0.3663
 7275SOL     OW33457   4.466   2.704  15.265  0.2587  0.2647  0.0919
 7275SOL    HW133458   4.389   2.688  15.210  0.5387 -3.0275  0.6980
 7275SOL    HW233459   4.431   2.740  15.347 -0.6752  0.9917 -0.6134
 7276SOL     OW33460   1.856   3.407   4.671  0.0213  0.6210 -0.1012
 7276SOL    HW133461   1.846   3.323   4.716 -0.7316  0.8740  0.1954
 7276SOL    HW233462   1.768   3.419   4.634 -0.1883  0.6992  0.4311
 7277SOL     OW33463   3.736   0.444  12.767 -0.0291  0.4362  0.4322
 7277SOL    HW133464   3.754   0.536  12.788 -1.9138  0.7692  0.6059
 7277SOL    HW233465   3.730   0.411  12.857  1.2114 -1.8506 -0.3271
 7278SOL     OW33466   3.922   3.788   8.153  0.0041 -0.6390  0.4378
 7278SOL    HW133467   3.897   3.856   8.091  1.8373 -0.4039 -0.0200
 7278SOL    HW233468   3.982   3.833   8.211  0.4777 -0.6616 -0.0351
 7279SOL     OW33469   2.612   1.880   0.233 -0.3605  0.0225 -0.4197
 7279SOL    HW133470   2.648   1.945   0.171  1.7932 -0.0483  0.7705
 7279SOL    HW233471   2.683   1.817   0.241  0.0250  0.4356 -0.5456
 7280SOL     OW33472   1.507   0.133   6.698 -0.5843 -0.4404 -0.8677
 7280SOL    HW133473   1.443   0.101   6.762 -0.9726 -2.0457 -2.0730
 7280SOL    HW233474   1.552   0.198   6.752 -2.0922  1.6567 -2.1194
 7281SOL     OW33475   2.406   4.307   3.992  0.1230 -0.1056  0.1383
 7281SOL    HW133476   2.388   4.216   3.969  1.9185 -0.5005  0.2899
 7281SOL    HW233477   2.333   4.333   4.047 -1.6443 -0.0729 -2.2252
 7282SOL     OW33478   3.891   1.279   1.562  0.1527 -0.3880  0.1240
 7282SOL    HW133479   3.796   1.269   1.557  0.4184 -1.9412 -1.8715
 7282SOL    HW233480   3.906   1.296   1.469 -2.2274  0.5557 -0.0804
 7283SOL     OW33481   0.909   0.326   7.749  0.4579  0.1695  0.4249
 7283SOL    HW133482   0.919   0.270   7.826 -0.1955 -0.9529 -0.3064
 7283SOL    HW233483   0.962   0.402   7.774 -0.0574  0.6928 -0.0609
 7284SOL     OW33484   0.683   2.222   5.381  1.1994  0.1825 -0.2504
 7284SOL    HW133485   0.686   2.175   5.464  2.7786 -0.3038 -0.5719
 7284SOL    HW233486   0.654   2.157   5.317  0.7534  1.2304 -1.1089
 7285SOL     OW33487   4.272   3.072   6.267  0.0447  0.2005 -0.1711
 7285SOL    HW133488   4.307   3.097   6.353 -0.6719  1.5416 -0.2572
 7285SOL    HW233489   4.210   3.005   6.296 -0.6422  0.4530 -1.0600
 7286SOL     OW33490   2.636   1.640   4.717  0.5412 -0.5992 -0.0055
 7286SOL    HW133491   2.639   1.545   4.730 -2.0240 -0.5817  0.8587
 7286SOL    HW233492   2.565   1.647   4.653  0.5960  1.2570  0.1379
 7287SOL     OW33493   3.647   4.028   7.988 -0.1875 -0.7044  0.1255
 7287SOL    HW133494   3.575   3.970   7.961 -0.5344  0.7787 -2.2005
 7287SOL    HW233495   3.620   4.050   8.077  0.9519  0.5921  0.1404
 7288SOL     OW33496   4.703   0.305   8.314  0.4864 -0.5448  0.0869
 7288SOL    HW133497   0.031   0.270   8.250  1.5503  1.7912 -0.1405
 7288SOL    HW233498   4.627   0.332   8.263 -0.6030 -0.3348  1.8388
 7289SOL     OW33499   2.357   1.702   8.043 -0.2699  0.4687  0.1215
 7289SOL    HW133500   2.379   1.609   8.039 -0.6723  0.2543  2.8269
 7289SOL    HW233501   2.434   1.732   8.091 -0.4413  0.0226  0.6861
 7290SOL     OW33502   2.385   2.139  10.114  0.0432 -0.6703 -0.4070
 7290SOL    HW133503   2.425   2.203  10.055 -0.9059  0.2812 -0.0225
 7290SOL    HW233504   2.322   2.101  10.053 -1.4283 -0.1229  0.7477
 7291SOL     OW33505   0.827   2.487   4.382 -0.2416 -0.1261 -0.1310
 7291SOL    HW133506   0.788   2.505   4.467 -0.5072  1.2366 -0.5333
 7291SOL    HW233507   0.749   2.482   4.326  0.9509 -0.2440 -1.7880
 7292SOL     OW33508   0.431   0.082   2.616 -0.6805  0.0800  0.1108
 7292SOL    HW133509   0.404   4.728   2.640  1.4626 -0.8532 -0.9646
 7292SOL    HW233510   0.489   0.059   2.543 -0.2806 -0.7438  0.6791
 7293SOL     OW33511   4.148   1.005   6.441  0.2674  0.2486 -0.1131
 7293SOL    HW133512   4.168   0.930   6.385 -0.1536 -0.9913  1.4010
 7293SOL    HW233513   4.237   1.036   6.457 -0.3679  2.2986 -0.5481
 7294SOL     OW33514   4.218   0.029   1.074 -0.4162  0.0767  0.5218
 7294SOL    HW133515   4.168   0.077   1.008 -0.4383  0.7321  1.0180
 7294SOL    HW233516   4.237   4.688   1.019 -0.5497 -0.0206  0.6114
 7295SOL     OW33517   2.637   3.045   3.687  0.1030  0.1704  0.3362
 7295SOL    HW133518   2.712   2.985   3.684  0.1609  0.3631 -2.4764
 7295SOL    HW233519   2.565   2.984   3.705  1.0466 -0.3498  2.3722
 7296SOL     OW33520   1.307   1.197   5.941 -0.4345  0.1681  0.2922
 7296SOL    HW133521   1.335   1.138   5.871 -0.3360 -1.7088  1.9061
 7296SOL    HW233522   1.350   1.159   6.017  0.5533  0.3558 -0.1732
 7297SOL     OW33523   3.729   2.529  11.337  0.0364  0.2296 -0.4505
 7297SOL    HW133524   3.680   2.595  11.386 -0.6730 -0.5833 -0.0699
 7297SOL    HW233525   3.681   2.449  11.357  2.7337 -1.5576 -1.0745
 7298SOL     OW33526   3.872   4.096   0.976  1.1435 -0.7411  0.0534
 7298SOL    HW133527   3.931   4.108   0.902  0.1349 -1.7996 -0.9097
 7298SOL    HW233528   3.872   4.178   1.025 -1.1312 -0.3363 -0.6283
 7299SOL     OW33529   3.163   4.130  15.065 -0.0742 -0.0982 -0.0224
 7299SOL    HW133530   3.190   4.121  14.974 -0.4922 -0.1617 -0.1430
 7299SOL    HW233531   3.145   4.039  15.088  1.6249 -0.2805  0.5991
 7300SOL     OW33532   0.200   3.008   5.079  0.0529 -0.3970 -0.5994
 7300SOL    HW133533   0.287   2.984   5.047  0.4334 -0.6335  0.6208
 7300SOL    HW233534   0.147   2.965   5.012  2.1555 -0.5358 -2.1720
 7301SOL     OW33535   2.614   1.672  11.531  0.1378  0.1149  0.1548
 7301SOL    HW133536   2.655   1.587  11.519 -3.3861 -2.1675  4.2678
 7301SOL    HW233537   2.655   1.702  11.612 -0.5001  0.4587  0.3579
 7302SOL     OW33538   1.730   3.877   0.611  0.9039 -0.3194 -0.0751
 7302SOL    HW133539   1.687   3.845   0.532 -0.0036  0.8190 -0.0446
 7302SOL    HW233540   1.780   3.947   0.568  1.8889  0.0206  1.6295
 7303SOL     OW33541   0.827   0.795   5.685 -0.0939 -0.0473 -0.5216
 7303SOL    HW133542   0.749   0.773   5.736 -0.5149  2.3936 -0.1084
 7303SOL    HW233543   0.870   0.711   5.668 -3.1680 -1.8616  0.5906
 7304SOL     OW33544   4.110   1.465  16.769  0.1626  0.1366  0.0607
 7304SOL    HW133545   4.196   1.427  16.788 -1.0069 -3.2454 -1.3879
 7304SOL    HW233546   4.141   1.545  16.727 -1.4327  0.8617  0.2675
 7305SOL     OW33547   4.504   1.225   7.352  0.9341 -0.2977  0.2232
 7305SOL    HW133548   4.491   1.200   7.260 -1.4728 -0.3242  0.5910
 7305SOL    HW233549   4.513   1.321   7.351  1.4518 -0.3494 -0.7779
 7306SOL     OW33550   1.670   1.430  14.782 -0.2918 -0.0209  0.2846
 7306SOL    HW133551   1.634   1.517  14.797  0.5508  0.4114 -0.2069
 7306SOL    HW233552   1.712   1.446  14.698 -1.8797 -1.7296 -0.8590
 7307SOL     OW33553   2.343   2.457  15.479 -0.4891 -0.1320  0.1181
 7307SOL    HW133554   2.303   2.539  15.452  2.2314  0.2627 -2.6481
 7307SOL    HW233555   2.431   2.462  15.443 -1.0954  2.2197 -0.9763
 7308SOL     OW33556   0.901   1.903  15.141 -0.1255 -0.2314 -0.1315
 7308SOL    HW133557   0.807   1.908  15.162  0.1034  3.8895 -0.0584
 7308SOL    HW233558   0.910   1.912  15.046  1.9169 -1.7269 -0.0544
 7309SOL     OW33559   3.291   3.093   6.769 -0.5243 -0.5888  0.0259
 7309SOL    HW133560   3.284   3.173   6.718  4.0071 -1.2921 -1.7150
 7309SOL    HW233561   3.207   3.095   6.816  0.4137  1.7548  1.5735
 7310SOL     OW33562   3.629   4.433   7.454 -0.4256 -0.1907  0.4677
 7310SOL    HW133563   3.675   4.489   7.515  0.6915  0.6139 -1.1249
 7310SOL    HW233564   3.549   4.411   7.502 -0.0319  0.8663  1.6108
 7311SOL     OW33565   3.785   0.901   0.757  0.1804 -0.1513 -0.1285
 7311SOL    HW133566   3.817   0.970   0.699 -1.0232  0.8078  0.3506
 7311SOL    HW233567   3.753   0.841   0.690  1.6261  1.4107 -2.2227
 7312SOL     OW33568   2.689   1.721  13.516  0.0771 -0.0163  0.2393
 7312SOL    HW133569   2.651   1.691  13.433  1.4682 -1.7696  0.2229
 7312SOL    HW233570   2.774   1.677  13.518  0.3332  0.4827  0.3012
 7313SOL     OW33571   2.141   3.442   9.229 -0.2069  0.5813  0.4625
 7313SOL    HW133572   2.211   3.407   9.174  0.0111  0.2398  0.9541
 7313SOL    HW233573   2.072   3.436   9.162 -0.9756  2.7474  1.0496
 7314SOL     OW33574   1.448   2.105   4.882  0.3994  0.0107  0.2943
 7314SOL    HW133575   1.523   2.061   4.922  0.1262 -1.1049 -0.4204
 7314SOL    HW233576   1.416   2.039   4.820  0.2879  0.6969 -0.3780
 7315SOL     OW33577   3.187   0.053  17.097 -0.0565 -0.8051  0.7049
 7315SOL    HW133578   3.248   0.116  17.060  1.5191 -2.1848  0.9238
 7315SOL    HW233579   3.099   0.074  17.068 -0.8199 -1.3614  2.6039
 7316SOL     OW33580   2.031   4.706   8.045 -0.1236 -0.0081 -0.1521
 7316SOL    HW133581   2.069   0.020   7.971  0.0313  2.1020  1.3066
 7316SOL    HW233582   2.064   0.026   8.117 -2.0970 -0.7819  1.3220
 7317SOL     OW33583   2.009   3.161   3.175  0.3964  0.3873 -0.1858
 7317SOL    HW133584   1.933   3.181   3.119 -0.3485  1.5506  1.2227
 7317SOL    HW233585   2.030   3.239   3.226 -1.4739  0.0759  1.0654
 7318SOL     OW33586   2.120   0.636  16.291  0.0760 -0.0573 -0.8395
 7318SOL    HW133587   2.079   0.660  16.207  1.2655  2.5542 -0.6962
 7318SOL    HW233588   2.207   0.673  16.275  0.7823 -0.7862  1.3495
 7319SOL     OW33589   4.488   0.037   5.618 -0.0242  0.1648  0.4710
 7319SOL    HW133590   4.473   0.063   5.527 -1.2348  0.6721  0.8230
 7319SOL    HW233591   4.560   4.708   5.624 -0.9805 -1.0412 -0.6502
 7320SOL     OW33592   4.144   1.237   6.156 -0.4599  0.2250 -0.1980
 7320SOL    HW133593   4.054   1.247   6.187 -0.5659 -1.2239 -0.0400
 7320SOL    HW233594   4.181   1.325   6.160  0.4124 -0.0128 -2.6494
 7321SOL     OW33595   4.565   4.149   7.686 -0.1697  0.0423 -0.2757
 7321SOL    HW133596   4.613   4.072   7.658  0.0009 -0.2468  0.8062
 7321SOL    HW233597   4.481   4.138   7.641 -0.2733 -1.2158  0.2312
 7322SOL     OW33598   1.218   3.759   8.829  0.1975  0.3355 -0.1416
 7322SOL    HW133599   1.309   3.743   8.853 -0.3604 -0.3233  1.5505
 7322SOL    HW233600   1.222   3.851   8.804 -0.4263  0.3213 -0.2939
 7323SOL     OW33601   3.478   0.538   5.983 -0.0017  0.2839  0.0789
 7323SOL    HW133602   3.445   0.514   6.070 -0.5312  0.2994 -0.1142
 7323SOL    HW233603   3.451   0.464   5.927 -1.8614 -0.8805  2.4983
 7324SOL     OW33604   0.742   4.224   6.749  0.3863  0.5772 -0.3419
 7324SOL    HW133605   0.833   4.203   6.771 -0.3328  1.0921  3.2051
 7324SOL    HW233606   0.713   4.137   6.721 -0.8409  1.3977 -1.6029
 7325SOL     OW33607   3.407   4.043   7.003  0.1666 -0.0812 -0.2492
 7325SOL    HW133608   3.390   4.043   7.097  1.2516  0.0031 -0.0501
 7325SOL    HW233609   3.336   4.099   6.974 -0.3036  0.7052  2.4367
 7326SOL     OW33610   3.246   3.770  13.024  0.4499 -0.2240  0.4545
 7326SOL    HW133611   3.218   3.689  13.068  1.5379 -0.0166  1.5075
 7326SOL    HW233612   3.329   3.789  13.067  1.1252 -0.1974 -0.8647
 7327SOL     OW33613   1.910   0.758  17.000 -0.1337  0.3466 -0.6929
 7327SOL    HW133614   1.834   0.732  16.948  0.9009  0.2520 -2.1405
 7327SOL    HW233615   1.974   0.778  16.932  0.5493 -2.0095 -0.7376
 7328SOL     OW33616   0.958   1.314   5.618  0.3117  0.7982  0.1008
 7328SOL    HW133617   0.972   1.341   5.527 -1.3300 -0.4698 -0.5268
 7328SOL    HW233618   1.041   1.335   5.660 -0.2578 -1.5315  2.3994
 7329SOL     OW33619   0.982   0.307   7.202  0.0996  0.3560  0.0798
 7329SOL    HW133620   0.937   0.376   7.155  1.6176  1.7125  0.6060
 7329SOL    HW233621   0.911   0.261   7.247  0.7685 -0.1601  0.6206
 7330SOL     OW33622   3.024   2.038  10.820 -0.5410 -0.4787 -0.2326
 7330SOL    HW133623   3.002   2.118  10.867 -0.6787 -0.1971 -0.7773
 7330SOL    HW233624   3.046   2.071  10.733  0.2001  2.5074  1.0880
 7331SOL     OW33625   3.291   2.078   7.814  0.3643 -0.3108  0.1976
 7331SOL    HW133626   3.302   2.083   7.719  2.0130  0.2918  0.4078
 7331SOL    HW233627   3.343   1.998   7.825  0.8249 -0.0301  0.0949
 7332SOL     OW33628   3.868   1.391  13.126 -0.2975 -0.4853 -0.0652
 7332SOL    HW133629   3.832   1.379  13.038  0.1308 -1.6812 -0.0674
 7332SOL    HW233630   3.957   1.406  13.095 -0.8419 -2.7095 -2.7381
 7333SOL     OW33631   3.981   0.304   8.249  0.7888 -0.4207  1.1816
 7333SOL    HW133632   3.930   0.309   8.168  1.9268 -0.1063  0.4795
 7333SOL    HW233633   3.941   0.365   8.310 -0.2267  0.3093 -0.2255
 7334SOL     OW33634   1.331   0.011   7.322  0.5232  0.3965 -0.3254
 7334SOL    HW133635   1.338   4.651   7.332 -0.9946  0.4430  1.3210
 7334SOL    HW233636   1.258   0.019   7.260 -0.5760  3.8733  1.4040
 7335SOL     OW33637   0.853   0.041   5.711  0.2683  0.1985  0.4282
 7335SOL    HW133638   0.925   0.046   5.775  0.2853 -0.3902  0.4506
 7335SOL    HW233639   0.797   4.714   5.757  0.4251 -0.4053 -0.2034
 7336SOL     OW33640   2.488   1.661   0.382  0.5865 -0.1161  0.0225
 7336SOL    HW133641   2.577   1.650   0.348  0.6223 -0.7381  0.3220
 7336SOL    HW233642   2.487   1.756   0.394 -0.2435 -0.2313  0.8369
 7337SOL     OW33643   4.465   1.825   8.959  0.1655 -0.3293 -0.7293
 7337SOL    HW133644   4.460   1.889   8.888  0.8216 -0.5301 -0.9557
 7337SOL    HW233645   4.415   1.758   8.912  2.0727 -1.3774 -1.2562
 7338SOL     OW33646   4.565   0.782  15.396 -0.2243  0.2382 -0.3993
 7338SOL    HW133647   4.559   0.688  15.382  1.4705  0.3434 -1.7890
 7338SOL    HW233648   4.470   0.796  15.401 -0.1120 -0.1154  2.5479
 7339SOL     OW33649   3.734   0.137   5.157  0.2490  0.1138 -0.0861
 7339SOL    HW133650   3.669   0.160   5.224 -0.7182  0.7990 -1.2442
 7339SOL    HW233651   3.803   0.090   5.203 -0.8817  0.0324  1.5345
 7340SOL     OW33652   4.517   2.134   3.820 -0.1483  0.0690 -0.2020
 7340SOL    HW133653   4.503   2.161   3.911  0.4880  1.2043 -0.4353
 7340SOL    HW233654   4.537   2.041   3.829 -2.2388 -0.2537  1.0579
 7341SOL     OW33655   2.860   2.497   3.926 -0.6197  0.1067 -0.4226
 7341SOL    HW133656   2.937   2.525   3.975  0.1002 -1.4283 -0.6695
 7341SOL    HW233657   2.810   2.459   3.998  3.9244 -0.0316  2.5961
 7342SOL     OW33658   4.553   2.717  14.524 -0.2759  0.4102 -0.0353
 7342SOL    HW133659   4.607   2.638  14.520 -0.7268  0.1678 -1.1225
 7342SOL    HW233660   4.553   2.736  14.430 -0.8086 -1.0313 -0.3252
 7343SOL     OW33661   3.435   1.838   4.675  0.2952  0.2028 -0.1465
 7343SOL    HW133662   3.398   1.863   4.591 -2.8031 -2.7530  0.3491
 7343SOL    HW233663   3.361   1.787   4.706  0.5898  1.3504  2.4768
 7344SOL     OW33664   0.172   4.632   7.242  0.2590  0.1778  0.1720
 7344SOL    HW133665   0.143   4.542   7.253  0.5492  0.0164 -0.3993
 7344SOL    HW233666   0.264   4.634   7.269  0.3281  0.8683 -0.1015
 7345SOL     OW33667   1.699   1.434   6.832  0.1946 -0.5324  0.3787
 7345SOL    HW133668   1.785   1.455   6.868  0.0295 -1.3059  1.2387
 7345SOL    HW233669   1.707   1.458   6.740 -0.9241 -1.2271  0.1032
 7346SOL     OW33670   1.933   2.804   2.414  0.4206 -0.0708 -0.0875
 7346SOL    HW133671   1.841   2.792   2.391  0.4682 -2.7266  1.0419
 7346SOL    HW233672   1.964   2.874   2.358 -0.7511  1.2317  0.8926
 7347SOL     OW33673   1.639   0.003  17.205 -0.1928 -0.4426 -0.2814
 7347SOL    HW133674   1.571   0.063  17.235 -0.2747  1.2118 -3.8386
 7347SOL    HW233675   1.596   4.658  17.172 -0.4652 -0.7768  0.8624
 7348SOL     OW33676   2.062   1.139   2.011 -0.1028 -0.1660 -1.0678
 7348SOL    HW133677   2.121   1.069   2.038  0.7843  0.9436 -0.1321
 7348SOL    HW233678   2.087   1.166   1.923 -0.2513  0.5302 -0.8971
 7349SOL     OW33679   2.196   2.170   3.934  0.0844 -0.4355  0.6907
 7349SOL    HW133680   2.157   2.209   3.855  0.2120  0.9620  1.3243
 7349SOL    HW233681   2.153   2.221   4.002 -2.0253  0.3539 -1.2290
 7350SOL     OW33682   4.319   3.674   6.704  0.2490  0.3152  0.3439
 7350SOL    HW133683   4.316   3.627   6.787  2.2052 -0.7733 -0.2064
 7350SOL    HW233684   4.378   3.614   6.658 -1.5963 -1.1443 -0.1264
 7351SOL     OW33685   3.653   1.748   6.333  0.2185  0.2833 -0.1301
 7351SOL    HW133686   3.707   1.675   6.362 -1.4664 -0.4654  1.1369
 7351SOL    HW233687   3.626   1.725   6.244 -0.9351  2.5563 -0.3671
 7352SOL     OW33688   2.546   2.496   5.109 -0.4299  0.0656 -0.2324
 7352SOL    HW133689   2.456   2.525   5.100 -0.6974 -1.6777 -3.5197
 7352SOL    HW233690   2.578   2.531   5.192 -1.1547  0.2445 -0.0368
 7353SOL     OW33691   4.417   0.775   2.161  0.4343  0.0342 -0.0704
 7353SOL    HW133692   4.493   0.747   2.212  0.6247 -0.5383 -0.6734
 7353SOL    HW233693   4.349   0.747   2.223  0.2630  0.1295 -0.2122
 7354SOL     OW33694   3.596   4.254  10.901  0.4262 -0.1803  0.1669
 7354SOL    HW133695   3.597   4.309  10.822 -2.8225  0.5293  0.6297
 7354SOL    HW233696   3.502   4.261  10.915  0.3548  2.9987 -1.9477
 7355SOL     OW33697   2.812   2.888   7.947 -0.1071  0.3230  0.1789
 7355SOL    HW133698   2.823   2.968   7.896 -3.1656  0.8210  0.2772
 7355SOL    HW233699   2.883   2.887   8.011  0.9413  1.3083 -0.9706
 7356SOL     OW33700   0.462   3.208  17.703 -0.5921 -0.2422  0.4429
 7356SOL    HW133701   0.512   3.289  17.689  0.1156 -0.5086  1.4450
 7356SOL    HW233702   0.475   3.159  17.622  1.2914 -1.4978  1.4828
 7357SOL     OW33703   1.908   0.289   7.683 -0.0924 -0.1747  0.1336
 7357SOL    HW133704   1.869   0.238   7.612  1.0645  0.2528 -0.8182
 7357SOL    HW233705   1.856   0.269   7.761 -0.3587 -1.9802 -0.5080
 7358SOL     OW33706   3.256   4.124   9.562 -0.3781  0.1982  0.8684
 7358SOL    HW133707   3.233   4.049   9.618 -1.3721 -0.7874 -0.8615
 7358SOL    HW233708   3.181   4.178   9.588 -1.8874 -0.9429 -1.1202
 7359SOL     OW33709   3.920   4.331   4.912 -0.0905 -0.2708 -0.2955
 7359SOL    HW133710   3.875   4.251   4.939 -1.8175  0.9516  0.4144
 7359SOL    HW233711   3.927   4.323   4.817 -1.6658 -0.5768 -0.3877
 7360SOL     OW33712   1.444   3.030   3.152  0.1698  0.3240  0.0002
 7360SOL    HW133713   1.533   3.026   3.186  0.7538 -2.1533 -1.7486
 7360SOL    HW233714   1.385   3.047   3.225  0.2920 -0.4049  0.2704
 7361SOL     OW33715   4.623   1.712  10.471 -0.5603  0.2924  0.7913
 7361SOL    HW133716   4.621   1.623  10.436  1.3445  0.4159  0.3253
 7361SOL    HW233717   4.549   1.710  10.531  0.9749  0.8723  2.6877
 7362SOL     OW33718   0.818   0.403   6.046  0.1051 -0.7402 -0.0855
 7362SOL    HW133719   0.808   0.490   6.085  1.5641  0.6557 -2.8118
 7362SOL    HW233720   0.805   0.332   6.109 -0.9444 -0.2223  0.2807
 7363SOL     OW33721   1.074   1.546   2.938 -0.5993 -0.8141 -0.1106
 7363SOL    HW133722   1.060   1.622   2.881 -0.1231 -0.0601  0.7797
 7363SOL    HW233723   1.165   1.567   2.960 -0.5053 -1.7641  0.3940
 7364SOL     OW33724   2.862   4.516  15.326 -0.6202 -0.1077  0.4195
 7364SOL    HW133725   2.876   4.546  15.236 -0.3849  2.1066  1.2062
 7364SOL    HW233726   2.899   4.590  15.375  1.2568  0.9190 -2.5525
 7365SOL     OW33727   1.102   1.189  13.085  0.9561 -0.4200 -0.0085
 7365SOL    HW133728   1.166   1.240  13.135  0.3183  1.3535 -0.9875
 7365SOL    HW233729   1.084   1.266  13.030 -0.9483 -1.3888 -0.7224
 7366SOL     OW33730   4.150   1.899   8.440  0.0074 -0.5089  0.2861
 7366SOL    HW133731   4.119   1.871   8.525 -0.0719  0.1047  0.4638
 7366SOL    HW233732   4.119   1.825   8.388 -1.7378  0.3724  0.0668
 7367SOL     OW33733   4.255   3.401   5.466 -0.5622 -0.2283  0.1097
 7367SOL    HW133734   4.312   3.406   5.543 -0.5110 -1.4417  0.1489
 7367SOL    HW233735   4.220   3.489   5.477 -1.5841 -0.5547 -0.5097
 7368SOL     OW33736   4.444   1.237   7.053 -0.2282 -0.1673  0.4455
 7368SOL    HW133737   4.528   1.237   7.008 -0.4128  0.2949  0.0917
 7368SOL    HW233738   4.416   1.326   7.027 -1.5617 -1.2109 -1.7553
 7369SOL     OW33739   4.126   1.213   7.606 -0.1764 -0.3076 -0.0793
 7369SOL    HW133740   4.088   1.300   7.601 -0.1945 -0.3900 -1.4234
 7369SOL    HW233741   4.149   1.200   7.513  2.2567  0.1497  0.4557
 7370SOL     OW33742   3.026   1.227   9.112 -0.3535 -0.4285 -0.1867
 7370SOL    HW133743   3.077   1.254   9.036 -1.9828  0.2783 -1.0116
 7370SOL    HW233744   3.025   1.132   9.105 -1.4396 -0.3971 -0.4446
 7371SOL     OW33745   0.624   4.504   9.784 -0.0176  0.6345  0.1013
 7371SOL    HW133746   0.576   4.564   9.728 -2.0887  0.2947  1.5194
 7371SOL    HW233747   0.709   4.522   9.743 -0.8517 -0.3773 -2.0905
 7372SOL     OW33748   4.459   4.581  15.203 -0.3789 -0.9040 -0.7368
 7372SOL    HW133749   4.502   4.652  15.156 -2.4926 -0.5360 -2.1142
 7372SOL    HW233750   4.529   4.561  15.266 -0.0207  0.2768 -0.7659
 7373SOL     OW33751   2.494   3.852   6.983  0.3144 -0.0552  0.1343
 7373SOL    HW133752   2.415   3.798   6.988  0.8615 -0.6404  2.8540
 7373SOL    HW233753   2.486   3.876   6.891  1.8142  1.4799  0.3981
 7374SOL     OW33754   2.083   2.448  17.160  0.4688  0.2163 -0.7059
 7374SOL    HW133755   2.144   2.381  17.128 -0.5479 -0.4965 -1.1584
 7374SOL    HW233756   2.120   2.529  17.124 -2.4438  1.3983 -1.0176
 7375SOL     OW33757   1.794   1.690   5.401  0.4796  0.7310 -1.1816
 7375SOL    HW133758   1.853   1.730   5.465  0.4610  0.2502 -0.8694
 7375SOL    HW233759   1.785   1.759   5.334 -1.9191  1.6463  0.0798
 7376SOL     OW33760   1.802   3.929  10.042  0.2254 -0.2657  0.1658
 7376SOL    HW133761   1.845   4.001  10.088 -0.2304  1.1084 -1.5350
 7376SOL    HW233762   1.785   3.864  10.110 -0.2350 -1.2626 -0.8953
 7377SOL     OW33763   3.970   1.980   4.896 -0.4226  0.8074  0.2852
 7377SOL    HW133764   3.901   1.990   4.962 -0.1682 -0.4340  0.7370
 7377SOL    HW233765   3.932   2.038   4.830 -1.9656 -2.1314 -1.3717
 7378SOL     OW33766   3.819   0.269   7.490 -0.4319 -0.0978 -0.3528
 7378SOL    HW133767   3.724   0.275   7.496 -0.4904 -0.0582 -1.4127
 7378SOL    HW233768   3.828   0.245   7.398  3.6002  0.3173 -0.0817
 7379SOL     OW33769   3.534   4.494   8.538 -0.4908 -0.0489  0.1980
 7379SOL    HW133770   3.622   4.480   8.501  0.0431  4.4828 -0.1851
 7379SOL    HW233771   3.501   4.560   8.478 -2.1980 -0.0874  1.1097
 7380SOL     OW33772   3.486   2.698   2.894  0.1392  0.4578  0.1722
 7380SOL    HW133773   3.400   2.658   2.881  0.0886  0.3022  0.9490
 7380SOL    HW233774   3.465   2.727   2.983 -0.8281 -0.5936  0.2873
 7381SOL     OW33775   3.711   1.976  11.188 -0.2518 -0.3639 -0.4533
 7381SOL    HW133776   3.774   1.997  11.120  0.1387 -1.1067 -0.3197
 7381SOL    HW233777   3.633   2.032  11.184 -0.1892 -0.3327 -1.2323
 7382SOL     OW33778   2.625   1.799   2.775 -0.1707 -0.6308 -0.2486
 7382SOL    HW133779   2.680   1.829   2.703  0.8569 -0.5895  0.5639
 7382SOL    HW233780   2.650   1.852   2.851  2.5079  0.3698 -1.8192
 7383SOL     OW33781   2.085   0.252   7.098  0.4492  0.3521 -0.4131
 7383SOL    HW133782   2.143   0.213   7.163  1.3162  2.0959 -0.1275
 7383SOL    HW233783   2.145   0.322   7.069  3.0640 -2.0360 -0.7895
 7384SOL     OW33784   0.108   2.628   3.873  0.7252  0.1339  0.2931
 7384SOL    HW133785   0.140   2.647   3.785 -1.2848 -0.4511 -0.5711
 7384SOL    HW233786   0.036   2.568   3.853  1.1126  0.0707 -0.9066
 7385SOL     OW33787   1.042   0.864  12.506  0.2233  0.1063 -0.1823
 7385SOL    HW133788   0.982   0.927  12.467  0.1168 -0.9290 -1.7080
 7385SOL    HW233789   1.111   0.864  12.439 -0.2699 -1.8297 -0.6965
 7386SOL     OW33790   2.540   1.207   9.069 -0.0591  0.0069 -0.0049
 7386SOL    HW133791   2.625   1.234   9.104  0.3798 -1.4723  0.0699
 7386SOL    HW233792   2.474   1.235   9.132  0.0560  0.9724 -0.3017
 7387SOL     OW33793   3.653   1.318   1.849  0.2796 -0.4821 -0.2104
 7387SOL    HW133794   3.612   1.342   1.766  2.2713 -0.5275 -1.2179
 7387SOL    HW233795   3.720   1.386   1.854 -1.4682  1.4081 -2.5400
 7388SOL     OW33796   0.499   1.135   8.087  0.5733 -0.4170 -0.1166
 7388SOL    HW133797   0.452   1.200   8.140  2.6342  1.2242 -0.2751
 7388SOL    HW233798   0.511   1.187   8.008 -1.0409 -0.9461 -0.6890
 7389SOL     OW33799   1.192   1.361   8.408 -0.2870  0.1869 -0.0007
 7389SOL    HW133800   1.102   1.393   8.421 -1.1677 -1.8324 -1.1927
 7389SOL    HW233801   1.190   1.326   8.319 -1.6226  0.7132 -0.1883
 7390SOL     OW33802   2.923   1.498  10.982  0.1422 -0.1781  0.8797
 7390SOL    HW133803   2.905   1.578  11.030 -1.4532  0.0506 -0.0941
 7390SOL    HW233804   2.866   1.504  10.906 -2.4039  2.3538  3.0128
 7391SOL     OW33805   4.666   4.234   2.779  0.8205 -0.2988  0.1418
 7391SOL    HW133806   4.616   4.280   2.847  1.8158 -0.7061  1.1415
 7391SOL    HW233807   0.023   4.260   2.790  0.9752 -0.7609 -0.0962
 7392SOL     OW33808   1.233   1.493   7.712  0.3551  0.6689 -0.9284
 7392SOL    HW133809   1.146   1.458   7.731  0.6250 -0.4498 -1.7228
 7392SOL    HW233810   1.258   1.438   7.638 -0.4501  0.6053 -1.1555
 7393SOL     OW33811   1.977   3.075  11.115  1.1065  0.6666 -0.0291
 7393SOL    HW133812   2.007   3.140  11.052  1.0851  1.5502  0.8664
 7393SOL    HW233813   1.996   2.988  11.080 -0.5106 -0.1687  1.1491
 7394SOL     OW33814   0.526   0.772   8.521 -0.0710 -0.1913  0.3188
 7394SOL    HW133815   0.528   0.822   8.439 -0.3371  2.5571  1.9940
 7394SOL    HW233816   0.597   0.716   8.490 -0.6074 -1.8999  2.2230
 7395SOL     OW33817   2.945   2.606   3.536 -0.2107  0.0699  0.3030
 7395SOL    HW133818   3.013   2.647   3.590 -0.3722 -0.2664  0.7537
 7395SOL    HW233819   2.961   2.653   3.454 -3.3670 -0.6964 -0.7416
 7396SOL     OW33820   1.685   4.073   7.644  0.0096 -0.0258 -0.5325
 7396SOL    HW133821   1.762   4.078   7.586  0.2752 -0.7207 -0.2345
 7396SOL    HW233822   1.615   4.042   7.586  0.4698 -0.3391 -0.9178
 7397SOL     OW33823   4.552   1.719   7.268 -0.0082  0.2426  0.0270
 7397SOL    HW133824   4.604   1.800   7.265  1.0756 -0.4783 -0.4326
 7397SOL    HW233825   4.499   1.718   7.189  1.1893  0.7202 -0.7830
 7398SOL     OW33826   1.773   2.859  11.160  0.5222 -0.4305 -0.2509
 7398SOL    HW133827   1.800   2.947  11.188  1.8964 -0.7462 -0.5919
 7398SOL    HW233828   1.681   2.878  11.140  0.3860  1.3005  2.0692
 7399SOL     OW33829   1.080   4.111   0.867  0.4636 -0.2395  0.6071
 7399SOL    HW133830   1.152   4.132   0.926  2.8395  1.1084 -2.7578
 7399SOL    HW233831   0.999   4.145   0.904  0.1331  0.0748 -0.4063
 7400SOL     OW33832   3.508   2.647   4.704  0.2118 -0.0714 -0.3139
 7400SOL    HW133833   3.529   2.735   4.674  0.5928 -0.8773 -2.4038
 7400SOL    HW233834   3.477   2.663   4.793  0.1998 -2.2706  0.0886
 7401SOL     OW33835   1.777   1.591  10.393 -0.1855 -0.7123  0.1515
 7401SOL    HW133836   1.755   1.675  10.433 -1.3867 -1.2272  0.5784
 7401SOL    HW233837   1.862   1.577  10.435  0.5593  1.7831 -0.5178
 7402SOL     OW33838   3.394   4.149   3.143  0.3231  0.6652  0.0311
 7402SOL    HW133839   3.425   4.080   3.202 -0.2999  0.8587  0.5787
 7402SOL    HW233840   3.420   4.101   3.064  0.4583 -0.6669  0.8751
 7403SOL     OW33841   2.650   2.130   8.708  0.4541 -0.0804 -0.2080
 7403SOL    HW133842   2.629   2.211   8.661  1.3633  0.8691  1.0620
 7403SOL    HW233843   2.580   2.077   8.669  1.7718 -0.0090 -2.7137
 7404SOL     OW33844   3.141   3.872  15.959  0.3245  0.4616  0.0189
 7404SOL    HW133845   3.197   3.894  16.034  2.2851 -0.3923 -1.1863
 7404SOL    HW233846   3.094   3.952  15.937  1.7041  1.5909  1.1100
 7405SOL     OW33847   4.570   4.598  11.959  0.9714 -0.0067 -0.0977
 7405SOL    HW133848   4.592   4.512  11.923  1.2451  0.3506 -0.7759
 7405SOL    HW233849   4.628   4.651  11.904  1.7190 -1.4541 -0.6950
 7406SOL     OW33850   2.947   0.605   4.788  0.2532  0.2233 -0.1716
 7406SOL    HW133851   2.998   0.543   4.736 -0.8154 -1.7525  1.1306
 7406SOL    HW233852   2.945   0.561   4.874 -2.4596  1.4167  0.3637
 7407SOL     OW33853   3.171   3.128   4.057 -0.0698 -0.7996  0.6307
 7407SOL    HW133854   3.254   3.131   4.009  0.0589  0.0704  0.9017
 7407SOL    HW233855   3.179   3.041   4.096 -0.0351 -0.8622  0.4862
 7408SOL     OW33856   2.684   3.535   2.502 -0.6336  0.3421 -0.0162
 7408SOL    HW133857   2.631   3.561   2.577  0.0419  2.8160 -0.3726
 7408SOL    HW233858   2.633   3.458   2.478  0.4681  0.0730 -1.5246
 7409SOL     OW33859   4.382   3.619   4.508  0.4501 -0.2723  0.5082
 7409SOL    HW133860   4.417   3.649   4.424 -0.2222  2.0807  1.0838
 7409SOL    HW233861   4.299   3.666   4.521  0.3000  0.2658 -2.2608
 7410SOL     OW33862   4.550   4.319   6.436  0.2902 -0.2872  0.0855
 7410SOL    HW133863   4.480   4.319   6.501  0.7788 -0.5416  0.6067
 7410SOL    HW233864   4.613   4.387   6.460  0.3386 -0.3208  0.0534
 7411SOL     OW33865   0.766   4.373   6.998  0.3353  0.0894  0.2814
 7411SOL    HW133866   0.784   4.298   7.055  0.2891  2.0320  2.8673
 7411SOL    HW233867   0.714   4.330   6.930 -1.6297  2.3624  0.3393
 7412SOL     OW33868   3.260   4.211   5.309  0.2518  0.0777 -0.1123
 7412SOL    HW133869   3.302   4.275   5.252 -1.2870  0.8266 -0.4120
 7412SOL    HW233870   3.256   4.257   5.392  0.3353 -2.6802  1.4059
 7413SOL     OW33871   2.132   1.433  10.764  0.3662  0.0201  0.4559
 7413SOL    HW133872   2.126   1.378  10.685 -0.9328  0.9538 -0.0815
 7413SOL    HW233873   2.201   1.490  10.729  1.8723  1.1040  5.2225
 7414SOL     OW33874   1.426   1.678   0.322  0.2856 -0.5428  0.1919
 7414SOL    HW133875   1.408   1.768   0.293  0.1069 -0.5962  0.1359
 7414SOL    HW233876   1.516   1.670   0.291  0.6319  0.8448  0.8120
 7415SOL     OW33877   0.750   0.188   7.300 -0.1517  0.6087  0.4849
 7415SOL    HW133878   0.743   0.142   7.383  0.0321 -1.2901 -0.5449
 7415SOL    HW233879   0.673   0.245   7.305 -0.2023  0.4995  0.9496
 7416SOL     OW33880   2.856   2.087   2.950  0.1223  0.6130 -0.2436
 7416SOL    HW133881   2.827   2.164   2.901  3.0313  2.6775  1.2472
 7416SOL    HW233882   2.822   2.119   3.033 -2.3412 -0.5786 -0.8147
 7417SOL     OW33883   2.312   3.695   3.442  0.1311 -0.5167  0.1009
 7417SOL    HW133884   2.372   3.695   3.516  1.6362 -0.2709 -1.1163
 7417SOL    HW233885   2.369   3.647   3.381  0.1700 -2.0757  1.3501
 7418SOL     OW33886   1.339   1.744   6.295 -0.0506  0.3500  0.5914
 7418SOL    HW133887   1.415   1.789   6.331 -0.0643  2.3445 -1.8737
 7418SOL    HW233888   1.270   1.796   6.337  0.3530  0.5991  0.9396
 7419SOL     OW33889   2.085   4.679   8.654 -0.1003 -0.0668 -0.2608
 7419SOL    HW133890   2.010   4.651   8.602  0.3056 -0.7986 -0.4610
 7419SOL    HW233891   2.127   4.734   8.587 -1.1014  0.1849 -0.6740
 7420SOL     OW33892   4.470   1.991  14.144  0.0200  0.4008 -0.3247
 7420SOL    HW133893   4.494   2.042  14.222 -2.2474  1.6524 -0.4203
 7420SOL    HW233894   4.428   1.917  14.188 -0.7225  1.2242  0.3690
 7421SOL     OW33895   2.851   0.263   6.225  0.4012  0.0378  0.2168
 7421SOL    HW133896   2.772   0.316   6.225 -0.0723 -0.6707 -0.9114
 7421SOL    HW233897   2.885   0.277   6.137  1.5806 -2.3375  0.2693
 7422SOL     OW33898   4.262   3.720   5.745 -0.0056 -0.5417  0.7409
 7422SOL    HW133899   4.186   3.776   5.732  0.3411  0.2461  2.1487
 7422SOL    HW233900   4.214   3.640   5.768  0.6614 -1.0612  0.3617
 7423SOL     OW33901   1.627   0.033   3.230 -0.1036 -0.0017 -0.6734
 7423SOL    HW133902   1.697   4.715   3.268 -0.2418 -1.0321 -1.8488
 7423SOL    HW233903   1.614   0.081   3.312  0.0954  0.1078 -0.7078
 7424SOL     OW33904   1.331   2.296   7.007  0.5713  0.0350  0.2048
 7424SOL    HW133905   1.366   2.350   6.936  0.6338 -0.5020 -0.1729
 7424SOL    HW233906   1.252   2.264   6.965  1.0839  2.6345 -2.7396
 7425SOL     OW33907   4.149   0.337  17.630  0.6866  0.4916  0.2338
 7425SOL    HW133908   4.100   0.311  17.552 -0.4897 -0.8465  1.4066
 7425SOL    HW233909   4.225   0.388  17.603  1.3331 -1.2818 -1.2650
 7426SOL     OW33910   3.575   0.016  11.967  0.7525  0.3154 -0.0245
 7426SOL    HW133911   3.670   0.026  11.970  1.0828 -2.3357 -1.7709
 7426SOL    HW233912   3.563   0.045  11.876 -0.4984  2.7030  0.8911
 7427SOL     OW33913   1.004   4.002   5.363  0.7785 -0.2073 -0.3989
 7427SOL    HW133914   0.910   4.019   5.351  0.6087 -0.2042  0.9725
 7427SOL    HW233915   1.027   4.074   5.421  0.9965  0.1019 -0.8793
 7428SOL     OW33916   0.502   1.027  14.178  0.2491  0.3828  0.1207
 7428SOL    HW133917   0.562   1.094  14.210  0.8609  0.2820 -0.7995
 7428SOL    HW233918   0.527   0.953  14.233  0.7435  0.5428  0.1106
 7429SOL     OW33919   4.187   2.133  12.212  0.2610  0.6211 -0.5119
 7429SOL    HW133920   4.198   2.209  12.270  2.2940 -1.4578  1.8235
 7429SOL    HW233921   4.095   2.142  12.186  0.9268 -0.4958 -3.2049
 7430SOL     OW33922   4.093   2.151   8.434  0.1447 -0.0076  0.3482
 7430SOL    HW133923   4.116   2.183   8.521 -1.5926  0.6425  0.5652
 7430SOL    HW233924   4.136   2.066   8.428  0.8602  0.3507  0.4697
 7431SOL     OW33925   0.805   0.814   2.891 -0.7307 -0.6108  0.3224
 7431SOL    HW133926   0.722   0.814   2.939  0.0133  0.1170  1.6135
 7431SOL    HW233927   0.867   0.777   2.954  0.6466 -1.1708 -1.3514
 7432SOL     OW33928   3.565   2.751  10.012 -0.1082  0.1347 -0.5605
 7432SOL    HW133929   3.476   2.733  10.043  0.8337 -2.8384  0.4766
 7432SOL    HW233930   3.579   2.844  10.031 -0.5331 -0.4512  2.6518
 7433SOL     OW33931   1.858   1.944   0.603 -0.3178 -0.3941 -0.3948
 7433SOL    HW133932   1.953   1.951   0.602 -0.4140  0.8452 -2.1399
 7433SOL    HW233933   1.846   1.909   0.691  0.4268  0.2265 -0.0433
 7434SOL     OW33934   2.017   3.104   7.925  0.4100  0.4965  0.1983
 7434SOL    HW133935   2.095   3.138   7.881 -0.8676  1.5736 -1.2056
 7434SOL    HW233936   1.982   3.191   7.941 -1.5874 -0.0238 -1.4361
 7435SOL     OW33937   2.459   1.011   9.931  0.7468  0.8433  0.4682
 7435SOL    HW133938   2.376   1.057   9.941  2.1253  2.5296  4.2611
 7435SOL    HW233939   2.469   0.967  10.015  0.8166 -0.3895 -0.1789
 7436SOL     OW33940   4.601   1.507   2.072 -0.6601 -0.3747  0.2705
 7436SOL    HW133941   4.566   1.524   2.160  0.5327  0.2109  0.6383
 7436SOL    HW233942   4.597   1.413   2.059  1.7215 -0.3446 -0.6136
 7437SOL     OW33943   4.172   2.051   3.641  0.0512  0.9034 -0.6667
 7437SOL    HW133944   4.197   2.056   3.733 -0.9469  1.8613 -0.4376
 7437SOL    HW233945   4.226   1.978   3.612 -0.5916 -0.3941  1.4479
 7438SOL     OW33946   2.184   2.358  15.987 -0.3610 -0.1394  0.3575
 7438SOL    HW133947   2.202   2.397  15.901 -0.3424  1.7015  1.1814
 7438SOL    HW233948   2.240   2.412  16.044  0.5301  1.2034 -1.7892
 7439SOL     OW33949   2.802   2.983   5.615  0.5256 -0.1037  0.3141
 7439SOL    HW133950   2.782   3.017   5.528  1.2514  1.6377  0.8372
 7439SOL    HW233951   2.718   2.986   5.662 -0.0491  1.0158 -0.7963
 7440SOL     OW33952   0.531   4.186   8.007  0.6283  0.2325  0.0788
 7440SOL    HW133953   0.435   4.187   8.008  0.6085  0.0246 -1.1995
 7440SOL    HW233954   0.552   4.099   8.041  0.0639 -1.2618 -3.3620
 7441SOL     OW33955   4.045   1.411  15.056 -0.7350 -0.1084 -0.3497
 7441SOL    HW133956   3.963   1.373  15.087 -0.5979  0.0340  0.1840
 7441SOL    HW233957   4.052   1.350  14.982  0.8055  0.0900 -0.3760
 7442SOL     OW33958   0.532   0.934   0.920  0.8297  0.3076 -0.6013
 7442SOL    HW133959   0.446   0.974   0.932 -0.1111 -1.2213 -2.2157
 7442SOL    HW233960   0.514   0.848   0.960  0.8967 -0.0493 -1.3504
 7443SOL     OW33961   4.347   4.116  10.199 -0.0821 -0.0473  0.3063
 7443SOL    HW133962   4.314   4.190  10.249  1.0706 -0.1001  1.1345
 7443SOL    HW233963   4.350   4.152  10.110  0.7537  2.0984  1.2208
 7444SOL     OW33964   1.241   4.180   1.068 -0.0730 -0.2133 -0.1647
 7444SOL    HW133965   1.289   4.262   1.056 -1.7722  0.9009  0.6679
 7444SOL    HW233966   1.260   4.166   1.161  3.7764  1.4831 -0.7060
 7445SOL     OW33967   3.112   1.069   0.045 -0.3443  0.2488  0.4245
 7445SOL    HW133968   3.077   1.012  17.714 -1.5522  0.7471  0.6291
 7445SOL    HW233969   3.199   1.098   0.017  0.8624 -0.3200  3.6280
 7446SOL     OW33970   1.198   3.347   6.361  0.1733  0.5257 -0.8790
 7446SOL    HW133971   1.183   3.441   6.371  1.1747  0.8626 -2.7082
 7446SOL    HW233972   1.110   3.321   6.334  0.1035 -1.1642  0.9056
 7447SOL     OW33973   1.782   2.142   2.677  0.2599  0.7679  0.0390
 7447SOL    HW133974   1.806   2.221   2.726 -1.1542 -0.8453  3.2624
 7447SOL    HW233975   1.698   2.171   2.643  0.0635  0.9082  0.6514
 7448SOL     OW33976   1.115   0.602   0.001  0.1213 -0.4052 -0.3636
 7448SOL    HW133977   1.131   0.690  17.708 -0.0497 -0.4707 -0.6330
 7448SOL    HW233978   1.158   0.605   0.087 -1.3457  2.4027  0.2599
 7449SOL     OW33979   3.598   2.811   7.972  0.0822  0.2125 -0.0934
 7449SOL    HW133980   3.592   2.891   8.024  1.1497 -0.9399  1.7997
 7449SOL    HW233981   3.533   2.750   8.008  0.0836 -0.9708 -2.0876
 7450SOL     OW33982   3.380   3.370   9.206 -0.1358 -0.0844  0.1812
 7450SOL    HW133983   3.422   3.456   9.200  0.7725 -0.5160  0.2426
 7450SOL    HW233984   3.366   3.346   9.115 -0.1074 -1.6773  0.5998
 7451SOL     OW33985   1.393   2.417  14.895  0.3352  0.2541 -0.3986
 7451SOL    HW133986   1.388   2.322  14.886 -1.1759  0.4364 -1.4682
 7451SOL    HW233987   1.486   2.429  14.873  0.4306  0.0175 -0.1204
 7452SOL     OW33988   3.669   3.774   6.535 -0.1864  0.1788  0.2230
 7452SOL    HW133989   3.603   3.827   6.489 -0.8957 -0.3670  0.6037
 7452SOL    HW233990   3.720   3.851   6.561 -0.9888  0.5175  0.7942
 7453SOL     OW33991   0.748   4.069  15.473  0.1466 -0.1069 -1.1901
 7453SOL    HW133992   0.732   4.155  15.512 -1.4349 -0.5066 -0.9789
 7453SOL    HW233993   0.810   4.034  15.537  0.4314  0.7969 -0.9816
 7454SOL     OW33994   1.059   3.361   8.774  0.5153  0.4910  0.0245
 7454SOL    HW133995   1.111   3.358   8.854 -0.9792 -0.5341  0.9396
 7454SOL    HW233996   1.000   3.435   8.777  0.3778  0.4251 -1.1100
 7455SOL     OW33997   4.571   2.822   3.973 -0.4020 -0.1675 -0.5390
 7455SOL    HW133998   4.626   2.805   4.049 -0.2185  1.5348 -0.2888
 7455SOL    HW233999   4.634   2.815   3.901 -1.1517  1.0913 -1.3322
 7456SOL     OW34000   0.897   1.604   4.762  0.3090  0.2360 -0.0048
 7456SOL    HW134001   0.863   1.539   4.822  1.0026  2.6735  3.0016
 7456SOL    HW234002   0.836   1.582   4.692  2.1296 -0.4501 -1.3889
 7457SOL     OW34003   2.238   3.075  11.202  0.2346  0.0398  0.3763
 7457SOL    HW134004   2.273   2.992  11.237 -0.1103 -0.4778 -0.4998
 7457SOL    HW234005   2.143   3.068  11.210  0.1003  1.7250  0.1692
 7458SOL     OW34006   1.592   4.062   2.350 -0.2058  0.4635 -0.2433
 7458SOL    HW134007   1.551   4.139   2.310  1.1774 -0.2297 -3.0036
 7458SOL    HW234008   1.533   4.043   2.424  0.4299 -1.2871 -0.1824
 7459SOL     OW34009   3.676   0.988   7.550 -0.8090 -0.0070  0.0618
 7459SOL    HW134010   3.597   0.951   7.510  0.0750 -0.9366 -0.8156
 7459SOL    HW234011   3.717   0.904   7.569 -1.1569 -0.1007  0.4099
 7460SOL     OW34012   3.736   4.453   3.559 -0.3025  0.0140  0.6700
 7460SOL    HW134013   3.678   4.528   3.544  1.1385  0.5020 -2.4455
 7460SOL    HW234014   3.819   4.489   3.529 -1.3775 -0.9918 -3.5253
 7461SOL     OW34015   2.191   2.559   0.197  0.2511 -0.9277 -0.0939
 7461SOL    HW134016   2.194   2.653   0.177 -1.7177 -1.7160 -4.1083
 7461SOL    HW234017   2.098   2.557   0.221  0.7726  0.4352  2.0444
 7462SOL     OW34018   1.619   3.179   2.786 -0.2472  0.3956 -0.6876
 7462SOL    HW134019   1.675   3.257   2.778  1.1371 -0.4484  0.6437
 7462SOL    HW234020   1.654   3.121   2.718 -2.1404 -3.0296  1.2703
 7463SOL     OW34021   2.879   0.685   5.417 -0.3208 -0.0709 -0.7299
 7463SOL    HW134022   2.843   0.660   5.502  0.0130 -1.4593 -0.9946
 7463SOL    HW234023   2.812   0.744   5.383 -0.2913  0.5714  0.3459
 7464SOL     OW34024   3.440   2.423   2.241 -0.4680 -0.4843  0.3959
 7464SOL    HW134025   3.527   2.428   2.280  0.1848  0.1515 -1.1267
 7464SOL    HW234026   3.459   2.463   2.156  0.5822  1.3473  1.4793
 7465SOL     OW34027   0.061   2.088   9.118 -0.0376 -0.4705  0.0746
 7465SOL    HW134028   0.050   2.179   9.146 -1.3542 -0.3784 -0.7369
 7465SOL    HW234029   0.157   2.081   9.123 -0.0466 -0.7987 -0.1555
 7466SOL     OW34030   3.848   0.849   7.898 -0.1787 -0.2478 -0.2449
 7466SOL    HW134031   3.871   0.760   7.872  0.4581 -0.2186  0.2284
 7466SOL    HW234032   3.898   0.901   7.835  2.0879  1.3227  2.8583
 7467SOL     OW34033   1.605   4.570   7.628 -0.4170 -0.0790 -0.2398
 7467SOL    HW134034   1.618   4.539   7.539  0.2926 -3.1138  0.9205
 7467SOL    HW234035   1.516   4.604   7.631 -1.2514 -2.1186 -2.5876
 7468SOL     OW34036   1.067   0.851   1.840 -0.0690 -0.3011  0.0651
 7468SOL    HW134037   1.119   0.781   1.801  0.2419 -1.4824  2.5460
 7468SOL    HW234038   1.056   0.913   1.769  1.7940 -0.3946 -0.3020
 7469SOL     OW34039   0.501   4.640   2.162 -0.3182 -0.1938 -0.1234
 7469SOL    HW134040   0.507   4.715   2.103  0.2896 -2.1330 -2.4927
 7469SOL    HW234041   0.441   4.589   2.109  1.1468 -1.5686 -0.4567
 7470SOL     OW34042   3.489   2.418   4.466 -0.3885  0.6150  0.1829
 7470SOL    HW134043   3.562   2.467   4.503 -0.5620  0.3224  0.8939
 7470SOL    HW234044   3.421   2.424   4.532  0.0202 -2.9456  0.9141
 7471SOL     OW34045   0.792   4.408   3.678  0.1528 -0.0931  0.1401
 7471SOL    HW134046   0.861   4.344   3.659 -0.3196 -0.4877 -0.2187
 7471SOL    HW234047   0.830   4.456   3.752  0.2068  0.1473 -0.0427
 7472SOL     OW34048   0.319   2.712   7.899  0.9359 -0.0401  0.0616
 7472SOL    HW134049   0.351   2.799   7.922 -0.0209  0.8991 -2.1693
 7472SOL    HW234050   0.224   2.719   7.907  0.8122 -2.2499  0.7029
 7473SOL     OW34051   2.706   1.393   2.699 -0.6822  1.2045 -0.4335
 7473SOL    HW134052   2.664   1.325   2.646  2.1055 -0.1098 -0.9450
 7473SOL    HW234053   2.771   1.429   2.638  0.1772  0.9729  0.3521
 7474SOL     OW34054   1.161   0.675   4.970 -0.4266  0.1328 -0.2098
 7474SOL    HW134055   1.166   0.769   4.989  0.2549 -0.2650  1.6287
 7474SOL    HW234056   1.090   0.650   5.030  0.3538  0.3031  0.7933
 7475SOL     OW34057   0.594   2.437   8.499  0.3783 -0.7834  0.5451
 7475SOL    HW134058   0.514   2.446   8.551 -0.4433  2.4934 -1.2470
 7475SOL    HW234059   0.557   2.414   8.414  1.2975  1.1764 -0.3946
 7476SOL     OW34060   1.031   2.067   1.864 -0.0883  0.1441 -0.3539
 7476SOL    HW134061   0.956   2.040   1.812 -1.0016  1.5421  0.2528
 7476SOL    HW234062   0.986   2.103   1.940  1.7577  0.3409  0.6349
 7477SOL     OW34063   2.106   0.322   1.999  0.5071  0.0920 -0.2637
 7477SOL    HW134064   2.065   0.275   2.071  0.3401  0.9974  0.2414
 7477SOL    HW234065   2.034   0.316   1.937 -0.7998 -0.1975  1.2711
 7478SOL     OW34066   1.519   0.124   3.474 -0.2152 -0.4715 -0.4769
 7478SOL    HW134067   1.440   0.121   3.529 -1.8229 -0.5443 -2.7939
 7478SOL    HW234068   1.525   0.215   3.446 -2.0408 -0.2994 -0.2950
 7479SOL     OW34069   1.012   3.433  14.445  0.0203 -0.7237  0.7027
 7479SOL    HW134070   0.980   3.471  14.363  1.7311  0.0715  0.3976
 7479SOL    HW234071   1.103   3.461  14.439  0.2633 -1.1084  2.8296
 7480SOL     OW34072   4.483   3.415   7.669  0.2069 -0.4042  0.2937
 7480SOL    HW134073   4.455   3.356   7.739  0.6129 -0.6550  0.2464
 7480SOL    HW234074   4.575   3.390   7.661  0.3667  0.7079 -1.4882
 7481SOL     OW34075   0.258   0.530   3.162  0.3181 -0.2263  0.2610
 7481SOL    HW134076   0.256   0.446   3.115 -0.7528 -1.8331  3.1645
 7481SOL    HW234077   0.165   0.533   3.186  0.4236 -0.6888  0.7391
 7482SOL     OW34078   3.726   0.170   3.364  0.1009 -0.4972 -0.1855
 7482SOL    HW134079   3.655   0.231   3.348  1.8996  2.1393  1.8105
 7482SOL    HW234080   3.777   0.199   3.288  0.9682  2.8065  1.6632
 7483SOL     OW34081   1.626   1.525   9.191 -0.6379 -0.1701 -1.0689
 7483SOL    HW134082   1.577   1.607   9.189  0.9803  0.7979 -1.3179
 7483SOL    HW234083   1.715   1.561   9.199 -1.7805  2.2785  0.7812
 7484SOL     OW34084   3.353   0.587  11.352  0.4465  0.3242  0.3624
 7484SOL    HW134085   3.328   0.569  11.262  0.6112 -1.4445  0.6606
 7484SOL    HW234086   3.442   0.621  11.340  1.4265 -1.3427  2.7721
 7485SOL     OW34087   1.138   1.619   4.399  0.0508 -0.1747 -0.1647
 7485SOL    HW134088   1.053   1.659   4.383  0.4727  0.4235 -0.8778
 7485SOL    HW234089   1.139   1.559   4.325  0.1333 -0.0196 -0.2892
 7486SOL     OW34090   2.914   3.301   7.328 -0.0402  0.3832  0.5536
 7486SOL    HW134091   2.937   3.390   7.303 -0.3042  0.7697  1.6661
 7486SOL    HW234092   2.967   3.254   7.264 -0.4395  0.8252 -0.0960
 7487SOL     OW34093   3.291   4.603   1.319 -0.0723 -0.2457  0.0286
 7487SOL    HW134094   3.321   4.643   1.401 -0.2136  1.6428 -0.8282
 7487SOL    HW234095   3.207   4.645   1.301  0.2623  0.5729  0.3922
 7488SOL     OW34096   2.247   0.628   3.953 -0.0124  0.0467  0.0901
 7488SOL    HW134097   2.153   0.627   3.970 -0.7326 -0.1520 -3.8629
 7488SOL    HW234098   2.278   0.660   4.037 -2.0741 -2.1879  1.6749
 7489SOL     OW34099   4.497   4.420   5.978 -0.1595  0.3137 -0.3230
 7489SOL    HW134100   4.412   4.457   5.953  0.2652  0.8385 -1.0114
 7489SOL    HW234101   4.484   4.413   6.072  2.5373  0.4088  0.0583
 7490SOL     OW34102   3.845   3.203   9.305 -0.3964  0.2866 -0.4967
 7490SOL    HW134103   3.878   3.131   9.359 -1.2849  0.1188 -0.1825
 7490SOL    HW234104   3.924   3.221   9.254 -0.8241 -0.9359 -1.5800
 7491SOL     OW34105   2.665   2.711   8.342 -0.7816 -0.1546 -0.1395
 7491SOL    HW134106   2.635   2.638   8.287  0.9913 -0.1781 -1.0875
 7491SOL    HW234107   2.751   2.713   8.298 -1.2459  3.8796 -0.9011
 7492SOL     OW34108   4.528   2.473  12.515  0.2586 -0.5345  0.6540
 7492SOL    HW134109   4.501   2.519  12.435 -1.4565 -1.1967  0.8477
 7492SOL    HW234110   4.603   2.420  12.490  1.6348  1.2703  0.9866
 7493SOL     OW34111   2.688   1.674  16.539  0.4505  0.3015  0.9725
 7493SOL    HW134112   2.665   1.658  16.447  1.0930 -0.7650  1.0097
 7493SOL    HW234113   2.627   1.617  16.585  0.7476 -0.3038  0.6141
 7494SOL     OW34114   2.581   1.484   1.333  0.0475 -0.1613  0.3040
 7494SOL    HW134115   2.569   1.514   1.243 -2.4065  0.7149  0.9399
 7494SOL    HW234116   2.617   1.568   1.363 -0.8097  0.1212  0.5264
 7495SOL     OW34117   2.362   4.676   9.995  0.2466 -0.2667 -0.3946
 7495SOL    HW134118   2.324   4.609   9.939 -1.4876  0.2527  0.1709
 7495SOL    HW234119   2.411   4.723   9.926  0.6950  2.0437  1.4939
 7496SOL     OW34120   0.505   0.372   0.757 -0.8980 -0.3170 -1.1976
 7496SOL    HW134121   0.475   0.298   0.810  1.3509 -1.7957 -1.9958
 7496SOL    HW234122   0.533   0.340   0.671  0.6564 -0.1302 -0.7496
 7497SOL     OW34123   3.530   4.685   4.144 -0.4919 -0.0368 -1.1272
 7497SOL    HW134124   3.613   4.714   4.106  0.4183 -1.0060  0.0863
 7497SOL    HW234125   3.550   4.592   4.144 -1.0651 -0.1673  0.6353
 7498SOL     OW34126   2.257   0.914   6.560  0.2203  0.2688 -0.1918
 7498SOL    HW134127   2.240   0.901   6.654 -2.0814  0.6998 -0.5493
 7498SOL    HW234128   2.349   0.941   6.553  0.6566 -0.8972  1.0650
 7499SOL     OW34129   2.812   2.114   4.877  0.7272 -0.6432  0.1547
 7499SOL    HW134130   2.808   2.203   4.912  1.8465 -0.3188 -0.5745
 7499SOL    HW234131   2.744   2.068   4.927  0.6782  0.5731  1.2320
 7500SOL     OW34132   0.013   2.100   6.556 -0.3371  0.1366 -0.2608
 7500SOL    HW134133   4.687   2.047   6.608  0.6380  0.1470  0.9082
 7500SOL    HW234134   0.005   2.053   6.474  1.1902 -4.1999  2.1009
 7501SOL     OW34135   4.030   3.878   4.518 -0.2485  0.1924 -0.4923
 7501SOL    HW134136   4.018   3.845   4.429 -1.0844  0.3512 -0.4373
 7501SOL    HW234137   4.118   3.912   4.502 -0.8800  1.0953 -2.0504
 7502SOL     OW34138   3.654   3.006  12.931  0.7561  0.1964 -0.5802
 7502SOL    HW134139   3.617   2.934  12.981 -2.1706 -0.4334 -3.6183
 7502SOL    HW234140   3.638   2.977  12.841  0.0656  0.2208 -0.4607
 7503SOL     OW34141   0.691   3.011  11.665 -0.1396 -0.9855  0.2725
 7503SOL    HW134142   0.605   3.020  11.624  0.9965  1.4228 -1.5849
 7503SOL    HW234143   0.681   3.092  11.716  2.3227 -1.2328  1.1484
 7504SOL     OW34144   1.360   3.887  16.296 -0.4567 -0.1150  0.1811
 7504SOL    HW134145   1.347   3.871  16.390 -0.6721 -0.6744  0.0496
 7504SOL    HW234146   1.400   3.974  16.300  0.9561 -0.7299 -0.5717
 7505SOL     OW34147   2.953   2.553   4.507  0.3400 -0.2611  0.1190
 7505SOL    HW134148   2.904   2.530   4.587 -0.2344 -0.8130 -0.3888
 7505SOL    HW234149   3.017   2.612   4.547 -0.6962  0.9078  0.0441
 7506SOL     OW34150   1.558   1.306   8.357  1.1451  0.2420  0.4930
 7506SOL    HW134151   1.587   1.304   8.448 -1.4550  1.6485  1.3670
 7506SOL    HW234152   1.513   1.222   8.350  1.5577 -0.0588  1.6698
 7507SOL     OW34153   4.337   2.749  15.511  0.0461 -0.0391  0.1412
 7507SOL    HW134154   4.347   2.798  15.592 -0.9081 -0.3387  0.4382
 7507SOL    HW234155   4.260   2.788  15.470 -0.7725 -2.6550 -0.8060
 7508SOL     OW34156   2.898   2.150   1.040  0.3484  0.1623 -0.6662
 7508SOL    HW134157   2.931   2.239   1.048 -1.7356  0.6819  2.5279
 7508SOL    HW234158   2.831   2.150   1.109  1.3517 -1.6402  0.3086
 7509SOL     OW34159   3.686   1.476   7.494 -0.0894  0.3279 -0.0082
 7509SOL    HW134160   3.703   1.385   7.470 -0.9912  0.5380 -1.4876
 7509SOL    HW234161   3.771   1.514   7.474  0.4456 -0.4639  0.7711
 7510SOL     OW34162   4.450   3.343  17.194  0.3484 -0.2194  0.2838
 7510SOL    HW134163   4.412   3.431  17.198  1.9018  0.4047  1.3023
 7510SOL    HW234164   4.544   3.361  17.191 -0.1797  2.5223 -0.3807
 7511SOL     OW34165   4.542   4.668   3.709 -0.0438 -0.0766 -0.3282
 7511SOL    HW134166   4.448   4.672   3.725  0.3006  2.5493  1.0094
 7511SOL    HW234167   4.553   0.021   3.674  1.4572 -0.6879 -1.4341
 7512SOL     OW34168   0.149   0.432   7.457  0.1442 -0.2269 -0.0161
 7512SOL    HW134169   0.090   0.457   7.528  1.2867 -0.8140  1.1193
 7512SOL    HW234170   0.172   0.341   7.472 -2.4641 -0.8839  0.0333
 7513SOL     OW34171   1.806   2.087   1.987  0.5254 -0.4569  0.2400
 7513SOL    HW134172   1.780   2.176   2.011  2.6979  0.0758  0.6062
 7513SOL    HW234173   1.776   2.041   2.065 -1.1693  2.4262  1.3012
 7514SOL     OW34174   3.693   1.262   6.934  0.1398  0.2987 -0.5145
 7514SOL    HW134175   3.673   1.278   7.027 -1.5266  1.2878 -1.0397
 7514SOL    HW234176   3.609   1.266   6.888  0.0645  3.3666 -0.0973
 7515SOL     OW34177   1.630   1.341   5.282  0.2192  0.4034 -0.1834
 7515SOL    HW134178   1.582   1.268   5.243 -1.5627  0.4967  1.8189
 7515SOL    HW234179   1.683   1.361   5.205 -1.2689  4.1032 -0.2504
 7516SOL     OW34180   0.525   2.883   6.464  0.5523  0.2144  0.1583
 7516SOL    HW134181   0.491   2.856   6.549  0.3245 -3.0233 -0.9426
 7516SOL    HW234182   0.522   2.803   6.410  2.0686  0.7799 -0.7424
 7517SOL     OW34183   1.101   3.116   6.112  0.0858  0.6825  0.5110
 7517SOL    HW134184   1.103   3.101   6.017  2.7357  0.5125  0.5975
 7517SOL    HW234185   1.193   3.092   6.122 -0.4991 -1.7059 -0.0498
 7518SOL     OW34186   3.409   0.000   2.456  0.2381  0.0765  0.1329
 7518SOL    HW134187   3.498   4.700   2.461 -0.5185 -1.8147  0.2407
 7518SOL    HW234188   3.412   0.066   2.525  0.5223 -0.5833  0.7541
 7519SOL     OW34189   2.733   3.232  15.209  0.0519 -0.0583  0.4656
 7519SOL    HW134190   2.775   3.266  15.288 -1.0425 -0.3687  1.1880
 7519SOL    HW234191   2.673   3.299  15.176  0.2057  0.8125  1.9590
 7520SOL     OW34192   2.278   0.414   7.028  0.0661 -0.3504 -0.0143
 7520SOL    HW134193   2.346   0.426   7.094  0.2606 -0.2725 -0.2273
 7520SOL    HW234194   2.340   0.402   6.956  0.1365  1.0316 -0.1792
 7521SOL     OW34195   3.289   3.210   4.297  0.0490  0.2436  0.2217
 7521SOL    HW134196   3.219   3.201   4.232 -0.5541 -1.7648  1.1286
 7521SOL    HW234197   3.312   3.301   4.283 -4.5950  1.3347 -0.2429
 7522SOL     OW34198   1.494   2.028   2.415  0.3441 -0.1147  0.1033
 7522SOL    HW134199   1.409   1.991   2.389 -0.3752  1.1214  0.7003
 7522SOL    HW234200   1.474   2.103   2.470 -2.4005 -1.3105  0.7843
 7523SOL     OW34201   4.142   2.366   7.549 -0.4112  0.1848 -0.3740
 7523SOL    HW134202   4.200   2.374   7.473  0.3117  1.9056  0.3694
 7523SOL    HW234203   4.111   2.456   7.558 -0.7719  0.3323 -3.0712
 7524SOL     OW34204   0.014   1.036   6.282 -0.1235 -0.2005  0.2795
 7524SOL    HW134205   0.001   1.129   6.259 -2.3544 -0.8460 -1.1404
 7524SOL    HW234206   4.686   1.004   6.217  1.4316 -0.1700 -1.2422
 7525SOL     OW34207   2.429   3.410   2.630 -0.2159  0.5967  0.5317
 7525SOL    HW134208   2.474   3.326   2.634 -1.3579 -0.0558 -0.2532
 7525SOL    HW234209   2.419   3.418   2.535 -0.1893  1.4149  0.5903
 7526SOL     OW34210   0.388   1.052   6.981 -0.6534 -0.2996  0.1065
 7526SOL    HW134211   0.463   1.001   7.012 -0.3469  0.0341 -0.0860
 7526SOL    HW234212   0.414   1.064   6.890  1.7963 -0.0587  0.8149
 7527SOL     OW34213   1.204   3.897   4.303  0.6091 -0.3040  0.0602
 7527SOL    HW134214   1.198   3.984   4.264  0.4587  0.9822  2.9682
 7527SOL    HW234215   1.150   3.851   4.239 -0.7321 -0.2077  1.1236
 7528SOL     OW34216   1.692   0.068   4.013  0.2444  0.4209  0.3142
 7528SOL    HW134217   1.665   0.136   4.074  2.4871  0.5513  1.1805
 7528SOL    HW234218   1.642   0.093   3.936  1.0746  0.3136 -0.2575
 7529SOL     OW34219   4.341   2.689   4.564 -0.3715  0.5656 -0.6582
 7529SOL    HW134220   4.288   2.769   4.558  0.9955  1.6771  1.9550
 7529SOL    HW234221   4.388   2.701   4.647 -0.7072  1.4478 -0.5994
 7530SOL     OW34222   4.654   2.535   1.854  0.0721 -0.2323  0.1185
 7530SOL    HW134223   4.582   2.527   1.917 -1.6274  0.4908 -1.7222
 7530SOL    HW234224   4.720   2.496   1.912 -0.3110  3.4061  2.9911
 7531SOL     OW34225   2.732   0.057   2.324 -0.1551  0.3131 -0.4296
 7531SOL    HW134226   2.659   4.733   2.304  0.0279 -0.1497  0.2752
 7531SOL    HW234227   2.786   0.054   2.245  0.3136  0.0192 -0.0960
 7532SOL     OW34228   0.913   4.530   9.471 -0.3268 -0.1694  0.0036
 7532SOL    HW134229   0.856   4.518   9.548 -2.4758 -2.0767 -1.8947
 7532SOL    HW234230   0.939   4.621   9.485  1.9878 -0.4892 -2.3205
 7533SOL     OW34231   2.762   1.227   4.948  0.2315  0.5021 -0.0066
 7533SOL    HW134232   2.779   1.166   5.020  3.4156 -1.9566 -2.8103
 7533SOL    HW234233   2.824   1.293   4.978  0.3932 -0.1193  1.0250
 7534SOL     OW34234   1.617   1.939   8.794  0.8795 -0.7846  0.8732
 7534SOL    HW134235   1.590   1.858   8.750  0.6926 -0.0032 -0.4578
 7534SOL    HW234236   1.552   1.949   8.864  0.4570  0.2669  0.3375
 7535SOL     OW34237   2.444   3.823   7.657 -0.3321 -0.2479  0.3360
 7535SOL    HW134238   2.525   3.777   7.634  0.3670  0.0230  2.2480
 7535SOL    HW234239   2.455   3.825   7.752  2.0303  0.0008  0.0462
 7536SOL     OW34240   4.201   1.676   9.444 -0.3742  0.3432 -0.0833
 7536SOL    HW134241   4.287   1.687   9.486  0.5023 -0.3901 -1.7135
 7536SOL    HW234242   4.180   1.587   9.470  0.3001  1.0286  2.8088
 7537SOL     OW34243   3.597   0.790   2.106 -0.4013  0.4274 -0.1753
 7537SOL    HW134244   3.524   0.750   2.058  0.5506 -0.0308 -1.2395
 7537SOL    HW234245   3.555   0.876   2.106 -4.0463 -1.3623 -0.5336
 7538SOL     OW34246   0.513   2.229   1.090 -0.4403 -0.3285 -0.3614
 7538SOL    HW134247   0.563   2.283   1.150 -1.0335 -0.7737  0.5286
 7538SOL    HW234248   0.430   2.221   1.136 -1.0304 -2.8660 -1.8474
 7539SOL     OW34249   0.028   3.970   8.135 -0.4991 -0.1083  0.2004
 7539SOL    HW134250   0.003   3.882   8.107 -0.0880  0.2117 -1.1569
 7539SOL    HW234251   0.000   4.017   8.056  2.7004  1.9209  0.2707
 7540SOL     OW34252   2.572   3.008   5.768  0.2516  0.0452  0.0627
 7540SOL    HW134253   2.617   2.986   5.850  1.0385 -0.1958 -0.4301
 7540SOL    HW234254   2.491   2.960   5.785 -0.7526  2.0568  0.8304
 7541SOL     OW34255   1.752   1.147  14.598  0.7558  0.1187 -0.2664
 7541SOL    HW134256   1.820   1.207  14.627  1.3325  0.5072 -2.4166
 7541SOL    HW234257   1.784   1.139  14.508 -1.1122  1.9934 -1.0958
 7542SOL     OW34258   0.960   2.279  10.444 -1.0668  0.2154  0.4563
 7542SOL    HW134259   0.970   2.268  10.538  2.1992  0.9022  0.2142
 7542SOL    HW234260   0.918   2.365  10.445 -1.7122 -0.0999  0.3672
 7543SOL     OW34261   4.324   1.719   9.204 -0.0999  0.5888  1.1325
 7543SOL    HW134262   4.288   1.707   9.293  1.0894  0.3624  1.5806
 7543SOL    HW234263   4.319   1.814   9.196 -0.9615  0.5177  0.7634
 7544SOL     OW34264   3.148   3.336   8.988  0.3893  0.1305 -0.3324
 7544SOL    HW134265   3.129   3.425   8.959  0.0709  0.1439 -0.0843
 7544SOL    HW234266   3.111   3.329   9.076 -0.0950 -0.8491 -0.6106
 7545SOL     OW34267   4.280   0.852   9.120 -0.2527  0.1937 -0.9256
 7545SOL    HW134268   4.373   0.841   9.139 -0.6070 -1.8961 -0.4413
 7545SOL    HW234269   4.242   0.809   9.196 -0.1411  0.1822 -0.8761
 7546SOL     OW34270   0.517   3.286  15.922  0.6021  0.0904  0.8030
 7546SOL    HW134271   0.506   3.224  15.850  1.4924  2.1874 -1.1563
 7546SOL    HW234272   0.464   3.360  15.894 -0.3506 -0.5974  0.7961
 7547SOL     OW34273   3.440   4.387   6.562  0.4323 -0.1115  0.2607
 7547SOL    HW134274   3.468   4.469   6.521  2.1361 -1.2536 -0.8736
 7547SOL    HW234275   3.506   4.341   6.509  0.3343  0.4626 -0.3760
 7548SOL     OW34276   4.697   2.040  15.873  0.3190 -0.4611 -0.1648
 7548SOL    HW134277   4.679   2.132  15.893 -0.0003 -1.1375  2.5680
 7548SOL    HW234278   4.623   1.992  15.910  0.8104  0.9173  2.5775
 7549SOL     OW34279   1.135   2.219   5.206 -0.0538 -0.0040  0.0976
 7549SOL    HW134280   1.083   2.200   5.128 -0.7743  0.0680  0.5657
 7549SOL    HW234281   1.206   2.155   5.198  1.4235  1.7269 -0.9406
 7550SOL     OW34282   3.523   1.211  15.216 -0.0932  0.1398 -0.5044
 7550SOL    HW134283   3.471   1.273  15.267  2.8467 -0.8931  3.7603
 7550SOL    HW234284   3.478   1.221  15.132  2.3934  2.5198 -1.5107
 7551SOL     OW34285   4.015   4.441   0.922  0.2312 -0.5788 -0.5256
 7551SOL    HW134286   3.944   4.376   0.922 -3.4334  3.3760  2.9185
 7551SOL    HW234287   3.977   4.494   0.993  0.2039  0.2308 -1.1487
 7552SOL     OW34288   4.041   3.273  10.733 -0.2021  0.0300  0.5373
 7552SOL    HW134289   4.001   3.186  10.738 -0.3031  0.0141 -0.6962
 7552SOL    HW234290   4.062   3.284  10.826 -1.5557 -2.1070  1.1210
 7553SOL     OW34291   0.017   2.217   0.468  0.2450  0.3642 -0.8230
 7553SOL    HW134292   4.672   2.198   0.419 -0.0579  0.5371 -0.3949
 7553SOL    HW234293   0.080   2.232   0.398  0.6015  0.4969 -0.4805
 7554SOL     OW34294   0.341   0.981   2.481 -0.1443  0.0660 -0.4180
 7554SOL    HW134295   0.269   1.034   2.447 -0.0869 -1.1575 -2.4743
 7554SOL    HW234296   0.411   1.046   2.491 -2.2084  2.3231 -0.4849
 7555SOL     OW34297   2.635   2.041   0.009  0.3718  0.3272 -0.0139
 7555SOL    HW134298   2.543   2.027  17.728 -0.4295  2.8848  1.9504
 7555SOL    HW234299   2.647   2.130  17.716  2.2437 -0.7078 -2.2555
 7556SOL     OW34300   1.210   2.608   2.880  0.0545 -0.5317  1.1412
 7556SOL    HW134301   1.173   2.614   2.968  2.4076  1.0831  2.0307
 7556SOL    HW234302   1.143   2.555   2.837 -0.8387  0.6429  1.1057
 7557SOL     OW34303   4.054   0.969   7.705  0.7617  0.2294  0.2512
 7557SOL    HW134304   4.035   0.924   7.623 -0.4403  0.1571  0.5624
 7557SOL    HW234305   4.086   1.052   7.671  1.6812  0.4686  1.6928
 7558SOL     OW34306   1.476   3.471   8.506 -0.4292 -0.1299  0.0982
 7558SOL    HW134307   1.419   3.409   8.551 -1.9944  0.9620 -0.3561
 7558SOL    HW234308   1.483   3.423   8.424  0.4782 -0.9672  0.6734
 7559SOL     OW34309   1.502   4.479   8.104  0.0034  0.0333 -0.1969
 7559SOL    HW134310   1.457   4.550   8.058 -0.7951 -1.2138 -1.3195
 7559SOL    HW234311   1.593   4.510   8.099 -0.6391  2.1417  0.8941
 7560SOL     OW34312   0.563   1.848  12.461  0.2376 -0.1531 -0.1653
 7560SOL    HW134313   0.628   1.785  12.430  1.2643  1.1717 -0.7299
 7560SOL    HW234314   0.565   1.925  12.405  2.7200  0.2545  0.4499
 7561SOL     OW34315   2.983   3.449   3.591  0.7633 -0.3180 -0.1288
 7561SOL    HW134316   2.961   3.357   3.609 -0.0425 -0.1077 -0.0417
 7561SOL    HW234317   2.909   3.474   3.536  1.8491 -1.1297 -1.9603
 7562SOL     OW34318   1.414   2.459   7.802  0.3547 -0.2976 -0.5889
 7562SOL    HW134319   1.403   2.374   7.759 -1.0962  0.1201 -1.0155
 7562SOL    HW234320   1.385   2.448   7.892 -1.1749 -1.0326 -1.1710
 7563SOL     OW34321   2.679   0.005   7.253 -0.0791  0.0082 -0.1707
 7563SOL    HW134322   2.609   4.711   7.312  0.0396  1.2888  0.5845
 7563SOL    HW234323   2.660   4.682   7.179 -0.2782 -1.3110  0.8890
 7564SOL     OW34324   4.280   0.189   4.054 -0.1083 -0.7410  0.4978
 7564SOL    HW134325   4.313   0.236   3.977  1.2954  0.8316  2.0874
 7564SOL    HW234326   4.350   0.124   4.055 -1.3171 -2.1122 -1.9935
 7565SOL     OW34327   3.080   0.774   2.044 -0.2684  0.2100 -0.1271
 7565SOL    HW134328   3.028   0.786   1.965  0.4194  0.0393 -0.6088
 7565SOL    HW234329   3.058   0.854   2.091 -0.7488 -0.4909  0.8473
 7566SOL     OW34330   3.229   3.516   7.157 -0.4946 -0.0238  0.2896
 7566SOL    HW134331   3.275   3.546   7.078  0.9633 -0.8510  0.8301
 7566SOL    HW234332   3.227   3.424   7.133 -0.3607  0.2361 -0.7327
 7567SOL     OW34333   3.620   1.696   6.029  0.5526  0.5487 -0.1022
 7567SOL    HW134334   3.584   1.709   5.941  0.0168 -2.8606 -0.4129
 7567SOL    HW234335   3.591   1.606   6.048 -1.5066  1.6052  1.8137
 7568SOL     OW34336   3.127   1.668  11.389  0.5059  0.1302 -0.4495
 7568SOL    HW134337   3.159   1.728  11.322 -0.4770  1.4650  0.2905
 7568SOL    HW234338   3.214   1.638  11.416  0.0271 -1.3431 -0.5496
 7569SOL     OW34339   4.419   1.536   1.535  0.2432 -0.2069 -0.0735
 7569SOL    HW134340   4.505   1.517   1.571  0.1472 -0.1498  0.1864
 7569SOL    HW234341   4.413   1.631   1.537  3.9950 -0.0159  1.5054
 7570SOL     OW34342   1.407   1.011   4.789 -0.2813 -0.3712 -0.0638
 7570SOL    HW134343   1.341   1.022   4.722  0.3401 -0.3538 -0.6731
 7570SOL    HW234344   1.358   0.965   4.858 -0.3757  2.3455  1.7117
 7571SOL     OW34345   3.816   3.457  15.846 -0.8220  0.4120 -0.1307
 7571SOL    HW134346   3.745   3.473  15.909 -1.3443  0.9230 -0.8541
 7571SOL    HW234347   3.862   3.541  15.849  1.0782 -0.6883  1.2214
 7572SOL     OW34348   4.371   2.345   8.085 -0.2987 -0.3030  0.3254
 7572SOL    HW134349   4.334   2.352   8.174 -0.4971 -0.5981  0.2642
 7572SOL    HW234350   4.286   2.341   8.040 -0.2441  1.6186  0.0628
 7573SOL     OW34351   1.767   0.845   9.524  0.1645 -0.8917  0.3402
 7573SOL    HW134352   1.819   0.883   9.595  0.0054 -0.1580  0.0618
 7573SOL    HW234353   1.704   0.788   9.568 -2.7199  1.6048 -0.5829
 7574SOL     OW34354   2.078   4.063   6.867  0.3481 -0.5731 -0.1624
 7574SOL    HW134355   2.102   4.154   6.846  0.0743 -0.8338 -1.6243
 7574SOL    HW234356   2.017   4.040   6.797 -0.7736 -0.1194  0.6616
 7575SOL     OW34357   3.501   0.940   1.176 -0.3158 -0.0664 -0.3610
 7575SOL    HW134358   3.549   0.884   1.116  0.1802  0.5982 -0.5867
 7575SOL    HW234359   3.525   1.019   1.128  0.8742 -1.4692 -2.0477
 7576SOL     OW34360   3.168   0.377   5.465  1.0314 -0.4030  0.1683
 7576SOL    HW134361   3.128   0.341   5.544  0.4386  1.4520  0.7198
 7576SOL    HW234362   3.187   0.466   5.496 -0.5447  0.8999 -2.5381
 7577SOL     OW34363   2.810   2.268  16.143  0.1958 -0.3279  0.5190
 7577SOL    HW134364   2.740   2.264  16.208 -0.7432  2.5852 -0.2718
 7577SOL    HW234365   2.832   2.360  16.162  2.0115 -0.1510 -2.3735
 7578SOL     OW34366   1.539   3.710   0.939 -0.2984 -0.1181  0.9465
 7578SOL    HW134367   1.510   3.795   0.973 -0.4468  0.4726 -0.6502
 7578SOL    HW234368   1.627   3.731   0.907 -1.0681  0.0359 -1.0832
 7579SOL     OW34369   3.201   0.813  13.847  0.8218  0.2444 -0.1684
 7579SOL    HW134370   3.162   0.757  13.779  0.2876 -2.6731  2.5473
 7579SOL    HW234371   3.169   0.898  13.817 -1.1034 -0.4947 -0.2325
 7580SOL     OW34372   2.984   1.927   4.473 -0.5467  0.0402  0.0465
 7580SOL    HW134373   2.911   1.954   4.417 -1.9407  0.0345  1.8650
 7580SOL    HW234374   2.937   1.915   4.556 -0.6566  0.7026  0.0801
 7581SOL     OW34375   3.819   3.446   8.040 -0.2297  0.0022 -0.1452
 7581SOL    HW134376   3.902   3.400   8.050  0.4821  1.1626 -0.7077
 7581SOL    HW234377   3.836   3.535   8.008 -1.6241  0.2700 -0.1298
 7582SOL     OW34378   2.076   3.080   7.530  0.1761  0.1843  0.2053
 7582SOL    HW134379   2.068   3.100   7.623 -1.8087 -1.4724  0.3998
 7582SOL    HW234380   2.103   2.990   7.547 -1.5759 -0.1776  1.0547
 7583SOL     OW34381   4.446   0.063  12.594  0.3176  0.4439  0.1496
 7583SOL    HW134382   4.421   0.092  12.681  1.0358  1.5877 -0.0250
 7583SOL    HW234383   4.364   0.074  12.546 -0.4340  0.1754  1.3764
 7584SOL     OW34384   0.427   3.854   7.664  0.0320 -0.1061  0.3179
 7584SOL    HW134385   0.380   3.788   7.713 -2.0872  1.4671  0.4090
 7584SOL    HW234386   0.517   3.834   7.690 -0.0236  0.5486  1.0166
 7585SOL     OW34387   0.592   3.137   2.925  0.9773 -0.4131  0.3348
 7585SOL    HW134388   0.519   3.085   2.959  1.5449 -2.5543 -1.7394
 7585SOL    HW234389   0.593   3.222   2.969 -0.7537 -0.0399 -0.3829
 7586SOL     OW34390   0.625   0.476   4.310 -0.4790  0.4976 -0.3833
 7586SOL    HW134391   0.686   0.539   4.348  1.7431 -2.4209  0.9210
 7586SOL    HW234392   0.574   0.540   4.261 -0.7251 -0.0669 -0.8669
 7587SOL     OW34393   1.802   3.654   2.055  0.2678 -0.3127 -0.2116
 7587SOL    HW134394   1.738   3.603   2.007  0.1879 -0.1998 -0.2256
 7587SOL    HW234395   1.742   3.721   2.090  0.1310  0.4473 -1.9256
 7588SOL     OW34396   1.291   4.423   5.781  0.4316 -0.2168  0.0728
 7588SOL    HW134397   1.321   4.335   5.758  1.9223  0.3776 -0.2974
 7588SOL    HW234398   1.234   4.449   5.708 -2.9261 -1.9910  2.0793
 7589SOL     OW34399   0.601   3.883   4.285  0.1879  0.0194 -0.2260
 7589SOL    HW134400   0.573   3.814   4.225 -1.0465  0.8562 -0.6094
 7589SOL    HW234401   0.617   3.947   4.215  1.8900 -0.6344 -0.4411
 7590SOL     OW34402   0.118   4.145  11.936  0.1172 -0.1239 -0.1720
 7590SOL    HW134403   0.171   4.079  11.891 -0.2809 -0.7578  0.2936
 7590SOL    HW234404   0.155   4.133  12.023 -0.3809 -0.5178 -0.0131
 7591SOL     OW34405   3.579   3.330   5.715  0.0278  0.7731 -0.0386
 7591SOL    HW134406   3.607   3.340   5.624 -2.0501 -0.5807 -0.8124
 7591SOL    HW234407   3.645   3.269   5.748  0.3892  1.9268  1.3510
 7592SOL     OW34408   1.384   3.591   6.530  0.0260 -0.0046  0.3461
 7592SOL    HW134409   1.425   3.672   6.498  0.0187 -0.1302  0.0143
 7592SOL    HW234410   1.438   3.579   6.608 -2.0411 -2.1775  1.4107
 7593SOL     OW34411   1.242   3.351  12.756 -0.1022  0.0152 -0.2909
 7593SOL    HW134412   1.187   3.389  12.688  0.3418 -2.0070 -1.7559
 7593SOL    HW234413   1.315   3.311  12.709  0.1934  0.8419 -0.5505
 7594SOL     OW34414   0.176   2.628   3.579  0.3385 -0.3867 -0.0570
 7594SOL    HW134415   0.166   2.538   3.547  1.2002 -0.9031  1.1138
 7594SOL    HW234416   0.175   2.682   3.500  2.1917  0.2664  0.3658
 7595SOL     OW34417   2.552   0.727  14.814  0.0402 -0.0097  0.0771
 7595SOL    HW134418   2.613   0.664  14.776  1.6590  3.3636 -2.8564
 7595SOL    HW234419   2.466   0.684  14.811  0.0979 -0.4738  3.9057
 7596SOL     OW34420   2.121   1.622   8.398 -0.1984 -0.4035 -0.2474
 7596SOL    HW134421   2.027   1.605   8.411 -0.0452 -1.6808 -0.8073
 7596SOL    HW234422   2.124   1.676   8.318  0.7322 -0.6634 -0.3810
 7597SOL     OW34423   4.271   2.789   2.604  1.2659  0.1730  0.5132
 7597SOL    HW134424   4.315   2.846   2.667  1.3177  1.2264 -0.4534
 7597SOL    HW234425   4.236   2.850   2.538 -0.3707  0.9245  2.0744
 7598SOL     OW34426   3.763   4.288   3.780  0.2882  0.3754  0.1998
 7598SOL    HW134427   3.751   4.373   3.737 -0.2359 -0.2778 -0.9243
 7598SOL    HW234428   3.841   4.249   3.740 -0.1555 -1.4119  1.1179
 7599SOL     OW34429   1.200   0.546   7.575 -0.0563 -0.5234 -0.3237
 7599SOL    HW134430   1.161   0.470   7.531  0.5213 -0.7681 -0.4234
 7599SOL    HW234431   1.142   0.615   7.543 -0.0852 -0.6231 -0.4849
 7600SOL     OW34432   3.860   1.771   2.053 -0.0236  0.1397 -0.0431
 7600SOL    HW134433   3.905   1.782   2.137  1.5453 -1.0866 -0.7060
 7600SOL    HW234434   3.942   1.782   2.004 -1.9880 -1.0528 -3.6109
 7601SOL     OW34435   4.704   0.420   3.287 -0.3250 -0.6238 -0.0961
 7601SOL    HW134436   0.048   0.375   3.318 -0.0086 -0.2246 -0.3291
 7601SOL    HW234437   4.658   0.444   3.368 -1.5439 -1.4203 -0.5352
 7602SOL     OW34438   2.429   2.760  17.606 -0.4043  0.0251  0.0898
 7602SOL    HW134439   2.412   2.854  17.601  0.8669  0.1940 -1.1050
 7602SOL    HW234440   2.344   2.727  17.576 -0.0402 -1.4323  0.6782
 7603SOL     OW34441   3.414   2.146   2.648  0.1448 -0.1952 -0.5996
 7603SOL    HW134442   3.470   2.070   2.635  1.9113  1.4690 -2.6866
 7603SOL    HW234443   3.356   2.140   2.572 -0.8302 -2.3478  0.3221
 7604SOL     OW34444   1.130   4.391   9.418 -0.2836 -0.4043  0.9856
 7604SOL    HW134445   1.147   4.425   9.330  2.0436  0.0334  1.6066
 7604SOL    HW234446   1.058   4.447   9.446  0.3350  1.6878 -1.6339
 7605SOL     OW34447   4.422   1.843  13.423  0.1358 -0.2388  0.0120
 7605SOL    HW134448   4.401   1.906  13.354  0.7216  0.7907  0.7680
 7605SOL    HW234449   4.482   1.893  13.480  0.8915 -0.5910 -0.4687
 7606SOL     OW34450   4.617   2.301  15.821  0.3896  0.1221 -0.6087
 7606SOL    HW134451   4.583   2.249  15.749  0.5025 -0.5721 -0.1545
 7606SOL    HW234452   4.548   2.362  15.845  0.9912  0.9170 -0.8600
 7607SOL     OW34453   1.198   2.176   9.332  0.2149  0.3760  0.2354
 7607SOL    HW134454   1.161   2.123   9.261 -1.2363  1.4596  0.1791
 7607SOL    HW234455   1.276   2.122   9.343  0.2574  0.5486  0.7601
 7608SOL     OW34456   4.543   3.562   2.650  0.6187 -0.6108 -0.4698
 7608SOL    HW134457   4.462   3.555   2.598  0.7233 -0.0612 -0.7073
 7608SOL    HW234458   4.575   3.472   2.645 -0.2188 -1.0552  2.3285
 7609SOL     OW34459   0.000   4.192   9.171 -0.1059 -0.0259 -0.3315
 7609SOL    HW134460   0.083   4.185   9.219  0.7143  1.0588 -1.5869
 7609SOL    HW234461   0.026   4.218   9.082 -0.9799  0.6052 -0.3993
 7610SOL     OW34462   3.118   0.761   5.287 -0.2296 -0.2839  0.0052
 7610SOL    HW134463   3.045   0.735   5.343 -0.3864  2.5186  1.1283
 7610SOL    HW234464   3.189   0.780   5.349 -1.5507  1.6488  0.9200
 7611SOL     OW34465   2.574   2.693  17.090 -0.8193 -0.1307 -0.0924
 7611SOL    HW134466   2.632   2.737  17.028  0.9774  1.5924  2.8901
 7611SOL    HW234467   2.607   2.603  17.081 -0.8816 -0.2491  0.8515
 7612SOL     OW34468   3.979   4.528   3.490  0.1804 -0.2046  0.4066
 7612SOL    HW134469   4.033   4.607   3.487  1.5075 -1.2089 -2.4195
 7612SOL    HW234470   3.998   4.497   3.401  0.6422  0.6937  0.1912
 7613SOL     OW34471   0.541   3.473  17.657  0.0994  0.6876  0.4035
 7613SOL    HW134472   0.573   3.499  17.571 -1.3757 -2.3865 -1.0693
 7613SOL    HW234473   0.564   3.552  17.706  0.5146  0.2823  0.8647
 7614SOL     OW34474   0.221   2.977   0.104 -0.5711  0.0508 -0.1204
 7614SOL    HW134475   0.127   2.967   0.097 -0.3413 -1.4149 -0.9813
 7614SOL    HW234476   0.240   2.924   0.027  0.2642 -1.6287  1.2391
 7615SOL     OW34477   1.290   2.740  11.802 -0.1432 -0.1088 -0.2430
 7615SOL    HW134478   1.371   2.732  11.853  1.2942  0.1426 -2.4930
 7615SOL    HW234479   1.223   2.729  11.869  1.3211 -1.5564  0.9895
 7616SOL     OW34480   3.572   0.372   4.150  0.3526 -0.2578 -0.0617
 7616SOL    HW134481   3.488   0.360   4.105  1.0343  1.1869 -1.7221
 7616SOL    HW234482   3.617   0.290   4.130 -0.0124 -0.1365 -1.4343
 7617SOL     OW34483   2.799   4.691   2.568  0.4538 -0.8038 -0.4515
 7617SOL    HW134484   2.774   4.732   2.486  0.7200 -0.6041 -0.4321
 7617SOL    HW234485   2.844   4.612   2.536  2.5731 -0.3948  1.4498
 7618SOL     OW34486   2.931   1.700  16.180  0.8325  0.2490 -0.2523
 7618SOL    HW134487   2.855   1.745  16.216  1.0466 -0.4026  1.0291
 7618SOL    HW234488   2.964   1.664  16.262  0.6207  2.4185  0.7788
 7619SOL     OW34489   2.664   4.683  10.480 -0.3601 -0.1604  0.0152
 7619SOL    HW134490   2.684   0.006  10.553  0.5842 -2.6954  1.7606
 7619SOL    HW234491   2.669   4.598  10.524  0.8504 -0.1855 -0.1776
 7620SOL     OW34492   1.726   0.029  12.022 -0.4431 -0.0899  0.4143
 7620SOL    HW134493   1.716   4.678  11.982  0.1985 -0.5410  1.2159
 7620SOL    HW234494   1.814   0.042  11.986 -0.1602 -3.7383 -0.2214
 7621SOL     OW34495   3.260   1.833   5.611 -0.1456 -0.3754 -0.0238
 7621SOL    HW134496   3.212   1.903   5.566 -0.8531 -1.5574 -1.1100
 7621SOL    HW234497   3.330   1.821   5.546 -0.8137 -3.3770 -0.2083
 7622SOL     OW34498   2.750   3.286   2.866 -0.0557 -0.2394  0.2558
 7622SOL    HW134499   2.804   3.360   2.839 -2.5027  1.7647  0.8750
 7622SOL    HW234500   2.720   3.316   2.952  1.4125  1.6806  0.0802
 7623SOL     OW34501   2.189   3.602   8.735  0.0555 -0.2900 -0.5907
 7623SOL    HW134502   2.200   3.527   8.677  0.3458  0.6311 -1.7209
 7623SOL    HW234503   2.099   3.625   8.712  0.8507  2.6391 -0.8373
 7624SOL     OW34504   1.178   3.323  13.017  0.5316 -0.1298  0.5664
 7624SOL    HW134505   1.259   3.298  13.060  0.8054  1.0599  0.7405
 7624SOL    HW234506   1.200   3.332  12.924  2.4337  0.7480  1.1074
 7625SOL     OW34507   3.768   1.179   3.563 -0.1308 -0.2655  0.0875
 7625SOL    HW134508   3.801   1.089   3.568  0.1095 -0.3267 -2.9703
 7625SOL    HW234509   3.827   1.221   3.501 -1.7781 -0.6940 -1.7489
 7626SOL     OW34510   1.988   0.110   2.942  0.5492  0.7003 -0.3836
 7626SOL    HW134511   2.082   0.124   2.930  1.2670 -1.9557  2.0761
 7626SOL    HW234512   1.955   0.199   2.951 -0.7697 -0.0043  1.7679
 7627SOL     OW34513   3.326   2.343   7.977  0.2022  0.4578  0.0013
 7627SOL    HW134514   3.322   2.398   7.899 -1.0669  0.3044 -0.0564
 7627SOL    HW234515   3.264   2.272   7.956 -1.3833  2.2536 -1.4087
 7628SOL     OW34516   2.451   4.514   4.724  0.4557  0.0138 -0.0956
 7628SOL    HW134517   2.422   4.592   4.771 -0.8726 -0.9871  0.7292
 7628SOL    HW234518   2.455   4.555   4.638 -2.4977  0.1672 -0.1546
 7629SOL     OW34519   1.345   2.703   3.916 -0.2603 -0.4406  0.0960
 7629SOL    HW134520   1.346   2.798   3.920 -2.2258 -0.4984  2.1120
 7629SOL    HW234521   1.399   2.681   3.992 -0.4328  0.7451  0.5551
 7630SOL     OW34522   4.700   2.418   8.066  0.3377  0.1658 -0.0588
 7630SOL    HW134523   4.625   2.472   8.042 -0.0630 -0.1680  0.4341
 7630SOL    HW234524   4.652   2.338   8.087 -0.6113  0.3326 -1.6345
 7631SOL     OW34525   1.106   2.616   3.475  0.2027  0.1317 -0.0630
 7631SOL    HW134526   1.102   2.638   3.567 -2.2344 -2.3445  0.4391
 7631SOL    HW234527   1.173   2.548   3.476  0.3205  0.1798 -3.3547
 7632SOL     OW34528   2.896   4.244  15.146 -0.2861  0.2841  0.7336
 7632SOL    HW134529   2.848   4.203  15.073  0.8308 -0.3094  0.3334
 7632SOL    HW234530   2.980   4.205  15.124 -0.1833  0.3216  1.0654
 7633SOL     OW34531   1.395   2.070  12.527 -0.2695  0.4327  0.1779
 7633SOL    HW134532   1.322   2.077  12.589  0.8854 -0.6120  1.6441
 7633SOL    HW234533   1.440   2.151  12.552  1.8546 -0.4814 -0.7213
 7634SOL     OW34534   1.822   1.328   5.547 -0.1667 -0.3616 -0.2810
 7634SOL    HW134535   1.772   1.328   5.465 -2.0003  1.2756  0.8548
 7634SOL    HW234536   1.746   1.328   5.605  0.3518 -1.8654  0.3955
 7635SOL     OW34537   0.241   2.026   7.513 -0.1274 -0.2738  0.9304
 7635SOL    HW134538   0.261   2.062   7.599 -0.8980  0.1868  0.9224
 7635SOL    HW234539   0.213   2.107   7.470 -0.4080 -1.3278 -0.8705
 7636SOL     OW34540   0.388   4.633   5.558 -0.1134 -0.2211 -0.2524
 7636SOL    HW134541   0.458   4.687   5.520  0.4564  0.4275  1.7178
 7636SOL    HW234542   0.382   4.665   5.648 -0.4568  0.4377 -0.5075
 7637SOL     OW34543   1.997   1.077  16.758  0.1129  0.0927 -0.3126
 7637SOL    HW134544   2.007   1.163  16.799  1.6604  0.2598 -1.0469
 7637SOL    HW234545   2.016   1.100  16.667  0.9957 -1.6119 -0.5633
 7638SOL     OW34546   4.300   1.511   4.103  0.1244  0.1168 -0.2406
 7638SOL    HW134547   4.217   1.494   4.149 -0.5434  2.7780 -0.4970
 7638SOL    HW234548   4.278   1.492   4.012 -2.3916  0.4564  0.3055
 7639SOL     OW34549   3.957   1.020   6.738  0.1598 -0.1811 -0.5035
 7639SOL    HW134550   4.044   0.981   6.744  1.0053  1.6781 -0.5381
 7639SOL    HW234551   3.955   1.090   6.804 -0.9806  0.1372 -0.8838
 7640SOL     OW34552   4.464   1.821   4.454 -0.3548 -0.0499 -0.1296
 7640SOL    HW134553   4.479   1.867   4.537 -0.5008 -1.2291  0.5426
 7640SOL    HW234554   4.430   1.894   4.402  1.0140 -0.8932 -2.2012
 7641SOL     OW34555   0.995   4.266   0.185  0.6171 -0.0156  0.3331
 7641SOL    HW134556   0.943   4.269   0.265  1.2072 -1.8224  0.7734
 7641SOL    HW234557   1.036   4.352   0.176  0.2840  0.1869  0.7570
 7642SOL     OW34558   1.587   3.603   3.576  0.0143  0.5491 -0.1437
 7642SOL    HW134559   1.611   3.527   3.629 -0.4440 -0.6595 -1.6496
 7642SOL    HW234560   1.667   3.651   3.554 -0.2458  1.8955  1.8904
 7643SOL     OW34561   0.690   2.318   2.577 -0.1635 -0.1628  0.3480
 7643SOL    HW134562   0.650   2.238   2.610  1.0131 -1.0095 -0.2649
 7643SOL    HW234563   0.644   2.376   2.637 -0.0417  0.1808  0.1058
 7644SOL     OW34564   0.983   3.610   8.885  0.0425 -0.2577 -0.1394
 7644SOL    HW134565   1.066   3.659   8.883 -0.8151  1.3170  1.9148
 7644SOL    HW234566   0.917   3.679   8.873 -0.7523 -1.0610 -0.3587
 7645SOL     OW34567   1.498   1.351   4.685  0.2879  0.2465 -0.3805
 7645SOL    HW134568   1.534   1.356   4.597  1.0075  0.7236 -0.0597
 7645SOL    HW234569   1.561   1.293   4.727 -0.4522  1.0801  1.9359
 7646SOL     OW34570   2.278   1.879   2.927  0.1849 -0.6247 -0.2861
 7646SOL    HW134571   2.365   1.848   2.955  0.9245  0.3407 -1.4893
 7646SOL    HW234572   2.291   1.898   2.834 -2.0105  1.8444 -0.0831
 7647SOL     OW34573   1.591   0.628   5.250  0.4166  0.2757 -0.1680
 7647SOL    HW134574   1.529   0.570   5.206  1.3504  0.7135 -2.0437
 7647SOL    HW234575   1.597   0.692   5.179 -0.8655  0.4810 -0.0906
 7648SOL     OW34576   3.986   0.166   4.463 -0.4805  0.3963  0.2683
 7648SOL    HW134577   3.922   0.122   4.518  0.4067  0.7231  1.5771
 7648SOL    HW234578   3.975   0.106   4.390 -0.5845 -1.8676  2.1580
 7649SOL     OW34579   1.858   0.807   2.363  0.5007  0.4008 -0.3585
 7649SOL    HW134580   1.815   0.859   2.296 -1.3316 -0.2816  0.2981
 7649SOL    HW234581   1.936   0.772   2.320  1.4669 -0.5342  2.1137
 7650SOL     OW34582   1.160   2.682   6.893  0.4723  0.7239 -0.1643
 7650SOL    HW134583   1.112   2.759   6.922 -2.3191 -1.3199  0.6718
 7650SOL    HW234584   1.158   2.706   6.800  0.5459 -2.0379 -0.8992
 7651SOL     OW34585   2.406   2.060   7.588 -0.4183 -0.3972  0.5751
 7651SOL    HW134586   2.442   2.147   7.571 -0.3920 -0.3559  0.8379
 7651SOL    HW234587   2.385   2.069   7.681 -1.4530 -2.8171  0.5896
 7652SOL     OW34588   3.879   3.515   8.984 -0.3273  0.5173 -0.4792
 7652SOL    HW134589   3.841   3.559   8.909 -2.3107  0.2420  0.3710
 7652SOL    HW234590   3.969   3.515   8.952  0.1408 -1.7803  0.8127
 7653SOL     OW34591   4.509   0.325   7.064  0.0595  0.5599  1.1089
 7653SOL    HW134592   4.592   0.346   7.108 -0.7174  0.2613  2.7452
 7653SOL    HW234593   4.527   0.231   7.066  2.0033  0.9232  0.4334
 7654SOL     OW34594   2.176   4.594  16.807  0.0607 -0.2660 -0.2827
 7654SOL    HW134595   2.169   4.527  16.875  2.9625 -0.7863 -0.4953
 7654SOL    HW234596   2.086   4.622  16.822  0.7242  1.8380 -0.1811
 7655SOL     OW34597   3.303   1.986  15.248  0.2444  0.2304 -0.2974
 7655SOL    HW134598   3.309   2.076  15.216  0.5620  0.7033  1.1076
 7655SOL    HW234599   3.241   1.948  15.185  1.7646 -0.4397 -1.3704
 7656SOL     OW34600   1.579   0.827   2.953 -0.0855  0.5127 -0.1889
 7656SOL    HW134601   1.550   0.907   2.909  1.3479  1.5969  0.8513
 7656SOL    HW234602   1.497   0.792   2.987  0.0279  0.4241 -0.0092
 7657SOL     OW34603   0.685   1.275   7.905  0.0247 -0.2597  0.6416
 7657SOL    HW134604   0.689   1.313   7.993  1.0371  1.3171 -0.0998
 7657SOL    HW234605   0.629   1.342   7.864 -0.7479 -0.7278  0.9251
 7658SOL     OW34606   4.200   1.463  17.533  0.0563  1.1720 -0.8530
 7658SOL    HW134607   4.120   1.410  17.533  2.3504 -2.2584 -3.0250
 7658SOL    HW234608   4.166   1.544  17.570 -0.3962 -0.8220  3.1783
 7659SOL     OW34609   3.436   2.215   7.555  0.1381 -0.2834 -0.0233
 7659SOL    HW134610   3.480   2.209   7.639  1.3769 -1.2814 -0.7376
 7659SOL    HW234611   3.501   2.263   7.503  1.6439  0.2837  2.4208
 7660SOL     OW34612   3.895   2.559   5.786  0.4286 -0.2755 -0.5300
 7660SOL    HW134613   3.966   2.620   5.807 -1.2714  2.1230 -1.7945
 7660SOL    HW234614   3.842   2.602   5.719 -1.1259 -1.2871  0.0650
 7661SOL     OW34615   1.890   1.568   0.094 -0.1704 -0.0535  0.1018
 7661SOL    HW134616   1.947   1.644   0.087 -0.3800  0.3360  2.4168
 7661SOL    HW234617   1.945   1.501   0.054 -0.1124 -0.2984  0.5838
 7662SOL     OW34618   1.573   1.719   0.030 -0.3596 -0.3227  0.3621
 7662SOL    HW134619   1.533   1.635   0.053 -0.5217 -1.0570 -2.5090
 7662SOL    HW234620   1.510   1.760  17.709  0.0415 -0.4881 -0.1755
 7663SOL     OW34621   1.199   3.414  13.550  0.0706 -0.0856  0.5345
 7663SOL    HW134622   1.117   3.377  13.516  1.1696 -0.8260 -1.3833
 7663SOL    HW234623   1.248   3.377  13.476  0.6164 -0.0771  0.8974
 7664SOL     OW34624   0.073   0.769   8.597 -0.1726 -0.0442  0.2152
 7664SOL    HW134625   0.143   0.833   8.605  0.0680 -0.5519  2.3407
 7664SOL    HW234626   0.120   0.690   8.569  0.5736  0.7494 -0.7539
 7665SOL     OW34627   3.247   1.748   7.664 -0.2184 -0.5025  0.1166
 7665SOL    HW134628   3.342   1.754   7.677 -0.1116  0.0473 -0.8735
 7665SOL    HW234629   3.249   1.813   7.594  1.1091 -0.0240  0.5997
 7666SOL     OW34630   2.492   1.498   1.090 -0.3535 -0.1988  0.1214
 7666SOL    HW134631   2.409   1.470   1.053 -0.7151  1.0410 -0.0077
 7666SOL    HW234632   2.533   1.539   1.014 -3.3580  1.0291 -0.7979
 7667SOL     OW34633   0.149   4.045   5.893  0.3427 -0.2440  0.1425
 7667SOL    HW134634   0.200   3.966   5.877 -0.0452 -0.5874  0.5932
 7667SOL    HW234635   0.074   4.044   5.833  0.7189 -1.8528 -0.2975
 7668SOL     OW34636   0.597   3.706   2.567  0.4736  0.0643  0.3945
 7668SOL    HW134637   0.570   3.780   2.621 -1.9545 -0.5639  0.0177
 7668SOL    HW234638   0.688   3.736   2.563 -0.2064  1.8082 -1.4460
 7669SOL     OW34639   3.169   0.271   2.448 -0.4816  0.5438 -0.3546
 7669SOL    HW134640   3.092   0.326   2.464  0.0619  1.0748  0.4159
 7669SOL    HW234641   3.131   0.202   2.394 -0.9827  2.1095 -2.0139
 7670SOL     OW34642   3.445   2.302   5.466  0.5101 -0.3531 -0.6085
 7670SOL    HW134643   3.471   2.341   5.549  2.3065 -0.3016 -1.1960
 7670SOL    HW234644   3.467   2.210   5.484  0.9618 -0.1659 -0.2184
 7671SOL     OW34645   4.578   2.695   3.631 -0.4768  0.1612 -0.1958
 7671SOL    HW134646   4.631   2.774   3.619 -2.0163  1.1953 -0.1730
 7671SOL    HW234647   4.492   2.734   3.615 -1.0865 -0.4961  1.5307
 7672SOL     OW34648   3.475   0.714  14.299  0.4065  0.3198 -0.0074
 7672SOL    HW134649   3.483   0.727  14.204 -1.0116  0.0139 -0.1709
 7672SOL    HW234650   3.444   0.802  14.321  1.8059  1.7826 -3.7675
 7673SOL     OW34651   2.457   3.722  12.654 -0.1554 -0.6853  0.1210
 7673SOL    HW134652   2.534   3.694  12.704  0.3223  1.0854  0.3917
 7673SOL    HW234653   2.410   3.639  12.650 -0.8750 -0.2398 -0.5876
 7674SOL     OW34654   3.095   3.442   9.787  0.6307 -0.5458 -0.1743
 7674SOL    HW134655   3.028   3.404   9.843  2.1357 -2.0889  0.5793
 7674SOL    HW234656   3.072   3.410   9.699  0.6591 -1.3263  0.1034
 7675SOL     OW34657   1.713   1.284   7.962  0.0800 -0.3846 -0.1588
 7675SOL    HW134658   1.771   1.346   8.006 -2.3577  2.0501 -0.4027
 7675SOL    HW234659   1.661   1.345   7.910  0.5141 -0.4455 -0.6623
 7676SOL     OW34660   0.160   1.345   6.506  0.3036 -0.1348  0.9828
 7676SOL    HW134661   0.102   1.372   6.434  2.8622  0.1551 -0.9570
 7676SOL    HW234662   0.237   1.325   6.453  0.5897  1.0124  0.9764
 7677SOL     OW34663   3.550   0.954   6.496 -0.0278 -0.3903 -0.1561
 7677SOL    HW134664   3.567   1.041   6.461 -0.4199  0.8086  2.6382
 7677SOL    HW234665   3.631   0.940   6.545 -0.8407 -1.7771  0.8175
 7678SOL     OW34666   3.605   0.489   0.757  0.1536 -0.1960  0.3992
 7678SOL    HW134667   3.616   0.583   0.750 -2.4902  0.3184  3.0599
 7678SOL    HW234668   3.517   0.489   0.795 -0.4828 -0.5559 -1.0863
 7679SOL     OW34669   4.498   0.349   7.727 -0.6392  0.4250  0.1809
 7679SOL    HW134670   4.502   0.443   7.745 -0.1758  0.9986 -2.8809
 7679SOL    HW234671   4.536   0.347   7.639  0.1362 -1.3024  0.5575
 7680SOL     OW34672   0.912   3.996   2.244 -0.2792  0.0098 -0.4212
 7680SOL    HW134673   0.844   3.979   2.309 -0.0202 -0.1497 -0.1894
 7680SOL    HW234674   0.975   3.925   2.258 -0.3124  0.0928  0.1669
 7681SOL     OW34675   0.572   1.124  11.318  0.1798 -0.0094  0.2569
 7681SOL    HW134676   0.490   1.075  11.317  0.8746 -1.1809  1.6006
 7681SOL    HW234677   0.625   1.067  11.262 -0.8920  0.2240 -1.0036
 7682SOL     OW34678   4.499   4.407  16.453  0.6494 -0.1591 -0.1772
 7682SOL    HW134679   4.535   4.326  16.417  0.1432  0.5114 -2.1942
 7682SOL    HW234680   4.550   4.415  16.533  1.4696  0.9394 -0.8048
 7683SOL     OW34681   3.866   2.847  10.146  0.1455  0.0499 -0.7874
 7683SOL    HW134682   3.798   2.909  10.120 -0.6144 -1.1182 -1.5873
 7683SOL    HW234683   3.921   2.849  10.067  0.6039 -2.8659 -0.5757
 7684SOL     OW34684   4.601   0.597   5.000 -0.2098  0.4879 -0.4678
 7684SOL    HW134685   4.573   0.513   4.963  2.3220  0.1069 -1.5025
 7684SOL    HW234686   4.525   0.654   5.012 -1.3593 -0.9498 -0.8855
 7685SOL     OW34687   2.520   4.495   2.016 -0.5988  0.0216 -0.4195
 7685SOL    HW134688   2.524   4.506   2.111  0.2147  0.4025 -0.4962
 7685SOL    HW234689   2.487   4.406   2.010  1.3379 -0.7773  0.7528
 7686SOL     OW34690   2.953   0.558   2.583 -0.1400 -0.3956 -0.4042
 7686SOL    HW134691   2.883   0.513   2.631 -1.8630  0.2770 -2.2988
 7686SOL    HW234692   2.940   0.515   2.499 -1.3770  1.0270 -0.9476
 7687SOL     OW34693   0.388   0.298   2.140  0.4092  0.2621  0.0253
 7687SOL    HW134694   0.391   0.382   2.096 -0.6763  0.2217 -0.1266
 7687SOL    HW234695   0.454   0.252   2.088  0.8808  0.0198  0.8384
 7688SOL     OW34696   0.707   1.732   5.310  0.0251  0.4014  0.5997
 7688SOL    HW134697   0.797   1.761   5.296 -0.0238  1.0818  1.6709
 7688SOL    HW234698   0.664   1.817   5.313 -0.7799  0.0131  0.1942
 7689SOL     OW34699   4.396   1.377  10.890  0.2669 -0.0462 -0.2735
 7689SOL    HW134700   4.388   1.300  10.833 -4.0120  1.2261 -1.4379
 7689SOL    HW234701   4.340   1.439  10.844  0.2653  0.3695  0.2854
 7690SOL     OW34702   0.930   4.216   4.421  0.1345 -0.0165 -0.0292
 7690SOL    HW134703   1.022   4.199   4.399  0.6194  0.7307  1.4210
 7690SOL    HW234704   0.944   4.310   4.430  1.1556 -0.2215  0.5350
 7691SOL     OW34705   4.458   3.853   7.095 -0.1214 -0.2844  0.3183
 7691SOL    HW134706   4.456   3.919   7.164  2.0704  1.1479 -1.0153
 7691SOL    HW234707   4.435   3.908   7.019 -0.9658 -1.2950 -0.1567
 7692SOL     OW34708   2.578   1.220   2.551 -0.1812 -0.4591  0.0818
 7692SOL    HW134709   2.535   1.193   2.470  1.1722 -0.6392 -0.5804
 7692SOL    HW234710   2.605   1.134   2.582  0.5817  0.0688  0.9037
 7693SOL     OW34711   2.055   3.709   6.173  0.1103 -0.1618  0.0325
 7693SOL    HW134712   1.961   3.698   6.187  0.4114  0.3157  2.4269
 7693SOL    HW234713   2.063   3.803   6.188 -1.5513 -0.1839  1.1179
 7694SOL     OW34714   1.884   1.036  17.326  0.2273 -0.4830 -0.8916
 7694SOL    HW134715   1.880   1.057  17.233  0.6810 -1.4159 -1.1255
 7694SOL    HW234716   1.806   0.981  17.332  0.1491 -0.2886 -0.1556
 7695SOL     OW34717   2.043   4.257   4.317 -0.0053  0.5737 -0.3173
 7695SOL    HW134718   2.102   4.295   4.252 -0.5221  0.2056 -0.9997
 7695SOL    HW234719   2.005   4.341   4.344  0.8802  0.9548 -0.2345
 7696SOL     OW34720   4.204   3.268   8.550 -0.0213 -0.4812 -0.2431
 7696SOL    HW134721   4.155   3.196   8.590  0.2384  0.3590  1.5723
 7696SOL    HW234722   4.150   3.339   8.584  1.3275 -0.7798  2.5377
 7697SOL     OW34723   0.390   3.611  16.530 -0.2922  0.5171 -0.1633
 7697SOL    HW134724   0.300   3.615  16.499 -0.0278  0.1206 -0.9723
 7697SOL    HW234725   0.415   3.559  16.454 -1.2473  0.7499 -0.6409
 7698SOL     OW34726   2.683   3.137   4.170 -0.0866 -0.6866 -0.5857
 7698SOL    HW134727   2.675   3.190   4.090  0.4929 -2.0458 -1.5429
 7698SOL    HW234728   2.632   3.196   4.226  1.2959  1.1978 -1.3268
 7699SOL     OW34729   1.039   2.139   8.259  0.1790 -0.1046  0.1855
 7699SOL    HW134730   1.069   2.054   8.290 -1.6107 -0.9484 -0.3722
 7699SOL    HW234731   1.118   2.169   8.214 -0.2972  0.0934 -0.5227
 7700SOL     OW34732   1.623   0.857  13.754 -0.2289  0.6239  0.1827
 7700SOL    HW134733   1.547   0.806  13.725 -1.7843  2.3083  1.2547
 7700SOL    HW234734   1.585   0.945  13.761 -0.1574  0.5584  1.3871
 7701SOL     OW34735   4.353   0.332   6.823  0.7110 -0.0369 -0.1630
 7701SOL    HW134736   4.406   0.369   6.894 -1.9992 -1.0575  2.3726
 7701SOL    HW234737   4.347   0.411   6.769  0.7197  1.1443  1.5454
 7702SOL     OW34738   1.048   2.711   3.751  0.1224 -0.0210  0.4371
 7702SOL    HW134739   1.024   2.803   3.739  1.6726  0.1997 -1.0716
 7702SOL    HW234740   1.142   2.717   3.768 -0.5206  1.2006  3.6530
 7703SOL     OW34741   2.152   4.312   3.791  0.6376 -0.3825 -0.0943
 7703SOL    HW134742   2.207   4.288   3.866  0.3011 -0.1997  0.2086
 7703SOL    HW234743   2.126   4.226   3.758  0.5705 -0.3001 -0.2527
 7704SOL     OW34744   0.748   3.814   8.276  0.3407 -0.2039  0.0337
 7704SOL    HW134745   0.793   3.729   8.283  0.6952  0.0926  1.2692
 7704SOL    HW234746   0.681   3.792   8.341 -0.1613 -0.1911 -0.4803
 7705SOL     OW34747   2.846   1.877   7.409 -0.2368  0.3251 -0.5799
 7705SOL    HW134748   2.797   1.939   7.354  0.8024  2.4524  0.9060
 7705SOL    HW234749   2.781   1.843   7.470 -0.8802  0.7699 -1.0121
 7706SOL     OW34750   2.226   0.874   7.497  0.4594 -0.2107 -0.2885
 7706SOL    HW134751   2.196   0.937   7.564  2.1443  1.9895 -1.5932
 7706SOL    HW234752   2.216   0.793   7.546  1.5191  0.9461  1.8668
 7707SOL     OW34753   3.680   3.594   4.998 -0.5847  0.2105 -0.2346
 7707SOL    HW134754   3.775   3.592   4.986 -0.3071  1.8138  1.7405
 7707SOL    HW234755   3.667   3.668   5.057  1.1043 -0.3400  0.8074
 7708SOL     OW34756   2.570   3.363   4.937  0.5881 -0.2765  0.1657
 7708SOL    HW134757   2.589   3.388   4.847  0.1484 -0.2714  0.0725
 7708SOL    HW234758   2.608   3.439   4.981  3.4425 -1.8885  0.4610
 7709SOL     OW34759   2.214   2.061   7.367  0.7109 -0.1439  0.5416
 7709SOL    HW134760   2.250   2.040   7.453  0.1481  2.4781  1.4250
 7709SOL    HW234761   2.246   1.990   7.311 -1.2456 -0.9574  0.4147
 7710SOL     OW34762   2.377   1.970   3.985  0.5211  0.1949  0.1253
 7710SOL    HW134763   2.317   2.038   3.956 -0.0916  0.1876  1.3283
 7710SOL    HW234764   2.353   1.899   3.925 -4.0208  3.0377 -1.4129
 7711SOL     OW34765   1.962   1.201   2.813  0.7389 -0.0880 -0.1996
 7711SOL    HW134766   1.930   1.205   2.723 -0.4721 -0.1731  0.2370
 7711SOL    HW234767   2.002   1.114   2.823  1.3459  0.0300 -1.4472
 7712SOL     OW34768   1.346   0.419   0.236  0.3881 -0.3968 -0.1443
 7712SOL    HW134769   1.366   0.345   0.179  1.8543 -1.7102  2.0395
 7712SOL    HW234770   1.250   0.426   0.233  0.2991 -0.7842  1.7163
 7713SOL     OW34771   2.001   1.367   8.792  0.2802 -0.2206 -0.2062
 7713SOL    HW134772   1.983   1.275   8.810  0.4824 -0.3660 -0.7443
 7713SOL    HW234773   2.075   1.361   8.732  0.2402 -1.7266 -0.1171
 7714SOL     OW34774   4.534   0.405   8.130  0.1231 -0.0749  0.4562
 7714SOL    HW134775   4.442   0.390   8.106  0.6802 -0.4708 -1.3922
 7714SOL    HW234776   4.563   0.450   8.051 -1.6611  0.8061  0.2840
 7715SOL     OW34777   1.575   1.755   8.065  0.2605  0.1933 -0.1415
 7715SOL    HW134778   1.642   1.795   8.120  0.5990  1.0061 -1.1552
 7715SOL    HW234779   1.596   1.787   7.977  0.8247  1.9999  0.6468
 7716SOL     OW34780   2.315   0.114   1.224 -0.9753  0.0701  0.1896
 7716SOL    HW134781   2.325   0.048   1.155  0.1424  0.8388 -0.3781
 7716SOL    HW234782   2.231   0.087   1.263 -1.3186  0.7894 -0.0528
 7717SOL     OW34783   3.953   2.131   7.463 -0.5003  0.1130 -0.2102
 7717SOL    HW134784   3.884   2.196   7.451 -1.1444 -0.6194 -0.4172
 7717SOL    HW234785   4.033   2.184   7.454 -0.3932 -0.4185 -2.3243
 7718SOL     OW34786   0.746   1.968  17.043  0.2686 -0.1180  0.1482
 7718SOL    HW134787   0.780   1.985  17.131 -0.5538  0.0314  0.4289
 7718SOL    HW234788   0.811   1.903  17.013 -0.0853  0.1572 -1.2098
 7719SOL     OW34789   4.366   4.118   8.336 -0.1937  1.3900 -0.4606
 7719SOL    HW134790   4.353   4.202   8.379 -1.0892  0.9756  0.0679
 7719SOL    HW234791   4.341   4.141   8.246 -1.1580  0.5097 -0.4114
 7720SOL     OW34792   3.854   4.654   7.370 -0.6381 -0.2956 -0.1557
 7720SOL    HW134793   3.882   4.565   7.392  0.9696  0.8731  2.5712
 7720SOL    HW234794   3.838   4.652   7.276  3.2412 -2.8785 -0.7618
 7721SOL     OW34795   0.322   1.478  17.461  0.1401 -0.0244 -0.6072
 7721SOL    HW134796   0.351   1.387  17.468  0.7644  0.1774 -0.4833
 7721SOL    HW234797   0.242   1.475  17.513  1.5760  0.5214  1.6551
 7722SOL     OW34798   0.571   1.047   2.328 -0.3784 -0.4417 -0.0306
 7722SOL    HW134799   0.652   1.018   2.370 -0.1870 -0.2502 -0.2663
 7722SOL    HW234800   0.565   0.992   2.249  0.1499 -1.6144  0.7477
 7723SOL     OW34801   4.524   3.112   3.965  0.6464 -0.2443  0.4794
 7723SOL    HW134802   4.470   3.121   4.043  0.3558 -0.7231  0.3368
 7723SOL    HW234803   4.531   3.017   3.952 -0.4063 -0.1276 -0.9558
 7724SOL     OW34804   1.556   3.804   7.209  0.2528  0.7423 -0.2874
 7724SOL    HW134805   1.500   3.794   7.132 -0.1101  1.4730 -0.1167
 7724SOL    HW234806   1.522   3.893   7.209  2.0519  1.4206  0.7292
 7725SOL     OW34807   2.317   3.237   8.127  0.5643  0.0257  0.5028
 7725SOL    HW134808   2.310   3.230   8.223 -0.0643  0.9830  0.5293
 7725SOL    HW234809   2.389   3.299   8.112  2.5795 -2.2302  0.8510
 7726SOL     OW34810   2.422   4.571  10.955 -0.3978  0.3099 -0.1446
 7726SOL    HW134811   2.515   4.594  10.960 -0.2633 -0.3297  0.2467
 7726SOL    HW234812   2.392   4.633  10.889 -1.2024 -0.5946 -0.6258
 7727SOL     OW34813   3.958   1.406   2.549 -0.2335 -0.6171  0.8833
 7727SOL    HW134814   3.932   1.441   2.463 -0.1563  1.8415  1.8519
 7727SOL    HW234815   3.869   1.390   2.579  0.3831  0.6358  3.3383
 7728SOL     OW34816   4.322   2.841   4.038  0.5024 -0.3259  0.5268
 7728SOL    HW134817   4.415   2.837   4.014 -0.3670  3.7768 -3.4643
 7728SOL    HW234818   4.325   2.767   4.099  0.1393 -0.6550  0.1452
 7729SOL     OW34819   1.242   1.642   8.348 -0.5348 -0.1934  0.0696
 7729SOL    HW134820   1.338   1.633   8.347 -0.5031  0.1750 -0.7096
 7729SOL    HW234821   1.218   1.561   8.393  0.6842 -0.9441 -0.6073
 7730SOL     OW34822   0.367   3.903   2.379 -0.0509 -0.3553  0.1169
 7730SOL    HW134823   0.322   3.826   2.413  2.5621 -1.6467  0.6280
 7730SOL    HW234824   0.376   3.955   2.459 -0.2265 -0.4214  0.1809
 7731SOL     OW34825   1.760   2.067   3.736  0.3200  0.1383  0.6157
 7731SOL    HW134826   1.712   2.047   3.816 -0.3325 -2.1338 -0.3417
 7731SOL    HW234827   1.814   1.988   3.727  0.7875  0.4699  0.4898
 7732SOL     OW34828   2.293   4.112   8.536 -0.1283 -0.0475 -0.2818
 7732SOL    HW134829   2.209   4.073   8.563 -0.9264  0.1721 -2.4557
 7732SOL    HW234830   2.348   4.070   8.602 -0.8717 -1.8643 -0.8217
 7733SOL     OW34831   2.326   4.712   4.295 -0.4835  0.1382  0.2674
 7733SOL    HW134832   2.251   0.022   4.333 -0.3000  0.4612  0.2464
 7733SOL    HW234833   2.383   0.048   4.264 -0.9754  0.0308 -0.8779
 7734SOL     OW34834   3.490   1.763   5.486  0.0730  0.1034 -0.1469
 7734SOL    HW134835   3.497   1.727   5.398 -0.2058  1.2241 -0.6274
 7734SOL    HW234836   3.554   1.706   5.529  1.6636  1.7230 -0.3879
 7735SOL     OW34837   4.237   0.711   6.285  0.4172  0.1592  0.1364
 7735SOL    HW134838   4.328   0.705   6.255  0.8645  1.0995  1.3694
 7735SOL    HW234839   4.222   0.801   6.259 -0.3646 -0.1120 -0.3632
 7736SOL     OW34840   1.663   0.863  17.301  0.6845 -0.1457  0.4567
 7736SOL    HW134841   1.698   0.806  17.369 -0.2807 -1.1209  0.1333
 7736SOL    HW234842   1.619   0.802  17.241 -2.2928  1.1479  1.3375
 7737SOL     OW34843   0.216   2.954   7.558  0.2317  0.3384  0.4272
 7737SOL    HW134844   0.303   2.918   7.578  0.6953  0.4914 -1.3033
 7737SOL    HW234845   0.238   3.047   7.560 -0.3775  0.4900 -0.0660
 7738SOL     OW34846   0.415   4.301   1.972  0.8074 -0.3090  0.0053
 7738SOL    HW134847   0.503   4.337   1.959  0.8415 -0.5786 -0.5105
 7738SOL    HW234848   0.390   4.313   2.064 -2.2882 -1.1168 -0.7096
 7739SOL     OW34849   2.271   4.341  17.733 -0.2448 -0.1241  0.6795
 7739SOL    HW134850   2.281   4.279  17.661 -1.9344 -0.8837  1.0998
 7739SOL    HW234851   2.229   4.419  17.697  1.7748  1.9614  2.8389
 7740SOL     OW34852   2.785   3.893   3.930  0.5378 -0.2816  0.2853
 7740SOL    HW134853   2.788   3.915   3.837 -0.0457 -1.8616 -0.1090
 7740SOL    HW234854   2.878   3.904   3.952 -0.0536 -0.7941  3.0239
 7741SOL     OW34855   3.603   4.519   8.803 -0.2885  0.4651  0.2036
 7741SOL    HW134856   3.634   4.605   8.777  0.0792 -0.7614 -3.4280
 7741SOL    HW234857   3.590   4.475   8.719  0.3429 -2.3254  1.5548
 7742SOL     OW34858   0.787   4.573   3.373 -0.2551 -0.5686  0.0759
 7742SOL    HW134859   0.766   4.667   3.375  0.0335 -0.4744 -1.1839
 7742SOL    HW234860   0.882   4.578   3.359 -0.0194  1.9564  2.5521
 7743SOL     OW34861   4.042   2.874   9.929  0.3902  0.2212 -0.4455
 7743SOL    HW134862   4.109   2.927   9.886  2.8893 -1.3186  1.5778
 7743SOL    HW234863   4.066   2.788   9.896 -1.1007 -0.3719  0.0009
 7744SOL     OW34864   4.445   0.399   1.568 -0.0885  0.2706  0.1485
 7744SOL    HW134865   4.419   0.367   1.482  0.1907 -0.4967  0.3505
 7744SOL    HW234866   4.516   0.458   1.541  0.5188 -0.0017  1.1506
 7745SOL     OW34867   3.694   1.364   4.182  0.6658 -0.5002 -0.5080
 7745SOL    HW134868   3.746   1.378   4.102  1.2717  2.7686  0.4382
 7745SOL    HW234869   3.700   1.454   4.214  1.9205 -0.0322 -2.0449
 7746SOL     OW34870   3.771   3.283  11.028 -0.0484 -0.2347  0.2086
 7746SOL    HW134871   3.857   3.315  11.000  0.3662 -3.1458 -1.8862
 7746SOL    HW234872   3.804   3.200  11.063  0.0424 -1.6424 -3.2007
 7747SOL     OW34873   4.308   2.836  15.803 -0.1663  0.2886 -0.2016
 7747SOL    HW134874   4.220   2.799  15.810 -0.3352  0.8679  0.6204
 7747SOL    HW234875   4.321   2.864  15.893  1.1410  1.5862 -0.8018
 7748SOL     OW34876   0.935   0.841  13.166  0.1185 -0.1842  0.0699
 7748SOL    HW134877   1.027   0.848  13.142  0.1588 -0.1830  0.2246
 7748SOL    HW234878   0.945   0.778  13.238  0.0976 -0.4995 -0.2007
 7749SOL     OW34879   2.620   3.824   5.284  0.6513  0.2478 -0.0441
 7749SOL    HW134880   2.697   3.858   5.238 -0.0172 -0.0490 -1.3916
 7749SOL    HW234881   2.585   3.751   5.232  1.0125 -0.6187  0.9320
 7750SOL     OW34882   0.689   3.904  10.510 -0.0411 -0.2136  0.6794
 7750SOL    HW134883   0.727   3.824  10.546 -0.4070 -0.0330  1.4664
 7750SOL    HW234884   0.711   3.902  10.417 -1.9006  2.4964  0.2051
 7751SOL     OW34885   1.941   0.294   9.021  0.1936 -0.1839  0.5796
 7751SOL    HW134886   1.892   0.374   9.003 -1.0698 -1.0801  0.0268
 7751SOL    HW234887   1.899   0.238   8.956 -0.9663 -1.6919  2.6412
 7752SOL     OW34888   2.980   3.406   0.803 -0.1752 -0.3783  0.3218
 7752SOL    HW134889   3.049   3.393   0.868  2.0580  0.2945 -1.8898
 7752SOL    HW234890   3.001   3.336   0.741  0.9254  0.0361  0.2214
 7753SOL     OW34891   4.271   3.968   3.606  0.7136  0.6492  0.5354
 7753SOL    HW134892   4.281   4.019   3.525 -0.2583  2.3044  1.4702
 7753SOL    HW234893   4.358   3.992   3.638  0.2715  2.0699  0.6910
 7754SOL     OW34894   3.148   0.551  14.685 -0.0864 -0.1437  0.0087
 7754SOL    HW134895   3.056   0.556  14.662 -0.0226 -0.1251 -0.2535
 7754SOL    HW234896   3.157   0.632  14.734  2.4604  0.4105 -1.3596
 7755SOL     OW34897   3.185   0.058   6.632  0.1289  0.4265 -0.0867
 7755SOL    HW134898   3.175   4.700   6.651  0.6740  0.3771 -0.0466
 7755SOL    HW234899   3.097   0.085   6.606  1.1928  1.5044 -2.5094
 7756SOL     OW34900   4.300   2.243   4.351  0.0085 -0.4872  0.4958
 7756SOL    HW134901   4.210   2.261   4.377 -0.3499 -0.4893 -0.7324
 7756SOL    HW234902   4.338   2.204   4.430  1.5376 -1.8913 -0.9149
 7757SOL     OW34903   4.513   3.300  15.040 -0.4091 -0.4075 -0.1684
 7757SOL    HW134904   4.474   3.274  15.124  0.4861 -1.9209 -0.2308
 7757SOL    HW234905   4.432   3.321  14.993 -0.6450 -2.5187 -0.6653
 7758SOL     OW34906   4.404   2.278   4.114  0.0247 -0.0175  0.2053
 7758SOL    HW134907   4.354   2.279   4.196  1.2797 -1.3279  0.9888
 7758SOL    HW234908   4.471   2.343   4.135  0.3055 -0.6528  1.3390
 7759SOL     OW34909   2.236   4.526   7.977 -0.0057 -0.0745 -0.2820
 7759SOL    HW134910   2.156   4.476   7.996 -1.3550  1.9766 -0.6276
 7759SOL    HW234911   2.189   4.608   7.989  0.8283  0.4632 -0.6641
 7760SOL     OW34912   1.529   2.014  15.028 -0.3170  0.7813  0.2429
 7760SOL    HW134913   1.623   1.998  15.025 -0.7307 -1.5969 -0.6154
 7760SOL    HW234914   1.508   2.024  14.935 -0.4828  3.4598  0.5728
 7761SOL     OW34915   3.726   1.273   6.136  0.3656  0.1506 -0.3733
 7761SOL    HW134916   3.803   1.312   6.179 -1.0501  3.1915 -0.5872
 7761SOL    HW234917   3.715   1.185   6.172  0.7580 -1.0125 -3.1169
 7762SOL     OW34918   4.596   2.870   0.238 -0.2488 -1.2048  0.6260
 7762SOL    HW134919   4.632   2.869   0.150 -1.5930 -0.7104  0.0650
 7762SOL    HW234920   4.653   2.935   0.281  1.5654 -1.1681 -1.8483
 7763SOL     OW34921   0.398   1.660   3.114  0.4573  0.2690 -0.0140
 7763SOL    HW134922   0.469   1.714   3.148  1.3986 -1.2795  0.4724
 7763SOL    HW234923   0.356   1.637   3.197  1.5840  0.2004  0.5328
 7764SOL     OW34924   4.690   3.260   6.972 -0.0181  0.6101 -0.0836
 7764SOL    HW134925   0.011   3.185   6.990  0.4680  0.5578 -1.7375
 7764SOL    HW234926   4.629   3.258   7.046  0.9186 -1.0212  0.6379
 7765SOL     OW34927   4.466   1.084   5.902  0.2423 -0.5893 -0.2122
 7765SOL    HW134928   4.399   1.063   5.967  0.1258 -1.5109 -0.6381
 7765SOL    HW234929   4.431   1.051   5.820 -0.4748 -0.3907  0.0099
 7766SOL     OW34930   1.750   1.211   4.512  0.7594  1.0002  0.0237
 7766SOL    HW134931   1.727   1.285   4.456  3.1394  2.7443  1.3501
 7766SOL    HW234932   1.768   1.149   4.442 -1.5664 -1.5090  1.6699
 7767SOL     OW34933   0.065   1.290  15.926 -0.0449 -0.2519  0.2669
 7767SOL    HW134934   0.137   1.317  15.869 -0.9155 -1.0436 -1.1990
 7767SOL    HW234935   0.101   1.268  16.012  0.1058 -1.1910 -0.0356
 7768SOL     OW34936   3.333   1.707  15.306  0.4459 -0.3651  0.4137
 7768SOL    HW134937   3.301   1.706  15.396  0.6204  0.7972  0.4891
 7768SOL    HW234938   3.341   1.800  15.287  1.6207 -0.4625  0.4720
 7769SOL     OW34939   0.739   2.355   9.059  0.0274 -0.3382 -0.1106
 7769SOL    HW134940   0.710   2.379   8.971 -2.0531  0.7904  0.8879
 7769SOL    HW234941   0.830   2.384   9.052  0.0504 -0.1641  0.9583
 7770SOL     OW34942   3.124   1.068   7.474 -0.1923  0.0772 -0.4655
 7770SOL    HW134943   3.172   1.149   7.455 -1.1397  1.3014  2.3872
 7770SOL    HW234944   3.146   1.013   7.399 -0.6854  2.3354 -2.2850
 7771SOL     OW34945   0.485   0.212   3.332  0.5509 -0.1392 -0.4755
 7771SOL    HW134946   0.556   0.168   3.284 -0.5224 -1.5642 -0.7792
 7771SOL    HW234947   0.503   0.306   3.337  0.0468 -0.1608  1.9321
 7772SOL     OW34948   3.799   2.125   7.965  0.3716 -0.1816 -0.2052
 7772SOL    HW134949   3.735   2.191   7.991 -0.9384 -1.0245 -1.2485
 7772SOL    HW234950   3.852   2.110   8.043 -0.3774 -2.4185 -0.1217
 7773SOL     OW34951   0.561   0.775   3.022  0.1998 -0.0046 -0.2130
 7773SOL    HW134952   0.539   0.865   3.045  0.0491 -0.1369  0.1677
 7773SOL    HW234953   0.479   0.745   2.983  0.1276 -0.0453 -0.0292
 7774SOL     OW34954   0.398   2.017  11.637 -0.0222  0.2941  0.2757
 7774SOL    HW134955   0.444   2.026  11.553  1.2633  1.0815  1.0542
 7774SOL    HW234956   0.323   1.961  11.620 -0.1673  0.5576  0.0475
 7775SOL     OW34957   2.801   0.039   4.706 -0.2579 -0.5954  0.0974
 7775SOL    HW134958   2.879   0.092   4.726 -0.9104  0.3854  0.0692
 7775SOL    HW234959   2.836   4.687   4.722  1.2115 -0.2047 -1.0065
 7776SOL     OW34960   0.767   2.099   3.085 -0.2590 -1.0893 -0.7472
 7776SOL    HW134961   0.852   2.056   3.092  0.5023  0.6738  0.6188
 7776SOL    HW234962   0.778   2.146   3.003  2.7240 -0.9224 -0.2400
 7777SOL     OW34963   4.586   3.062   5.487 -0.3067 -1.3673 -0.3070
 7777SOL    HW134964   4.609   3.096   5.574 -2.2628 -0.1983 -0.2342
 7777SOL    HW234965   4.667   3.026   5.454  0.5193  0.2254 -0.0143
 7778SOL     OW34966   4.172   2.361   5.389  0.2239  0.4637 -0.0585
 7778SOL    HW134967   4.225   2.439   5.406 -1.3708  2.2284 -3.2430
 7778SOL    HW234968   4.235   2.306   5.342  1.7434  2.1587 -0.0212
 7779SOL     OW34969   4.442   1.682   2.289  0.1547  0.0621  0.3449
 7779SOL    HW134970   4.412   1.684   2.380  1.3993  1.0651  0.7433
 7779SOL    HW234971   4.381   1.616   2.257  0.1849  0.7184 -1.0769
 7780SOL     OW34972   0.563   2.094   5.166  0.1024  0.2133  0.9020
 7780SOL    HW134973   0.479   2.056   5.137  1.2873 -1.9974  0.3761
 7780SOL    HW234974   0.620   2.092   5.090 -2.2098 -1.4972 -0.8056
 7781SOL     OW34975   2.756   0.836   9.331  0.1890 -0.2247 -0.6991
 7781SOL    HW134976   2.693   0.816   9.401  0.1907 -1.8473 -1.1617
 7781SOL    HW234977   2.715   0.895   9.268 -0.5943  1.0269  0.9693
 7782SOL     OW34978   1.647   3.598  13.169  0.3375 -0.2945 -0.1131
 7782SOL    HW134979   1.705   3.644  13.108 -0.9611  2.0872  0.4269
 7782SOL    HW234980   1.638   3.507  13.142  1.8633 -0.6235  0.5016
 7783SOL     OW34981   0.679   1.032   8.324  0.0286 -0.0834  0.3467
 7783SOL    HW134982   0.733   1.085   8.265  0.5698 -1.7864 -0.6864
 7783SOL    HW234983   0.643   1.103   8.378  1.9148  0.5093  0.8050
 7784SOL     OW34984   3.719   3.557  10.566 -0.6682  0.2878  0.3543
 7784SOL    HW134985   3.700   3.465  10.588 -1.8043  0.3618 -0.3094
 7784SOL    HW234986   3.798   3.556  10.512 -0.2583  0.5093  0.9468
 7785SOL     OW34987   2.196   0.824  15.363 -0.2932  0.0372 -0.9778
 7785SOL    HW134988   2.112   0.821  15.409  0.3122 -4.0677 -0.1775
 7785SOL    HW234989   2.155   0.829  15.277  0.4981 -1.7560 -1.4610
 7786SOL     OW34990   0.083   0.756   2.674 -0.4531  0.4473  0.1780
 7786SOL    HW134991   0.097   0.761   2.579 -1.0327  1.8577  0.1709
 7786SOL    HW234992   0.091   0.664   2.701 -0.7618  0.4731  0.3594
 7787SOL     OW34993   3.005   1.318  17.439  0.7284 -0.0518 -0.3495
 7787SOL    HW134994   3.086   1.366  17.420  0.3947  0.8524  0.4960
 7787SOL    HW234995   2.965   1.314  17.352 -2.4253  1.9624  0.9885
 7788SOL     OW34996   3.023   4.447   7.456  0.2698  0.3337  0.5342
 7788SOL    HW134997   3.109   4.413   7.433  0.2589  0.1867  0.7033
 7788SOL    HW234998   3.002   4.507   7.385 -0.4691 -0.1825  0.3195
 7789SOL     OW34999   4.011   3.197   2.487 -0.1042 -0.3034 -0.3078
 7789SOL    HW135000   4.098   3.232   2.505 -0.1771 -1.0974  1.5696
 7789SOL    HW235001   3.970   3.218   2.571 -0.9463 -1.8613 -0.3323
 7790SOL     OW35002   2.683   4.293  17.102 -0.5509 -0.0196 -0.0086
 7790SOL    HW135003   2.761   4.339  17.133 -0.0090 -1.1263  0.2967
 7790SOL    HW235004   2.713   4.203  17.119 -1.4478 -0.6937 -2.0038
 7791SOL     OW35005   3.221   0.660   4.597  0.0297  0.3917  0.1503
 7791SOL    HW135006   3.155   0.595   4.619  0.3804 -0.4728 -1.3899
 7791SOL    HW235007   3.252   0.689   4.683 -0.3557 -1.1714  0.8198
 7792SOL     OW35008   1.006   0.658   8.894 -0.1010  0.0042 -0.2011
 7792SOL    HW135009   0.920   0.697   8.878  0.3735  1.2756  0.2772
 7792SOL    HW235010   1.015   0.592   8.826 -0.0368  0.8312 -0.9936
 7793SOL     OW35011   0.403   1.860   3.747  0.9040  0.2188  0.4706
 7793SOL    HW135012   0.471   1.867   3.815  1.0787 -1.4966  0.4842
 7793SOL    HW235013   0.330   1.917   3.769  0.7659  0.2678 -0.1370
 7794SOL     OW35014   4.713   1.807   4.344 -0.3307 -0.3142 -0.2164
 7794SOL    HW135015   4.619   1.802   4.363 -0.5876  0.7559 -1.1860
 7794SOL    HW235016   4.707   1.877   4.279  2.8162  0.2205  0.0979
 7795SOL     OW35017   3.324   0.122   2.026 -0.4819  0.0727  0.1987
 7795SOL    HW135018   3.346   0.031   2.043 -0.3416  0.3488  1.4819
 7795SOL    HW235019   3.338   0.161   2.112  0.9983  1.4737 -0.6700
 7796SOL     OW35020   0.935   0.449   9.619  0.3063 -0.3444 -0.5958
 7796SOL    HW135021   0.996   0.495   9.675 -2.0240  1.2724  0.6187
 7796SOL    HW235022   0.904   0.389   9.687  0.3797 -1.5937 -1.6671
 7797SOL     OW35023   0.206   3.268   3.767 -0.2602  0.1144 -0.3983
 7797SOL    HW135024   0.114   3.244   3.780 -0.1112 -0.7670 -0.9909
 7797SOL    HW235025   0.250   3.184   3.778  0.5304  0.8507  1.9044
 7798SOL     OW35026   1.482   2.583  17.562 -0.2194 -0.3173 -0.5077
 7798SOL    HW135027   1.421   2.598  17.633  4.7144 -0.5153  3.7389
 7798SOL    HW235028   1.482   2.487  17.557  0.1916 -0.3254 -0.3841
 7799SOL     OW35029   3.510   0.269   8.936  0.4021 -0.7816  0.2392
 7799SOL    HW135030   3.495   0.289   9.028 -0.0992  0.4782 -0.1214
 7799SOL    HW235031   3.523   0.174   8.937  0.4818 -0.7545  1.9008
 7800SOL     OW35032   2.119   1.996   0.600 -0.6303  0.0545 -0.6214
 7800SOL    HW135033   2.169   2.066   0.559  2.2236 -0.5432  1.8880
 7800SOL    HW235034   2.156   1.940   0.531  0.9359 -0.5479  0.7234
 7801SOL     OW35035   4.590   3.251   7.234 -0.5908 -0.1000 -0.5581
 7801SOL    HW135036   4.654   3.316   7.266 -1.2152 -0.0739  0.6167
 7801SOL    HW235037   4.607   3.170   7.281  0.7673 -0.7638 -2.1948
 7802SOL     OW35038   3.702   4.636   6.688  0.4592  0.7104 -0.3756
 7802SOL    HW135039   3.610   4.656   6.670  0.8729  0.7464 -2.4924
 7802SOL    HW235040   3.747   4.719   6.674  2.3578 -0.3906 -0.9139
 7803SOL     OW35041   3.344   1.883  11.541 -0.1261  0.3625  0.7849
 7803SOL    HW135042   3.408   1.813  11.533 -0.0876  0.3793  0.9466
 7803SOL    HW235043   3.283   1.854  11.608 -0.7869 -2.8060 -1.1845
 7804SOL     OW35044   2.190   3.958   6.243 -0.1068 -0.6354  0.1611
 7804SOL    HW135045   2.285   3.956   6.226  0.4160  2.8542  2.5854
 7804SOL    HW235046   2.191   3.975   6.337  1.6307 -0.5723  0.1459
 7805SOL     OW35047   0.019   4.647  12.217  0.0833 -0.0933  0.0178
 7805SOL    HW135048   4.659   4.634  12.209 -0.2876  2.1223  1.0332
 7805SOL    HW235049   0.032   4.732  12.176 -0.3324  1.1468  2.4669
 7806SOL     OW35050   3.644   2.851  16.879  0.1411 -0.3576 -0.3964
 7806SOL    HW135051   3.731   2.869  16.845  1.3559 -0.9050  2.3976
 7806SOL    HW235052   3.587   2.902  16.821  3.2755  1.4185 -1.8767
 7807SOL     OW35053   1.480   3.336   5.591 -0.2484  0.1232 -0.3653
 7807SOL    HW135054   1.435   3.254   5.612 -0.8557  0.9142  1.5036
 7807SOL    HW235055   1.532   3.313   5.515 -1.2299 -1.0897 -0.6747
 7808SOL     OW35056   4.476   4.721   1.599 -0.2344 -0.4571  0.0815
 7808SOL    HW135057   4.475   4.654   1.668 -0.4344  0.6755  1.1854
 7808SOL    HW235058   4.416   0.056   1.627 -0.1471 -0.1086 -0.6111
 7809SOL     OW35059   0.365   0.639   9.815  0.5063 -0.6163  0.2212
 7809SOL    HW135060   0.296   0.664   9.755  2.8315  2.8396 -1.0314
 7809SOL    HW235061   0.320   0.582   9.878 -2.0643  0.3425 -0.7623
 7810SOL     OW35062   1.915   3.875   3.231 -0.1394 -0.6892  0.0629
 7810SOL    HW135063   1.969   3.839   3.301  0.9197 -1.5638 -1.2045
 7810SOL    HW235064   1.978   3.910   3.168 -1.3961  1.5261  0.0554
 7811SOL     OW35065   4.333   1.550   1.161 -0.4416 -0.0347 -0.0322
 7811SOL    HW135066   4.376   1.528   1.078  0.1694  0.9570  0.0198
 7811SOL    HW235067   4.405   1.564   1.222 -0.6529 -0.5875  0.3370
 7812SOL     OW35068   1.557   3.288   1.629 -0.1194 -0.5095 -0.0883
 7812SOL    HW135069   1.519   3.275   1.716 -0.6656 -1.1761 -0.4262
 7812SOL    HW235070   1.521   3.368   1.592 -1.2524  0.0435  2.2301
 7813SOL     OW35071   0.202   1.015  15.750 -0.1098  0.2430 -0.5396
 7813SOL    HW135072   0.252   1.060  15.682 -1.5461 -1.1203 -2.5069
 7813SOL    HW235073   0.121   1.021  15.700 -0.9149  4.1032  1.2087
 7814SOL     OW35074   1.562   2.187   0.252  0.4068 -0.0206  0.1834
 7814SOL    HW135075   1.626   2.190   0.322 -1.0272  0.8257  1.4482
 7814SOL    HW235076   1.607   2.146   0.178  0.0691  1.0415 -0.6247
 7815SOL     OW35077   1.478   1.582   4.185  0.5266 -0.3180 -0.0337
 7815SOL    HW135078   1.479   1.630   4.268 -0.4199  3.0345 -1.9666
 7815SOL    HW235079   1.425   1.633   4.124  0.2132  1.8991  2.1049
 7816SOL     OW35080   0.602   4.705   7.639  0.2488  0.2636 -0.5548
 7816SOL    HW135081   0.558   4.623   7.619 -0.6499  0.1557  1.9266
 7816SOL    HW235082   0.542   0.004   7.706  0.0071 -0.2703 -0.5041
 7817SOL     OW35083   2.760   0.974  16.406  0.2882  0.2008  0.2456
 7817SOL    HW135084   2.736   1.051  16.353 -1.5930 -1.0836 -0.7725
 7817SOL    HW235085   2.774   1.020  16.489 -0.4560  0.8067  0.0347
 7818SOL     OW35086   1.052   4.531   3.391 -0.2085 -0.4835 -0.1073
 7818SOL    HW135087   1.073   4.465   3.457 -0.6957 -0.4502  0.0842
 7818SOL    HW235088   1.094   4.503   3.310  0.9055  2.6169 -0.5821
 7819SOL     OW35089   4.052   1.740   1.646 -0.0557  0.0748 -0.0395
 7819SOL    HW135090   4.038   1.651   1.677  1.3198  0.2550  1.0856
 7819SOL    HW235091   4.037   1.733   1.552  1.9348 -2.5649 -0.1431
 7820SOL     OW35092   2.472   4.344   8.527 -0.3344 -0.3397 -0.0515
 7820SOL    HW135093   2.557   4.313   8.494  0.4585  1.3146  0.4167
 7820SOL    HW235094   2.430   4.259   8.536 -1.9652  0.5573  0.7566
 7821SOL     OW35095   3.933   4.277   6.993 -0.3769  0.3876 -0.4585
 7821SOL    HW135096   3.851   4.233   7.014 -1.1059  1.9677 -0.0070
 7821SOL    HW235097   3.958   4.295   7.083  0.1546  2.1981 -0.9776
 7822SOL     OW35098   2.587   2.038   4.582  0.0290 -0.4384 -0.4328
 7822SOL    HW135099   2.665   1.989   4.610 -0.9031 -0.5444  1.9529
 7822SOL    HW235100   2.614   2.090   4.506  0.1542  0.7758  0.4529
 7823SOL     OW35101   1.582   0.024   2.655 -0.1046  0.2275  0.9838
 7823SOL    HW135102   1.616   4.675   2.626  0.8319  0.7457  0.5975
 7823SOL    HW235103   1.597   0.027   2.749  1.6568 -1.6220  0.7485
 7824SOL     OW35104   3.093   0.557   6.396 -0.3092  0.2973  0.4344
 7824SOL    HW135105   2.998   0.557   6.381 -0.2917  1.3296  0.3038
 7824SOL    HW235106   3.095   0.606   6.478  0.2730  0.0921  0.5407
 7825SOL     OW35107   3.738   4.023   7.164 -0.1867  0.3869  0.4728
 7825SOL    HW135108   3.677   3.950   7.156 -0.4042  0.5296  0.8575
 7825SOL    HW235109   3.713   4.072   7.242  0.5225  2.4767 -0.5968
 7826SOL     OW35110   3.658   1.701   8.847  0.4009  0.3342  0.4125
 7826SOL    HW135111   3.712   1.652   8.909  1.4350  0.0859 -0.6909
 7826SOL    HW235112   3.594   1.635   8.820  0.7816 -0.4066  1.3327
 7827SOL     OW35113   0.825   0.935   9.144 -0.2619 -0.0781  0.2281
 7827SOL    HW135114   0.866   0.852   9.167  1.3182 -0.0145 -2.3070
 7827SOL    HW235115   0.736   0.928   9.179 -0.3988  1.7601  0.2791
 7828SOL     OW35116   0.185   1.627  16.065 -0.1076 -0.0931  0.4432
 7828SOL    HW135117   0.216   1.717  16.052 -1.8424  0.6685  1.6538
 7828SOL    HW235118   0.182   1.592  15.976 -0.7737  2.5680 -0.5710
 7829SOL     OW35119   3.479   0.894  10.561 -0.0211 -0.1873 -0.1137
 7829SOL    HW135120   3.501   0.915  10.470 -0.3888 -0.0563 -0.1707
 7829SOL    HW235121   3.384   0.906  10.566 -0.1097 -0.8849 -0.0932
 7830SOL     OW35122   3.794   3.859   9.705 -1.4295  0.4322  0.0422
 7830SOL    HW135123   3.764   3.860   9.614  3.9125 -0.0051 -1.6972
 7830SOL    HW235124   3.873   3.911   9.691 -0.5314 -0.9937 -0.2102
 7831SOL     OW35125   3.207   2.245  11.768 -0.5753 -0.2118 -0.3126
 7831SOL    HW135126   3.142   2.194  11.719  0.4371 -0.8027 -1.0400
 7831SOL    HW235127   3.228   2.307  11.698 -0.0511 -0.4387 -0.3567
 7832SOL     OW35128   3.075   3.002   2.480  0.3459  0.0046 -0.4660
 7832SOL    HW135129   3.077   3.016   2.385  0.3938 -0.5471 -0.5500
 7832SOL    HW235130   3.097   3.087   2.517  1.1239 -0.0726 -0.7424
 7833SOL     OW35131   4.618   1.015   7.923  1.4470  0.8674 -0.3065
 7833SOL    HW135132   4.675   1.037   7.849  1.2687 -1.6874 -1.2183
 7833SOL    HW235133   4.556   1.086   7.912 -0.3971 -0.5419  1.0811
 7834SOL     OW35134   2.929   0.626   9.583  0.2301  0.6262  0.2544
 7834SOL    HW135135   2.996   0.601   9.647  0.4914 -0.6898 -0.5424
 7834SOL    HW235136   2.985   0.668   9.518 -0.9399  0.4339 -0.8628
 7835SOL     OW35137   1.603   3.954   0.384 -0.3210  0.2477 -0.3110
 7835SOL    HW135138   1.545   4.021   0.348 -0.0420  0.6570  0.0035
 7835SOL    HW235139   1.676   3.962   0.323 -0.2028 -4.9185 -0.8344
 7836SOL     OW35140   4.693   0.944   3.350 -0.1783  0.1785  0.2636
 7836SOL    HW135141   4.605   0.960   3.317 -1.0958 -3.6019  0.8511
 7836SOL    HW235142   4.721   1.033   3.371 -1.3343  0.0691  2.3711
 7837SOL     OW35143   3.117   1.343   9.360  0.0158  0.3081  0.0092
 7837SOL    HW135144   3.200   1.304   9.334 -1.5891 -2.7604 -0.6051
 7837SOL    HW235145   3.056   1.305   9.296 -0.5810  0.1323  0.6837
 7838SOL     OW35146   2.334   0.434   3.457 -0.0050 -0.0475 -0.3870
 7838SOL    HW135147   2.381   0.517   3.457  2.1105 -1.2480 -2.2482
 7838SOL    HW235148   2.336   0.414   3.550  0.5792  0.1117 -0.3656
 7839SOL     OW35149   2.936   0.036   4.992 -0.3130 -0.3967  0.3348
 7839SOL    HW135150   2.918   4.683   4.956 -0.7152 -0.3317  0.3728
 7839SOL    HW235151   2.984   0.012   5.070 -0.9587  0.4086  0.9769
 7840SOL     OW35152   3.489   1.747   5.199  0.2743 -0.7185 -0.1193
 7840SOL    HW135153   3.412   1.714   5.154 -0.5117  0.3596  0.4328
 7840SOL    HW235154   3.554   1.722   5.134  1.7680  2.4622  0.1554
 7841SOL     OW35155   3.093   0.863   5.723 -0.0455 -0.1990  0.0898
 7841SOL    HW135156   3.012   0.901   5.692 -0.5866 -2.8052 -1.6813
 7841SOL    HW235157   3.135   0.939   5.764 -2.1391  2.1408 -2.1621
 7842SOL     OW35158   0.451   0.995   1.509 -0.4830 -0.1625  0.9020
 7842SOL    HW135159   0.457   0.906   1.543  0.1887  0.4835  2.4846
 7842SOL    HW235160   0.538   1.025   1.538  0.2430 -0.9044 -0.5355
 7843SOL     OW35161   1.309   4.702   2.681  0.2268 -0.1770  0.1622
 7843SOL    HW135162   1.397   4.721   2.647 -0.0911 -1.8223 -1.5844
 7843SOL    HW235163   1.256   0.009   2.613 -2.2190  0.2890  2.4068
 7844SOL     OW35164   2.880   1.920  16.397 -0.4380  0.1434  0.0930
 7844SOL    HW135165   2.914   1.858  16.462 -1.7309 -0.1850  0.4601
 7844SOL    HW235166   2.804   1.958  16.443  0.4464  0.8644  0.9715
 7845SOL     OW35167   0.647   4.029   2.908  0.4786  0.6035 -0.0235
 7845SOL    HW135168   0.657   4.028   3.003  1.3924  0.6010 -0.1192
 7845SOL    HW235169   0.718   4.089   2.883  0.8660 -1.5129 -3.9781
 7846SOL     OW35170   2.997   4.277   9.604 -0.4470 -0.4056  0.4317
 7846SOL    HW135171   2.923   4.280   9.544 -1.2555 -2.6784  1.3362
 7846SOL    HW235172   2.976   4.363   9.641 -2.2815 -1.0915  0.9765
 7847SOL     OW35173   3.687   0.692   3.714 -0.1639  0.0488 -0.1002
 7847SOL    HW135174   3.756   0.672   3.777 -0.9298 -0.6534  0.5229
 7847SOL    HW235175   3.643   0.607   3.704 -2.8263  1.4640 -0.2779
 7848SOL     OW35176   2.087   1.718   8.639  0.9259  0.4744  0.0760
 7848SOL    HW135177   2.010   1.664   8.653  1.3339  0.0366  0.5983
 7848SOL    HW235178   2.101   1.701   8.545 -1.3679  0.7016 -0.3166
 7849SOL     OW35179   2.110   2.988   4.212 -0.4970 -0.5166  0.0212
 7849SOL    HW135180   2.189   2.946   4.245 -0.5535 -1.1822 -0.7020
 7849SOL    HW235181   2.066   2.984   4.297 -1.7272  0.1524 -0.5821
 7850SOL     OW35182   3.122   1.714   3.658  0.3114 -0.0863  0.4706
 7850SOL    HW135183   3.098   1.622   3.650  2.0849 -0.5522  0.7028
 7850SOL    HW235184   3.210   1.716   3.694 -0.2160  0.2280  1.7581
 7851SOL     OW35185   0.799   3.839   1.562 -0.0592 -0.3904 -0.0395
 7851SOL    HW135186   0.843   3.866   1.482  0.9158  1.0231  0.9667
 7851SOL    HW235187   0.801   3.915   1.621  0.4682 -0.4359 -0.0035
 7852SOL     OW35188   2.821   3.785  10.219 -0.2047  0.0017 -0.5379
 7852SOL    HW135189   2.910   3.784  10.183  0.5405 -2.3738  1.3353
 7852SOL    HW235190   2.849   3.818  10.305  3.3067  1.0705 -2.0720
 7853SOL     OW35191   4.076   0.837   3.940  0.1593  0.3899  0.2120
 7853SOL    HW135192   4.053   0.862   4.029  2.5443  2.7182  0.2017
 7853SOL    HW235193   4.019   0.903   3.900 -2.2565 -1.4558  0.6635
 7854SOL     OW35194   1.618   2.124   8.529 -0.2495 -0.2737 -0.4554
 7854SOL    HW135195   1.601   2.190   8.596 -0.6370  0.9316 -1.7403
 7854SOL    HW235196   1.689   2.072   8.567 -1.3264 -0.1653  1.6925
 7855SOL     OW35197   1.234   3.029   8.564  0.5094 -0.3696  0.0925
 7855SOL    HW135198   1.284   2.956   8.530  0.9079  1.0897 -2.4648
 7855SOL    HW235199   1.174   2.993   8.631 -0.8719  0.8099 -0.5052
 7856SOL     OW35200   2.526   1.720   6.360 -0.2180  0.2797  0.3292
 7856SOL    HW135201   2.497   1.810   6.373  2.4164  0.9481  1.4994
 7856SOL    HW235202   2.597   1.711   6.424 -0.1241 -2.7582 -0.1933
 7857SOL     OW35203   3.585   4.722  10.406  0.1734  0.2949  0.6625
 7857SOL    HW135204   3.609   0.014  10.318 -1.5798 -0.1082  0.0692
 7857SOL    HW235205   3.607   4.629  10.396 -1.7595 -0.0039 -0.7237
 7858SOL     OW35206   4.432   4.236  12.095 -0.0162  0.5248  0.5457
 7858SOL    HW135207   4.490   4.277  12.031 -0.4240 -1.4623 -1.0854
 7858SOL    HW235208   4.352   4.286  12.082  0.8370  1.6830 -0.2762
 7859SOL     OW35209   0.034   3.397   7.353 -0.0885  0.2863 -0.1272
 7859SOL    HW135210   0.103   3.330   7.353 -1.3344 -1.0179 -0.0882
 7859SOL    HW235211   0.083   3.464   7.400  0.1592 -0.4406  0.6490
 7860SOL     OW35212   4.403   3.203   6.483  0.1100 -0.0597  0.2844
 7860SOL    HW135213   4.498   3.191   6.486  0.1386  0.3839  1.1742
 7860SOL    HW235214   4.365   3.135   6.539  0.9963 -0.5729  0.2704
 7861SOL     OW35215   1.421   3.742   9.394  0.2138 -0.1099 -0.1782
 7861SOL    HW135216   1.463   3.819   9.431 -1.3229  0.7587 -0.2441
 7861SOL    HW235217   1.494   3.707   9.344  0.7159 -2.0863  1.9252
 7862SOL     OW35218   1.171   2.906   7.684 -0.8213  0.4696 -0.3970
 7862SOL    HW135219   1.092   2.858   7.659 -0.1808 -0.9740  0.3557
 7862SOL    HW235220   1.154   2.929   7.776 -0.9540 -0.2304 -0.2393
 7863SOL     OW35221   4.183   2.384   9.662 -0.6724  0.2740 -0.2475
 7863SOL    HW135222   4.222   2.314   9.715  0.9328  2.1487  1.0408
 7863SOL    HW235223   4.183   2.350   9.572  2.1834 -0.7437  0.1084
 7864SOL     OW35224   3.386   4.716   8.929 -0.2924 -0.0722 -0.3206
 7864SOL    HW135225   3.425   0.001   8.844  0.5293  1.6557  0.4665
 7864SOL    HW235226   3.378   4.621   8.926  1.0218 -0.2536  1.6546
 7865SOL     OW35227   2.111   2.955   3.683  0.0899  0.0287  0.1734
 7865SOL    HW135228   2.185   3.003   3.646 -1.1807  0.1914 -2.1848
 7865SOL    HW235229   2.134   2.862   3.684 -0.9618 -0.2327 -0.2013
 7866SOL     OW35230   0.880   3.770  14.846 -0.5689 -0.0398  0.3474
 7866SOL    HW135231   0.831   3.832  14.900  0.7985  0.9920  0.3969
 7866SOL    HW235232   0.935   3.740  14.918  0.0785 -1.9634 -0.9501
 7867SOL     OW35233   4.634   2.675  10.357 -0.1707 -0.2468  0.4079
 7867SOL    HW135234   4.605   2.620  10.284  1.0027 -2.0352  1.2964
 7867SOL    HW235235   4.624   2.610  10.427 -0.5997  0.4256  0.9706
 7868SOL     OW35236   3.889   1.561  12.651  0.2680  0.5024  0.0062
 7868SOL    HW135237   3.793   1.562  12.644  0.1437  1.6440  1.8841
 7868SOL    HW235238   3.892   1.651  12.683 -0.7057  1.3621 -2.3015
 7869SOL     OW35239   3.088   4.041   3.855 -0.1804 -0.3859 -0.4834
 7869SOL    HW135240   3.059   4.132   3.854  0.2966 -0.2133  2.7094
 7869SOL    HW235241   3.133   4.033   3.771 -0.6494  0.1764 -0.7872
 7870SOL     OW35242   1.014   2.212   7.004 -0.4799 -0.0022  0.0164
 7870SOL    HW135243   1.045   2.124   7.021  2.1534  0.7337 -1.0800
 7870SOL    HW235244   1.027   2.216   6.909 -0.9422 -1.3140 -0.1046
 7871SOL     OW35245   3.910   4.302   6.447  0.4645 -0.0463 -0.0457
 7871SOL    HW135246   3.900   4.334   6.537 -0.5322  1.3795 -0.6570
 7871SOL    HW235247   3.965   4.225   6.461 -0.0748 -0.2592  0.8812
 7872SOL     OW35248   3.779   3.219  17.310  0.3503  0.1707  0.4957
 7872SOL    HW135249   3.871   3.203  17.292 -0.1020 -0.0980 -1.6091
 7872SOL    HW235250   3.753   3.131  17.335  0.1081  0.3888  1.0170
 7873SOL     OW35251   0.494   1.397   9.577 -0.0458  0.1537  0.0742
 7873SOL    HW135252   0.470   1.487   9.599 -1.4232  0.3211 -2.1053
 7873SOL    HW235253   0.471   1.381   9.485  0.1552 -1.4514  0.2994
 7874SOL     OW35254   1.664   0.157   4.586 -0.7893  0.5025  0.9568
 7874SOL    HW135255   1.687   0.080   4.639  1.5428 -1.4160 -2.9062
 7874SOL    HW235256   1.605   0.113   4.526 -0.3263  0.6636  0.3890
 7875SOL     OW35257   1.238   2.257   3.257 -0.0401 -0.5921  0.3761
 7875SOL    HW135258   1.191   2.279   3.176 -0.2342  2.3883  1.2921
 7875SOL    HW235259   1.205   2.169   3.274  1.7501 -1.0314  1.5760
 7876SOL     OW35260   4.197   3.965   8.150  0.2759  0.0979 -0.0559
 7876SOL    HW135261   4.206   4.047   8.102  1.5450  0.5904  1.0193
 7876SOL    HW235262   4.250   3.903   8.100  1.6453  1.0814  0.1704
 7877SOL     OW35263   2.580   1.070   5.733 -0.4571  0.4890 -0.4234
 7877SOL    HW135264   2.537   1.106   5.655 -0.8178 -0.4479 -0.6478
 7877SOL    HW235265   2.526   1.115   5.799  0.8621  1.1396  0.2266
 7878SOL     OW35266   4.186   2.150   6.100 -0.4109 -0.3194 -0.1652
 7878SOL    HW135267   4.149   2.221   6.047  0.9074  2.6043  2.8067
 7878SOL    HW235268   4.279   2.157   6.079 -0.5719 -1.9170 -1.4395
 7879SOL     OW35269   0.312   0.096   3.904 -0.4390 -0.5070  0.3017
 7879SOL    HW135270   0.381   0.151   3.941  2.2109 -1.6934 -2.8484
 7879SOL    HW235271   0.334   0.096   3.810  0.4187  1.0378  0.4828
 7880SOL     OW35272   3.794   4.418   1.383  0.2445  0.6303 -0.8437
 7880SOL    HW135273   3.704   4.436   1.356  0.4446  1.0525 -1.2409
 7880SOL    HW235274   3.836   4.503   1.370 -1.6880  1.7052 -0.0291
 7881SOL     OW35275   2.494   0.171   2.447 -0.0431 -0.2018  0.3690
 7881SOL    HW135276   2.493   0.263   2.473 -0.8315 -0.0030 -0.3810
 7881SOL    HW235277   2.568   0.177   2.387 -0.5470  2.9155  0.0713
 7882SOL     OW35278   3.725   1.245  11.270 -1.1382  0.3363  0.5597
 7882SOL    HW135279   3.768   1.292  11.199 -0.7226 -0.9399 -0.0467
 7882SOL    HW235280   3.778   1.282  11.340  1.0906 -0.5462 -0.6735
 7883SOL     OW35281   1.074   0.186   8.700  0.3215  0.4374 -0.3189
 7883SOL    HW135282   1.110   0.203   8.613  0.3656  2.7208  0.1357
 7883SOL    HW235283   1.156   0.163   8.743  0.9654  0.2059 -1.6548
 7884SOL     OW35284   2.766   0.315   3.658 -0.1642 -0.1257  0.1970
 7884SOL    HW135285   2.705   0.268   3.599 -0.9137 -1.5450  2.1009
 7884SOL    HW235286   2.775   0.247   3.725  1.6902 -0.1658 -0.0940
 7885SOL     OW35287   1.278   1.726   7.231  0.8264 -0.1989  0.1995
 7885SOL    HW135288   1.310   1.728   7.321  0.6147  0.1049  0.2701
 7885SOL    HW235289   1.332   1.798   7.198  0.9032 -1.6893 -2.9634
 7886SOL     OW35290   1.622   1.205   0.054 -0.5689 -0.5534  0.6251
 7886SOL    HW135291   1.559   1.137   0.028 -0.0648 -0.3165 -1.2198
 7886SOL    HW235292   1.674   1.208  17.712 -0.6518 -0.4569  0.5756
 7887SOL     OW35293   1.027   0.948  11.206 -0.5906  0.2621 -0.8098
 7887SOL    HW135294   1.090   0.886  11.242 -0.3795 -0.3360 -2.2414
 7887SOL    HW235295   1.032   0.913  11.117 -1.1802 -0.8119 -0.4237
 7888SOL     OW35296   4.377   3.318   5.031  0.2589 -0.3523  0.1138
 7888SOL    HW135297   4.353   3.391   5.088  1.1238  0.4011 -0.4810
 7888SOL    HW235298   4.301   3.262   5.050  0.0109 -0.9777 -2.6651
 7889SOL     OW35299   0.817   0.651   0.838  0.6388  0.4364  0.1925
 7889SOL    HW135300   0.857   0.729   0.801 -0.2469  1.4468  1.3781
 7889SOL    HW235301   0.728   0.659   0.804  0.2760  2.3596  1.6250
 7890SOL     OW35302   4.479   1.545   3.266 -0.0773 -0.6589 -0.3526
 7890SOL    HW135303   4.513   1.495   3.192  1.7589 -1.3895  0.9879
 7890SOL    HW235304   4.426   1.617   3.230  0.3984  0.1872  0.6537
 7891SOL     OW35305   3.479   1.318  14.497 -0.2061  0.0873 -0.0507
 7891SOL    HW135306   3.494   1.376  14.422  2.6406  0.7528  1.0465
 7891SOL    HW235307   3.389   1.338  14.523  0.7646  2.7163  1.3633
 7892SOL     OW35308   2.989   4.169   2.332  0.4530  0.3697 -0.2492
 7892SOL    HW135309   3.020   4.209   2.413  1.7964 -1.4388  0.1287
 7892SOL    HW235310   2.954   4.083   2.358 -1.6767  0.8877 -1.3399
 7893SOL     OW35311   0.153   0.596   0.139  0.0961 -0.1541 -0.2599
 7893SOL    HW135312   0.134   0.666   0.076  0.2697  0.8602  0.8171
 7893SOL    HW235313   0.071   0.549   0.128  0.8130 -1.3606 -0.3837
 7894SOL     OW35314   0.784   2.284   6.471  0.0184  0.2914  0.2950
 7894SOL    HW135315   0.763   2.330   6.552  0.5122 -1.2894  1.3169
 7894SOL    HW235316   0.723   2.211   6.482  0.5163  0.0229  1.2955
 7895SOL     OW35317   2.561   4.257   4.646  0.0373 -0.6505  0.0779
 7895SOL    HW135318   2.543   4.344   4.681  1.3405  0.4234 -1.9151
 7895SOL    HW235319   2.468   4.232   4.653  0.0915 -0.9061 -0.0944
 7896SOL     OW35320   4.532   2.453   3.255 -0.2366  0.4395 -0.2246
 7896SOL    HW135321   4.616   2.491   3.229 -0.6902  0.4948 -1.6494
 7896SOL    HW235322   4.497   2.527   3.304 -3.2717 -1.0174 -0.2302
 7897SOL     OW35323   0.951   3.843   4.706 -0.4804 -0.5883 -0.0133
 7897SOL    HW135324   0.909   3.827   4.622  2.0198  1.1037 -1.6031
 7897SOL    HW235325   0.947   3.760   4.752  1.0321 -0.4083  0.4679
 7898SOL     OW35326   0.684   2.907   8.523  0.0270 -0.2243 -0.0192
 7898SOL    HW135327   0.591   2.905   8.547  0.6318 -1.0104  2.2436
 7898SOL    HW235328   0.729   2.851   8.586  0.3602  1.4737  1.2270
 7899SOL     OW35329   2.368   2.796   5.327 -0.1622 -0.3548  0.5535
 7899SOL    HW135330   2.394   2.831   5.412  1.6027  1.5256 -0.7596
 7899SOL    HW235331   2.348   2.706   5.351  1.2856 -0.3978  1.6158
 7900SOL     OW35332   4.176   1.884   5.079  0.4704 -0.3337 -0.5521
 7900SOL    HW135333   4.155   1.905   5.171  0.6919  0.5266 -0.6921
 7900SOL    HW235334   4.136   1.960   5.036  1.8440  1.0397  0.5776
 7901SOL     OW35335   0.531   2.159   7.985  0.3561  0.0242  0.5901
 7901SOL    HW135336   0.599   2.200   8.039 -2.7820  2.5722  2.6827
 7901SOL    HW235337   0.577   2.088   7.942  2.2379 -0.1530  2.8791
 7902SOL     OW35338   3.405   3.392   9.842 -0.4233  0.0990  0.0778
 7902SOL    HW135339   3.319   3.434   9.848 -1.6310 -2.3771 -0.2850
 7902SOL    HW235340   3.436   3.387   9.932 -0.3184 -0.3027  0.0191
 7903SOL     OW35341   1.508   1.246   7.337  0.3761  0.7000 -0.0581
 7903SOL    HW135342   1.582   1.187   7.352 -0.9692 -1.0896 -0.5564
 7903SOL    HW235343   1.476   1.205   7.257 -0.7226  1.4649 -0.0045
 7904SOL     OW35344   0.321   1.705   8.816 -0.0481  0.3056  0.2712
 7904SOL    HW135345   0.228   1.686   8.830 -0.0543 -1.3088 -1.9822
 7904SOL    HW235346   0.342   1.637   8.752 -2.6123  1.0901 -1.3952
 7905SOL     OW35347   1.998   3.235  14.192  0.3591  0.8061  0.2643
 7905SOL    HW135348   1.982   3.143  14.172 -1.1103  1.3887 -1.2722
 7905SOL    HW235349   2.069   3.229  14.256  1.8439 -0.0176 -1.4235
 7906SOL     OW35350   0.396   2.472   3.898  0.5476 -0.3343 -0.2006
 7906SOL    HW135351   0.480   2.449   3.861 -0.1276 -0.0425 -1.9114
 7906SOL    HW235352   0.331   2.469   3.827  0.1745  0.3044  0.1083
 7907SOL     OW35353   2.010   1.497  10.136 -0.5970  0.2779  0.1710
 7907SOL    HW135354   1.999   1.426  10.199  2.5674  0.2644  0.7168
 7907SOL    HW235355   2.073   1.543  10.191 -1.8214  0.9868  0.9657
 7908SOL     OW35356   0.083   2.941   0.928  0.4044  0.3513  0.2904
 7908SOL    HW135357   0.073   3.028   0.889 -1.9463 -1.7730 -3.8824
 7908SOL    HW235358   0.051   2.969   1.014  1.2133  1.0599  0.3560
 7909SOL     OW35359   0.304   0.212   4.964  0.5120 -0.1393 -0.1182
 7909SOL    HW135360   0.317   0.235   4.872 -2.6065  0.0545 -0.5003
 7909SOL    HW235361   0.312   0.118   4.948  1.4655 -0.0746 -0.0531
 7910SOL     OW35362   4.687   2.875   8.677  0.0475  0.4776  0.0649
 7910SOL    HW135363   4.668   2.947   8.738  2.4493  0.7858  0.4702
 7910SOL    HW235364   0.021   2.828   8.724  0.0300  0.9037  0.5296
 7911SOL     OW35365   0.096   0.629  15.014 -0.1536 -0.2346  0.6186
 7911SOL    HW135366   0.118   0.666  14.928 -0.6653 -1.5156 -0.0723
 7911SOL    HW235367   0.001   0.627  15.003 -0.4641  1.0850  3.0855
 7912SOL     OW35368   3.066   0.052   2.309  0.3406 -0.1895 -0.2310
 7912SOL    HW135369   3.063   0.028   2.216 -0.5741 -1.5402  0.1477
 7912SOL    HW235370   3.093   4.706   2.352  0.2332  0.2158  0.5957
 7913SOL     OW35371   3.213   0.758  14.112  0.1793  0.0117 -0.1088
 7913SOL    HW135372   3.191   0.754  14.019  1.6256 -1.0376 -0.4102
 7913SOL    HW235373   3.258   0.841  14.121  0.6730 -0.2230 -0.4015
 7914SOL     OW35374   0.277   3.072   6.391  0.1712 -0.7083  0.6163
 7914SOL    HW135375   0.270   3.105   6.481  0.2800 -1.0213  0.7382
 7914SOL    HW235376   0.362   3.027   6.394  0.9511  0.6862 -0.8426
 7915SOL     OW35377   3.059   3.856   6.936 -0.0978 -0.3570  0.2833
 7915SOL    HW135378   2.977   3.874   6.890 -0.2643 -0.7431  0.4291
 7915SOL    HW235379   3.034   3.787   6.997 -0.5804 -0.5915 -0.1807
 7916SOL     OW35380   0.749   0.020   3.605  0.0928  0.1714 -0.0202
 7916SOL    HW135381   0.842   0.033   3.590  0.0444  0.1732 -0.3044
 7916SOL    HW235382   0.730   4.670   3.564 -0.1816  0.3659 -0.2937
 7917SOL     OW35383   1.428   4.659   4.631  0.2340  0.0985  0.2278
 7917SOL    HW135384   1.375   4.580   4.616  2.1977 -0.8488 -1.5926
 7917SOL    HW235385   1.508   4.619   4.665 -0.4529 -1.2703  0.2636
 7918SOL     OW35386   1.612   4.431   1.536  0.5085  0.6009 -0.3271
 7918SOL    HW135387   1.550   4.482   1.588 -0.8158 -1.5109  0.1479
 7918SOL    HW235388   1.688   4.488   1.553  0.2217  0.0279  2.9049
 7919SOL     OW35389   4.565   3.863   0.152 -0.5362  0.3705 -0.5694
 7919SOL    HW135390   4.519   3.824   0.226  2.5394  0.6776  1.5343
 7919SOL    HW235391   4.651   3.877   0.192 -0.8999 -0.2151  0.4355
 7920SOL     OW35392   2.069   3.302  11.324 -0.1333 -0.2472  0.4279
 7920SOL    HW135393   2.141   3.288  11.262 -0.6644 -1.6623  0.1370
 7920SOL    HW235394   2.014   3.367  11.281 -0.3298 -1.0027 -0.4351
 7921SOL     OW35395   1.801   0.135   7.474 -0.5115  0.2405  0.0591
 7921SOL    HW135396   1.735   0.088   7.424  0.6144  1.6819 -2.7261
 7921SOL    HW235397   1.824   0.203   7.411  1.9711  0.5355  1.2577
 7922SOL     OW35398   0.412   0.346   8.848  0.6225 -0.0900 -0.4942
 7922SOL    HW135399   0.497   0.359   8.889  1.0498 -0.5799 -1.2173
 7922SOL    HW235400   0.355   0.399   8.903 -2.1869 -2.9586 -0.6138
 7923SOL     OW35401   3.650   4.036  11.349 -0.2863 -0.3391 -0.4847
 7923SOL    HW135402   3.642   4.118  11.300 -0.7173 -0.1460 -0.0879
 7923SOL    HW235403   3.719   3.984  11.309  2.0272  2.1613  0.2914
 7924SOL     OW35404   0.670   2.499   0.739 -0.1891 -0.5032 -0.3000
 7924SOL    HW135405   0.672   2.538   0.827 -0.2038 -0.0455 -0.5031
 7924SOL    HW235406   0.759   2.517   0.709 -0.5923  0.1966 -1.0634
 7925SOL     OW35407   0.125   0.420  12.802  0.5420 -0.0792 -0.1601
 7925SOL    HW135408   0.137   0.502  12.754 -1.5986 -0.1154 -0.7576
 7925SOL    HW235409   0.218   0.401  12.813 -0.3447 -3.1562  2.2459
 7926SOL     OW35410   3.934   3.486   2.593  0.8082 -0.2456  0.0680
 7926SOL    HW135411   3.933   3.472   2.687 -0.3716 -0.4198  0.0365
 7926SOL    HW235412   3.846   3.524   2.587  2.0156  2.2049 -1.9623
 7927SOL     OW35413   4.100   4.597  12.407 -0.3673  0.5231  0.2215
 7927SOL    HW135414   4.059   4.534  12.465 -0.4704  1.5051  1.2118
 7927SOL    HW235415   4.072   4.579  12.317  0.7933 -0.5310  0.0727
 7928SOL     OW35416   3.996   1.357   7.352  0.1847  0.5074 -0.2303
 7928SOL    HW135417   4.073   1.313   7.317  1.0693  2.2038 -0.4403
 7928SOL    HW235418   4.040   1.436   7.385 -1.1920  2.0474 -2.0723
 7929SOL     OW35419   0.015   1.203   8.159  0.3815 -0.3004 -0.2988
 7929SOL    HW135420   0.047   1.240   8.077 -1.5199 -0.8685 -1.2892
 7929SOL    HW235421   4.685   1.262   8.198 -0.6945 -2.0202  0.4997
 7930SOL     OW35422   0.108   4.420   9.647  0.4603 -0.1878  0.2017
 7930SOL    HW135423   0.130   4.369   9.725 -0.1340 -0.4326  0.2090
 7930SOL    HW235424   0.137   4.511   9.652  1.0375 -0.4650  1.8993
 7931SOL     OW35425   1.566   0.376   7.405 -0.3862 -0.3025 -0.0921
 7931SOL    HW135426   1.602   0.318   7.338 -2.3720 -0.6237 -0.8814
 7931SOL    HW235427   1.488   0.326   7.429  0.7221 -2.0018 -0.0496
 7932SOL     OW35428   2.759   0.557   9.334  0.2317  0.0484  0.2145
 7932SOL    HW135429   2.750   0.646   9.300 -0.3543 -0.5223 -1.0891
 7932SOL    HW235430   2.767   0.565   9.430  0.7160 -0.9293  0.2541
 7933SOL     OW35431   4.019   4.042   7.461  0.1402  0.1208 -0.0171
 7933SOL    HW135432   4.053   3.990   7.534  0.7004  2.1945  1.2092
 7933SOL    HW235433   3.932   4.008   7.443 -0.0075 -1.2538  3.3404
 7934SOL     OW35434   3.116   1.033   5.242 -0.0701 -0.5912 -0.4323
 7934SOL    HW135435   3.208   1.046   5.221 -0.3924 -0.1169 -1.5456
 7934SOL    HW235436   3.100   0.939   5.239  0.4891 -0.7401  1.3920
 7935SOL     OW35437   1.840   3.612   9.061 -0.0718  0.2065  0.2174
 7935SOL    HW135438   1.924   3.658   9.057  0.8637 -1.4843  0.4967
 7935SOL    HW235439   1.868   3.520   9.059  1.1994  0.6135 -0.4123
 7936SOL     OW35440   3.192   0.741   7.721  0.0591  0.1095 -0.6955
 7936SOL    HW135441   3.284   0.714   7.719  0.1600  0.4014  0.0748
 7936SOL    HW235442   3.171   0.752   7.628  2.1820 -1.4013 -1.3491
 7937SOL     OW35443   2.415   4.195   2.097 -0.4502  0.1173 -0.1772
 7937SOL    HW135444   2.431   4.106   2.066 -0.0854 -0.2021  0.9289
 7937SOL    HW235445   2.382   4.234   2.016 -0.6148 -0.8649 -0.5821
 7938SOL     OW35446   3.054   2.230  13.490  0.2013  0.2412  0.3855
 7938SOL    HW135447   2.986   2.167  13.464 -0.6355  0.7239  1.3793
 7938SOL    HW235448   3.113   2.169  13.533 -3.4666 -2.4775  1.5267
 7939SOL     OW35449   2.769   0.138   9.920 -0.2244 -0.2136  0.2590
 7939SOL    HW135450   2.852   0.090   9.920 -0.2281 -0.2202  0.0103
 7939SOL    HW235451   2.732   0.123  10.007 -0.4470  0.3194  0.2511
 7940SOL     OW35452   1.031   3.017   4.752  0.0144  0.3620 -0.3972
 7940SOL    HW135453   0.999   2.945   4.699 -1.1946 -0.0898  0.9575
 7940SOL    HW235454   1.110   3.029   4.699  1.6416 -0.5495  1.7843
 7941SOL     OW35455   2.548   0.725   5.257 -0.3018 -0.3811 -0.4797
 7941SOL    HW135456   2.455   0.706   5.269 -0.8638  1.4729 -1.8326
 7941SOL    HW235457   2.533   0.819   5.248  0.2235 -0.2061  0.4768
 7942SOL     OW35458   3.163   1.272   3.314  0.5812  0.3608 -0.4990
 7942SOL    HW135459   3.092   1.326   3.279 -0.8484 -0.1344  1.5972
 7942SOL    HW235460   3.119   1.187   3.321  1.2196  0.1031  0.5021
 7943SOL     OW35461   2.101   0.573   7.484  0.5298  0.3115 -0.3754
 7943SOL    HW135462   2.142   0.574   7.398 -0.7131 -1.5505 -0.9964
 7943SOL    HW235463   2.061   0.659   7.478 -2.6805 -0.8866  3.8778
 7944SOL     OW35464   2.449   3.625  12.073 -0.1326  0.6495 -0.4512
 7944SOL    HW135465   2.360   3.601  12.047 -0.5903  2.0996 -0.1708
 7944SOL    HW235466   2.504   3.597  11.999 -2.5706 -0.1897 -1.9315
 7945SOL     OW35467   2.773   1.819   1.983 -0.7164 -0.2462  0.3817
 7945SOL    HW135468   2.843   1.873   2.020  0.5418 -2.0495  0.6066
 7945SOL    HW235469   2.721   1.879   1.930 -1.7157 -0.8783  0.6622
 7946SOL     OW35470   1.026   1.823   1.242  0.1436 -0.7982 -0.2580
 7946SOL    HW135471   0.959   1.777   1.293  0.9864  0.0294  1.5749
 7946SOL    HW235472   0.980   1.813   1.158  0.7085 -0.9716 -0.5516
 7947SOL     OW35473   3.148   4.111   6.943  0.3800  0.1371  0.4442
 7947SOL    HW135474   3.069   4.157   6.969 -0.6764 -0.9773 -0.8263
 7947SOL    HW235475   3.122   4.019   6.948 -0.7573  0.6066  3.0616
 7948SOL     OW35476   2.721   1.049   3.912 -0.5562  0.8101 -0.1063
 7948SOL    HW135477   2.735   1.112   3.982  0.6110  0.1454  0.2593
 7948SOL    HW235478   2.701   0.968   3.958 -0.1577  1.9929  2.1160
 7949SOL     OW35479   1.482   0.526  17.697  0.4133 -0.1842  0.3254
 7949SOL    HW135480   1.440   0.516   0.045  1.5718 -2.1670  0.6713
 7949SOL    HW235481   1.453   0.612  17.666 -0.8690 -0.5615  0.4779
 7950SOL     OW35482   2.627   1.831   7.572  0.3655 -0.4695 -0.0693
 7950SOL    HW135483   2.649   1.813   7.663  0.1793 -1.5994 -0.2476
 7950SOL    HW235484   2.569   1.905   7.588  0.9315  0.0507 -0.4298
 7951SOL     OW35485   0.511   1.574   5.436 -0.0392  0.0581  0.0347
 7951SOL    HW135486   0.577   1.625   5.389  1.5301 -1.0319  1.0459
 7951SOL    HW235487   0.517   1.496   5.381  2.1004  0.1856  0.1106
 7952SOL     OW35488   0.352   2.989   0.826  0.4024 -0.1483 -0.2380
 7952SOL    HW135489   0.402   2.952   0.753 -0.8162 -1.2757 -0.5114
 7952SOL    HW235490   0.307   2.915   0.867 -1.6367  1.2523  0.0314
 7953SOL     OW35491   4.070   1.397   4.295  0.6954  0.5365 -0.4711
 7953SOL    HW135492   4.004   1.467   4.298  0.4309  0.2196  0.9328
 7953SOL    HW235493   4.012   1.334   4.338  1.0480 -0.8570 -2.0110
 7954SOL     OW35494   3.007   1.901   2.106 -0.1524 -0.5142 -0.0189
 7954SOL    HW135495   3.031   1.810   2.123 -0.0769 -0.5643 -0.4024
 7954SOL    HW235496   3.035   1.919   2.017  0.0280  0.1016  0.1590
 7955SOL     OW35497   4.666   0.251   4.772  0.3690  0.5464 -0.0469
 7955SOL    HW135498   4.723   0.290   4.705  2.0889 -2.1394 -0.1389
 7955SOL    HW235499   4.586   0.302   4.760 -1.1230 -2.3523 -2.6203
 7956SOL     OW35500   1.155   2.595   4.568  0.2278 -0.1398 -0.2102
 7956SOL    HW135501   1.112   2.513   4.547 -0.6478  0.3385 -0.2809
 7956SOL    HW235502   1.162   2.593   4.663 -0.7024  1.5918 -0.0992
 7957SOL     OW35503   2.792   0.561   3.157  0.5147 -0.4012  0.6820
 7957SOL    HW135504   2.715   0.508   3.179  1.1255 -1.7604 -0.4793
 7957SOL    HW235505   2.862   0.497   3.170  0.9970  0.5004  2.6035
 7958SOL     OW35506   2.980   0.383   7.473 -0.5576 -0.2811 -0.2350
 7958SOL    HW135507   2.982   0.377   7.377 -0.1000  2.7857 -0.4162
 7958SOL    HW235508   2.952   0.295   7.498  0.8638 -0.2510  1.4734
 7959SOL     OW35509   4.101   0.532   9.090  0.5768  0.1066  0.7165
 7959SOL    HW135510   4.178   0.480   9.112  0.7664  0.4129  0.7856
 7959SOL    HW235511   4.059   0.482   9.020 -2.0226  1.8894  1.0073
 7960SOL     OW35512   0.129   4.585   4.760  0.2755 -0.0896 -0.3573
 7960SOL    HW135513   0.092   4.497   4.763  1.3446 -0.5381 -0.3132
 7960SOL    HW235514   0.046   4.633   4.761  0.1093 -0.3303 -1.7778
 7961SOL     OW35515   0.730   0.673   3.610  0.0646  0.4409 -0.2164
 7961SOL    HW135516   0.731   0.759   3.652  2.6297 -0.6935  2.0371
 7961SOL    HW235517   0.635   0.666   3.616  0.3069 -2.2660  0.4667
 7962SOL     OW35518   0.285   4.640   1.954  0.1154 -0.2470 -0.6989
 7962SOL    HW135519   0.316   4.590   1.879  0.1614  2.4774 -2.4939
 7962SOL    HW235520   0.254   4.713   1.901 -3.4752 -0.2984  1.3395
 7963SOL     OW35521   3.943   2.190   4.199 -0.3078  0.4702 -0.0475
 7963SOL    HW135522   3.857   2.190   4.240 -0.0968 -0.1143  0.4034
 7963SOL    HW235523   4.002   2.232   4.262 -1.6994  0.9853  0.9139
 7964SOL     OW35524   3.016   1.441  17.129  0.2376  0.4181  0.0573
 7964SOL    HW135525   2.948   1.503  17.154 -1.5344 -0.2664 -3.0663
 7964SOL    HW235526   2.958   1.379  17.086 -0.4964  1.3702 -0.3404
 7965SOL     OW35527   0.932   1.540   5.208  0.2772 -0.0869  0.3145
 7965SOL    HW135528   0.944   1.633   5.229  1.1874 -0.0822 -0.2253
 7965SOL    HW235529   0.839   1.543   5.183  0.3537  0.2733  0.0679
 7966SOL     OW35530   1.692   0.994   6.098  0.2312 -0.1764 -0.0979
 7966SOL    HW135531   1.641   1.058   6.048  2.0593 -0.4172 -2.2916
 7966SOL    HW235532   1.721   1.055   6.166  0.1744  1.8090 -1.8544
 7967SOL     OW35533   4.211   3.550   7.856  0.3943 -0.0436 -1.0177
 7967SOL    HW135534   4.168   3.629   7.886  0.9886  0.2937 -1.0506
 7967SOL    HW235535   4.237   3.578   7.768 -0.2639 -0.4000 -1.3265
 7968SOL     OW35536   1.958   3.077   2.797 -0.6004  0.8372 -0.2339
 7968SOL    HW135537   2.006   3.138   2.742 -1.5361  0.4919 -1.4302
 7968SOL    HW235538   1.872   3.119   2.799 -0.2626  1.5454 -0.5204
 7969SOL     OW35539   0.347   2.285   1.485 -0.3507  0.4708 -0.2224
 7969SOL    HW135540   0.316   2.318   1.400 -0.5800 -0.4071 -0.4750
 7969SOL    HW235541   0.408   2.352   1.517 -0.0271  2.3818 -4.7917
 7970SOL     OW35542   0.864   0.191   5.498 -0.3561  0.0530  0.0552
 7970SOL    HW135543   0.777   0.230   5.505 -0.6435 -0.5541 -0.1774
 7970SOL    HW235544   0.865   0.137   5.577  0.4929  0.7340  0.5177
 7971SOL     OW35545   3.193   1.335  14.658  0.1633 -0.4479 -0.1050
 7971SOL    HW135546   3.231   1.334  14.745  0.6422  0.8246 -0.2947
 7971SOL    HW235547   3.164   1.245  14.647  0.0772 -0.4536  0.1657
 7972SOL     OW35548   0.431   3.751   5.995 -0.3026  0.1946  0.2068
 7972SOL    HW135549   0.512   3.749   5.943  0.1229 -1.6371  0.9320
 7972SOL    HW235550   0.460   3.800   6.071 -0.4408 -0.0614  0.4239
 7973SOL     OW35551   0.409   4.452   7.921  0.5474 -0.0788  0.2136
 7973SOL    HW135552   0.500   4.448   7.948 -0.3447 -0.7853  3.1601
 7973SOL    HW235553   0.391   4.361   7.948  1.3511 -0.6967 -1.3533
 7974SOL     OW35554   3.352   1.231   9.266 -0.2058 -0.2985  0.3595
 7974SOL    HW135555   3.346   1.192   9.179  1.3335 -0.4995  0.3479
 7974SOL    HW235556   3.395   1.161   9.316  0.6376 -0.8194 -1.0892
 7975SOL     OW35557   3.196   2.664  11.645 -0.2331 -0.3093 -0.4292
 7975SOL    HW135558   3.155   2.639  11.728 -0.6889 -0.3249 -0.6611
 7975SOL    HW235559   3.228   2.753  11.658 -0.3089  0.0219 -2.4685
 7976SOL     OW35560   1.070   1.303  11.875  0.1265  0.3841 -0.0862
 7976SOL    HW135561   1.149   1.262  11.842  0.6620  1.2327  0.1436
 7976SOL    HW235562   1.034   1.223  11.914 -1.5683  0.1328 -2.1518
 7977SOL     OW35563   0.403   2.979   8.524  0.0199  0.1038 -0.2549
 7977SOL    HW135564   0.410   3.066   8.486 -0.6069  0.0898 -0.3961
 7977SOL    HW235565   0.310   2.963   8.509 -0.3790  2.3930 -0.1121
 7978SOL     OW35566   2.896   3.943   2.449 -0.2425 -0.4096 -0.2043
 7978SOL    HW135567   2.851   3.902   2.376 -1.2937 -1.0567  0.8123
 7978SOL    HW235568   2.976   3.890   2.445 -0.3238 -0.5816  0.4721
 7979SOL     OW35569   4.059   2.486   2.476 -0.0638 -0.0165 -0.5661
 7979SOL    HW135570   4.100   2.486   2.562  0.7353  1.5407 -0.9383
 7979SOL    HW235571   4.139   2.504   2.427  0.2279  0.6424  0.1624
 7980SOL     OW35572   1.262   1.350   7.427 -0.4538  0.4811  0.9086
 7980SOL    HW135573   1.339   1.297   7.408 -0.3143  1.7026 -1.9027
 7980SOL    HW235574   1.193   1.286   7.406  2.3416 -1.4859 -2.2211
 7981SOL     OW35575   1.661   4.452   9.333  0.0917 -0.0501  0.2387
 7981SOL    HW135576   1.672   4.532   9.281 -0.5255  0.1402  0.4011
 7981SOL    HW235577   1.591   4.401   9.294 -2.0305  0.4233  3.4330
 7982SOL     OW35578   3.283   0.472   4.314 -0.0323  0.0057  0.0387
 7982SOL    HW135579   3.265   0.406   4.381 -2.1773 -0.7979 -1.3349
 7982SOL    HW235580   3.352   0.521   4.359 -0.4732 -0.5325  1.3281
 7983SOL     OW35581   2.241   1.180  14.840  0.1422  0.0480 -0.2994
 7983SOL    HW135582   2.312   1.174  14.904 -0.6058 -2.1310  0.3362
 7983SOL    HW235583   2.242   1.088  14.811 -1.8377 -0.1088  0.1298
 7984SOL     OW35584   4.686   0.146   2.027  0.5409  0.6285 -0.0975
 7984SOL    HW135585   4.652   0.074   1.973  2.5670 -1.4222  1.3395
 7984SOL    HW235586   0.009   0.188   1.963  1.6685 -0.1795  0.3880
 7985SOL     OW35587   2.868   3.542   6.735 -0.2700 -0.2849  0.2827
 7985SOL    HW135588   2.849   3.514   6.824  0.5229 -0.1250  0.5088
 7985SOL    HW235589   2.793   3.597   6.714 -0.3659 -0.1059  1.0996
 7986SOL     OW35590   3.903   4.620   4.016  0.3192 -0.7432 -0.3213
 7986SOL    HW135591   3.898   4.662   3.930 -0.8087  0.7380  0.4625
 7986SOL    HW235592   3.891   4.688   4.084  1.6381  0.4411 -1.2800
 7987SOL     OW35593   0.130   2.104  13.879 -0.4615  0.0423 -0.4106
 7987SOL    HW135594   0.224   2.086  13.889 -0.4848  1.2128  1.9871
 7987SOL    HW235595   0.105   2.134  13.966  1.6622 -1.3444  0.6863
 7988SOL     OW35596   4.044   3.065   6.847  0.3017 -0.1519 -0.1430
 7988SOL    HW135597   3.993   3.145   6.851 -0.6199 -0.7252 -0.3958
 7988SOL    HW235598   4.112   3.081   6.913  2.9118 -0.9214 -2.6217
 7989SOL     OW35599   1.268   2.451   1.905  0.0386 -0.2055 -0.4738
 7989SOL    HW135600   1.209   2.420   1.974 -0.0231  0.7588 -0.0951
 7989SOL    HW235601   1.242   2.543   1.901 -3.0006 -1.1270 -2.1465
 7990SOL     OW35602   4.723   2.818  12.846  0.2784  0.2265  0.0123
 7990SOL    HW135603   4.684   2.736  12.818  0.6191  0.1868 -0.3348
 7990SOL    HW235604   0.083   2.805  12.851  0.1091 -1.4458 -1.2416
 7991SOL     OW35605   1.859   3.172   2.152 -0.1960  0.0845  0.0682
 7991SOL    HW135606   1.927   3.205   2.094  0.1435  2.4850  1.8078
 7991SOL    HW235607   1.782   3.215   2.116 -0.8622 -2.5496 -1.6388
 7992SOL     OW35608   1.069   1.888   8.042 -0.0567  0.3576  0.1406
 7992SOL    HW135609   1.160   1.909   8.064 -0.0869  0.8930 -0.2482
 7992SOL    HW235610   1.043   1.834   8.116 -0.8139  0.8834  0.2542
 7993SOL     OW35611   0.078   3.617  16.622  0.2078 -0.3189  0.9143
 7993SOL    HW135612   0.132   3.628  16.700 -2.4557 -0.5407  2.8194
 7993SOL    HW235613   0.086   3.698  16.573  0.2599 -1.4559 -0.9557
 7994SOL     OW35614   4.697   4.691   8.147 -0.5174  0.1902  0.0084
 7994SOL    HW135615   0.018   0.020   8.103  2.2320 -1.8974  0.4683
 7994SOL    HW235616   4.708   4.731   8.233  3.0203 -1.3388  0.2624
 7995SOL     OW35617   0.579   3.287  11.689 -0.1207 -0.3616 -0.6913
 7995SOL    HW135618   0.660   3.339  11.689  0.1308 -0.7520 -0.4756
 7995SOL    HW235619   0.557   3.292  11.596  0.8798 -1.8613 -1.0077
 7996SOL     OW35620   0.373   2.618  12.347  0.1775 -0.0928 -0.1238
 7996SOL    HW135621   0.423   2.555  12.398  1.4705  1.8867  1.0238
 7996SOL    HW235622   0.296   2.575  12.309 -1.7100  2.0673  1.2303
 7997SOL     OW35623   0.168   1.495   9.332  0.8820 -0.0300 -0.1592
 7997SOL    HW135624   0.236   1.428   9.325  1.5543  0.7158 -0.7279
 7997SOL    HW235625   0.111   1.454   9.397 -1.6181  0.5377 -2.0008
 7998SOL     OW35626   2.930   4.200  14.774 -0.5473 -0.1883  0.3354
 7998SOL    HW135627   2.947   4.107  14.756 -0.5241 -0.3060  0.9508
 7998SOL    HW235628   2.852   4.192  14.829 -1.8995 -0.0686 -1.5904
 7999SOL     OW35629   2.711   4.203   7.187 -0.5159 -0.7306 -0.3385
 7999SOL    HW135630   2.770   4.239   7.253 -1.4170  1.8486 -0.9306
 7999SOL    HW235631   2.638   4.263   7.171 -0.8563 -0.3613  2.6530
 8000SOL     OW35632   1.145   3.711   8.559  0.2020 -0.2811  0.2601
 8000SOL    HW135633   1.157   3.709   8.654  1.8374  0.6257  0.0664
 8000SOL    HW235634   1.238   3.709   8.535  0.3792 -0.0424  0.9279
 8001SOL     OW35635   0.510   0.152   9.489 -0.2285 -0.0700 -0.4768
 8001SOL    HW135636   0.574   0.113   9.549 -0.6091  0.4130  0.2502
 8001SOL    HW235637   0.557   0.230   9.460 -0.3797  0.4212  0.5979
 8002SOL     OW35638   4.262   2.771   7.386 -0.2029 -0.2369  0.5333
 8002SOL    HW135639   4.337   2.712   7.393 -0.8174 -1.4682 -2.9441
 8002SOL    HW235640   4.222   2.720   7.315 -0.4790 -0.7752  1.0792
 8003SOL     OW35641   2.487   3.562   4.462 -0.2124 -0.1391  0.0350
 8003SOL    HW135642   2.503   3.653   4.439 -0.8516  0.1467  0.7095
 8003SOL    HW235643   2.406   3.536   4.419 -0.3855  0.1638  0.1790
 8004SOL     OW35644   4.132   1.983   4.187 -0.4937 -0.4035  0.6971
 8004SOL    HW135645   4.057   2.040   4.199  0.1916  1.0785 -1.9946
 8004SOL    HW235646   4.165   1.992   4.276  1.4959  0.6515 -0.1422
 8005SOL     OW35647   0.899   2.787   2.403  0.2205  0.0166 -0.1727
 8005SOL    HW135648   0.897   2.868   2.454  0.2377 -0.9428  1.3717
 8005SOL    HW235649   0.928   2.733   2.476  0.7872  0.6493  0.0693
 8006SOL     OW35650   1.398   0.642  16.248 -0.0658 -0.1703 -0.0282
 8006SOL    HW135651   1.431   0.552  16.238  0.1712 -0.0439 -0.3973
 8006SOL    HW235652   1.338   0.639  16.173  0.5177 -0.7346 -0.4745
 8007SOL     OW35653   2.418   4.335   7.970 -0.3178 -0.2054 -0.3085
 8007SOL    HW135654   2.342   4.390   7.991  0.1945  1.0597 -1.7875
 8007SOL    HW235655   2.411   4.350   7.876  1.9048  0.2134 -0.3967
 8008SOL     OW35656   2.153   1.728  14.649 -0.0815  0.2674 -0.0978
 8008SOL    HW135657   2.214   1.733  14.722 -0.8334  1.5369  0.4441
 8008SOL    HW235658   2.209   1.785  14.597 -0.2228 -0.9621 -1.5826
 8009SOL     OW35659   1.099   0.281   4.130 -0.5269  0.0857  0.2561
 8009SOL    HW135660   1.058   0.313   4.211 -0.8607  0.0432  0.1015
 8009SOL    HW235661   1.023   0.229   4.103 -1.3795  2.2131 -1.3365
 8010SOL     OW35662   1.764   0.085   8.934 -0.1555  0.3333 -0.7970
 8010SOL    HW135663   1.709   0.046   8.866 -0.7823  0.0978 -0.1498
 8010SOL    HW235664   1.705   0.157   8.957 -0.1185  0.0729  0.0933
 8011SOL     OW35665   3.589   3.032   3.427  0.3600 -0.1062  0.0325
 8011SOL    HW135666   3.638   3.110   3.399  1.2048 -0.3119  0.9515
 8011SOL    HW235667   3.624   2.970   3.363 -1.3567 -0.6155 -0.4048
 8012SOL     OW35668   1.514   0.673   3.576  0.2426  0.4212  0.4483
 8012SOL    HW135669   1.486   0.655   3.486  0.1528  2.9531 -0.0202
 8012SOL    HW235670   1.502   0.587   3.616 -0.3065  0.1113 -0.3714
 8013SOL     OW35671   3.173   1.160   8.339  0.0769  0.3522  0.1550
 8013SOL    HW135672   3.130   1.135   8.421 -0.1165 -1.2990 -0.4538
 8013SOL    HW235673   3.263   1.165   8.371  0.4542  1.2026 -1.0297
 8014SOL     OW35674   4.668   1.455   5.447 -0.1513  0.4251  0.1964
 8014SOL    HW135675   4.649   1.462   5.541 -0.0133 -0.7713  0.3154
 8014SOL    HW235676   4.708   1.368   5.450  0.0555  0.5041 -0.2504
 8015SOL     OW35677   3.295   2.120   4.595  0.0325  0.6789  0.5111
 8015SOL    HW135678   3.257   2.201   4.629 -2.3240 -0.0741 -0.2886
 8015SOL    HW235679   3.281   2.132   4.501  1.3722 -1.6855  0.0160
 8016SOL     OW35680   3.523   1.988   1.908 -0.4517 -0.7378  0.1690
 8016SOL    HW135681   3.580   1.975   1.985  0.5667  0.4556 -0.3824
 8016SOL    HW235682   3.548   2.074   1.875 -1.2251 -0.1319  1.1701
 8017SOL     OW35683   3.348   1.049   7.264  0.6030  0.2354 -0.0562
 8017SOL    HW135684   3.356   0.983   7.196 -0.5783  1.5399 -1.4599
 8017SOL    HW235685   3.324   1.125   7.211  0.6203  1.4787  1.6957
 8018SOL     OW35686   2.389   3.614   3.160  0.2515 -0.2449 -0.1454
 8018SOL    HW135687   2.414   3.705   3.141 -1.3714  0.1849 -0.2089
 8018SOL    HW235688   2.293   3.618   3.154  0.3113  1.4656 -0.0316
 8019SOL     OW35689   2.116   2.590   4.614 -0.1993  0.2667 -0.2041
 8019SOL    HW135690   2.064   2.510   4.619 -0.8148  0.5904 -1.4148
 8019SOL    HW235691   2.167   2.582   4.534  1.0770  0.3355  0.5974
 8020SOL     OW35692   1.310   1.149  11.797 -0.3416 -0.4692 -0.0928
 8020SOL    HW135693   1.401   1.152  11.768 -0.7918  0.8417 -1.3977
 8020SOL    HW235694   1.301   1.083  11.866  2.8106 -1.0945 -0.2992
 8021SOL     OW35695   3.477   2.044   0.848  0.1471  0.0142  0.1552
 8021SOL    HW135696   3.481   1.959   0.892  0.4481  0.4712  1.0166
 8021SOL    HW235697   3.426   2.027   0.769  1.2890  1.6695 -0.9277
 8022SOL     OW35698   0.306   0.101   9.808  0.2593 -1.1563 -0.2963
 8022SOL    HW135699   0.383   0.147   9.842 -0.4791 -0.1770  0.0697
 8022SOL    HW235700   0.264   0.169   9.755  1.2926 -0.0510  0.2970
 8023SOL     OW35701   1.747   4.217  16.659 -0.0560 -0.4877 -0.0462
 8023SOL    HW135702   1.661   4.212  16.702  0.1662  2.2471  0.7444
 8023SOL    HW235703   1.806   4.171  16.719  0.5587  1.4911  0.8548
 8024SOL     OW35704   3.430   3.763  10.049 -1.0340  0.4987 -0.1792
 8024SOL    HW135705   3.465   3.780   9.962 -1.2249  2.9944  0.2123
 8024SOL    HW235706   3.347   3.726  10.020 -1.6492  0.4106  1.6632
 8025SOL     OW35707   3.294   2.026   3.172  0.1493  0.0805 -0.0039
 8025SOL    HW135708   3.315   2.036   3.079  2.8330 -1.2194  0.4637
 8025SOL    HW235709   3.364   2.080   3.210  1.1508 -0.6085 -0.8872
 8026SOL     OW35710   0.557   1.014  10.369 -0.2632 -0.7203  0.0383
 8026SOL    HW135711   0.478   1.063  10.345  0.5547  0.2497 -0.6619
 8026SOL    HW235712   0.565   0.967  10.286  0.6286  2.4403 -1.6737
 8027SOL     OW35713   2.034   4.284   1.662  0.2150 -0.1391 -0.9120
 8027SOL    HW135714   1.992   4.204   1.629 -4.6628  1.2343  2.0775
 8027SOL    HW235715   1.972   4.324   1.723 -0.2955 -4.2764  1.2527
 8028SOL     OW35716   4.059   2.894   6.334 -0.2386  0.3949 -0.2419
 8028SOL    HW135717   4.037   2.888   6.427 -1.1621  0.4828 -0.4624
 8028SOL    HW235718   4.073   2.802   6.308  3.3212  0.6139  0.8121
 8029SOL     OW35719   1.628   4.324   4.133 -0.4014  0.5190  0.0384
 8029SOL    HW135720   1.640   4.295   4.224 -0.9635 -0.0994 -0.0829
 8029SOL    HW235721   1.660   4.413   4.147  0.7185 -0.0676  1.2371
 8030SOL     OW35722   2.677   0.789   6.399 -0.5058 -0.2472 -0.4768
 8030SOL    HW135723   2.699   0.825   6.485 -2.8852 -0.3208  0.1587
 8030SOL    HW235724   2.747   0.726   6.382  0.7663  1.3910 -1.3500
 8031SOL     OW35725   1.073   4.464   8.167 -0.0137 -0.8458 -0.6781
 8031SOL    HW135726   1.031   4.419   8.095 -1.1331 -3.1704  1.4158
 8031SOL    HW235727   1.090   4.392   8.228  1.8322 -0.7917 -1.1208
 8032SOL     OW35728   0.330   1.362   3.645  0.1669  0.0560  0.0184
 8032SOL    HW135729   0.420   1.388   3.624  0.3747  0.3423  1.2679
 8032SOL    HW235730   0.309   1.299   3.577 -1.2231 -1.0430  1.4749
 8033SOL     OW35731   0.443   1.103   4.049  0.5167  0.4660  0.5174
 8033SOL    HW135732   0.425   1.051   3.971 -0.2189  0.5421  0.6301
 8033SOL    HW235733   0.423   1.192   4.023 -0.0079  0.2926  0.3293
 8034SOL     OW35734   1.842   1.609   8.366  0.3785 -0.1413 -0.7336
 8034SOL    HW135735   1.760   1.604   8.415  0.1231  0.5608 -1.0863
 8034SOL    HW235736   1.845   1.703   8.345  0.5030  0.3408  1.4245
 8035SOL     OW35737   2.664   2.303   7.305  0.3903 -0.0714  0.2921
 8035SOL    HW135738   2.611   2.345   7.238  1.3874 -1.0071 -1.0797
 8035SOL    HW235739   2.749   2.335   7.274  0.8548 -1.0063  0.5866
 8036SOL     OW35740   1.160   1.747   5.899 -0.0351  0.3724  0.7836
 8036SOL    HW135741   1.171   1.693   5.978  0.3406 -1.3251 -0.4409
 8036SOL    HW235742   1.082   1.703   5.864 -0.1544  1.7948 -0.7144
 8037SOL     OW35743   1.165   0.702   5.370  0.4200  0.5807  0.4826
 8037SOL    HW135744   1.085   0.667   5.331  0.3739 -1.5189  2.5132
 8037SOL    HW235745   1.219   0.624   5.379  2.1500  1.4225 -2.6530
 8038SOL     OW35746   1.179   0.812   3.939 -0.0460 -0.4978 -0.2743
 8038SOL    HW135747   1.185   0.864   4.019  0.1803 -0.8719 -0.0454
 8038SOL    HW235748   1.091   0.775   3.941 -0.1810 -0.1847 -0.4359
 8039SOL     OW35749   4.152   0.920   5.237  0.3192 -1.0865 -0.2641
 8039SOL    HW135750   4.188   0.985   5.177 -1.1839  3.2197  3.4382
 8039SOL    HW235751   4.079   0.888   5.184  1.4179 -0.2851 -2.2266
 8040SOL     OW35752   4.669   0.834   0.958  0.6486 -0.3254 -0.5111
 8040SOL    HW135753   4.661   0.914   0.906 -1.5978 -0.6095 -0.5941
 8040SOL    HW235754   0.022   0.800   0.940  1.4132  0.1208  2.2199
 8041SOL     OW35755   1.506   2.401   6.535  0.1625 -0.3092 -0.2264
 8041SOL    HW135756   1.594   2.434   6.520 -0.0381 -0.5190 -1.9436
 8041SOL    HW235757   1.519   2.311   6.504  1.8312  0.1411 -0.8100
 8042SOL     OW35758   3.349   0.558   2.998  0.0870 -0.0811 -1.2464
 8042SOL    HW135759   3.345   0.644   3.039 -2.2158 -1.4977  1.4998
 8042SOL    HW235760   3.295   0.569   2.920  0.0537  1.3901 -1.0064
 8043SOL     OW35761   2.674   2.456   4.132 -0.3796  0.0554  0.2838
 8043SOL    HW135762   2.705   2.535   4.177  0.9846 -0.7446  0.7641
 8043SOL    HW235763   2.602   2.490   4.079  0.2187 -1.2651 -1.3820
 8044SOL     OW35764   3.438   3.935  15.910  0.3719 -0.0013 -0.0022
 8044SOL    HW135765   3.496   3.877  15.959  0.8114  0.1512 -0.3316
 8044SOL    HW235766   3.445   3.890  15.826  3.0114  0.0804  0.1719
 8045SOL     OW35767   0.640   3.085  16.766 -0.0769 -0.0171  0.4083
 8045SOL    HW135768   0.567   3.146  16.756 -1.5426 -1.2885  3.2872
 8045SOL    HW235769   0.645   3.057  16.675 -2.2156  0.3584  0.1731
 8046SOL     OW35770   2.804   1.397  16.302 -0.1838 -0.1607 -0.2032
 8046SOL    HW135771   2.846   1.384  16.216  1.7240  0.6064  0.6202
 8046SOL    HW235772   2.765   1.483  16.292 -1.2355 -0.3263  2.7720
 8047SOL     OW35773   4.082   0.332   0.163 -0.1514 -0.3449  0.3243
 8047SOL    HW135774   4.157   0.385   0.191  0.7105 -1.4895  0.2184
 8047SOL    HW235775   4.090   0.328   0.068 -2.8603 -1.9275  0.1638
 8048SOL     OW35776   2.739   0.025  17.092  0.0190 -0.2514 -0.7377
 8048SOL    HW135777   2.806   0.041  17.026 -1.4233 -0.2855 -2.2196
 8048SOL    HW235778   2.741   0.101  17.149  1.5845 -0.6391 -0.2690
 8049SOL     OW35779   0.329   2.867   6.010 -0.0772  0.3360 -1.0021
 8049SOL    HW135780   0.292   2.940   5.960 -0.5346  0.0719 -1.0553
 8049SOL    HW235781   0.422   2.887   6.000  0.0371 -0.2698 -1.2062
 8050SOL     OW35782   1.497   4.383   1.957  0.1614 -0.2846  0.0451
 8050SOL    HW135783   1.548   4.319   1.907 -1.0137 -1.1461 -0.0506
 8050SOL    HW235784   1.510   4.345   2.044 -1.9222 -0.8877  0.0796
 8051SOL     OW35785   1.547   0.626   1.730 -0.2170 -0.0724 -0.3231
 8051SOL    HW135786   1.590   0.607   1.646 -0.4751  0.5194 -0.5927
 8051SOL    HW235787   1.513   0.541   1.758 -0.5067 -0.3691 -1.5775
 8052SOL     OW35788   3.946   0.056   7.608 -0.2005  0.1514 -0.3065
 8052SOL    HW135789   3.924   0.138   7.564  1.7819 -0.5442 -2.5797
 8052SOL    HW235790   3.968   0.004   7.530  0.7096  1.4207 -0.8918
 8053SOL     OW35791   4.258   4.598   9.733 -0.2084 -0.0710  0.3304
 8053SOL    HW135792   4.352   4.582   9.724 -0.2025 -0.4514  1.0242
 8053SOL    HW235793   4.244   4.647   9.814  1.3533 -0.7303  1.0169
 8054SOL     OW35794   1.777   0.899   4.452 -0.2878  0.6678  0.0257
 8054SOL    HW135795   1.871   0.912   4.465 -0.4327  2.3720 -0.5430
 8054SOL    HW235796   1.745   0.897   4.542  2.1067  1.7612  0.9139
 8055SOL     OW35797   0.640   1.484   6.311 -0.5072 -0.1782  0.1223
 8055SOL    HW135798   0.715   1.530   6.272 -1.2368  2.9538  2.3678
 8055SOL    HW235799   0.658   1.391   6.298  0.9770  0.0749  0.4071
 8056SOL     OW35800   4.077   3.812  16.124  0.1122 -0.1336 -0.3050
 8056SOL    HW135801   3.997   3.792  16.172 -1.8519 -1.8522 -4.3415
 8056SOL    HW235802   4.073   3.908  16.127  1.0451 -0.1535  1.7037
 8057SOL     OW35803   2.290   2.291   5.608 -0.0554  0.1954 -0.2480
 8057SOL    HW135804   2.299   2.247   5.523  0.9559 -0.6607  0.3041
 8057SOL    HW235805   2.362   2.257   5.661 -0.4778 -1.9199 -1.0447
 8058SOL     OW35806   1.557   0.345   5.444  0.3749  0.0474 -0.0631
 8058SOL    HW135807   1.587   0.263   5.404  2.3984  0.6120  0.3006
 8058SOL    HW235808   1.578   0.407   5.374  3.1241  0.9863  1.6138
 8059SOL     OW35809   0.191   0.745   2.383 -0.0501 -0.6359 -0.1104
 8059SOL    HW135810   0.254   0.812   2.410 -3.9991  2.8135  0.5541
 8059SOL    HW235811   0.255   0.675   2.373  0.5264  0.3898 -3.4095
 8060SOL     OW35812   1.212   3.675   2.901 -0.0388  0.5132  0.4417
 8060SOL    HW135813   1.278   3.622   2.946 -0.6773 -1.9552 -1.4960
 8060SOL    HW235814   1.249   3.762   2.886 -1.1791  1.0691  0.9538
 8061SOL     OW35815   2.764   1.353  13.450  0.1398 -0.0587 -0.9213
 8061SOL    HW135816   2.790   1.442  13.475 -1.2960  0.2401 -0.4971
 8061SOL    HW235817   2.671   1.366  13.432 -0.3094 -0.2182  1.2324
 8062SOL     OW35818   2.102   1.015   4.979  0.4968 -0.0392  0.5334
 8062SOL    HW135819   2.022   1.028   4.928 -0.5892 -1.7962  1.7689
 8062SOL    HW235820   2.159   0.956   4.929  1.4091  1.5948 -0.3446
 8063SOL     OW35821   1.850   4.003   6.691 -0.5078  0.3177 -0.2660
 8063SOL    HW135822   1.809   4.021   6.775  1.0135  0.1342  0.5217
 8063SOL    HW235823   1.789   4.046   6.632 -0.0683  0.5369 -0.5632
 8064SOL     OW35824   0.693   2.495   8.186  0.1096 -0.0997  0.3712
 8064SOL    HW135825   0.692   2.583   8.223 -0.9651 -0.1640  0.4889
 8064SOL    HW235826   0.608   2.485   8.143  1.1982 -0.9209 -1.6212
 8065SOL     OW35827   4.360   1.040  16.660  0.0690  0.4547 -0.3964
 8065SOL    HW135828   4.438   1.085  16.694  0.4771 -1.9634  1.8685
 8065SOL    HW235829   4.404   0.961  16.629  0.0175 -0.0208  0.7555
 8066SOL     OW35830   3.474   3.935   5.817  0.1635 -0.5429 -0.1214
 8066SOL    HW135831   3.436   4.020   5.839 -1.0381 -1.5925  1.9321
 8066SOL    HW235832   3.431   3.905   5.737  3.1408  0.4656 -2.0567
 8067SOL     OW35833   2.581   4.709   6.869 -0.1202  0.2304  0.0557
 8067SOL    HW135834   2.527   0.052   6.863  0.2249  0.2855 -2.4632
 8067SOL    HW235835   2.552   4.660   6.792  0.8245  0.5432 -0.4976
 8068SOL     OW35836   0.515   2.248   0.790 -0.3470 -0.1585  0.0782
 8068SOL    HW135837   0.515   2.246   0.885 -0.3331 -2.1435  0.0406
 8068SOL    HW235838   0.572   2.321   0.766 -0.1441 -0.2642  0.2413
 8069SOL     OW35839   1.650   4.485   2.639 -0.0017 -0.4852  0.1725
 8069SOL    HW135840   1.696   4.428   2.699  2.2554 -0.2176 -1.3096
 8069SOL    HW235841   1.558   4.458   2.638 -0.9632  2.6536  1.6892
 8070SOL     OW35842   0.186   2.004   7.131 -0.0345  0.2091  0.0146
 8070SOL    HW135843   0.126   1.973   7.063  0.9926  0.4215 -0.9862
 8070SOL    HW235844   0.207   1.920   7.171 -1.5244 -0.3570 -0.3608
 8071SOL     OW35845   1.925   2.528   0.200 -0.2269  0.0079  0.4719
 8071SOL    HW135846   1.889   2.539   0.288  0.7172 -4.0280  1.3468
 8071SOL    HW235847   1.854   2.471   0.171  1.0797 -0.2749 -2.1138
 8072SOL     OW35848   2.974   2.870   7.016 -0.4975 -0.7439 -0.0654
 8072SOL    HW135849   3.021   2.788   7.001  0.2935 -0.5896  1.5986
 8072SOL    HW235850   2.913   2.833   7.080 -1.5765  2.3152  0.6401
 8073SOL     OW35851   3.771   1.898   7.368  0.6912  0.0904 -0.4869
 8073SOL    HW135852   3.715   1.930   7.297 -0.1596  1.8473  0.9939
 8073SOL    HW235853   3.840   1.962   7.353  1.5090 -0.7185 -0.1977
 8074SOL     OW35854   4.212   4.455   7.390  0.3332  0.8089 -0.5536
 8074SOL    HW135855   4.149   4.419   7.451  1.0159  0.5388 -0.0071
 8074SOL    HW235856   4.293   4.417   7.424 -0.2267 -0.8800 -1.1077
 8075SOL     OW35857   2.772   4.254  15.390  0.3553 -0.7412  0.0346
 8075SOL    HW135858   2.829   4.251  15.313  1.6950 -1.3936  1.0497
 8075SOL    HW235859   2.760   4.348  15.399  1.9585 -0.4463 -0.8715
 8076SOL     OW35860   3.624   0.507  16.198 -0.3801  0.1338 -0.1627
 8076SOL    HW135861   3.673   0.505  16.280  0.5542  0.7633 -0.7145
 8076SOL    HW235862   3.685   0.458  16.142 -0.8329  1.7680 -2.0846
 8077SOL     OW35863   4.151   3.606  14.152  0.0045 -0.3543 -0.8726
 8077SOL    HW135864   4.171   3.690  14.112 -1.4551  0.8557  0.9141
 8077SOL    HW235865   4.085   3.567  14.095 -3.1407 -1.3567  3.4367
 8078SOL     OW35866   1.282   2.081   3.854  0.3588  0.4804 -0.9613
 8078SOL    HW135867   1.354   2.100   3.914  0.8952 -0.9778 -1.1320
 8078SOL    HW235868   1.243   2.000   3.888  1.4233 -0.4728 -1.9812
 8079SOL     OW35869   3.243   3.813   3.374 -0.0313  0.2796  0.7687
 8079SOL    HW135870   3.177   3.812   3.305  0.9002  4.0421 -0.1924
 8079SOL    HW235871   3.257   3.907   3.377 -3.0149  0.7548  0.1118
 8080SOL     OW35872   1.069   0.738   7.830  0.4111 -0.0920  0.3128
 8080SOL    HW135873   1.158   0.764   7.851  0.2103  0.8041  0.0473
 8080SOL    HW235874   1.061   0.650   7.868 -0.5985 -0.3391 -0.4463
 8081SOL     OW35875   4.649   2.816  10.684 -0.2680  0.1153  0.2062
 8081SOL    HW135876   4.557   2.813  10.658 -0.5069  0.1242  1.0417
 8081SOL    HW235877   4.685   2.763  10.613 -0.2718 -1.8243  1.6491
 8082SOL     OW35878   2.463   4.101  15.462  0.6649  0.7222  0.0074
 8082SOL    HW135879   2.525   4.090  15.390  0.5086 -0.6625  0.0887
 8082SOL    HW235880   2.459   4.009  15.488 -3.2300  1.0711  0.6342
 8083SOL     OW35881   1.627   4.691   8.363 -0.1543 -0.1053  0.2680
 8083SOL    HW135882   1.649   0.007   8.285 -0.5308 -1.0185 -0.4434
 8083SOL    HW235883   1.685   4.616   8.350  0.3514  0.5679 -1.3583
 8084SOL     OW35884   3.747   0.558   8.637  0.2247  0.0536 -0.3368
 8084SOL    HW135885   3.716   0.472   8.666  4.3273 -1.1061  0.5887
 8084SOL    HW235886   3.698   0.622   8.687  0.7479 -0.3533  0.7044
 8085SOL     OW35887   1.635   3.664   4.237  0.7972 -0.1367 -0.3407
 8085SOL    HW135888   1.563   3.712   4.197  2.0672  1.2408 -0.9783
 8085SOL    HW235889   1.595   3.580   4.216  0.5924  0.3832 -1.9751
 8086SOL     OW35890   1.212   3.608  15.810 -0.1878 -0.2288  0.5911
 8086SOL    HW135891   1.273   3.677  15.833 -2.1063  2.0531 -1.2160
 8086SOL    HW235892   1.152   3.613  15.884  1.5671 -1.6255  2.1199
 8087SOL     OW35893   4.271   1.949   7.527 -0.3438  0.0250  0.8130
 8087SOL    HW135894   4.306   1.860   7.533 -2.0150 -0.7926 -1.3750
 8087SOL    HW235895   4.296   1.964   7.436  1.0076  1.2036  1.3900
 8088SOL     OW35896   1.185   1.214   3.075  0.1542  0.0405 -0.1654
 8088SOL    HW135897   1.124   1.140   3.080  1.4305 -0.7829  2.8312
 8088SOL    HW235898   1.171   1.233   2.982  0.4977  2.1042  0.2063
 8089SOL     OW35899   1.698   0.572   9.730 -0.0360 -0.4884  0.0635
 8089SOL    HW135900   1.741   0.564   9.645  0.1440  1.5643 -0.0518
 8089SOL    HW235901   1.618   0.622   9.709  0.4680  1.0950  1.9966
 8090SOL     OW35902   1.889   3.609   8.756 -0.5599  0.3567 -0.5686
 8090SOL    HW135903   1.841   3.533   8.786  1.4292 -0.6276  0.1047
 8090SOL    HW235904   1.870   3.677   8.821  3.5657 -1.0810  2.1531
 8091SOL     OW35905   2.684   0.038   4.434 -0.0227 -0.3626 -0.2561
 8091SOL    HW135906   2.735   0.040   4.515 -1.9794 -2.3646  1.0214
 8091SOL    HW235907   2.722   0.112   4.386 -0.3636  1.2111  1.9044
 8092SOL     OW35908   2.649   4.135  12.428  0.4697  0.0135 -0.3730
 8092SOL    HW135909   2.653   4.056  12.374 -1.6201  1.1655 -2.1824
 8092SOL    HW235910   2.580   4.176  12.376  1.5498 -0.5742 -2.2511
 8093SOL     OW35911   0.192   0.139   2.216 -0.1822  0.0264 -0.3713
 8093SOL    HW135912   0.256   0.203   2.187 -0.3021  0.7853  1.0582
 8093SOL    HW235913   0.132   0.124   2.143 -2.7348 -0.8705  1.8590
 8094SOL     OW35914   0.005   0.174  12.186  0.0964  1.0359  0.4470
 8094SOL    HW135915   4.651   0.171  12.222 -0.6603 -0.7864 -1.4830
 8094SOL    HW235916   0.046   0.225  12.255  0.8915  0.5156  0.3564
 8095SOL     OW35917   4.507   4.106   5.274  0.0140  0.2431  0.1926
 8095SOL    HW135918   4.411   4.112   5.281  0.0448  0.7368  0.1606
 8095SOL    HW235919   4.532   4.196   5.294  2.4883 -0.5708  0.6960
 8096SOL     OW35920   4.112   1.973   4.453 -0.1333  0.5131  0.2909
 8096SOL    HW135921   4.031   1.934   4.486  0.2564  0.8513  1.6355
 8096SOL    HW235922   4.168   1.974   4.530  0.1598 -1.4334  0.1011
 8097SOL     OW35923   2.486   1.191   5.505  0.0940  0.9895  0.6987
 8097SOL    HW135924   2.499   1.234   5.421 -0.4616  0.3197  0.2752
 8097SOL    HW235925   2.391   1.189   5.492  0.1016  0.3994  0.7067
 8098SOL     OW35926   2.158   2.549   8.287  0.1122 -0.2035  0.2046
 8098SOL    HW135927   2.211   2.567   8.210  0.7357  0.2328  0.7298
 8098SOL    HW235928   2.156   2.643   8.309 -3.0759  0.0597 -1.2994
 8099SOL     OW35929   4.263   4.650   3.732 -0.1776  0.3650 -0.0156
 8099SOL    HW135930   4.183   4.692   3.762 -0.2903 -0.9347  1.4902
 8099SOL    HW235931   4.243   4.559   3.754 -1.4926  0.0324 -2.5552
 8100SOL     OW35932   0.042   3.641  12.009  0.7334 -0.2269 -0.3121
 8100SOL    HW135933   0.136   3.634  11.993  0.2549 -4.0416 -1.5450
 8100SOL    HW235934   0.023   3.734  12.018 -1.2575 -0.5043 -1.5107
 8101SOL     OW35935   1.641   3.930   5.529 -0.0989 -0.0324 -0.7175
 8101SOL    HW135936   1.666   3.963   5.615  0.1355  2.2738 -1.6522
 8101SOL    HW235937   1.621   4.011   5.482 -0.7611  0.2730  0.1088
 8102SOL     OW35938   2.024   1.640   0.927 -0.0639 -0.0355 -0.1491
 8102SOL    HW135939   2.096   1.701   0.919 -0.5153  0.4022 -0.8859
 8102SOL    HW235940   2.000   1.628   0.835 -2.3605  0.6482  0.3567
 8103SOL     OW35941   2.986   1.786   9.421  0.3233 -0.3230 -0.1088
 8103SOL    HW135942   2.942   1.723   9.478 -0.5719  0.6525  0.2765
 8103SOL    HW235943   2.909   1.835   9.395  0.4156 -1.2092 -2.0792
 8104SOL     OW35944   4.010   1.994   9.272 -0.0247  0.0509  0.6453
 8104SOL    HW135945   3.938   1.988   9.209 -0.9334  0.9014  1.5981
 8104SOL    HW235946   4.006   2.083   9.308  0.3970  0.2584  0.1686
 8105SOL     OW35947   3.532   2.708   9.040 -0.6389 -0.1240 -0.2375
 8105SOL    HW135948   3.532   2.640   9.106 -3.5278 -0.4715 -0.6297
 8105SOL    HW235949   3.546   2.788   9.090  2.7469 -1.6768  1.2838
 8106SOL     OW35950   4.283   4.315  10.334  0.2599 -0.1360  0.1181
 8106SOL    HW135951   4.357   4.373  10.314  0.5629 -0.0211  1.5354
 8106SOL    HW235952   4.242   4.359  10.409 -0.9168  0.6602 -0.9825
 8107SOL     OW35953   0.495   0.423  10.391  0.3444  0.3091 -0.4793
 8107SOL    HW135954   0.403   0.437  10.368  0.1700  1.0236  0.6582
 8107SOL    HW235955   0.495   0.329  10.405 -2.3949  0.6397  1.7711
 8108SOL     OW35956   2.710   4.291   9.783  0.0560 -0.3412 -0.2435
 8108SOL    HW135957   2.774   4.362   9.775 -0.7009  0.4414  0.7221
 8108SOL    HW235958   2.658   4.321   9.857 -1.7370  0.4301 -1.8238
 8109SOL     OW35959   0.242   0.528   0.591 -0.5527 -0.3356  0.1608
 8109SOL    HW135960   0.189   0.579   0.529 -0.2215 -0.7715 -0.4824
 8109SOL    HW235961   0.327   0.523   0.548  1.0518 -1.3542  3.5008
 8110SOL     OW35962   2.220   0.157  14.132 -0.0173  0.1704 -0.0595
 8110SOL    HW135963   2.233   0.249  14.157  1.9893 -0.2414  0.4386
 8110SOL    HW235964   2.201   0.118  14.217 -0.9721  3.5105  1.2511
 8111SOL     OW35965   1.237   3.302   4.854  0.1471 -0.0765  0.0560
 8111SOL    HW135966   1.283   3.338   4.930 -0.7478  1.2437 -0.0124
 8111SOL    HW235967   1.174   3.246   4.898  1.2813 -1.3677  0.0443
 8112SOL     OW35968   0.812   2.168  11.685  0.5877 -0.0829  0.4292
 8112SOL    HW135969   0.893   2.218  11.682 -0.1573  1.1083 -0.0260
 8112SOL    HW235970   0.771   2.195  11.603  0.5785 -2.5389 -0.3856
 8113SOL     OW35971   1.731   2.336   0.455 -0.4253 -0.2823  0.0253
 8113SOL    HW135972   1.698   2.293   0.534  0.0090 -1.9606 -0.7153
 8113SOL    HW235973   1.822   2.306   0.451 -0.7081 -1.0603 -0.6842
 8114SOL     OW35974   1.141   0.703   0.976 -0.3128  0.4424 -0.5948
 8114SOL    HW135975   1.053   0.686   1.010  0.5892 -3.5768 -0.3178
 8114SOL    HW235976   1.188   0.646   1.037 -0.2461  0.7810 -0.3270
 8115SOL     OW35977   4.201   0.698   5.443  0.1705 -0.2158 -0.6399
 8115SOL    HW135978   4.167   0.700   5.354 -2.5317 -0.6247  0.3620
 8115SOL    HW235979   4.288   0.664   5.425  0.9521  1.4761 -0.0726
 8116SOL     OW35980   1.923   4.717  16.298  0.1502  0.3935 -0.2875
 8116SOL    HW135981   1.944   4.694  16.207 -1.6626 -0.4427 -0.5065
 8116SOL    HW235982   1.915   4.629  16.335  1.7986  1.0982  1.7321
 8117SOL     OW35983   0.716   3.970   3.158  0.0421 -0.2750 -0.3325
 8117SOL    HW135984   0.669   3.887   3.147  0.3887 -0.4495 -0.4857
 8117SOL    HW235985   0.804   3.942   3.131 -0.9890 -2.2517 -1.6692
 8118SOL     OW35986   2.998   0.040  11.990 -0.9552 -0.7465 -0.4388
 8118SOL    HW135987   2.934   4.727  12.042 -0.9749  0.3052  0.5099
 8118SOL    HW235988   3.035   0.092  12.061  0.1790  0.5831 -1.9888
 8119SOL     OW35989   1.998   4.521  15.764 -0.0018 -0.0617  0.1708
 8119SOL    HW135990   1.950   4.442  15.788  1.9908 -1.2802  0.2160
 8119SOL    HW235991   2.059   4.540  15.836  1.1847 -0.6588 -0.6728
 8120SOL     OW35992   1.211   3.863   7.393  0.5804 -0.7032  0.2640
 8120SOL    HW135993   1.222   3.823   7.480  0.0844 -2.7746 -0.6301
 8120SOL    HW235994   1.249   3.950   7.410 -3.0555  1.1509 -1.1949
 8121SOL     OW35995   2.973   1.524   6.606 -0.3332  0.1010 -0.2157
 8121SOL    HW135996   3.020   1.583   6.665  1.1563 -3.1572  1.8126
 8121SOL    HW235997   2.906   1.489   6.665 -0.1870 -0.4160 -0.3566
 8122SOL     OW35998   3.023   0.612   4.271  0.2672  0.3418  0.4280
 8122SOL    HW135999   2.985   0.533   4.308 -0.6325  0.8668  0.6108
 8122SOL    HW236000   3.118   0.597   4.277  0.3301  0.4841 -0.1612
 8123SOL     OW36001   4.313   0.182   9.309 -0.4450  0.1546 -0.2031
 8123SOL    HW136002   4.363   0.244   9.361  1.6689 -1.1447 -0.6638
 8123SOL    HW236003   4.307   0.115   9.378 -1.3099 -0.0023 -0.4315
 8124SOL     OW36004   4.451   4.580   4.232 -0.3631  0.1819  0.1885
 8124SOL    HW136005   4.506   4.564   4.155  0.0591  0.7315  0.3747
 8124SOL    HW236006   4.487   4.659   4.271  0.9007  0.9109 -2.4650
 8125SOL     OW36007   3.264   1.606   3.413  0.3899 -0.5121  0.0274
 8125SOL    HW136008   3.225   1.526   3.448  1.4068 -1.7154 -1.5755
 8125SOL    HW236009   3.214   1.673   3.460 -0.9894 -0.6403 -1.2354
 8126SOL     OW36010   0.575   0.965   4.437  0.6447 -0.0935  0.0820
 8126SOL    HW136011   0.651   1.023   4.428  0.0962  0.2625 -2.3172
 8126SOL    HW236012   0.507   1.033   4.440 -0.2764 -1.0223  0.1793
 8127SOL     OW36013   1.316   0.140   4.052 -0.3425  0.7001 -0.1628
 8127SOL    HW136014   1.289   0.059   4.095 -2.7073  1.5050 -0.1190
 8127SOL    HW236015   1.246   0.203   4.073 -0.8193  0.9867 -2.6331
 8128SOL     OW36016   0.744   0.633   5.124 -0.7084 -0.0579  0.3581
 8128SOL    HW136017   0.664   0.678   5.152 -0.9625 -0.6276  0.5381
 8128SOL    HW236018   0.699   0.552   5.101  1.1339 -0.7430 -0.9181
 8129SOL     OW36019   1.575   2.522  11.917  0.4085  0.4887 -0.4705
 8129SOL    HW136020   1.623   2.604  11.910 -1.2518  1.5745  0.9885
 8129SOL    HW236021   1.569   2.503  12.011 -1.8526 -0.8322 -0.8849
 8130SOL     OW36022   3.353   0.485  14.286 -0.1570 -0.5118 -0.0629
 8130SOL    HW136023   3.392   0.572  14.285  1.8470 -1.3750  1.4091
 8130SOL    HW236024   3.354   0.467  14.380 -0.5334  0.8386  0.1930
 8131SOL     OW36025   3.557   1.512   8.209 -0.5940  0.0828  0.0923
 8131SOL    HW136026   3.479   1.461   8.228 -0.6412 -0.1230 -0.6546
 8131SOL    HW236027   3.551   1.601   8.245 -1.2739 -0.2121  0.6992
 8132SOL     OW36028   0.137   0.750   4.404  0.5239  0.1536 -0.0415
 8132SOL    HW136029   0.157   0.686   4.335  1.4243  1.1199 -0.6802
 8132SOL    HW236030   0.090   0.815   4.352 -1.4723 -0.3538  1.1492
 8133SOL     OW36031   3.491   2.488   6.813 -0.1322 -0.1775 -0.8338
 8133SOL    HW136032   3.518   2.399   6.789  0.8076  0.6446 -2.8240
 8133SOL    HW236033   3.557   2.535   6.762 -0.5502  1.8799  0.5378
 8134SOL     OW36034   0.513   3.756   1.441 -0.0557  0.3965  0.0307
 8134SOL    HW136035   0.506   3.713   1.526 -0.2759  0.9621  0.2961
 8134SOL    HW236036   0.583   3.818   1.460  1.0560 -1.3994  1.8288
 8135SOL     OW36037   4.722   0.132   2.943  0.3700 -0.0088 -0.4718
 8135SOL    HW136038   4.704   0.201   2.879  2.2532  2.1441  1.3307
 8135SOL    HW236039   4.669   0.064   2.902 -0.3962  0.3838 -0.1266
 8136SOL     OW36040   2.770   2.459   9.682 -0.0389  0.4525  0.2094
 8136SOL    HW136041   2.741   2.534   9.733 -0.7602  1.4940 -1.7175
 8136SOL    HW236042   2.861   2.453   9.711 -0.6875 -1.7320  1.7999
 8137SOL     OW36043   3.755   3.571   8.734  0.2460 -0.3990 -0.3674
 8137SOL    HW136044   3.711   3.652   8.711  1.5750  0.1433 -1.0090
 8137SOL    HW236045   3.714   3.504   8.679  1.2459 -0.7970 -0.6418
 8138SOL     OW36046   3.828   2.342   5.491 -0.3158  0.5439 -0.4903
 8138SOL    HW136047   3.844   2.249   5.477  0.5891  0.6523 -0.1834
 8138SOL    HW236048   3.743   2.335   5.536  1.4128 -0.4597  2.6120
 8139SOL     OW36049   1.228   3.408   3.391 -0.2399  0.2411 -0.2262
 8139SOL    HW136050   1.247   3.328   3.441 -2.3736  1.0140  1.7755
 8139SOL    HW236051   1.232   3.370   3.303 -0.6664 -2.0717  0.7433
 8140SOL     OW36052   4.338   2.000   8.712 -0.1361  0.5006 -0.2571
 8140SOL    HW136053   4.332   2.085   8.670 -1.6907 -0.3579 -1.7852
 8140SOL    HW236054   4.275   2.002   8.784  0.7954 -1.0318  0.6148
 8141SOL     OW36055   1.889   4.576   8.472  0.3493 -0.6058 -0.0124
 8141SOL    HW136056   1.934   4.525   8.405  1.7944 -0.5336  0.8960
 8141SOL    HW236057   1.839   4.500   8.503 -0.7840 -0.3798 -1.3122
 8142SOL     OW36058   4.062   2.742  15.852 -0.2584  0.3459 -0.2333
 8142SOL    HW136059   4.101   2.701  15.929  0.3918  1.0644 -0.1786
 8142SOL    HW236060   3.970   2.734  15.877  0.0390  0.8596  1.0072
 8143SOL     OW36061   3.620   3.711   2.866 -0.7034 -0.1924  0.1924
 8143SOL    HW136062   3.641   3.788   2.813 -2.2240  0.5214  0.6316
 8143SOL    HW236063   3.548   3.683   2.810 -0.8224  0.8509 -0.1773
 8144SOL     OW36064   2.721   1.721   1.492 -0.0165 -0.6502 -0.7205
 8144SOL    HW136065   2.813   1.721   1.468 -0.1843 -2.2024 -1.3604
 8144SOL    HW236066   2.717   1.663   1.568 -0.0502  0.1173 -0.1432
 8145SOL     OW36067   0.715   3.805   6.162  0.4123 -0.0857  0.6240
 8145SOL    HW136068   0.712   3.746   6.238 -1.9706  1.5871  1.8161
 8145SOL    HW236069   0.649   3.870   6.185 -0.6603 -0.5704 -1.1080
 8146SOL     OW36070   0.679   1.331   1.939 -0.3630 -0.5580 -0.4068
 8146SOL    HW136071   0.760   1.315   1.987  0.8954  2.1965 -1.5992
 8146SOL    HW236072   0.631   1.251   1.962  0.8060 -0.7303  1.4016
 8147SOL     OW36073   3.802   2.097  15.971 -0.1353  0.1933  0.5711
 8147SOL    HW136074   3.863   2.085  16.043 -1.6892  0.0307  1.8640
 8147SOL    HW236075   3.854   2.148  15.909  1.0941  2.1601  3.2536
 8148SOL     OW36076   1.140   4.677   7.119  0.2435  0.6252  0.1550
 8148SOL    HW136077   1.136   4.584   7.099 -0.2560  0.4734  0.9649
 8148SOL    HW236078   1.075   4.675   7.189 -0.4065 -0.3605 -0.4787
 8149SOL     OW36079   4.522   0.512   4.382  0.3341 -0.3073  0.0656
 8149SOL    HW136080   4.438   0.466   4.383  0.7812 -1.1549 -1.1638
 8149SOL    HW236081   4.496   0.603   4.375 -0.2293 -0.5215 -0.6279
 8150SOL     OW36082   1.741   4.450   6.586  0.1450  0.8115  0.2940
 8150SOL    HW136083   1.768   4.453   6.678 -0.7764  0.0607  0.5791
 8150SOL    HW236084   1.692   4.532   6.586 -1.2633 -0.0436  1.1587
 8151SOL     OW36085   1.244   2.561  17.279 -0.5230 -0.1404 -0.2097
 8151SOL    HW136086   1.316   2.525  17.228  1.3833 -0.2293  2.5658
 8151SOL    HW236087   1.291   2.629  17.327 -1.4168  1.2434 -1.2995
 8152SOL     OW36088   0.903   2.050   6.777 -0.7864  0.5229 -0.0824
 8152SOL    HW136089   0.823   2.032   6.826  0.1613  0.0225  1.2565
 8152SOL    HW236090   0.948   1.966   6.782 -1.0294  0.2983 -1.6629
 8153SOL     OW36091   1.394   1.004   5.718  0.7804  0.0159  0.2493
 8153SOL    HW136092   1.402   0.910   5.739  0.7480 -0.3071 -1.2142
 8153SOL    HW236093   1.309   1.013   5.675  0.3856 -0.3100  0.9532
 8154SOL     OW36094   3.345   4.689   5.243 -0.2505  0.1965  0.1739
 8154SOL    HW136095   3.261   4.662   5.206 -0.3972 -0.3825  0.9065
 8154SOL    HW236096   3.316   0.022   5.304  1.1050  0.9072  0.0203
 8155SOL     OW36097   2.436   0.281   0.980 -0.2418 -0.2803 -0.3093
 8155SOL    HW136098   2.501   0.258   0.915  0.2179  1.7035 -0.5357
 8155SOL    HW236099   2.498   0.316   1.044 -0.9632 -1.7611  1.1851
 8156SOL     OW36100   3.086   0.463   6.001 -0.2254  0.1974 -0.1137
 8156SOL    HW136101   3.102   0.458   6.096 -3.2291 -2.7543  0.1964
 8156SOL    HW236102   3.070   0.557   5.988 -3.1379 -0.3785 -0.5235
 8157SOL     OW36103   0.751   3.189  13.149  0.2419 -0.8602 -0.1587
 8157SOL    HW136104   0.791   3.271  13.176 -0.2332 -1.1801  1.5814
 8157SOL    HW236105   0.683   3.187  13.217 -0.0081  1.1128 -0.3528
 8158SOL     OW36106   2.149   0.485   0.798 -0.6357  0.9604 -0.4409
 8158SOL    HW136107   2.213   0.504   0.729 -0.6552  0.3543 -0.6225
 8158SOL    HW236108   2.073   0.495   0.740 -0.8486 -1.3252 -0.5448
 8159SOL     OW36109   4.663   0.608   6.995  0.0282 -0.0286  0.1618
 8159SOL    HW136110   4.648   0.653   7.078 -1.1707 -0.2090  0.0409
 8159SOL    HW236111   4.705   0.532   7.037 -0.6362 -0.2951  0.3452
 8160SOL     OW36112   3.454   2.411   9.670  0.1549  0.1533  0.1185
 8160SOL    HW136113   3.511   2.462   9.729 -0.3880 -0.5872  1.2883
 8160SOL    HW236114   3.371   2.418   9.718 -0.5976  0.6901 -1.2518
 8161SOL     OW36115   0.429   1.530  16.442 -0.3107  0.2140  0.1394
 8161SOL    HW136116   0.451   1.616  16.478  0.0082  0.5869 -0.9224
 8161SOL    HW236117   0.509   1.478  16.447 -0.6620 -0.4827 -1.3171
 8162SOL     OW36118   0.087   1.705   5.472  0.1059  0.0456 -0.0030
 8162SOL    HW136119   0.154   1.641   5.495 -2.0634 -2.0608  0.4386
 8162SOL    HW236120   0.015   1.656   5.433 -0.2169 -0.1389  0.8317
 8163SOL     OW36121   4.148   1.633  15.199  0.4183 -0.2587 -0.3899
 8163SOL    HW136122   4.056   1.659  15.197 -0.4087 -3.0718  0.6636
 8163SOL    HW236123   4.138   1.540  15.176  0.5823 -0.1641 -0.8496
 8164SOL     OW36124   0.823   3.520   9.980  0.1838  0.7912 -0.6271
 8164SOL    HW136125   0.817   3.433   9.940 -0.1441 -0.2784  1.7785
 8164SOL    HW236126   0.766   3.565   9.917 -2.0370 -0.9779  0.1159
 8165SOL     OW36127   2.594   3.353   4.312  0.0135  0.1898  0.0256
 8165SOL    HW136128   2.526   3.387   4.254  1.1492  0.1157 -1.3577
 8165SOL    HW236129   2.614   3.434   4.358 -0.8083  1.0636 -1.1759
 8166SOL     OW36130   4.134   2.080  13.154  0.9410  0.0868 -0.2596
 8166SOL    HW136131   4.110   2.096  13.063  0.5862  1.1409  0.0265
 8166SOL    HW236132   4.224   2.051  13.140  0.5243 -0.8081 -1.1150
 8167SOL     OW36133   1.442   3.457   2.639 -0.1501 -0.0312  0.4869
 8167SOL    HW136134   1.364   3.442   2.692  0.3941 -0.5010  1.1478
 8167SOL    HW236135   1.463   3.548   2.658  2.0630 -0.7840  1.5601
 8168SOL     OW36136   2.886   1.684  12.965  0.3696 -0.1522  0.6678
 8168SOL    HW136137   2.968   1.646  12.996  1.9419  1.2908 -1.8389
 8168SOL    HW236138   2.902   1.772  12.998 -0.1827 -0.8161  2.7106
 8169SOL     OW36139   4.252   4.435  12.056 -0.5984  0.0949  0.5093
 8169SOL    HW136140   4.230   4.437  11.963  0.3718  0.8769  0.2999
 8169SOL    HW236141   4.171   4.475  12.087 -0.1050  2.3548 -1.0961
 8170SOL     OW36142   3.415   2.077  14.202 -0.4972  0.2504 -0.8951
 8170SOL    HW136143   3.453   2.160  14.230  1.1312 -0.8645  0.2051
 8170SOL    HW236144   3.323   2.088  14.229 -1.5159  0.4403 -4.4306
 8171SOL     OW36145   3.552   4.296   2.373  0.3067  0.1921  0.0379
 8171SOL    HW136146   3.603   4.215   2.363 -0.1624 -0.3679  2.1495
 8171SOL    HW236147   3.571   4.339   2.290 -2.8647 -0.1972 -0.8797
 8172SOL     OW36148   3.177   1.604   8.677  0.0535  0.2738 -0.0657
 8172SOL    HW136149   3.088   1.593   8.712 -0.8513  0.7967 -2.1727
 8172SOL    HW236150   3.219   1.534   8.726 -1.4684 -0.8728 -0.3796
 8173SOL     OW36151   4.454   0.629   5.396  0.3245  0.1333  0.1270
 8173SOL    HW136152   4.513   0.607   5.468  1.3076 -0.5268 -0.8906
 8173SOL    HW236153   4.484   0.713   5.361  2.6537 -0.9174 -0.3668
 8174SOL     OW36154   1.108   0.578   2.865 -0.1659  0.0433  0.1091
 8174SOL    HW136155   1.024   0.532   2.866 -0.3085  0.3473  2.1684
 8174SOL    HW236156   1.102   0.658   2.813  0.8850  0.0004 -0.0837
 8175SOL     OW36157   0.839   1.227   7.260 -0.1103 -0.4639  0.4294
 8175SOL    HW136158   0.902   1.296   7.240 -0.6713  0.1259  0.7379
 8175SOL    HW236159   0.875   1.153   7.210 -2.2275 -0.4512 -1.1043
 8176SOL     OW36160   3.770   2.474   6.039 -0.5302 -0.0699  0.3783
 8176SOL    HW136161   3.799   2.523   5.962  1.1880 -1.0244  0.4232
 8176SOL    HW236162   3.740   2.396   5.990 -4.1044 -0.0781  2.5871
 8177SOL     OW36163   3.457   4.096   9.898 -0.0898  0.2019  0.4331
 8177SOL    HW136164   3.540   4.048   9.888 -0.8718 -0.9412 -0.6203
 8177SOL    HW236165   3.489   4.180   9.931 -1.2071  0.4523  0.8808
 8178SOL     OW36166   3.458   3.980  13.048 -0.4190 -0.1712 -0.2671
 8178SOL    HW136167   3.532   3.925  13.072 -0.4373  0.2798  0.8587
 8178SOL    HW236168   3.478   3.996  12.956 -0.9892 -0.3742 -0.4294
 8179SOL     OW36169   3.992   1.300  11.729  0.4173 -0.4031 -0.2360
 8179SOL    HW136170   4.029   1.387  11.745 -2.4106  0.8551 -0.6554
 8179SOL    HW236171   4.018   1.265  11.815 -1.3183  0.7602  0.7564
 8180SOL     OW36172   2.711   0.734   1.711  0.6350  0.5455 -0.0791
 8180SOL    HW136173   2.677   0.747   1.800 -3.7693  0.3913 -1.7580
 8180SOL    HW236174   2.630   0.755   1.666 -0.2243  1.4606  1.8796
 8181SOL     OW36175   1.143   1.088   7.376  0.4920 -0.3672 -0.3834
 8181SOL    HW136176   1.073   1.055   7.432 -0.5006  1.0919 -0.7550
 8181SOL    HW236177   1.177   1.007   7.339  1.1171  0.6867 -2.1459
 8182SOL     OW36178   2.976   2.882  11.792 -0.0059  0.3896  0.1313
 8182SOL    HW136179   3.041   2.892  11.723 -1.4076  0.6138 -1.1625
 8182SOL    HW236180   2.993   2.794  11.826 -0.4109 -0.1903 -1.1592
 8183SOL     OW36181   1.096   4.123   8.994 -0.1701 -0.3038  0.1520
 8183SOL    HW136182   1.077   4.035   9.026  0.1816  0.0862  1.4183
 8183SOL    HW236183   1.047   4.174   9.058  1.9801  0.5195  1.1208
 8184SOL     OW36184   2.585   1.042   4.227  0.5448 -0.6550 -0.2458
 8184SOL    HW136185   2.549   1.122   4.265  2.4998 -0.1077  0.4649
 8184SOL    HW236186   2.524   0.977   4.264 -1.7443 -0.2850 -3.3814
 8185SOL     OW36187   3.719   0.546   9.788  0.2629 -0.1129  0.1159
 8185SOL    HW136188   3.710   0.637   9.760 -1.1736  0.5968  2.9112
 8185SOL    HW236189   3.630   0.528   9.817 -0.7828  2.3863 -1.5616
 8186SOL     OW36190   0.475   4.005  15.546 -0.1218 -0.2875  0.1533
 8186SOL    HW136191   0.527   3.927  15.566  1.8233  0.9067 -0.3053
 8186SOL    HW236192   0.538   4.077  15.555  0.2247 -0.4102 -1.3221
 8187SOL     OW36193   0.789   2.420   3.103 -0.3432  0.2129  0.2792
 8187SOL    HW136194   0.723   2.361   3.137  0.6455 -0.5986  0.7911
 8187SOL    HW236195   0.838   2.450   3.180 -0.0842  0.4677  0.0211
 8188SOL     OW36196   1.399   2.334  12.082  0.3478  0.2487 -0.1283
 8188SOL    HW136197   1.355   2.296  12.158 -1.2501  0.7977 -0.7869
 8188SOL    HW236198   1.489   2.338  12.113 -0.0799  1.7737  0.9484
 8189SOL     OW36199   3.476   1.760   7.226  1.0853  0.3489 -0.0339
 8189SOL    HW136200   3.468   1.817   7.150 -0.2985  0.1319 -0.0550
 8189SOL    HW236201   3.553   1.707   7.204  0.7147  0.6253 -1.9338
 8190SOL     OW36202   0.179   2.785   3.274  0.9298  0.6028  0.0668
 8190SOL    HW136203   0.171   2.881   3.271  1.8380  0.7113  0.9283
 8190SOL    HW236204   0.264   2.783   3.230  0.3592 -0.3793 -0.9966
 8191SOL     OW36205   0.300   1.752  17.059  0.1090 -0.2928  0.6591
 8191SOL    HW136206   0.311   1.662  17.091  1.0896 -0.5997 -0.5462
 8191SOL    HW236207   0.376   1.760  17.001 -1.1133 -1.0371 -1.0545
 8192SOL     OW36208   2.352   2.866  15.782  0.3761  0.1557 -0.3582
 8192SOL    HW136209   2.407   2.879  15.705  0.2723  2.3236 -0.0646
 8192SOL    HW236210   2.260   2.853  15.760  0.2356 -1.2287  1.0063
 8193SOL     OW36211   4.086   0.399   1.913 -0.3548 -0.0169 -0.4535
 8193SOL    HW136212   4.179   0.394   1.890  0.6173 -1.1054  3.7961
 8193SOL    HW236213   4.083   0.493   1.935  0.3544  0.2253 -1.4007
 8194SOL     OW36214   2.395   3.409  17.063  0.5717  0.0687 -0.4364
 8194SOL    HW136215   2.373   3.429  17.154 -1.4138 -1.3620 -0.5991
 8194SOL    HW236216   2.468   3.465  17.037  1.0381  0.0575  0.8354
 8195SOL     OW36217   2.594   1.866   3.323 -0.2936  0.4641  0.0092
 8195SOL    HW136218   2.649   1.790   3.344  1.5923  1.6938 -0.5396
 8195SOL    HW236219   2.644   1.935   3.367 -0.0039 -0.4309  1.0748
 8196SOL     OW36220   4.126   4.543   6.871 -0.0229 -0.0822  0.3452
 8196SOL    HW136221   4.117   4.622   6.820 -3.9873 -1.5095 -1.1958
 8196SOL    HW236222   4.124   4.572   6.963  0.5705  1.7592 -0.2284
 8197SOL     OW36223   2.386   1.186   2.055 -0.5413 -0.4766 -0.0760
 8197SOL    HW136224   2.335   1.266   2.042  0.2407  0.0861  0.3721
 8197SOL    HW236225   2.472   1.227   2.054 -0.9923  0.4588 -1.1590
 8198SOL     OW36226   1.134   0.467   3.142 -0.6859 -0.0178  0.0013
 8198SOL    HW136227   1.116   0.511   3.059 -1.7076 -1.1046 -0.3497
 8198SOL    HW236228   1.156   0.535   3.206  1.6107 -1.2397  0.5217
 8199SOL     OW36229   1.656   0.755   8.034 -0.1991  0.1996 -0.1738
 8199SOL    HW136230   1.702   0.758   8.118 -0.6171  0.6108  0.0401
 8199SOL    HW236231   1.646   0.661   8.018  0.7345  0.3952 -1.9323
 8200SOL     OW36232   1.458   1.715   1.319 -0.1763 -0.4303  0.3136
 8200SOL    HW136233   1.391   1.699   1.386  0.5926 -3.2466  0.3997
 8200SOL    HW236234   1.456   1.633   1.269  0.6976  0.9650 -1.9907
 8201SOL     OW36235   3.320   2.569   1.868  0.1240 -0.2033  0.3785
 8201SOL    HW136236   3.372   2.602   1.941  1.4218 -0.8867 -0.2348
 8201SOL    HW236237   3.391   2.530   1.817 -0.0125  1.1282 -0.8412
 8202SOL     OW36238   1.241   1.850   5.658  0.2043 -0.4419 -0.1068
 8202SOL    HW136239   1.324   1.803   5.660  0.5890  0.2396 -0.0792
 8202SOL    HW236240   1.215   1.845   5.750  1.1751  0.6622  0.2344
 8203SOL     OW36241   2.962   3.396   8.615  0.5722 -0.4811 -0.4875
 8203SOL    HW136242   2.934   3.487   8.622  2.5973  0.2728 -2.0392
 8203SOL    HW236243   3.056   3.405   8.636  0.9920 -4.3809 -0.7168
 8204SOL     OW36244   2.695   4.218   8.485  0.0741 -0.2865 -0.4429
 8204SOL    HW136245   2.713   4.130   8.454  4.6687  0.1788  0.8707
 8204SOL    HW236246   2.715   4.223   8.579  0.9297 -1.0789 -0.5921
 8205SOL     OW36247   4.706   0.205  11.893  0.4275  0.6917 -0.3127
 8205SOL    HW136248   0.013   0.124  11.866  1.3807  0.6966  1.1411
 8205SOL    HW236249   4.719   0.201  11.988 -2.2781  1.0863  0.0751
 8206SOL     OW36250   1.084   3.616  10.069  0.0586 -0.0010 -0.5574
 8206SOL    HW136251   1.159   3.558  10.057 -0.0592 -0.3019  0.1177
 8206SOL    HW236252   1.009   3.567  10.036  0.0679  0.9151 -1.9366
 8207SOL     OW36253   2.501   4.711   0.865  0.1813 -0.5392 -0.2260
 8207SOL    HW136254   2.548   0.002   0.944  0.1349  0.4414 -0.5312
 8207SOL    HW236255   2.543   0.014   0.788  0.6667 -0.7768 -0.0757
 8208SOL     OW36256   3.168   0.011   5.967 -0.0638  0.3065  0.1871
 8208SOL    HW136257   3.157   0.027   6.061  1.5670  2.3335  0.0400
 8208SOL    HW236258   3.079   0.014   5.934  0.6495  0.6370 -1.7052
 8209SOL     OW36259   1.141   0.034   2.478 -0.0216  0.2818  0.6089
 8209SOL    HW136260   1.111   4.701   2.418  2.2806 -1.9526  1.9927
 8209SOL    HW236261   1.136   0.103   2.411  1.3175  2.1445  2.4319
 8210SOL     OW36262   4.441   4.298   2.337  0.3156  0.8769  0.0651
 8210SOL    HW136263   4.502   4.372   2.345  1.3116  0.0301  0.3351
 8210SOL    HW236264   4.375   4.335   2.279 -0.4169 -1.2041 -0.4048
 8211SOL     OW36265   4.117   1.425  11.054 -0.1851 -0.3837  0.0610
 8211SOL    HW136266   4.103   1.495  11.118 -0.9175 -2.0324  1.7135
 8211SOL    HW236267   4.208   1.445  11.031 -0.3717 -0.2896 -0.6056
 8212SOL     OW36268   0.956   3.006   2.895  0.2826  0.9218  0.5355
 8212SOL    HW136269   0.928   3.058   2.970  0.7616  1.0180  0.6446
 8212SOL    HW236270   1.050   3.014   2.911  0.5196  1.6279 -1.1669
 8213SOL     OW36271   3.221   1.672   6.041 -0.7990 -0.3063 -0.0360
 8213SOL    HW136272   3.189   1.735   6.105  1.7079 -0.4181  1.3387
 8213SOL    HW236273   3.147   1.671   5.980  1.0566  0.8590 -2.3256
 8214SOL     OW36274   0.990   4.345   4.796  0.0979 -0.0314  0.1982
 8214SOL    HW136275   0.953   4.257   4.790  1.0376 -0.5434  1.7991
 8214SOL    HW236276   1.064   4.337   4.856 -2.0338  1.3963  3.0351
 8215SOL     OW36277   3.455   2.915  13.513 -0.0780 -0.0444 -0.3509
 8215SOL    HW136278   3.507   2.996  13.511 -1.4145  0.8017 -0.4765
 8215SOL    HW236279   3.366   2.950  13.508 -0.5110 -1.3518 -1.6589
 8216SOL     OW36280   3.304   3.253   7.460 -0.0933  0.3079 -0.4560
 8216SOL    HW136281   3.364   3.293   7.397  1.0341  1.1155  1.1269
 8216SOL    HW236282   3.373   3.223   7.519 -0.8041  0.3775  0.4126
 8217SOL     OW36283   1.022   2.327   8.474 -0.4772  0.6197  0.9676
 8217SOL    HW136284   0.933   2.303   8.498 -1.2168  1.7971 -0.6707
 8217SOL    HW236285   1.046   2.284   8.392  0.7864  2.0350  0.5977
 8218SOL     OW36286   3.328   0.111   5.575  0.0286 -0.1963 -0.1509
 8218SOL    HW136287   3.248   0.059   5.585 -0.3803 -0.1007 -2.8527
 8218SOL    HW236288   3.370   0.105   5.661 -2.1165  0.7636  0.9537
 8219SOL     OW36289   2.089   1.553   1.361 -0.0324  0.2592  0.2450
 8219SOL    HW136290   2.044   1.626   1.318 -2.0394 -0.5140  1.0231
 8219SOL    HW236291   2.172   1.561   1.315  0.8935 -0.8264  1.7393
 8220SOL     OW36292   2.984   3.191  10.419  0.1322  0.1005 -0.1247
 8220SOL    HW136293   2.930   3.270  10.428  2.3995  1.4022  1.9125
 8220SOL    HW236294   2.912   3.130  10.438  1.5767 -1.9215 -1.0832
 8221SOL     OW36295   4.719   4.346   1.726 -0.4126  0.0256  0.4966
 8221SOL    HW136296   4.734   4.305   1.641 -0.8306 -0.1086  0.4907
 8221SOL    HW236297   0.047   4.300   1.782 -1.3410 -2.1862 -0.2971
 8222SOL     OW36298   1.949   3.959   2.734  0.1373  0.2937 -0.2263
 8222SOL    HW136299   1.985   4.006   2.658 -0.2066 -0.5736 -0.9267
 8222SOL    HW236300   1.878   3.918   2.684  0.5727 -0.4258 -0.2533
 8223SOL     OW36301   1.756   4.277   3.895 -0.3181  0.1357  0.1221
 8223SOL    HW136302   1.679   4.294   3.841  0.1685  1.6420 -0.1218
 8223SOL    HW236303   1.725   4.296   3.983 -0.5700 -0.2765  0.1242
 8224SOL     OW36304   2.316   2.839   3.376  0.0839  0.2815  0.2225
 8224SOL    HW136305   2.353   2.923   3.403 -2.1061  1.3900 -0.2243
 8224SOL    HW236306   2.224   2.861   3.367 -0.2141 -1.7982 -1.6711
 8225SOL     OW36307   0.894   0.743   6.540 -0.2505 -0.0766 -0.3753
 8225SOL    HW136308   0.849   0.787   6.611  1.8750  2.1361 -0.4059
 8225SOL    HW236309   0.833   0.738   6.466 -0.2882 -0.2121 -0.3343
 8226SOL     OW36310   2.734   3.488   6.064 -0.2395 -0.0540  0.2694
 8226SOL    HW136311   2.698   3.451   5.983 -0.9048 -2.3108  1.5773
 8226SOL    HW236312   2.737   3.578   6.033 -0.7737  0.4684  1.7657
 8227SOL     OW36313   1.757   2.028   6.492 -0.8989  0.3581 -0.0669
 8227SOL    HW136314   1.820   1.978   6.441 -1.3691 -0.1077 -0.1941
 8227SOL    HW236315   1.799   2.042   6.576 -3.4963  1.0143  1.1215
 8228SOL     OW36316   0.860   4.372   6.088  0.3449  0.1306  0.0659
 8228SOL    HW136317   0.850   4.288   6.044  2.1045  0.3994 -0.8541
 8228SOL    HW236318   0.954   4.390   6.081 -0.0114  1.6347 -1.0765
 8229SOL     OW36319   1.889   0.529   7.781 -0.2733 -0.3000  0.4290
 8229SOL    HW136320   1.797   0.532   7.808 -1.2920  1.8581 -3.2037
 8229SOL    HW236321   1.905   0.459   7.719 -1.1681 -0.0445 -0.0855
 8230SOL     OW36322   3.360   0.951  14.355 -0.0447  0.4414  0.4388
 8230SOL    HW136323   3.348   1.023  14.293 -2.6578 -0.7333 -0.4077
 8230SOL    HW236324   3.268   0.936  14.376 -0.1320 -2.3752 -1.9994
 8231SOL     OW36325   1.025   0.734   7.463  0.1721  0.3911 -0.0411
 8231SOL    HW136326   1.100   0.766   7.413  0.8219 -1.0549  0.0289
 8231SOL    HW236327   1.018   0.813   7.516  0.5050 -0.1085  0.7441
 8232SOL     OW36328   0.020   2.091   4.282  0.6312 -0.0010 -0.1595
 8232SOL    HW136329   4.663   2.067   4.270  0.6850  0.9782 -2.4743
 8232SOL    HW236330   0.059   2.076   4.195  0.2630 -0.2919 -0.2755
 8233SOL     OW36331   3.226   3.581   3.536 -0.2190 -0.6080  0.2151
 8233SOL    HW136332   3.135   3.556   3.549 -0.2361  0.2681  1.8230
 8233SOL    HW236333   3.220   3.668   3.496 -2.7053 -1.8562 -2.1590
 8234SOL     OW36334   3.709   4.173   6.107 -0.5166  0.5548  0.4755
 8234SOL    HW136335   3.803   4.190   6.114 -0.1517 -0.6702 -1.5634
 8234SOL    HW236336   3.681   4.255   6.066 -0.4872 -1.0371 -2.6811
 8235SOL     OW36337   3.687   3.480   1.204 -0.1186  0.2920 -0.6000
 8235SOL    HW136338   3.665   3.441   1.288 -1.6043  1.6152 -0.3868
 8235SOL    HW236339   3.630   3.556   1.196 -1.3017 -0.4559  0.7765
 8236SOL     OW36340   1.529   3.098   1.408  0.0047 -0.0687 -0.5922
 8236SOL    HW136341   1.463   3.038   1.444 -0.1941  1.2143  1.1777
 8236SOL    HW236342   1.520   3.172   1.468  0.4755 -0.8470  0.4470
 8237SOL     OW36343   0.510   3.137   8.840 -0.2825 -0.1303 -0.7872
 8237SOL    HW136344   0.450   3.186   8.896  1.5223 -0.1301  1.1669
 8237SOL    HW236345   0.582   3.196   8.817 -0.8660  1.1627  0.6811
 8238SOL     OW36346   3.469   1.694  17.044 -0.8522  0.4294  0.0802
 8238SOL    HW136347   3.477   1.748  17.123 -2.9150  0.6368  0.1414
 8238SOL    HW236348   3.402   1.735  16.989 -1.1441 -0.8957 -0.5533
 8239SOL     OW36349   3.340   3.262   3.765 -0.1677  0.2733 -0.2909
 8239SOL    HW136350   3.383   3.251   3.850 -0.1551 -1.6395 -0.5522
 8239SOL    HW236351   3.365   3.184   3.716  3.1908  1.0921  0.1195
 8240SOL     OW36352   2.010   1.890   9.487 -0.0494 -0.1526 -0.7528
 8240SOL    HW136353   1.969   1.957   9.432  0.9829  0.9741 -0.1637
 8240SOL    HW236354   2.048   1.829   9.424  0.6068  0.6522 -1.1366
 8241SOL     OW36355   0.709   2.419   6.058 -0.0513 -0.3795  0.7305
 8241SOL    HW136356   0.647   2.486   6.030  0.0286 -0.3001  0.7424
 8241SOL    HW236357   0.770   2.476   6.105 -0.5270  2.0197 -1.5145
 8242SOL     OW36358   1.266   3.475  15.524  0.1287 -0.4538  0.2072
 8242SOL    HW136359   1.287   3.414  15.594 -0.4929 -1.4165 -0.4498
 8242SOL    HW236360   1.257   3.550  15.582  0.0594  1.0069 -1.6812
 8243SOL     OW36361   1.966   2.976   0.125  0.2361  0.0852  0.0863
 8243SOL    HW136362   1.932   3.058   0.089 -0.4038 -0.6911 -1.0584
 8243SOL    HW236363   1.894   2.954   0.183  2.7084 -0.5995  2.8802
 8244SOL     OW36364   2.808   0.763   4.397  0.1758 -0.1902 -0.2072
 8244SOL    HW136365   2.890   0.715   4.388  1.3729  1.9334 -0.6861
 8244SOL    HW236366   2.837   0.854   4.403  1.8112 -0.5910 -1.8999
 8245SOL     OW36367   0.464   3.231   5.444  0.0665 -0.4774 -0.6862
 8245SOL    HW136368   0.490   3.306   5.497  0.4221 -0.8012 -0.4020
 8245SOL    HW236369   0.529   3.163   5.461 -0.6757 -0.7921  0.9390
 8246SOL     OW36370   4.386   2.736   1.009 -0.3536  0.1380  0.5403
 8246SOL    HW136371   4.414   2.648   1.034  3.0082  0.6656 -1.3008
 8246SOL    HW236372   4.388   2.724   0.914  1.4394  0.3152  0.5493
 8247SOL     OW36373   3.425   1.916   6.985 -0.3456  0.6248 -0.6179
 8247SOL    HW136374   3.500   1.967   6.954 -0.6138  1.2095 -0.3055
 8247SOL    HW236375   3.436   1.835   6.935  1.9437 -0.1992  1.2486
 8248SOL     OW36376   4.415   2.461  10.843  0.8551  0.9320  0.5898
 8248SOL    HW136377   4.385   2.531  10.786  0.9744  0.9138  0.5050
 8248SOL    HW236378   4.504   2.495  10.857  1.5502 -0.7043  0.1785
 8249SOL     OW36379   0.990   2.808   4.571  0.0659 -0.0387 -0.0866
 8249SOL    HW136380   1.024   2.846   4.491  2.0284 -0.2685  0.6527
 8249SOL    HW236381   1.035   2.724   4.568  1.2187  0.6136 -0.7709
 8250SOL     OW36382   1.080   0.972   2.599  0.0842  0.0770  0.4828
 8250SOL    HW136383   1.141   0.992   2.529  0.2970  0.2994  0.7305
 8250SOL    HW236384   1.126   0.913   2.659  0.1737 -1.6673 -1.3196
 8251SOL     OW36385   3.416   2.675  10.339  0.1347  0.4924 -0.1727
 8251SOL    HW136386   3.372   2.664  10.255  1.9050  1.1299 -1.1923
 8251SOL    HW236387   3.352   2.727  10.388 -0.4865  0.9852 -1.5048
 8252SOL     OW36388   2.142   2.609   7.851 -0.2956  0.3297  0.0060
 8252SOL    HW136389   2.157   2.683   7.910 -0.5300 -0.8435  1.5376
 8252SOL    HW236390   2.231   2.578   7.838 -1.6173 -2.9760 -1.0746
 8253SOL     OW36391   3.000   4.154  16.991  0.4815  0.6729  0.5635
 8253SOL    HW136392   2.936   4.177  16.924  0.0998  0.7688  0.9631
 8253SOL    HW236393   3.051   4.234  16.978 -0.5334  1.0688 -1.1261
 8254SOL     OW36394   4.563   2.017   7.791  0.4101  0.4420 -0.1156
 8254SOL    HW136395   4.553   2.041   7.883  0.6270  0.3577 -0.0689
 8254SOL    HW236396   4.487   2.063   7.755  0.0884 -0.9188 -1.1969
 8255SOL     OW36397   3.845   3.933  16.247 -0.3095  0.1023  0.7769
 8255SOL    HW136398   3.910   3.993  16.283  0.8056 -1.0198  0.6260
 8255SOL    HW236399   3.832   3.864  16.312  0.7972  1.3135  2.2672
 8256SOL     OW36400   2.960   2.143   9.520 -0.1778 -0.2793 -0.8005
 8256SOL    HW136401   2.884   2.197   9.543 -0.1776 -0.3616 -0.6060
 8256SOL    HW236402   2.934   2.111   9.434 -1.9550  0.9502 -0.7318
 8257SOL     OW36403   4.441   3.063   2.232 -0.0828  0.1973  0.3379
 8257SOL    HW136404   4.461   3.072   2.139 -0.4171 -0.0676  0.2437
 8257SOL    HW236405   4.434   2.969   2.244 -0.3276  0.4145  1.9600
 8258SOL     OW36406   0.535   2.861   9.141  0.7688 -0.0475  0.2398
 8258SOL    HW136407   0.490   2.847   9.057  1.9470 -1.3875 -0.1731
 8258SOL    HW236408   0.521   2.781   9.192  0.4382 -0.2182 -0.1128
 8259SOL     OW36409   1.289   3.088   6.902 -0.4725  0.2580 -0.1893
 8259SOL    HW136410   1.354   3.051   6.842  0.4493  1.4741  0.0768
 8259SOL    HW236411   1.266   3.006   6.946  0.9247 -0.0189  0.0213
 8260SOL     OW36412   4.437   4.552   4.534  0.5595 -0.4069  0.1517
 8260SOL    HW136413   4.524   4.535   4.498  0.6535  1.4305 -0.4794
 8260SOL    HW236414   4.418   4.483   4.598  1.7734  2.0290  3.1077
 8261SOL     OW36415   1.863   2.396   6.456 -0.4102 -0.1090  0.0041
 8261SOL    HW136416   1.934   2.339   6.426 -2.2086 -1.6398 -1.3063
 8261SOL    HW236417   1.798   2.360   6.396 -1.0928 -0.2911  0.8571
 8262SOL     OW36418   0.745   3.732  12.329  0.1617 -0.6662 -0.6619
 8262SOL    HW136419   0.720   3.742  12.420  0.5963 -1.4482 -0.4555
 8262SOL    HW236420   0.752   3.825  12.306 -0.0018 -0.4088  0.3610
 8263SOL     OW36421   2.479   1.574   2.743 -0.3792 -0.3730  0.6011
 8263SOL    HW136422   2.538   1.648   2.763  0.4352 -0.8683  0.0360
 8263SOL    HW236423   2.532   1.496   2.761  0.5201 -0.0636 -0.6844
 8264SOL     OW36424   3.595   3.427  11.168 -0.3789 -0.0620  0.3342
 8264SOL    HW136425   3.547   3.348  11.194 -1.7849  0.0280 -1.9929
 8264SOL    HW236426   3.660   3.378  11.117 -0.9929  1.2684 -1.7277
 8265SOL     OW36427   2.306   3.812   9.718  0.0633  0.3805  0.6155
 8265SOL    HW136428   2.323   3.770   9.802  0.3816 -0.7029  0.0043
 8265SOL    HW236429   2.396   3.828   9.688 -0.2373  0.5568 -0.2104
 8266SOL     OW36430   0.694   4.642   2.702 -0.1082  0.1786  0.6062
 8266SOL    HW136431   0.786   4.661   2.721  0.4356 -0.2174 -1.6619
 8266SOL    HW236432   0.639   4.709   2.745  0.3054  1.5167 -0.9517
 8267SOL     OW36433   4.257   3.805   9.610 -0.5962  0.7820  0.2739
 8267SOL    HW136434   4.272   3.896   9.584 -2.1444  0.7321 -0.7948
 8267SOL    HW236435   4.259   3.813   9.706  0.3165  0.8507  0.2521
 8268SOL     OW36436   3.697   4.290  15.062  0.0436  0.0079  0.0091
 8268SOL    HW136437   3.620   4.307  15.007  0.2461 -0.8356 -0.5420
 8268SOL    HW236438   3.764   4.262  15.000 -0.0565  0.7883 -0.4564
 8269SOL     OW36439   0.153   3.331   0.474  0.5953 -0.2067 -0.2065
 8269SOL    HW136440   0.173   3.294   0.388 -0.2214 -1.2745  0.0607
 8269SOL    HW236441   0.183   3.258   0.529  3.0640  0.8039 -0.1943
 8270SOL     OW36442   0.959   2.773   7.259 -0.0383  0.4957  0.1594
 8270SOL    HW136443   0.981   2.850   7.311  0.4023 -0.6430  1.6628
 8270SOL    HW236444   0.978   2.699   7.317  1.3351  1.6632  1.1961
 8271SOL     OW36445   3.972   2.517   2.961 -0.2840 -0.1803 -0.2641
 8271SOL    HW136446   3.890   2.536   2.917 -0.8712  0.8021  1.2688
 8271SOL    HW236447   3.940   2.546   3.047  1.2604  1.7008 -0.3162
 8272SOL     OW36448   4.716   1.134   9.562 -0.3478  0.3688  0.1687
 8272SOL    HW136449   4.657   1.063   9.537 -0.1952  0.1199  0.5010
 8272SOL    HW236450   0.018   1.106   9.646  0.0747  0.5580  0.0405
 8273SOL     OW36451   0.210   2.805  15.698  0.0113 -0.3290  0.6697
 8273SOL    HW136452   0.279   2.781  15.761  1.6615  0.5281 -0.7927
 8273SOL    HW236453   0.174   2.864  15.765 -2.8229 -1.1452 -0.1593
 8274SOL     OW36454   2.148   3.362   2.974 -0.3514 -0.3059 -0.7034
 8274SOL    HW136455   2.155   3.339   3.067 -0.1328  1.1062 -0.3582
 8274SOL    HW236456   2.089   3.437   2.970 -3.8929 -3.0997 -0.7251
 8275SOL     OW36457   3.633   2.586   9.807  0.4556 -0.2342  0.6747
 8275SOL    HW136458   3.720   2.623   9.794 -0.3658  2.3431  2.6044
 8275SOL    HW236459   3.612   2.641   9.882  1.0047 -1.8155  1.9750
 8276SOL     OW36460   0.729   1.103   2.852  0.1790 -0.2675 -0.3117
 8276SOL    HW136461   0.742   1.012   2.825  1.5455 -0.4014  0.7961
 8276SOL    HW236462   0.633   1.105   2.852  0.1485 -1.6101  0.1568
 8277SOL     OW36463   3.625   2.471   2.468 -0.0675 -0.0867 -0.0629
 8277SOL    HW136464   3.627   2.533   2.395 -0.7299 -0.3425 -0.2939
 8277SOL    HW236465   3.693   2.509   2.524  0.2289 -1.4724  0.5268
 8278SOL     OW36466   3.002   2.985   9.261 -0.0875  0.0241 -0.2893
 8278SOL    HW136467   2.959   3.051   9.207  3.0075  2.9949  0.8779
 8278SOL    HW236468   3.076   2.961   9.206  1.4705  3.2092  0.4054
 8279SOL     OW36469   1.370   1.933   8.928  0.0310  0.1316  0.2478
 8279SOL    HW136470   1.313   1.999   8.890  0.3421  0.5287  0.4743
 8279SOL    HW236471   1.337   1.852   8.890  0.2515  0.7779 -1.3133
 8280SOL     OW36472   4.685   3.061   7.393 -0.4580  0.4649  0.0075
 8280SOL    HW136473   4.695   3.062   7.488 -1.5223  1.0907  0.1193
 8280SOL    HW236474   0.042   3.083   7.379 -0.7023  1.4451 -0.0822
 8281SOL     OW36475   3.133   0.575   5.062 -0.0006  0.5685  0.2745
 8281SOL    HW136476   3.164   0.649   5.115 -2.1386  1.0762  0.8575
 8281SOL    HW236477   3.091   0.519   5.128  1.4715  0.3382  1.0145
 8282SOL     OW36478   2.129   4.207  16.281 -0.2576 -0.4568 -0.4224
 8282SOL    HW136479   2.071   4.173  16.213 -1.7315  0.6913  0.2406
 8282SOL    HW236480   2.064   4.207  16.351  2.5358  1.0904  2.1496
 8283SOL     OW36481   1.458   2.785   0.060 -0.0743  0.0072  0.4699
 8283SOL    HW136482   1.512   2.727   0.115 -1.0276  0.3017  1.7012
 8283SOL    HW236483   1.525   2.845   0.026  1.9852 -2.4089  0.2095
 8284SOL     OW36484   2.681   1.362  17.702  0.0358 -0.4208 -0.1070
 8284SOL    HW136485   2.715   1.281  17.664  0.9176  1.0951 -2.4952
 8284SOL    HW236486   2.591   1.330  17.708  0.1409 -0.7086 -0.0220
 8285SOL     OW36487   0.570   4.471   4.514  0.5513 -0.4397 -0.7690
 8285SOL    HW136488   0.631   4.534   4.474 -0.2369 -0.6616 -2.3320
 8285SOL    HW236489   0.621   4.390   4.513 -0.1784 -0.9215  2.7695
 8286SOL     OW36490   0.754   2.651   2.218 -0.8999 -0.0693 -0.1864
 8286SOL    HW136491   0.792   2.682   2.299  0.9779  0.0606 -1.1249
 8286SOL    HW236492   0.687   2.719   2.221 -1.9194 -1.0040 -1.3450
 8287SOL     OW36493   3.856   2.712   7.935 -0.2158  0.6521  0.7769
 8287SOL    HW136494   3.848   2.617   7.939  0.7798  0.4701 -1.7264
 8287SOL    HW236495   3.765   2.742   7.947 -0.1083  1.8448 -1.2536
 8288SOL     OW36496   4.608   3.789   9.810  0.1184 -0.1856 -0.1920
 8288SOL    HW136497   4.533   3.784   9.869  0.9805 -0.0738  0.9078
 8288SOL    HW236498   4.603   3.881   9.787 -0.0179  0.6440  3.2328
 8289SOL     OW36499   0.224   3.101   0.608 -0.3767 -0.5090  0.4887
 8289SOL    HW136500   0.161   3.030   0.597 -0.8783 -0.2493  1.7054
 8289SOL    HW236501   0.259   3.084   0.695  0.9564  1.3518  0.3388
 8290SOL     OW36502   2.730   2.801  16.902  0.5769 -0.3929 -0.4050
 8290SOL    HW136503   2.711   2.894  16.907  2.2989 -0.0952  0.7088
 8290SOL    HW236504   2.800   2.806  16.838  1.8701  1.6932  1.1927
 8291SOL     OW36505   2.220   0.860   3.147  0.0926 -0.0804  0.1557
 8291SOL    HW136506   2.136   0.820   3.168 -0.6187  0.5982 -1.4028
 8291SOL    HW236507   2.206   0.942   3.195  0.4371  1.2044 -1.9457
 8292SOL     OW36508   4.633   3.481  13.530  0.2465 -0.5320 -0.6166
 8292SOL    HW136509   4.595   3.404  13.488 -0.9690  0.2097 -0.8930
 8292SOL    HW236510   4.659   3.529  13.451  2.6246  1.7048  1.5291
 8293SOL     OW36511   2.728   0.755   7.136 -0.0782  0.1049  0.3993
 8293SOL    HW136512   2.780   0.798   7.204  0.1205 -0.4579  0.6037
 8293SOL    HW236513   2.640   0.771   7.169  0.7928  2.9095  1.3813
 8294SOL     OW36514   4.596   2.390  11.591 -0.0177  0.5899 -0.4643
 8294SOL    HW136515   4.587   2.348  11.676 -1.4893  0.0060 -0.9127
 8294SOL    HW236516   4.522   2.344  11.552  1.0803 -0.5494 -1.1880
 8295SOL     OW36517   2.895   2.642  12.229 -0.5202  0.0346  0.0409
 8295SOL    HW136518   2.871   2.582  12.299 -1.3211  1.3209  0.8676
 8295SOL    HW236519   2.956   2.703  12.268  1.9703 -0.6915 -2.6952
 8296SOL     OW36520   4.091   2.130   6.992 -0.3476  0.9669  0.3555
 8296SOL    HW136521   4.118   2.213   7.032 -0.0958 -0.4265  3.0897
 8296SOL    HW236522   3.996   2.132   6.991 -0.3447 -0.0273 -1.5373
 8297SOL     OW36523   2.212   2.122   2.250 -0.2888  0.4029 -0.6302
 8297SOL    HW136524   2.306   2.131   2.267 -0.2915  2.4444 -1.6154
 8297SOL    HW236525   2.187   2.051   2.309  2.1070 -0.9957 -1.2859
 8298SOL     OW36526   0.785   3.092   1.116 -0.1661 -0.5875 -0.0608
 8298SOL    HW136527   0.772   3.108   1.022 -0.4720  1.1254  0.2617
 8298SOL    HW236528   0.874   3.060   1.121  0.4619  0.9624 -1.2849
 8299SOL     OW36529   3.106   3.523  13.082 -0.3289 -0.6008  0.3596
 8299SOL    HW136530   3.018   3.551  13.057  0.4993 -0.5854 -2.4484
 8299SOL    HW236531   3.085   3.429  13.082  0.6314 -0.8091  0.2524
 8300SOL     OW36532   0.010   1.230  15.273  0.0976 -0.7022  0.3013
 8300SOL    HW136533   4.731   1.295  15.204 -1.9312 -0.0843  1.2856
 8300SOL    HW236534   4.724   1.144  15.236 -0.7417 -0.4659  0.2314
 8301SOL     OW36535   1.855   4.138  14.590  0.4890  0.1447 -0.3114
 8301SOL    HW136536   1.783   4.154  14.529 -0.0465 -0.2995  0.2037
 8301SOL    HW236537   1.871   4.230  14.612  0.1139  0.6439 -2.1313
 8302SOL     OW36538   3.531   3.947   6.085  0.3208  0.1946 -0.0723
 8302SOL    HW136539   3.468   3.972   6.017 -1.5548 -0.7040  1.3152
 8302SOL    HW236540   3.600   4.013   6.083 -0.7767  1.3540  0.1995
 8303SOL     OW36541   3.551   3.039   9.006 -0.4058 -0.1733 -0.1800
 8303SOL    HW136542   3.543   3.017   9.100 -2.7256  1.0637 -0.0933
 8303SOL    HW236543   3.614   3.110   9.006 -0.3744 -0.2395 -3.0203
 8304SOL     OW36544   1.772   1.500   4.088 -0.1155 -0.1561 -0.6239
 8304SOL    HW136545   1.811   1.577   4.048 -0.9803  0.3511 -0.4912
 8304SOL    HW236546   1.681   1.523   4.109 -0.3815 -0.5741 -1.3384
 8305SOL     OW36547   0.849   0.317   2.682 -0.1037  0.4062 -0.1439
 8305SOL    HW136548   0.796   0.241   2.656  1.4183 -1.1402  1.2327
 8305SOL    HW236549   0.802   0.346   2.760  0.5927  0.8417  0.1134
 8306SOL     OW36550   0.268   0.961   8.571 -0.4368 -0.5008  0.3189
 8306SOL    HW136551   0.326   0.888   8.552 -1.1399 -0.5985 -1.4694
 8306SOL    HW236552   0.310   1.001   8.647  0.8813 -1.2596 -0.0037
 8307SOL     OW36553   0.100   1.469  17.600  0.3846 -0.5312  0.1411
 8307SOL    HW136554   0.012   1.501  17.578  1.4175  0.7225 -2.2155
 8307SOL    HW236555   0.113   1.481  17.694  1.2444  0.4977 -0.1032
 8308SOL     OW36556   0.851   4.262   9.322  0.0297  0.2499  0.3457
 8308SOL    HW136557   0.943   4.277   9.299 -0.0630 -0.9773 -0.7754
 8308SOL    HW236558   0.864   4.252   9.417  0.1136  0.4575  0.3577
 8309SOL     OW36559   2.981   2.921   6.382  0.6281  0.3211  0.2504
 8309SOL    HW136560   3.021   3.004   6.357 -0.1224  0.5162 -0.3374
 8309SOL    HW236561   3.053   2.858   6.380 -0.4459 -0.9597  1.7580
 8310SOL     OW36562   4.466   1.922   0.452  0.5247 -0.0591  0.1764
 8310SOL    HW136563   4.393   1.958   0.502  0.3575 -2.6500  1.7764
 8310SOL    HW236564   4.427   1.913   0.365  0.9284 -1.9565  0.1847
 8311SOL     OW36565   3.410   4.205   5.889  0.7443  0.1123  0.1212
 8311SOL    HW136566   3.370   4.273   5.834 -0.3943 -0.5416  0.1347
 8311SOL    HW236567   3.365   4.213   5.973 -0.2116  1.4493 -0.5163
 8312SOL     OW36568   1.676   1.082   8.928 -0.4019  0.1381 -0.7874
 8312SOL    HW136569   1.602   1.141   8.947 -0.3037  0.1844 -0.5586
 8312SOL    HW236570   1.634   0.998   8.949  2.3320 -1.4139 -1.6114
 8313SOL     OW36571   4.305   3.604  10.636 -0.0490  0.6271 -0.0423
 8313SOL    HW136572   4.250   3.543  10.588  0.9208  0.4187 -0.8790
 8313SOL    HW236573   4.374   3.611  10.570  1.8498  1.7875  2.0512
 8314SOL     OW36574   0.406   0.133  11.915  0.2322 -0.5239 -0.1088
 8314SOL    HW136575   0.478   0.075  11.887  0.9063  0.2994 -0.0752
 8314SOL    HW236576   0.397   0.172  11.828 -0.3441  1.1252  0.7046
 8315SOL     OW36577   0.622   1.234  13.013  0.2841  0.1988  0.1725
 8315SOL    HW136578   0.678   1.227  13.089 -0.1601 -1.5033  0.3449
 8315SOL    HW236579   0.572   1.312  13.037 -1.8035 -0.8953 -0.6328
 8316SOL     OW36580   2.413   3.539  17.312  0.1300  0.2340 -0.0140
 8316SOL    HW136581   2.405   3.601  17.384  4.6377  1.7779 -0.8177
 8316SOL    HW236582   2.388   3.605  17.248  1.2463  1.2480  0.5909
 8317SOL     OW36583   2.106   1.036  17.501  0.0557  0.2579 -0.5322
 8317SOL    HW136584   2.029   1.037  17.444 -0.4126  0.1531  0.1085
 8317SOL    HW236585   2.069   0.963  17.550 -0.7819  1.6870  0.9459
 8318SOL     OW36586   2.721   1.783   4.957  0.4441  0.5969 -0.7200
 8318SOL    HW136587   2.706   1.748   5.045  0.6536  0.7535 -0.6239
 8318SOL    HW236588   2.676   1.723   4.897 -0.3701 -0.1463  0.6493
 8319SOL     OW36589   2.450   0.775  10.723 -0.0629  0.2502 -0.1206
 8319SOL    HW136590   2.449   0.761  10.818 -1.1103 -2.0361 -0.4670
 8319SOL    HW236591   2.457   0.871  10.725 -2.5348  0.4481 -0.8311
 8320SOL     OW36592   2.863   4.673   8.917  0.1286  0.4225 -0.4570
 8320SOL    HW136593   2.947   4.646   8.952  0.4457  0.5804 -1.1032
 8320SOL    HW236594   2.853   4.625   8.835 -1.1893 -0.2034  0.0769
 8321SOL     OW36595   1.623   1.109   5.854 -0.5665  0.0262 -0.3557
 8321SOL    HW136596   1.559   1.064   5.799  0.3471  0.8630 -2.1006
 8321SOL    HW236597   1.629   1.191   5.805  0.5979 -0.9661 -1.8725
 8322SOL     OW36598   4.658   2.357  12.174 -0.4710  0.5592  0.6087
 8322SOL    HW136599   4.598   2.320  12.109 -1.5084  0.9596  1.3232
 8322SOL    HW236600   4.653   2.448  12.146 -0.6722 -0.0701 -1.3543
 8323SOL     OW36601   4.723   0.768   5.297 -0.0301  0.1760  0.4462
 8323SOL    HW136602   4.690   0.694   5.246 -2.1992  1.7824 -0.5405
 8323SOL    HW236603   4.725   0.844   5.239  2.6730 -0.8519 -0.8171
 8324SOL     OW36604   0.978   1.770   2.814  0.6879 -0.1240 -0.3035
 8324SOL    HW136605   0.890   1.742   2.791  1.0227 -1.7934  0.4146
 8324SOL    HW236606   1.013   1.800   2.730  2.1487  1.4794  0.8761
 8325SOL     OW36607   2.179   2.809   6.720  0.0993  0.0402  0.1964
 8325SOL    HW136608   2.201   2.898   6.747  0.7311  0.4174 -1.5623
 8325SOL    HW236609   2.120   2.780   6.790  0.8338 -0.1483  0.7382
 8326SOL     OW36610   0.168   4.275  13.068 -0.4275 -0.3126 -0.1159
 8326SOL    HW136611   0.103   4.272  12.998 -0.1546 -0.9896 -0.3445
 8326SOL    HW236612   0.255   4.275  13.028 -0.9923  1.0275 -1.3505
 8327SOL     OW36613   3.436   0.504   9.430 -0.3371  0.1913  0.1983
 8327SOL    HW136614   3.493   0.451   9.375  0.8875 -3.0920  4.6564
 8327SOL    HW236615   3.449   0.458   9.513 -1.3594 -2.2827 -0.9964
 8328SOL     OW36616   1.392   3.143   7.177  0.5998 -0.2177 -0.1546
 8328SOL    HW136617   1.413   3.201   7.250 -0.4615  1.3478 -1.0945
 8328SOL    HW236618   1.403   3.192   7.095  0.3484  0.1938  0.0565
 8329SOL     OW36619   2.837   1.297   7.628  0.1768 -0.3386 -0.1092
 8329SOL    HW136620   2.832   1.392   7.621 -1.2009 -0.3698  0.4581
 8329SOL    HW236621   2.799   1.286   7.541 -0.8727  2.4192  0.0009
 8330SOL     OW36622   2.778   2.132   8.366 -0.0952 -0.0471 -0.0537
 8330SOL    HW136623   2.727   2.063   8.410 -3.9386  1.4721 -2.0975
 8330SOL    HW236624   2.858   2.115   8.415  0.1758  1.1296 -0.0885
 8331SOL     OW36625   3.899   2.061   5.757 -0.1380 -0.1494  0.1692
 8331SOL    HW136626   3.900   1.979   5.707  0.0661 -0.9103  1.4041
 8331SOL    HW236627   3.944   2.120   5.696  0.8714 -1.5026 -0.4040
 8332SOL     OW36628   3.193   0.080   8.223  0.4108 -0.3045  0.9408
 8332SOL    HW136629   3.141   0.008   8.187  1.3811  0.1828 -1.4606
 8332SOL    HW236630   3.122   0.144   8.216  0.5127 -0.3375 -0.3953
 8333SOL     OW36631   3.164   4.653   4.491 -0.0240  0.1389 -0.1911
 8333SOL    HW136632   3.204   4.691   4.413  1.5449  0.3201  0.6922
 8333SOL    HW236633   3.195   4.712   4.560  0.8123  1.5089 -1.7369
 8334SOL     OW36634   3.347   2.998   1.850 -0.3627 -0.4117  0.0953
 8334SOL    HW136635   3.341   2.959   1.937  0.8221 -0.4981  0.1438
 8334SOL    HW236636   3.330   2.927   1.787 -1.5498 -0.4927  0.5093
 8335SOL     OW36637   3.631   0.577  14.472  0.3211  0.1398 -0.0256
 8335SOL    HW136638   3.580   0.630  14.411  1.0221  0.9331  0.0876
 8335SOL    HW236639   3.562   0.546  14.531  0.0378 -0.6778 -0.7844
 8336SOL     OW36640   2.760   4.425   6.919 -0.3988 -0.0210 -0.0372
 8336SOL    HW136641   2.854   4.441   6.927 -0.4223  0.7965 -1.3391
 8336SOL    HW236642   2.734   4.503   6.869  0.5782  0.2414 -0.1346
 8337SOL     OW36643   2.397   3.875  12.209  0.2031 -0.3201 -0.9214
 8337SOL    HW136644   2.404   3.789  12.168  0.4182 -0.4177 -0.6788
 8337SOL    HW236645   2.476   3.874  12.263 -0.4430 -0.5195  0.0190
 8338SOL     OW36646   2.938   2.454   5.868 -0.3820  0.5118  0.0451
 8338SOL    HW136647   2.908   2.512   5.798 -0.2428  2.1761  1.3589
 8338SOL    HW236648   2.934   2.371   5.822 -0.3833  0.3755  0.2902
 8339SOL     OW36649   1.526   0.197   3.783 -0.2923  0.2491 -0.2360
 8339SOL    HW136650   1.443   0.169   3.822 -0.6534  2.6112  0.6865
 8339SOL    HW236651   1.547   0.121   3.729  0.5780 -0.0517  0.5329
 8340SOL     OW36652   1.502   2.665   4.201 -0.2195  0.0509  0.6931
 8340SOL    HW136653   1.421   2.639   4.243 -0.6996  2.5712  1.3108
 8340SOL    HW236654   1.547   2.586   4.229  0.2781 -0.3545 -1.2263
 8341SOL     OW36655   3.831   0.573  10.439 -0.1749  0.0041  0.2724
 8341SOL    HW136656   3.855   0.512  10.509  1.2028  1.4512  1.0549
 8341SOL    HW236657   3.735   0.578  10.441 -0.2408 -1.3835  1.1510
 8342SOL     OW36658   0.123   0.656   3.943 -0.1717 -0.4472  0.4807
 8342SOL    HW136659   0.055   0.713   3.979  1.4502  1.0692  1.1444
 8342SOL    HW236660   0.171   0.633   4.022 -1.3014 -0.4582  1.1691
 8343SOL     OW36661   3.414   0.008   9.243  0.6448 -0.6570 -0.3569
 8343SOL    HW136662   3.382   0.006   9.153 -0.0699 -0.7726 -0.1056
 8343SOL    HW236663   3.353   4.684   9.288  0.4529 -1.1657 -1.2724
 8344SOL     OW36664   4.704   4.256   9.484  0.2330 -0.0554 -0.0267
 8344SOL    HW136665   0.026   4.263   9.408  0.2284  0.3649  0.0078
 8344SOL    HW236666   0.030   4.286   9.550 -1.3682  2.8455  0.1141
 8345SOL     OW36667   1.327   3.020   3.417  0.6401  0.1008 -0.3987
 8345SOL    HW136668   1.371   3.061   3.492 -2.0301  0.3904  1.0090
 8345SOL    HW236669   1.258   2.972   3.463 -0.5876  0.2392 -2.1267
 8346SOL     OW36670   0.864   0.445   0.658  0.0828 -0.2483  0.0529
 8346SOL    HW136671   0.945   0.414   0.698  0.7640  0.3616 -0.8285
 8346SOL    HW236672   0.834   0.516   0.714 -2.5098 -1.5784  0.2940
 8347SOL     OW36673   0.161   1.437   1.937  0.0096 -0.1664  0.2422
 8347SOL    HW136674   0.133   1.349   1.914  2.3973 -1.2609  1.5398
 8347SOL    HW236675   0.120   1.462   2.020 -1.4967 -3.7745  0.5759
 8348SOL     OW36676   0.705   4.455   1.547 -0.3473  1.0944 -0.2648
 8348SOL    HW136677   0.785   4.447   1.599 -1.3809 -1.5503  0.9354
 8348SOL    HW236678   0.679   4.363   1.549 -1.8818  1.5524  0.9136
 8349SOL     OW36679   3.826   3.675   9.920 -0.1160  0.4893  0.5272
 8349SOL    HW136680   3.823   3.742   9.852  1.3142  0.3002  0.2762
 8349SOL    HW236681   3.758   3.619   9.883  0.5718 -0.1051  0.1371
 8350SOL     OW36682   3.529   0.945  12.822  0.2341 -0.1004 -0.3703
 8350SOL    HW136683   3.564   0.972  12.737  2.2631  0.4361  0.6203
 8350SOL    HW236684   3.462   0.882  12.796  0.9454 -1.8283  1.9892
 8351SOL     OW36685   3.526   3.963  12.795 -0.5776  0.3740  0.3047
 8351SOL    HW136686   3.478   4.005  12.724 -0.5284  0.3827  0.2763
 8351SOL    HW236687   3.546   3.878  12.755  1.7422  0.0561  2.0820
 8352SOL     OW36688   4.638   0.768   4.076  0.1538 -0.0472 -0.1079
 8352SOL    HW136689   4.600   0.750   4.162 -0.0430 -0.0381 -0.1927
 8352SOL    HW236690   4.591   0.846   4.047 -1.6912 -0.9079  0.5524
 8353SOL     OW36691   0.729   1.751   2.536 -0.6060 -0.3138 -0.0725
 8353SOL    HW136692   0.676   1.740   2.615 -1.5401  1.4379 -0.4400
 8353SOL    HW236693   0.723   1.668   2.488  0.2245  0.9275 -2.3522
 8354SOL     OW36694   0.970   2.526   5.091  0.4061 -0.7681 -0.1550
 8354SOL    HW136695   0.980   2.473   5.170  3.7719 -1.7007 -1.1868
 8354SOL    HW236696   0.911   2.479   5.033 -0.0210  0.2771 -0.5644
 8355SOL     OW36697   3.297   3.171   2.306 -0.2187 -0.3483 -0.3155
 8355SOL    HW136698   3.319   3.109   2.375 -0.7313  0.6212  0.7167
 8355SOL    HW236699   3.212   3.203   2.335  0.5670  1.3189  0.1312
 8356SOL     OW36700   3.766   0.062   4.574 -0.3424 -0.2989  0.3930
 8356SOL    HW136701   3.709   0.125   4.618 -0.4402 -1.0346  1.3224
 8356SOL    HW236702   3.700   4.729   4.557 -0.7679  0.2126 -0.0025
 8357SOL     OW36703   1.994   4.699   2.289 -0.3051 -0.2971 -0.4734
 8357SOL    HW136704   2.007   0.057   2.273 -1.2631  0.2730  2.0020
 8357SOL    HW236705   2.023   4.707   2.380 -0.1995 -1.2289 -0.4200
 8358SOL     OW36706   3.923   4.691   8.792  0.0942 -0.2717  0.1886
 8358SOL    HW136707   3.918   4.597   8.774  0.9691  0.2427 -2.7136
 8358SOL    HW236708   3.973   4.678   8.872  0.8282  0.4673 -0.1535
 8359SOL     OW36709   4.054   1.463   7.690  0.2144  0.5216  0.3455
 8359SOL    HW136710   3.970   1.494   7.724 -0.8848 -3.0823  0.9071
 8359SOL    HW236711   4.110   1.522   7.741 -2.8564  1.7206  2.2873
 8360SOL     OW36712   3.072   3.642   9.196 -0.1778 -0.2156  0.0262
 8360SOL    HW136713   3.049   3.551   9.178  2.5009 -0.4959 -1.9783
 8360SOL    HW236714   3.115   3.639   9.282 -2.5981  0.2801  1.2527
 8361SOL     OW36715   0.679   0.846   4.062  0.0634  0.3553  0.2687
 8361SOL    HW136716   0.612   0.821   4.125 -1.8153  1.6861 -1.2100
 8361SOL    HW236717   0.670   0.941   4.067 -1.5270  0.2522 -0.5009
 8362SOL     OW36718   0.986   3.607   3.039 -0.4104  0.0546  0.4735
 8362SOL    HW136719   1.065   3.636   2.993 -2.2698  2.9320 -0.8826
 8362SOL    HW236720   0.918   3.640   2.981 -0.3348  0.1464  0.4377
 8363SOL     OW36721   3.155   1.017   8.102 -0.0029 -0.2046  0.0442
 8363SOL    HW136722   3.184   1.053   8.185 -0.7371 -0.3249  0.3507
 8363SOL    HW236723   3.131   1.097   8.056  1.4706  0.0336 -0.2944
 8364SOL     OW36724   2.568   4.558   2.303 -0.5019 -0.3005  0.2990
 8364SOL    HW136725   2.609   4.472   2.314 -1.6558 -0.3275  4.3248
 8364SOL    HW236726   2.512   4.562   2.380 -1.9033  1.5649 -0.8352
 8365SOL     OW36727   1.526   4.711   0.214  0.5190  0.4976  0.0661
 8365SOL    HW136728   1.482   4.701   0.298  0.7446 -0.3344  0.0825
 8365SOL    HW236729   1.597   4.648   0.225 -0.7305 -0.7740  0.7520
 8366SOL     OW36730   0.769   4.633  11.463  0.1785 -0.7356 -0.3251
 8366SOL    HW136731   0.826   4.576  11.516 -2.4184 -3.2204 -0.2076
 8366SOL    HW236732   0.774   4.586  11.380  0.9215 -1.3521  0.0700
 8367SOL     OW36733   1.966   0.635   4.299 -0.0267 -0.0377 -0.3055
 8367SOL    HW136734   1.875   0.623   4.327  0.9804  0.5788  3.1026
 8367SOL    HW236735   2.007   0.690   4.365 -0.4347 -0.5943  0.4076
 8368SOL     OW36736   3.160   0.622   5.611  0.0375  0.0276 -0.2982
 8368SOL    HW136737   3.193   0.649   5.525  1.8837 -0.3014  0.3332
 8368SOL    HW236738   3.143   0.706   5.655  1.5147 -0.7507  1.6985
 8369SOL     OW36739   1.259   0.030   4.432 -0.2703  0.6038  0.2404
 8369SOL    HW136740   1.262   0.015   4.527  0.1987 -0.5403  0.0403
 8369SOL    HW236741   1.266   0.125   4.444  1.9836  0.0978  2.8623
 8370SOL     OW36742   1.302   3.973   8.149  0.1161  0.6676  0.0449
 8370SOL    HW136743   1.279   4.063   8.174  0.1195  0.2405  1.5681
 8370SOL    HW236744   1.395   3.991   8.136  0.1745  0.5252  0.2618
 8371SOL     OW36745   1.130   1.223  16.484 -0.1978  0.1553  0.0150
 8371SOL    HW136746   1.220   1.227  16.450 -0.9404  0.0466 -1.9558
 8371SOL    HW236747   1.081   1.280  16.425 -3.9204 -4.0013 -0.8920
 8372SOL     OW36748   0.353   0.566   7.863  0.4018  0.2181 -1.2282
 8372SOL    HW136749   0.356   0.486   7.915 -2.7118  0.6651 -0.3467
 8372SOL    HW236750   0.384   0.529   7.780  3.8929  2.8067 -1.0424
 8373SOL     OW36751   0.750   2.393  15.072  0.3797  0.4127 -0.7029
 8373SOL    HW136752   0.714   2.482  15.064 -0.8436  0.0580  0.8298
 8373SOL    HW236753   0.764   2.374  15.165 -1.9087  1.9806 -0.0409
 8374SOL     OW36754   0.041   1.117   3.946  0.0787 -0.0795  0.1195
 8374SOL    HW136755   4.726   1.042   3.915 -1.9629  0.9287  0.9624
 8374SOL    HW236756   4.711   1.187   3.949  0.9655  0.7244  0.5892
 8375SOL     OW36757   3.125   2.562  17.553 -0.0118  0.7650  0.0388
 8375SOL    HW136758   3.095   2.480  17.514 -2.1993  1.1356  0.9757
 8375SOL    HW236759   3.067   2.613  17.497 -1.1077 -0.4134  0.1142
 8376SOL     OW36760   1.322   0.869   7.853  0.8147 -0.2685 -0.0420
 8376SOL    HW136761   1.408   0.909   7.837  0.4633  1.6421  2.9387
 8376SOL    HW236762   1.277   0.935   7.906  0.8990 -0.3040  0.0744
 8377SOL     OW36763   2.443   2.042  15.232  0.0185  0.0167  0.1141
 8377SOL    HW136764   2.519   2.099  15.242  0.5868 -0.6071 -0.6879
 8377SOL    HW236765   2.451   2.027  15.138 -1.7991  1.6938 -0.3033
 8378SOL     OW36766   3.736   4.599   8.300 -0.1988 -0.2036 -0.0306
 8378SOL    HW136767   3.804   4.564   8.358 -0.1192  0.6194  0.3719
 8378SOL    HW236768   3.768   4.689   8.295 -3.0476  0.8141 -0.0206
 8379SOL     OW36769   3.785   2.448  15.856 -0.0584 -0.4181  0.2423
 8379SOL    HW136770   3.793   2.542  15.870  0.0332 -0.4586  0.4619
 8379SOL    HW236771   3.793   2.452  15.760 -0.2981  1.4606  0.2997
 8380SOL     OW36772   3.842   0.555   3.945  0.4361  0.2566 -0.7334
 8380SOL    HW136773   3.845   0.598   4.030  0.5739  1.3579 -1.2830
 8380SOL    HW236774   3.816   0.466   3.970  2.8727 -0.1758  0.2050
 8381SOL     OW36775   1.123   1.940   9.089  0.4669  0.3883 -0.1301
 8381SOL    HW136776   1.201   1.942   9.033  1.8616 -1.2217  1.7673
 8381SOL    HW236777   1.145   1.869   9.150  0.4871  2.8905  2.7523
 8382SOL     OW36778   3.990   0.628  17.665 -0.9494  0.0024  0.6511
 8382SOL    HW136779   3.928   0.557  17.675  0.7636 -1.2616  2.3279
 8382SOL    HW236780   4.061   0.606  17.725  0.2328 -0.4132 -0.8894
 8383SOL     OW36781   4.602   4.333  11.886 -0.1637 -0.3769  0.4178
 8383SOL    HW136782   4.682   4.284  11.905 -0.2485 -0.6969 -0.0529
 8383SOL    HW236783   4.577   4.312  11.796 -0.9601  0.7844  0.3547
 8384SOL     OW36784   3.904   3.282  15.617  0.1857 -0.0236  0.1801
 8384SOL    HW136785   3.830   3.313  15.565  0.5689 -1.4888 -1.2575
 8384SOL    HW236786   3.932   3.360  15.666  1.5879  0.1259 -0.8652
 8385SOL     OW36787   2.715   1.746  12.785 -0.1226  0.3517  0.1386
 8385SOL    HW136788   2.762   1.721  12.865 -0.3140 -1.3870 -0.2870
 8385SOL    HW236789   2.748   1.835  12.772 -0.1874  0.4446  0.5816
 8386SOL     OW36790   3.709   0.907   8.137  0.2573  0.4605  0.0199
 8386SOL    HW136791   3.754   0.860   8.066 -1.5961  0.4474 -1.1396
 8386SOL    HW236792   3.632   0.944   8.095  1.2516  0.3783 -1.8593
 8387SOL     OW36793   3.606   4.501   9.084  0.1900  0.2364  0.0253
 8387SOL    HW136794   3.549   4.430   9.109  0.4388  0.5942  1.6012
 8387SOL    HW236795   3.605   4.478   8.991  0.1838 -1.4069  0.4347
 8388SOL     OW36796   2.879   0.136   6.570  0.1330  0.3623  0.1095
 8388SOL    HW136797   2.859   0.139   6.476 -0.6230 -0.0226  0.2590
 8388SOL    HW236798   2.792   0.123   6.607  0.0792 -0.2170 -0.2183
 8389SOL     OW36799   0.334   3.570   3.915 -0.3787  0.2166 -0.0059
 8389SOL    HW136800   0.376   3.597   3.834 -3.6254  1.3969 -1.3064
 8389SOL    HW236801   0.243   3.552   3.892 -0.2644  1.4779 -1.3778
 8390SOL     OW36802   3.616   0.929   7.024  0.2985  0.2858 -0.2625
 8390SOL    HW136803   3.670   0.938   7.103  0.2620 -0.1259 -0.1896
 8390SOL    HW236804   3.661   0.951   6.943  0.0170 -1.2254 -0.8139
 8391SOL     OW36805   1.129   4.679  17.213  0.0554  0.3246  0.5272
 8391SOL    HW136806   1.128   4.675  17.309 -0.0315  0.9666  0.5543
 8391SOL    HW236807   1.192   0.009  17.179 -2.9271  1.5330 -2.6248
 8392SOL     OW36808   4.411   0.907  12.303 -0.0007  0.2688  0.2895
 8392SOL    HW136809   4.327   0.877  12.336  0.1744 -0.3860  0.1419
 8392SOL    HW236810   4.468   0.853  12.358 -0.2015  0.9874  1.2053
 8393SOL     OW36811   0.433   0.811  16.179  0.4715  0.5959  0.3340
 8393SOL    HW136812   0.380   0.867  16.123 -0.4287  0.4977  1.0893
 8393SOL    HW236813   0.510   0.868  16.184  1.2645 -0.5231  0.9063
 8394SOL     OW36814   4.243   0.142   5.717  0.0237 -0.0800 -0.4742
 8394SOL    HW136815   4.257   0.226   5.674 -0.7323 -0.9151 -2.3520
 8394SOL    HW236816   4.301   0.082   5.669  1.7332  1.7569 -0.6941
 8395SOL     OW36817   2.926   2.066   7.055 -0.1638  0.0391  0.5669
 8395SOL    HW136818   2.945   2.153   7.020 -1.0537  0.2053  0.4996
 8395SOL    HW236819   2.913   2.020   6.972 -0.5839  1.3024 -0.0724
 8396SOL     OW36820   0.816   1.531   1.165  0.2782  0.2248  0.0670
 8396SOL    HW136821   0.807   1.606   1.224 -2.0889  1.7368 -2.2150
 8396SOL    HW236822   0.763   1.467   1.211 -0.6141  0.5913 -0.4479
 8397SOL     OW36823   4.371   3.779  11.126 -0.4674 -0.8749 -0.1707
 8397SOL    HW136824   4.405   3.847  11.068 -3.3006 -0.7337 -1.6478
 8397SOL    HW236825   4.320   3.726  11.065 -1.5548  0.2081 -0.1906
 8398SOL     OW36826   2.631   0.251  15.628 -0.3129  0.4076  0.3585
 8398SOL    HW136827   2.586   0.221  15.707 -0.8943 -2.3227 -1.0237
 8398SOL    HW236828   2.555   0.270  15.573  0.5583  0.0782 -0.9716
 8399SOL     OW36829   0.078   1.648   8.487  0.7558  0.8776 -0.9027
 8399SOL    HW136830   0.128   1.630   8.567 -2.4225  2.1299  1.3605
 8399SOL    HW236831   0.084   1.744   8.486 -0.3368  0.9991  2.2899
 8400SOL     OW36832   2.873   4.510  15.052  0.0146 -0.3985 -0.1965
 8400SOL    HW136833   2.895   4.419  15.072  0.3383 -0.1570  0.5412
 8400SOL    HW236834   2.936   4.537  14.985  0.6094 -1.7043 -0.1562
 8401SOL     OW36835   1.530   4.300   2.263  0.1258 -0.1690 -0.0932
 8401SOL    HW136836   1.593   4.373   2.263 -0.4986  0.3643 -0.6792
 8401SOL    HW236837   1.446   4.339   2.240  0.5152 -0.2277 -1.5742
 8402SOL     OW36838   2.182   1.903   2.436 -0.5980 -0.9003 -0.0360
 8402SOL    HW136839   2.186   1.813   2.402 -2.8462 -1.8814  2.2378
 8402SOL    HW236840   2.207   1.885   2.527  0.4229  1.2102  0.0902
 8403SOL     OW36841   2.835   3.282  13.201 -0.3602 -0.1084 -0.0460
 8403SOL    HW136842   2.812   3.352  13.141 -4.7362 -1.2138  0.2816
 8403SOL    HW236843   2.746   3.252  13.221 -0.1655 -0.1420  0.7784
 8404SOL     OW36844   2.131   1.471   3.532 -0.8808 -0.3610  0.0784
 8404SOL    HW136845   2.079   1.503   3.606  0.0436  2.5299 -0.5382
 8404SOL    HW236846   2.163   1.552   3.492 -1.2671 -0.6183 -0.7395
 8405SOL     OW36847   1.824   0.247   5.371  0.2861 -0.4233  0.3371
 8405SOL    HW136848   1.834   0.341   5.363 -2.4066 -0.0709  0.9743
 8405SOL    HW236849   1.836   0.224   5.279 -0.9062  0.9073 -0.1539
 8406SOL     OW36850   3.233   2.412  11.574  0.1081  0.0626  0.6091
 8406SOL    HW136851   3.236   2.506  11.588 -0.1907  0.1552  0.0233
 8406SOL    HW236852   3.145   2.412  11.537  0.6386  0.5996 -0.6301
 8407SOL     OW36853   3.248   4.096  14.810 -0.4603  0.0156 -0.2445
 8407SOL    HW136854   3.197   4.078  14.731  0.2877 -2.1286 -0.2606
 8407SOL    HW236855   3.284   4.184  14.806 -0.1821 -0.0309  1.1726
 8408SOL     OW36856   1.483   3.318   2.207 -0.3324  0.2679 -0.7190
 8408SOL    HW136857   1.391   3.296   2.189 -0.4058  0.6452 -0.8090
 8408SOL    HW236858   1.486   3.277   2.294 -1.9389  0.1727 -0.7125
 8409SOL     OW36859   2.756   1.218   9.487 -0.2401 -0.5679 -0.7659
 8409SOL    HW136860   2.749   1.122   9.481  0.3313 -0.5697 -1.4705
 8409SOL    HW236861   2.709   1.227   9.570 -0.6667  0.3257 -1.1078
 8410SOL     OW36862   2.675   2.802   8.614  0.3603  0.4378 -0.3538
 8410SOL    HW136863   2.700   2.766   8.529  0.9039  1.6965 -0.7117
 8410SOL    HW236864   2.701   2.731   8.673  1.1299 -0.6688 -2.0349
 8411SOL     OW36865   4.346   3.073   4.176 -0.2808 -0.1163 -0.8007
 8411SOL    HW136866   4.312   2.995   4.132  0.3095  0.3965 -2.1592
 8411SOL    HW236867   4.264   3.121   4.185  0.1058  0.9035 -2.8633
 8412SOL     OW36868   4.560   2.337   2.490  0.0541 -0.1138 -0.0181
 8412SOL    HW136869   4.557   2.365   2.398  2.5904  0.4205  0.0701
 8412SOL    HW236870   4.470   2.349   2.519 -0.7166 -2.4672 -1.4567
 8413SOL     OW36871   2.865   0.628   6.251 -0.2075 -0.3399 -0.1154
 8413SOL    HW136872   2.816   0.567   6.197 -0.4070  1.2704 -1.7371
 8413SOL    HW236873   2.837   0.710   6.211  0.4371 -0.4755 -0.8301
 8414SOL     OW36874   3.059   3.102  15.430 -0.0514 -0.2745 -0.4070
 8414SOL    HW136875   3.067   3.152  15.349 -1.4637  0.8778  0.1690
 8414SOL    HW236876   2.970   3.068  15.427  0.2284 -0.9942 -0.5910
 8415SOL     OW36877   2.074   4.723   9.256  0.0752  0.4583 -0.2228
 8415SOL    HW136878   2.141   4.729   9.324 -0.4859  0.8217  0.2992
 8415SOL    HW236879   1.996   4.721   9.312  0.1803 -1.1288 -0.1318
 8416SOL     OW36880   0.638   3.413  10.168  0.2070 -0.1784  0.3257
 8416SOL    HW136881   0.692   3.469  10.111  2.0359 -2.5484 -0.2525
 8416SOL    HW236882   0.554   3.412  10.122 -0.3304  0.4621  1.2857
 8417SOL     OW36883   2.009   4.735   6.414 -0.4640  0.3962  0.0771
 8417SOL    HW136884   1.971   0.081   6.380 -0.7289  0.3723  0.3146
 8417SOL    HW236885   1.969   4.672   6.355  0.2465 -0.8184  0.8833
 8418SOL     OW36886   0.174   1.128   7.128  0.6760  0.0659 -0.7535
 8418SOL    HW136887   0.239   1.087   7.072  2.2132  0.0081  1.0847
 8418SOL    HW236888   0.133   1.190   7.068  1.2401  1.1150 -0.0545
 8419SOL     OW36889   2.185   2.318   0.296  0.0133 -0.2466 -0.5969
 8419SOL    HW136890   2.193   2.398   0.244  0.4388  0.9740  1.3451
 8419SOL    HW236891   2.271   2.307   0.336  0.7648  0.5126 -1.9960
 8420SOL     OW36892   3.462   0.238   4.947 -0.5617 -0.8758  1.1430
 8420SOL    HW136893   3.498   0.301   5.009  0.3876 -0.2893 -0.0058
 8420SOL    HW236894   3.386   0.281   4.908 -0.6423 -2.3402 -0.3276
 8421SOL     OW36895   3.643   0.692   3.302  0.0407  0.4063 -0.0435
 8421SOL    HW136896   3.586   0.737   3.240 -0.0103 -1.6641 -1.5227
 8421SOL    HW236897   3.617   0.722   3.389 -2.5712  0.2109 -0.7542
 8422SOL     OW36898   2.465   0.972  17.525 -0.2454  0.3310  0.0387
 8422SOL    HW136899   2.507   1.051  17.490 -0.6300 -0.0130 -1.2081
 8422SOL    HW236900   2.408   0.955  17.450 -1.7046 -1.5531  1.6028
 8423SOL     OW36901   2.948   4.154   2.803 -0.6515 -0.1918  0.0715
 8423SOL    HW136902   2.874   4.098   2.827  1.3119 -2.9125 -0.2986
 8423SOL    HW236903   3.007   4.168   2.877  0.0752 -0.8467 -0.3894
 8424SOL     OW36904   2.811   0.897   6.112  0.4944 -0.8132 -0.0006
 8424SOL    HW136905   2.738   0.869   6.056  0.9474  1.3278 -1.6642
 8424SOL    HW236906   2.806   0.987   6.079 -0.5817 -0.9970 -0.3486
 8425SOL     OW36907   1.771   0.781   1.110  0.4394 -0.8678  0.2730
 8425SOL    HW136908   1.835   0.713   1.088 -2.7817 -3.9375  0.4425
 8425SOL    HW236909   1.815   0.864   1.094 -0.7143 -0.3456 -0.0917
 8426SOL     OW36910   3.985   1.852   3.794 -0.0084 -0.0970 -0.1120
 8426SOL    HW136911   4.038   1.837   3.716 -0.1704  0.6525 -0.3607
 8426SOL    HW236912   3.946   1.935   3.769  0.4060 -0.0874 -0.7166
 8427SOL     OW36913   3.113   4.605   9.033 -0.1208  0.8320  0.1374
 8427SOL    HW136914   3.169   4.541   8.989 -1.0472 -0.5254  0.9223
 8427SOL    HW236915   3.168   4.657   9.091  1.0727  0.9188 -1.0877
 8428SOL     OW36916   2.382   1.452   2.304 -0.1604 -0.0456  0.4460
 8428SOL    HW136917   2.334   1.371   2.320 -0.4913  0.0157 -0.2485
 8428SOL    HW236918   2.320   1.510   2.261  0.6299  1.6023  1.5389
 8429SOL     OW36919   3.434   4.009   4.353  0.1440  0.2986  0.3033
 8429SOL    HW136920   3.353   3.967   4.383  0.4697 -2.0612 -2.1477
 8429SOL    HW236921   3.476   3.932   4.315  1.4660  0.4039  1.5273
 8430SOL     OW36922   1.199   3.896   3.471 -0.1976  0.3126  0.5597
 8430SOL    HW136923   1.134   3.827   3.458 -0.4582  0.8035 -0.8065
 8430SOL    HW236924   1.282   3.857   3.441 -1.1878 -1.0279 -0.4539
 8431SOL     OW36925   3.350   0.607   3.871  0.4120 -0.3505  0.2064
 8431SOL    HW136926   3.357   0.541   3.941  0.7499 -2.0151 -1.4028
 8431SOL    HW236927   3.281   0.654   3.918  0.1415 -0.4228 -0.1177
 8432SOL     OW36928   2.540   0.945   4.845  0.0483 -0.0403 -0.5289
 8432SOL    HW136929   2.533   1.021   4.787 -0.0313  0.4670  0.1515
 8432SOL    HW236930   2.590   0.891   4.784  0.9072 -0.2471  0.3622
 8433SOL     OW36931   2.784   0.922   1.384  0.2097 -1.0739 -0.0494
 8433SOL    HW136932   2.695   0.900   1.356 -0.4451  1.5341 -0.0386
 8433SOL    HW236933   2.806   0.991   1.321 -0.1829 -1.2704 -0.3958
 8434SOL     OW36934   0.028   3.487   6.193 -0.3554  0.3329 -0.1552
 8434SOL    HW136935   4.696   3.460   6.129  0.6002 -1.3864 -0.4209
 8434SOL    HW236936   0.069   3.563   6.152 -0.6500  0.8413  0.5103
 8435SOL     OW36937   1.308   2.918  17.152  0.2566  0.4237  0.3175
 8435SOL    HW136938   1.353   2.853  17.206  0.1211  1.2364  1.4045
 8435SOL    HW236939   1.218   2.907  17.182  0.8465 -0.4466  1.7581
 8436SOL     OW36940   2.045   1.389   5.329 -0.1280  0.4987 -0.1217
 8436SOL    HW136941   1.962   1.361   5.368 -0.6177  0.3185 -1.2906
 8436SOL    HW236942   2.018   1.418   5.242  0.3620  0.8877 -0.1461
 8437SOL     OW36943   2.137   0.885  16.904  0.2916  0.2259  0.0240
 8437SOL    HW136944   2.076   0.951  16.872  0.1426  0.5566  0.9802
 8437SOL    HW236945   2.157   0.824  16.833 -2.5950 -1.5462  0.7252
 8438SOL     OW36946   1.290   3.647   8.278 -0.3911  0.1620  0.5430
 8438SOL    HW136947   1.366   3.650   8.220 -1.8642 -0.2831 -1.4001
 8438SOL    HW236948   1.329   3.695   8.351  0.5155  0.7985 -0.3637
 8439SOL     OW36949   1.922   1.652   2.134 -0.1352  0.0338 -0.2112
 8439SOL    HW136950   1.829   1.628   2.140 -0.0032 -0.6832 -0.9870
 8439SOL    HW236951   1.972   1.589   2.185  0.5431  2.3737  1.9799
 8440SOL     OW36952   1.699   0.312   6.766 -0.1510 -0.5999  0.2691
 8440SOL    HW136953   1.788   0.328   6.798 -1.4206  0.6242  3.1958
 8440SOL    HW236954   1.654   0.393   6.789 -0.3815 -1.1764  1.8475
 8441SOL     OW36955   2.573   3.780   9.668  0.4170 -0.1640  0.0048
 8441SOL    HW136956   2.617   3.861   9.695  0.0177  0.2654 -0.6195
 8441SOL    HW236957   2.647   3.730   9.635  0.6945  0.8361 -0.9124
 8442SOL     OW36958   0.528   3.063  17.487 -0.9641  1.0213  0.0656
 8442SOL    HW136959   0.494   2.977  17.512  1.6018  0.3105  1.0737
 8442SOL    HW236960   0.599   3.047  17.425 -0.0345  0.8735  1.1706
 8443SOL     OW36961   4.357   0.505   6.040  0.2312 -0.2746 -0.1123
 8443SOL    HW136962   4.440   0.483   5.997 -0.6484 -1.8075 -1.0411
 8443SOL    HW236963   4.390   0.576   6.094  0.4099 -2.1111  2.1792
 8444SOL     OW36964   1.024   3.848  15.388 -0.1677  0.0989 -0.4754
 8444SOL    HW136965   0.985   3.914  15.331 -1.2196 -0.7271 -0.7105
 8444SOL    HW236966   1.005   3.876  15.478 -0.8682  1.2890 -0.9919
 8445SOL     OW36967   2.238   3.172  14.350  0.1380 -0.3816 -0.1011
 8445SOL    HW136968   2.236   3.085  14.390 -1.6752  0.3511  1.4050
 8445SOL    HW236969   2.310   3.171  14.287  0.9443 -1.9794  0.8440
 8446SOL     OW36970   1.377   1.241   5.516 -0.0060 -0.4478  0.0462
 8446SOL    HW136971   1.305   1.183   5.490 -0.4099  0.6971 -1.3650
 8446SOL    HW236972   1.383   1.304   5.445 -2.6247 -1.5883 -1.2135
 8447SOL     OW36973   2.055   0.540   5.462 -0.5213 -0.2502 -0.0292
 8447SOL    HW136974   1.994   0.602   5.502  2.9866  2.2350  1.4424
 8447SOL    HW236975   1.998   0.512   5.390  1.3084 -0.9044 -1.2243
 8448SOL     OW36976   1.346   0.297  17.371  0.3586  0.8314 -0.3513
 8448SOL    HW136977   1.299   0.351  17.435 -2.3282 -0.6541 -1.1196
 8448SOL    HW236978   1.435   0.303  17.407  0.2965 -0.2725 -0.0203
 8449SOL     OW36979   1.294   2.406   3.475  0.7429 -0.5377 -0.5049
 8449SOL    HW136980   1.355   2.341   3.509 -0.6851 -1.1713  0.8505
 8449SOL    HW236981   1.276   2.362   3.392 -0.5531 -0.7939 -0.0765
 8450SOL     OW36982   3.910   1.714   5.757  0.4521  0.6376  0.3182
 8450SOL    HW136983   3.966   1.763   5.697  1.6889 -1.1815 -0.0471
 8450SOL    HW236984   3.907   1.630   5.710  1.4674  0.5113  0.4572
 8451SOL     OW36985   4.687   3.177   6.541 -0.1043 -0.7656 -0.2553
 8451SOL    HW136986   4.723   3.177   6.452 -0.6173  0.1461 -0.4623
 8451SOL    HW236987   0.025   3.216   6.591 -1.2275  0.4716  0.4100
 8452SOL     OW36988   2.570   4.543  12.268  0.2904  0.2732  0.4976
 8452SOL    HW136989   2.488   4.509  12.304  0.1794  2.1469  2.0174
 8452SOL    HW236990   2.630   4.502  12.330  1.6633  2.5389  0.6699
 8453SOL     OW36991   2.410   0.601  13.956  0.3886  0.5006 -0.4475
 8453SOL    HW136992   2.476   0.656  13.913  0.8616  0.5046  0.2834
 8453SOL    HW236993   2.467   0.550  14.013 -1.0963 -1.0398 -0.3562
 8454SOL     OW36994   3.013   0.176  17.347 -0.1326 -0.2977  0.0124
 8454SOL    HW136995   2.993   0.197  17.438  0.0545 -1.1883  0.2575
 8454SOL    HW236996   2.977   0.088  17.339  0.3633 -0.7636  3.0576
 8455SOL     OW36997   2.107   2.642   3.700  0.0453 -0.7040  0.5063
 8455SOL    HW136998   2.200   2.624   3.682 -0.2003 -0.5032 -1.0274
 8455SOL    HW236999   2.086   2.610   3.787 -0.6622  1.1461  1.0124
 8456SOL     OW37000   3.843   0.287   8.011  0.1956 -0.4567  0.2602
 8456SOL    HW137001   3.914   0.246   7.961 -0.3687 -0.7137 -0.3319
 8456SOL    HW237002   3.776   0.219   8.015  0.7858 -1.0701 -0.1877
 8457SOL     OW37003   3.364   0.770   6.378  0.3219 -0.0902  0.6946
 8457SOL    HW137004   3.433   0.831   6.402 -0.5448  0.2560  2.2897
 8457SOL    HW237005   3.293   0.823   6.342  0.1385 -2.1594 -2.0179
 8458SOL     OW37006   2.826   0.462   4.032 -0.0698 -0.2144  0.3118
 8458SOL    HW137007   2.861   0.474   4.121 -1.7228 -0.7042  1.0313
 8458SOL    HW237008   2.877   0.515   3.971  2.4354 -0.4209  2.2184
 8459SOL     OW37009   3.438   0.311  11.261  0.4660 -0.2050  0.1831
 8459SOL    HW137010   3.493   0.286  11.335 -0.7537  0.2276  1.2260
 8459SOL    HW237011   3.479   0.394  11.239  3.1086 -2.7854 -4.7404
 8460SOL     OW37012   1.091   0.510   4.762  0.4059  0.4658  0.1774
 8460SOL    HW137013   1.008   0.477   4.798  0.8887 -0.3419  0.5434
 8460SOL    HW237014   1.134   0.547   4.839 -0.0322  0.7524  0.2876
 8461SOL     OW37015   0.661   0.813   2.198 -0.1380  0.4509  0.3394
 8461SOL    HW137016   0.632   0.735   2.152  1.2379 -0.2133  0.5975
 8461SOL    HW237017   0.745   0.793   2.240 -0.4784 -0.6645  0.4630
 8462SOL     OW37018   4.432   2.273   6.073 -0.0059 -0.1677  0.0411
 8462SOL    HW137019   4.464   2.286   5.984 -1.5344  1.8939 -0.2110
 8462SOL    HW237020   4.518   2.253   6.109  0.9887  1.5369 -1.3790
 8463SOL     OW37021   4.704   2.285   1.452 -0.5408  0.5882  0.1646
 8463SOL    HW137022   4.701   2.380   1.447  1.1977  0.6755  0.5356
 8463SOL    HW237023   4.663   2.271   1.538 -0.4188 -1.4745 -0.0997
 8464SOL     OW37024   2.009   2.022   4.710  0.3057  0.4661  0.1477
 8464SOL    HW137025   2.029   1.934   4.678 -0.4341  1.6373 -3.4359
 8464SOL    HW237026   1.915   2.012   4.725  0.3148 -0.0229 -0.1097
 8465SOL     OW37027   3.578   1.060   2.085  0.0707 -0.0516  0.1417
 8465SOL    HW137028   3.673   1.072   2.086  0.1637 -0.8037  0.0354
 8465SOL    HW237029   3.550   1.146   2.116  3.2122 -0.0797  3.1553
 8466SOL     OW37030   4.724   3.533   2.258  0.8664 -0.2317  0.0017
 8466SOL    HW137031   4.675   3.615   2.248  1.1075 -0.4750 -3.1819
 8466SOL    HW237032   0.029   3.529   2.171 -1.0800 -2.2054 -0.8346
 8467SOL     OW37033   2.278   2.098   5.412  0.1035 -0.8028 -0.6389
 8467SOL    HW137034   2.198   2.057   5.381 -1.4103 -0.2968  2.7308
 8467SOL    HW237035   2.319   2.129   5.330  0.5934 -0.7928 -0.3921
 8468SOL     OW37036   3.340   2.980   4.403 -0.6198 -0.2389  0.5093
 8468SOL    HW137037   3.332   3.063   4.356 -1.9964  1.7147  4.1891
 8468SOL    HW237038   3.249   2.952   4.403 -0.6401 -0.1732  1.2969
 8469SOL     OW37039   0.027   2.529   7.472  0.2786 -0.2582  0.0505
 8469SOL    HW137040   0.046   2.510   7.381 -1.2040 -0.9160 -0.1192
 8469SOL    HW237041   4.714   2.449   7.492  0.0289  0.4670  2.4646
 8470SOL     OW37042   4.716   2.011   6.012 -0.0834 -0.3845 -0.3234
 8470SOL    HW137043   4.699   2.091   5.962 -1.0062  0.1426  0.8485
 8470SOL    HW237044   0.066   1.984   5.978  0.9549  0.1047  1.8310
 8471SOL     OW37045   3.914   2.164  12.159 -0.2720 -0.5196  0.2695
 8471SOL    HW137046   3.856   2.088  12.156 -0.2167 -0.4449 -2.5447
 8471SOL    HW237047   3.896   2.182  12.251  1.6068 -0.5113  0.6422
 8472SOL     OW37048   2.925   0.050   5.831 -0.0490  0.5992  0.0379
 8472SOL    HW137049   2.841   0.006   5.846 -1.1106  1.9094 -1.9954
 8472SOL    HW237050   2.899   0.138   5.856 -0.0322  0.0784  1.8745
 8473SOL     OW37051   0.388   1.343   7.067 -0.0172  0.1772 -0.8751
 8473SOL    HW137052   0.402   1.372   6.977 -1.5176 -2.1227 -1.8543
 8473SOL    HW237053   0.376   1.250   7.047 -1.6987  0.3579 -0.6606
 8474SOL     OW37054   4.267   0.902  16.066 -0.5546  0.1786  0.2690
 8474SOL    HW137055   4.260   0.806  16.058  1.4462  0.0607 -0.1294
 8474SOL    HW237056   4.360   0.899  16.091  0.0103 -1.7280 -1.9525
 8475SOL     OW37057   1.968   0.998   0.220  0.2455 -0.0382  0.3036
 8475SOL    HW137058   2.051   0.975   0.263 -0.6417 -2.1679  0.8732
 8475SOL    HW237059   1.998   1.071   0.166  0.8163  1.3622  2.4825
 8476SOL     OW37060   3.516   2.588   6.133 -0.3122  0.3427 -0.3618
 8476SOL    HW137061   3.463   2.509   6.139 -1.1947  0.7855 -2.5066
 8476SOL    HW237062   3.598   2.553   6.097  0.7469 -0.7125  3.0793
 8477SOL     OW37063   2.336   0.745   9.363 -0.4175 -0.0321 -0.0279
 8477SOL    HW137064   2.414   0.749   9.418  0.9654 -0.3649 -1.9580
 8477SOL    HW237065   2.270   0.753   9.432  0.2802 -0.2426  0.6573
 8478SOL     OW37066   0.314   3.317  15.105  0.0220  0.3637  0.7310
 8478SOL    HW137067   0.278   3.355  15.185 -0.3431 -1.8984  1.6443
 8478SOL    HW237068   0.310   3.395  15.049 -1.9682  0.5628  1.1358
 8479SOL     OW37069   0.933   3.987   7.393 -0.4795 -0.1131 -0.0916
 8479SOL    HW137070   1.018   3.962   7.430  0.1378  1.4931 -0.3995
 8479SOL    HW237071   0.876   3.994   7.470 -0.9128  2.3875 -0.6470
 8480SOL     OW37072   1.400   2.614   7.012 -0.0055  0.2551 -0.4463
 8480SOL    HW137073   1.332   2.663   6.966 -0.2261  0.9036  0.5657
 8480SOL    HW237074   1.416   2.534   6.961  0.1252 -1.0095  1.5849
 8481SOL     OW37075   2.209   0.812   3.772  0.5877  0.4793 -0.3367
 8481SOL    HW137076   2.238   0.758   3.845  1.7540 -0.7273 -1.6903
 8481SOL    HW237077   2.210   0.745   3.704 -0.8635 -0.5124  0.6384
 8482SOL     OW37078   0.115   4.473   8.374 -0.9911 -0.0630  0.2486
 8482SOL    HW137079   0.023   4.463   8.401 -0.6510 -0.1733  1.3777
 8482SOL    HW237080   0.127   4.568   8.368 -0.5872 -0.1631 -0.4335
 8483SOL     OW37081   3.371   4.613   2.031  0.1418  0.1425  0.0371
 8483SOL    HW137082   3.381   4.577   1.942  0.1239  1.3333 -0.4461
 8483SOL    HW237083   3.421   4.549   2.081  1.5383  1.1911 -0.0221
 8484SOL     OW37084   1.976   3.252   4.971  0.3841 -0.0681 -0.3724
 8484SOL    HW137085   1.972   3.199   4.891 -0.2255  1.0007 -1.0451
 8484SOL    HW237086   2.067   3.281   4.971  1.2479 -2.7233  0.1202
 8485SOL     OW37087   4.107   0.232   9.680 -0.9047  0.0270 -0.1476
 8485SOL    HW137088   4.149   0.194   9.757 -0.6795  0.2811 -0.1438
 8485SOL    HW237089   4.053   0.296   9.727 -1.2220  1.1470 -2.0266
 8486SOL     OW37090   0.004   1.040   1.532  0.4416  0.0707  0.3630
 8486SOL    HW137091   0.092   1.049   1.569 -0.1584 -3.7534  2.7034
 8486SOL    HW237092   0.014   1.053   1.437 -1.1871  1.5899  0.3901
 8487SOL     OW37093   4.726   3.304   8.636  0.3182  0.3518 -0.1032
 8487SOL    HW137094   4.649   3.247   8.636  2.2913 -2.3300  2.2563
 8487SOL    HW237095   0.061   3.241   8.653 -1.6209 -1.1481  2.3770
 8488SOL     OW37096   3.548   3.174  11.265  0.1482  0.4846 -0.7615
 8488SOL    HW137097   3.583   3.137  11.184  1.4628 -1.6225  0.7567
 8488SOL    HW237098   3.533   3.096  11.318  1.4810  0.7231 -0.0296
 8489SOL     OW37099   2.440   4.029  12.645 -0.1693 -0.0684 -0.2659
 8489SOL    HW137100   2.408   4.006  12.732  0.8817  0.4264  0.2519
 8489SOL    HW237101   2.498   3.954  12.632  1.3993  1.3080 -1.2435
 8490SOL     OW37102   3.682   2.123   8.296  0.3215 -0.1146  0.5477
 8490SOL    HW137103   3.607   2.086   8.342  2.1001 -2.2217  1.7896
 8490SOL    HW237104   3.732   2.051   8.259 -1.8498  0.1043 -2.7894
 8491SOL     OW37105   1.206   3.914   4.793 -0.3782  0.0776 -0.0137
 8491SOL    HW137106   1.216   3.882   4.703  2.4087  1.9333 -0.3602
 8491SOL    HW237107   1.118   3.880   4.808  0.0312 -0.4988  1.0633
 8492SOL     OW37108   3.765   1.465   6.757  0.2163  0.3150 -0.3442
 8492SOL    HW137109   3.680   1.466   6.713 -0.5383  0.8522  1.1324
 8492SOL    HW237110   3.762   1.386   6.811  0.3064  1.8807  1.9433
 8493SOL     OW37111   3.856   4.338   9.045  0.7853  0.0291 -0.6708
 8493SOL    HW137112   3.885   4.298   9.127 -0.4383 -1.7980 -1.1125
 8493SOL    HW237113   3.814   4.418   9.076  0.9134 -1.2424  2.8306
 8494SOL     OW37114   1.526   0.201  12.083  0.5533 -0.2758 -0.2995
 8494SOL    HW137115   1.602   0.150  12.056 -0.5779 -2.1822  0.1587
 8494SOL    HW237116   1.562   0.251  12.157  1.9011 -1.0190 -0.4565
 8495SOL     OW37117   4.214   1.492   8.747 -0.8414 -0.2192  0.5344
 8495SOL    HW137118   4.124   1.526   8.744 -0.6679  0.0452 -1.4070
 8495SOL    HW237119   4.256   1.577   8.735 -0.6765 -0.6345 -1.7974
 8496SOL     OW37120   1.019   0.705   9.175  0.3379  0.4848  0.0512
 8496SOL    HW137121   1.023   0.697   9.080 -2.6350  3.0479 -0.2715
 8496SOL    HW237122   1.098   0.654   9.196 -0.7056 -0.9514  0.4958
 8497SOL     OW37123   1.482   1.158  12.087 -0.2933  0.2975  0.5732
 8497SOL    HW137124   1.405   1.146  12.143  0.3541 -1.1734  1.1592
 8497SOL    HW237125   1.551   1.097  12.115  0.4360  0.0751 -1.7268
 8498SOL     OW37126   1.674   3.991   3.623 -0.5719  0.4689  0.5389
 8498SOL    HW137127   1.710   3.933   3.555 -1.6412 -1.9094  1.9989
 8498SOL    HW237128   1.660   3.925   3.691  1.0578  0.0891  0.5254
 8499SOL     OW37129   2.241   0.404  11.150  0.5285 -0.1184  0.3052
 8499SOL    HW137130   2.296   0.431  11.224  1.8415 -0.3008 -0.6109
 8499SOL    HW237131   2.198   0.488  11.135 -0.6905 -1.2351 -2.4852
 8500SOL     OW37132   4.720   1.960   8.650  0.0670  0.0926  0.0650
 8500SOL    HW137133   0.033   1.970   8.567  1.5102  0.6712  0.9716
 8500SOL    HW237134   4.654   2.029   8.649  2.6428  2.5942  0.9028
 8501SOL     OW37135   2.351   1.127   3.230  0.2685  0.3792 -0.3129
 8501SOL    HW137136   2.257   1.142   3.231  0.1660 -0.0489 -2.3314
 8501SOL    HW237137   2.378   1.212   3.264 -2.1263  0.4623  1.3445
 8502SOL     OW37138   0.836   1.160  13.199 -0.8753 -0.7728  0.0259
 8502SOL    HW137139   0.825   1.067  13.219 -1.5276 -0.6421  0.2899
 8502SOL    HW237140   0.922   1.162  13.158 -0.7390  2.2591  0.5000
 8503SOL     OW37141   0.555   1.229   5.752  0.5252  0.2485  0.0259
 8503SOL    HW137142   0.575   1.159   5.815 -2.0971  0.3816  1.0295
 8503SOL    HW237143   0.468   1.261   5.778 -0.8046 -1.2670 -2.5485
 8504SOL     OW37144   0.042   3.824   3.205  0.6350 -0.4619 -0.2974
 8504SOL    HW137145   0.001   3.747   3.245 -0.8532  0.5531  0.1415
 8504SOL    HW237146   4.706   3.874   3.164  0.1378 -2.2068 -1.5638
 8505SOL     OW37147   2.504   3.298   8.555 -0.4123 -0.3077  0.1603
 8505SOL    HW137148   2.494   3.353   8.478  1.7172 -1.4624 -0.9236
 8505SOL    HW237149   2.593   3.262   8.549 -0.5881 -1.0366  1.9322
 8506SOL     OW37150   2.818   1.439  12.079  0.1585  0.3204 -0.1327
 8506SOL    HW137151   2.778   1.518  12.116  2.1599 -0.1787  3.0742
 8506SOL    HW237152   2.788   1.441  11.988  1.8844  0.4389 -0.6937
 8507SOL     OW37153   2.669   1.246   2.078  0.0678  0.2204  0.1278
 8507SOL    HW137154   2.687   1.166   2.027  1.6124  0.5482  0.1517
 8507SOL    HW237155   2.748   1.295   2.058  0.1379  0.4562  1.0008
 8508SOL     OW37156   3.999   4.547  17.059  0.1780 -0.1396  0.4994
 8508SOL    HW137157   3.945   4.613  17.103  1.4419  0.4142  1.2328
 8508SOL    HW237158   3.936   4.521  16.992  0.4103  1.6537 -0.4137
 8509SOL     OW37159   0.623   0.074   5.963  0.2700 -0.1337 -0.4213
 8509SOL    HW137160   0.697   0.094   6.020  0.1105 -0.7254 -0.0051
 8509SOL    HW237161   0.553   0.057   6.026 -0.6876  1.4101 -1.0714
 8510SOL     OW37162   0.420   0.518   2.011  0.1694  0.1448 -0.3684
 8510SOL    HW137163   0.511   0.545   2.002  0.0293  0.1209 -1.7824
 8510SOL    HW237164   0.384   0.604   2.031 -2.3152 -0.6212 -1.5871
 8511SOL     OW37165   1.832   0.267   1.628 -0.2176  0.3300 -0.1266
 8511SOL    HW137166   1.766   0.198   1.637  1.8594 -1.5368  1.0948
 8511SOL    HW237167   1.831   0.312   1.712 -1.1832 -0.9635  0.5657
 8512SOL     OW37168   1.770   1.865   0.139  0.3024 -0.2649 -0.0993
 8512SOL    HW137169   1.843   1.848   0.079 -0.2275 -2.4743 -0.1342
 8512SOL    HW237170   1.708   1.796   0.113 -0.1151  0.2159 -0.3867
 8513SOL     OW37171   2.740   2.961   5.979  0.4016  0.0188  0.2412
 8513SOL    HW137172   2.835   2.968   5.969  0.1389  0.8473 -1.6981
 8513SOL    HW237173   2.732   3.033   6.043 -1.8646 -0.6667  0.7258
 8514SOL     OW37174   0.179   4.242   9.833  0.0748 -0.4834  0.0063
 8514SOL    HW137175   0.272   4.220   9.824 -0.2248 -1.3753 -0.9651
 8514SOL    HW237176   0.172   4.289   9.916 -1.8415  2.3647 -1.7349
 8515SOL     OW37177   3.078   1.265   6.275  0.4266  0.2957  0.2637
 8515SOL    HW137178   3.069   1.304   6.188  0.2554  1.2496  0.7122
 8515SOL    HW237179   2.987   1.264   6.306  0.4274  2.1675  0.2961
 8516SOL     OW37180   0.673   0.420   5.398  0.1501  0.4819 -0.9271
 8516SOL    HW137181   0.633   0.484   5.457 -1.2034 -2.1251  0.9296
 8516SOL    HW237182   0.624   0.425   5.316  0.6257  3.7469 -1.0423
 8517SOL     OW37183   2.792   3.191   3.366  0.0909 -0.4348 -0.1440
 8517SOL    HW137184   2.799   3.156   3.277 -0.0712 -0.2721 -0.2199
 8517SOL    HW237185   2.882   3.178   3.396  0.6798  0.4926 -1.4706
 8518SOL     OW37186   1.801   1.402   2.401 -0.4259  0.0564 -0.7809
 8518SOL    HW137187   1.720   1.451   2.386 -1.3318 -0.8123  1.3300
 8518SOL    HW237188   1.816   1.375   2.310 -0.2946  1.6266 -1.2316
 8519SOL     OW37189   3.944   3.511   8.402 -0.3161  0.0953  0.2792
 8519SOL    HW137190   3.957   3.512   8.497  1.9055 -0.4214 -0.0224
 8519SOL    HW237191   3.853   3.541   8.395 -1.1512 -2.9464 -1.9873
 8520SOL     OW37192   2.582   3.162  17.136  0.1065  0.0472  0.3775
 8520SOL    HW137193   2.575   3.070  17.162  0.6007  0.3839  1.7203
 8520SOL    HW237194   2.491   3.191  17.134  0.6816  1.8140 -0.2058
 8521SOL     OW37195   1.148   2.933   5.425 -0.3662  0.8514 -0.1046
 8521SOL    HW137196   1.187   2.913   5.510  1.4792 -0.2938 -1.2253
 8521SOL    HW237197   1.120   2.848   5.391  1.9402  0.1701 -0.2874
 8522SOL     OW37198   4.130   0.574   1.545  0.0007  0.2521 -0.0255
 8522SOL    HW137199   4.131   0.479   1.532 -1.9552  0.1796  0.2860
 8522SOL    HW237200   4.219   0.595   1.572 -0.2628  3.1900 -1.4701
 8523SOL     OW37201   3.315   0.870   2.434  0.1970  0.2716  0.0130
 8523SOL    HW137202   3.253   0.833   2.497  1.2915 -1.6754 -0.0477
 8523SOL    HW237203   3.375   0.797   2.420  0.7141  0.7624 -0.3389
 8524SOL     OW37204   4.509   4.424   5.322  0.3205  0.2062  0.4044
 8524SOL    HW137205   4.443   4.420   5.253 -1.6459 -1.8513  2.4267
 8524SOL    HW237206   4.584   4.449   5.268  0.0511  3.3523  1.4873
 8525SOL     OW37207   3.958   4.102   5.908 -0.1102 -0.0475 -0.2516
 8525SOL    HW137208   3.955   4.029   5.970  2.1325  0.2865  0.2759
 8525SOL    HW237209   4.017   4.160   5.956 -1.2935  0.9317  0.0075
 8526SOL     OW37210   1.920   2.583  15.943  0.1066 -0.0560 -0.1718
 8526SOL    HW137211   1.951   2.634  16.019 -3.2159 -0.1960  1.2636
 8526SOL    HW237212   1.964   2.498  15.944 -0.8688 -0.5483  0.6424
 8527SOL     OW37213   2.318   4.224   5.260  0.2966  0.1067 -0.1096
 8527SOL    HW137214   2.353   4.226   5.349  1.8498 -2.0294 -0.6762
 8527SOL    HW237215   2.356   4.140   5.235  2.4792  0.1973  2.8784
 8528SOL     OW37216   4.068   1.992   2.845  0.1697  0.0531  0.4358
 8528SOL    HW137217   3.982   1.954   2.828  1.2044 -1.7246 -0.7837
 8528SOL    HW237218   4.041   2.080   2.872 -0.7842 -0.3320  0.7276
 8529SOL     OW37219   1.723   4.248   2.007 -0.1418 -0.3166  0.0535
 8529SOL    HW137220   1.767   4.266   2.090  0.9883  1.8952 -1.0370
 8529SOL    HW237221   1.802   4.245   1.953  0.5910  0.0431  1.1138
 8530SOL     OW37222   1.926   2.054   3.449  0.0917 -0.0240 -0.6645
 8530SOL    HW137223   1.934   1.968   3.408 -0.1554 -0.3815  0.0353
 8530SOL    HW237224   1.868   2.035   3.523 -1.2846  1.4683 -1.3702
 8531SOL     OW37225   1.616   0.731   2.132 -0.6698 -0.4578  0.0612
 8531SOL    HW137226   1.635   0.817   2.171 -0.8901  0.3103 -1.5133
 8531SOL    HW237227   1.565   0.757   2.055 -0.3682 -0.1757 -0.0434
 8532SOL     OW37228   3.725   2.796   2.144 -0.0874 -0.1861  0.4314
 8532SOL    HW137229   3.745   2.888   2.163  1.1401 -0.7070  1.6064
 8532SOL    HW237230   3.746   2.776   2.235 -0.4894  0.5781  0.6929
 8533SOL     OW37231   4.152   1.290   3.187 -0.6439  0.2118 -0.6426
 8533SOL    HW137232   4.202   1.237   3.124 -0.8035 -0.4576 -0.1973
 8533SOL    HW237233   4.069   1.242   3.187 -0.1118 -0.7175 -0.8148
 8534SOL     OW37234   3.841   2.893   0.713 -0.3069  0.0028  0.4923
 8534SOL    HW137235   3.882   2.873   0.796  0.0483  0.9955  0.5640
 8534SOL    HW237236   3.793   2.973   0.737  1.7168  1.8672 -1.6484
 8535SOL     OW37237   1.024   0.164   2.894  0.3390 -0.5917  0.1375
 8535SOL    HW137238   1.096   0.223   2.875  0.5337 -1.1578 -0.8665
 8535SOL    HW237239   1.044   0.130   2.982  0.4816 -2.0439 -0.4537
 8536SOL     OW37240   1.647   3.048   5.261  0.5049  0.1425  0.0803
 8536SOL    HW137241   1.633   3.014   5.349 -0.3021 -0.0489 -0.1214
 8536SOL    HW237242   1.613   3.135   5.280 -0.0315 -0.2304  0.8151
 8537SOL     OW37243   2.457   0.095   8.764  0.1365  0.5605  0.3747
 8537SOL    HW137244   2.397   0.042   8.816  0.3498  1.5839  1.6513
 8537SOL    HW237245   2.530   0.033   8.759  0.1670  0.8020 -2.0789
 8538SOL     OW37246   1.373   1.667   2.756 -0.3970  0.2433  0.0277
 8538SOL    HW137247   1.304   1.648   2.693  0.0921  1.9472 -1.0071
 8538SOL    HW237248   1.393   1.755   2.724 -1.7278  0.3142 -0.6011
 8539SOL     OW37249   0.684   0.559  10.494  0.1972 -0.3990 -0.2254
 8539SOL    HW137250   0.692   0.498  10.567 -1.2805 -1.5866 -1.0749
 8539SOL    HW237251   0.608   0.522  10.450  0.2813  0.6772 -1.2878
 8540SOL     OW37252   3.887   2.462   6.746 -0.1622  0.5113 -0.5872
 8540SOL    HW137253   3.948   2.477   6.674 -2.1752  0.6744 -2.2634
 8540SOL    HW237254   3.808   2.496   6.703  0.1117 -1.9310 -3.0475
 8541SOL     OW37255   4.033   1.740   6.348  0.2342 -0.3255 -0.4002
 8541SOL    HW137256   3.977   1.739   6.426 -0.5759  0.8454 -0.9621
 8541SOL    HW237257   4.075   1.825   6.357  0.9204 -0.5587 -1.3547
 8542SOL     OW37258   0.776   0.460   2.966  0.2425 -0.7268  0.0933
 8542SOL    HW137259   0.786   0.391   3.031 -1.0568 -0.7591  0.2650
 8542SOL    HW237260   0.685   0.489   2.974  0.1755 -0.8430 -0.2725
 8543SOL     OW37261   2.068   4.048  13.375 -0.0318 -0.3895 -0.2175
 8543SOL    HW137262   2.011   4.083  13.307  0.6246  0.5904 -0.2727
 8543SOL    HW237263   2.034   4.110  13.439  3.3021  0.8324  0.3882
 8544SOL     OW37264   0.122   2.628  14.604  0.0237 -0.2734 -0.3742
 8544SOL    HW137265   0.081   2.648  14.689 -1.0884  1.4550 -1.3149
 8544SOL    HW237266   0.191   2.694  14.600  0.0896 -0.3276 -0.1303
 8545SOL     OW37267   3.511   2.962  11.433  0.0575 -0.1250  0.4917
 8545SOL    HW137268   3.595   2.928  11.463  1.0031  1.4033 -0.4575
 8545SOL    HW237269   3.453   2.936  11.505  1.6460 -0.8697  1.4893
 8546SOL     OW37270   2.571   0.836   4.516  0.3063 -0.0393 -0.0163
 8546SOL    HW137271   2.606   0.832   4.605 -1.6768 -1.6651  0.6812
 8546SOL    HW237272   2.645   0.804   4.464  0.8690  1.2959 -0.0420
 8547SOL     OW37273   0.348   4.434   6.202 -0.0450  0.0923 -0.4708
 8547SOL    HW137274   0.260   4.442   6.240  1.0010  2.7665  1.3633
 8547SOL    HW237275   0.335   4.356   6.148  2.4641 -0.1244 -0.7615
 8548SOL     OW37276   3.887   1.424   0.068 -0.0618 -0.3426  0.4263
 8548SOL    HW137277   3.950   1.452   0.134 -0.1326  0.2109  0.2571
 8548SOL    HW237278   3.807   1.453   0.112  1.5190  1.1573  2.3188
 8549SOL     OW37279   3.028   2.253   6.243 -0.0825 -0.1308 -0.3403
 8549SOL    HW137280   3.021   2.347   6.259 -0.5269 -0.1693 -0.3137
 8549SOL    HW237281   2.936   2.237   6.219  0.0096  0.4171 -1.0496
 8550SOL     OW37282   3.267   3.065  13.778 -0.3089  0.4187 -0.1444
 8550SOL    HW137283   3.178   3.096  13.798 -0.3667 -0.8730  1.6522
 8550SOL    HW237284   3.269   3.110  13.694  1.5677 -0.3309 -0.4923
 8551SOL     OW37285   1.209   1.073   7.990 -0.4898  0.4824  0.5167
 8551SOL    HW137286   1.122   1.104   8.014 -0.2210  1.1979  0.5603
 8551SOL    HW237287   1.246   1.151   7.949 -2.3781  1.1137  0.0424
 8552SOL     OW37288   0.166   3.819   6.762  0.7540  0.0701 -0.1194
 8552SOL    HW137289   0.179   3.860   6.676  0.5858  0.9311  0.2721
 8552SOL    HW237290   0.121   3.742   6.727  0.6875  0.4497 -0.8655
 8553SOL     OW37291   2.677   2.871   0.017  0.1312 -0.7055 -0.2654
 8553SOL    HW137292   2.613   2.827   0.074 -0.1304  0.3769  0.2646
 8553SOL    HW237293   2.733   2.908   0.085  1.1419 -0.0337 -1.4713
 8554SOL     OW37294   4.602   4.556  12.526 -0.5140 -0.8334 -0.1893
 8554SOL    HW137295   4.514   4.518  12.515 -0.4094 -0.5752 -1.9070
 8554SOL    HW237296   4.578   4.635  12.574 -1.8208 -1.5437  0.3428
 8555SOL     OW37297   1.844   4.504   3.743  0.0161  0.2525 -0.6158
 8555SOL    HW137298   1.816   4.415   3.764  0.6985  0.1019 -0.3649
 8555SOL    HW237299   1.884   4.541   3.822 -0.4916 -1.3289  0.3691
 8556SOL     OW37300   2.719   3.048   7.025  0.0765  0.3267 -0.4156
 8556SOL    HW137301   2.743   3.106   6.953 -1.1173  0.3840 -0.7641
 8556SOL    HW237302   2.665   2.981   6.984 -0.8402  0.8752 -0.0989
 8557SOL     OW37303   1.694   2.894   0.002 -0.2134  0.5618 -0.3627
 8557SOL    HW137304   1.753   2.828  17.704 -0.3391  0.4885 -0.4338
 8557SOL    HW237305   1.714   2.971  17.688  2.5750  0.0286 -0.1058
 8558SOL     OW37306   2.569   0.421  15.868 -0.4749  0.2508 -0.1128
 8558SOL    HW137307   2.581   0.490  15.934 -0.9919 -0.2343  0.4823
 8558SOL    HW237308   2.542   0.340  15.911  2.0039 -0.6774 -0.2717
 8559SOL     OW37309   0.920   4.730  12.361 -0.0351  0.4163 -0.1288
 8559SOL    HW137310   0.825   0.008  12.357 -0.2668 -0.4927  2.7145
 8559SOL    HW237311   0.952   0.078  12.393  0.5866  1.8529 -4.4151
 8560SOL     OW37312   1.254   3.002   2.790 -0.2657  0.4306 -0.0763
 8560SOL    HW137313   1.302   2.989   2.872 -2.3293  1.4121  1.2929
 8560SOL    HW237314   1.320   2.958   2.736 -1.2151 -1.5179  0.3316
 8561SOL     OW37315   1.389   1.452   5.855 -0.3217  0.3022 -0.4171
 8561SOL    HW137316   1.478   1.421   5.842 -1.1715 -0.9515 -3.2954
 8561SOL    HW237317   1.349   1.369   5.881 -1.0809  0.9916  0.6310
 8562SOL     OW37318   0.160   1.979   4.542  0.3296 -0.5778 -0.1215
 8562SOL    HW137319   0.233   1.929   4.506  0.9135  0.5486 -0.4964
 8562SOL    HW237320   0.127   2.031   4.468  1.2336  2.0038  1.2649
 8563SOL     OW37321   3.052   2.639   5.339 -0.5466 -0.0267  0.6020
 8563SOL    HW137322   3.084   2.727   5.356  1.7417 -0.5474 -0.9259
 8563SOL    HW237323   3.035   2.656   5.246 -1.3013 -0.8574  0.5817
 8564SOL     OW37324   1.318   0.865  10.864 -0.6040 -0.3134 -0.1506
 8564SOL    HW137325   1.307   0.882  10.958 -4.2735  0.8695 -0.7773
 8564SOL    HW237326   1.250   0.800  10.847  1.7136 -3.0415  1.1568
 8565SOL     OW37327   2.419   4.498   7.571  0.1579  0.0816  0.1069
 8565SOL    HW137328   2.497   4.486   7.624  0.1654  2.0591  0.5279
 8565SOL    HW237329   2.443   4.487   7.480  1.1710  1.7887  0.1689
 8566SOL     OW37330   3.357   0.891  15.381  0.1570 -0.1424 -0.1494
 8566SOL    HW137331   3.295   0.830  15.341 -0.9319  1.3286 -0.7066
 8566SOL    HW237332   3.323   0.976  15.354  1.0284 -0.4460 -2.2333
 8567SOL     OW37333   2.483   4.459   9.246 -0.6533  0.0031 -0.0091
 8567SOL    HW137334   2.423   4.457   9.170 -0.0086 -1.3774 -0.4871
 8567SOL    HW237335   2.570   4.468   9.207 -0.4065  1.9350  1.0300
 8568SOL     OW37336   1.569   3.981   2.871 -0.1514 -0.3424  0.0556
 8568SOL    HW137337   1.638   3.983   2.937 -0.3178  2.1346  0.1437
 8568SOL    HW237338   1.554   4.076   2.871 -2.4253 -0.7056 -0.6796
 8569SOL     OW37339   2.891   3.024  15.032  0.0388  0.4574 -0.3043
 8569SOL    HW137340   2.849   3.110  15.036 -1.5166 -0.4013  2.0135
 8569SOL    HW237341   2.950   3.027  14.956 -0.9783 -1.1954 -1.1420
 8570SOL     OW37342   4.626   3.066   4.608 -0.9147 -0.1881  0.5172
 8570SOL    HW137343   4.603   2.987   4.558 -0.3470 -0.4615  0.6816
 8570SOL    HW237344   4.559   3.073   4.676 -0.9424  1.0069  0.3580
 8571SOL     OW37345   4.602   2.821   7.276  0.2330 -0.6405  0.0034
 8571SOL    HW137346   4.601   2.847   7.184 -0.7535  0.6986  0.3913
 8571SOL    HW237347   4.658   2.876   7.330 -0.1238 -2.4908  2.2588
 8572SOL     OW37348   4.025   0.713  14.851 -0.3219 -0.2846  0.6335
 8572SOL    HW137349   3.963   0.663  14.798 -1.5546  0.9668  0.9279
 8572SOL    HW237350   4.082   0.642  14.882  1.1336  0.2186 -0.8639
 8573SOL     OW37351   3.464   1.759   8.300 -0.0990  0.2739  0.0317
 8573SOL    HW137352   3.475   1.854   8.294 -3.5576  0.5743 -1.7270
 8573SOL    HW237353   3.380   1.755   8.346  0.2502 -0.0207  0.6417
 8574SOL     OW37354   3.095   1.805  16.679 -0.2849 -0.0024 -0.0978
 8574SOL    HW137355   3.095   1.888  16.727 -2.3198 -1.0386  1.7029
 8574SOL    HW237356   3.183   1.768  16.691 -0.3933 -0.4030 -0.5344
 8575SOL     OW37357   1.775   1.584   6.367 -0.1303  0.0856 -0.0969
 8575SOL    HW137358   1.698   1.570   6.422 -1.2935  2.8728 -1.0640
 8575SOL    HW237359   1.848   1.540   6.411  0.4297 -1.0398 -2.1408
 8576SOL     OW37360   0.134   4.494   2.603 -0.7152  0.0378 -0.1008
 8576SOL    HW137361   0.145   4.570   2.546  1.7406  0.5604  1.0933
 8576SOL    HW237362   0.129   4.528   2.692 -1.0688  0.8931 -0.4449
 8577SOL     OW37363   3.410   1.872  17.283 -0.0545  0.3598 -0.7509
 8577SOL    HW137364   3.503   1.885  17.302 -0.6903  1.1040  1.8545
 8577SOL    HW237365   3.403   1.798  17.343  0.0206  0.6819 -0.3459
 8578SOL     OW37366   1.393   3.157   6.028  0.5354 -0.2458  0.4010
 8578SOL    HW137367   1.345   3.198   5.956  1.8731  0.6236 -0.0122
 8578SOL    HW237368   1.453   3.232   6.033 -2.0813  1.8697  0.0912
 8579SOL     OW37369   3.682   2.046   6.893  0.2548 -0.2397 -0.3176
 8579SOL    HW137370   3.741   1.984   6.851 -0.9089 -0.7550 -1.1982
 8579SOL    HW237371   3.739   2.117   6.918 -1.1513  0.3237  1.2959
 8580SOL     OW37372   0.321   2.449   7.692  0.6483 -0.2648 -0.6098
 8580SOL    HW137373   0.303   2.543   7.685  0.9680 -0.1382  0.3634
 8580SOL    HW237374   0.240   2.421   7.734 -0.1219  1.0463 -1.2318
 8581SOL     OW37375   4.126   1.433  13.823 -0.1617 -0.1730 -0.2144
 8581SOL    HW137376   4.161   1.517  13.853  0.7883 -0.3523 -0.8247
 8581SOL    HW237377   4.208   1.386  13.805  0.4704  0.6531  0.5198
 8582SOL     OW37378   3.362   0.938  17.037 -1.0142 -0.7253 -0.0566
 8582SOL    HW137379   3.266   0.932  17.034 -0.9341 -1.2911 -1.5142
 8582SOL    HW237380   3.382   0.918  16.946 -2.3426 -1.0855 -0.2769
 8583SOL     OW37381   3.271   2.796   1.700  0.1987  0.0728  0.0413
 8583SOL    HW137382   3.263   2.709   1.739  2.1905 -1.0961 -2.1736
 8583SOL    HW237383   3.186   2.809   1.658  0.0392 -0.3822  0.2245
 8584SOL     OW37384   0.308   4.338  15.179 -0.5432  0.2075  0.0756
 8584SOL    HW137385   0.319   4.432  15.164  1.2600 -0.1829 -1.0435
 8584SOL    HW237386   0.275   4.309  15.094 -0.0882 -1.5924  0.5123
 8585SOL     OW37387   0.106   4.722  12.461 -0.2298 -0.7210  0.5244
 8585SOL    HW137388   0.064   4.695  12.379 -0.4464 -2.3757  1.1826
 8585SOL    HW237389   0.053   4.691  12.534  1.1156 -2.2973  0.8472
 8586SOL     OW37390   0.188   0.983   5.738  0.2463 -0.8534 -0.2825
 8586SOL    HW137391   0.166   1.007   5.648 -1.3788 -1.7488 -0.1181
 8586SOL    HW237392   0.114   0.933   5.772 -0.0551 -0.5103 -0.4334
 8587SOL     OW37393   2.856   0.964   7.665  0.3902  0.0483  0.0643
 8587SOL    HW137394   2.905   1.043   7.643  3.2663 -1.7117  0.2293
 8587SOL    HW237395   2.908   0.932   7.738  0.1336 -0.7307 -0.0845
 8588SOL     OW37396   1.815   4.309   5.321 -0.6531  0.2518 -0.3017
 8588SOL    HW137397   1.880   4.285   5.254 -2.0453 -1.6292 -0.9955
 8588SOL    HW237398   1.730   4.287   5.282 -1.5020  1.1883  1.0298
 8589SOL     OW37399   2.643   1.037   9.734  0.2843  0.8984 -0.3753
 8589SOL    HW137400   2.576   1.010   9.796 -2.0003  0.0086 -3.2087
 8589SOL    HW237401   2.716   1.034   9.796  1.7879 -0.9538 -2.2122
 8590SOL     OW37402   4.037   1.219  14.852  0.2573 -0.1310 -0.1008
 8590SOL    HW137403   4.020   1.273  14.775 -1.1650 -0.2527  0.1239
 8590SOL    HW237404   4.013   1.132  14.820 -4.0315  1.5873 -1.5195
 8591SOL     OW37405   2.351   0.741  14.288  0.1298 -0.1411  0.3932
 8591SOL    HW137406   2.398   0.667  14.326  0.5088  0.7290  1.6542
 8591SOL    HW237407   2.382   0.807  14.350 -0.7714 -0.7858  1.5272
 8592SOL     OW37408   3.486   3.568   3.506 -0.2058  0.3596  0.0075
 8592SOL    HW137409   3.391   3.576   3.515 -0.2657  1.7775 -1.8494
 8592SOL    HW237410   3.526   3.570   3.593 -1.2834 -1.5227  0.5431
 8593SOL     OW37411   3.086   4.204   2.583  0.0984 -0.0017 -0.3090
 8593SOL    HW137412   3.022   4.194   2.653  0.8448 -2.1464  0.0728
 8593SOL    HW237413   3.169   4.180   2.626 -0.5388  0.3867  1.1437
 8594SOL     OW37414   1.382   4.644   3.768 -0.0457 -0.2656  0.2519
 8594SOL    HW137415   1.474   4.664   3.749 -0.7349  3.2061  0.5350
 8594SOL    HW237416   1.385   4.583   3.841 -0.1852 -2.6538 -1.7728
 8595SOL     OW37417   2.836   0.730   8.990 -0.2784 -0.1491  0.0398
 8595SOL    HW137418   2.858   0.697   8.903  0.4446 -0.6349  0.4083
 8595SOL    HW237419   2.888   0.668   9.041  0.5425 -0.3283 -1.0203
 8596SOL     OW37420   3.062   2.453   7.578  0.2378  0.0503  0.5249
 8596SOL    HW137421   2.988   2.510   7.559 -0.3663 -0.3769  1.6129
 8596SOL    HW237422   3.057   2.470   7.672  1.7166  0.9191  0.4453
 8597SOL     OW37423   3.425   0.545   6.590 -0.2122 -0.0687 -0.3339
 8597SOL    HW137424   3.380   0.603   6.529  1.1241  0.7489 -0.5221
 8597SOL    HW237425   3.363   0.473   6.606 -2.3044  1.3839 -1.9024
 8598SOL     OW37426   2.457   3.999   6.254  0.2678  0.2029  0.1499
 8598SOL    HW137427   2.529   4.038   6.205  0.4754 -1.8685 -1.2206
 8598SOL    HW237428   2.498   3.965   6.333 -0.3477  3.7196  1.9546
 8599SOL     OW37429   2.369   3.243   2.861 -0.4425  0.2042  0.5454
 8599SOL    HW137430   2.277   3.259   2.883 -0.0473  0.7439  1.7675
 8599SOL    HW237431   2.386   3.319   2.805  3.4557 -1.2479 -0.2823
 8600SOL     OW37432   0.247   3.522  10.503  0.5102  0.0276 -0.1302
 8600SOL    HW137433   0.246   3.432  10.470 -1.1771 -0.8482  2.2559
 8600SOL    HW237434   0.243   3.505  10.597  3.0242 -0.5018 -0.1104
 8601SOL     OW37435   1.582   1.522  12.203  0.2279 -0.5890  0.2654
 8601SOL    HW137436   1.630   1.600  12.173 -0.5241  0.8003  2.7558
 8601SOL    HW237437   1.632   1.450  12.162  0.8847 -0.4727  0.8521
 8602SOL     OW37438   2.504   1.560  17.364 -0.7909 -0.2635  0.2512
 8602SOL    HW137439   2.444   1.551  17.438  0.5284  0.4790  1.4254
 8602SOL    HW237440   2.448   1.608  17.304  1.7777  1.4261 -0.7914
 8603SOL     OW37441   0.791   3.046   7.545 -0.3177 -0.3877 -0.4949
 8603SOL    HW137442   0.822   2.971   7.595 -0.6998  0.4756  1.0375
 8603SOL    HW237443   0.863   3.082   7.493  0.0928 -0.5896 -0.0596
 8604SOL     OW37444   2.309   0.289  17.529 -0.0538  0.1391  0.0347
 8604SOL    HW137445   2.376   0.252  17.472  0.6102 -0.8203  1.4584
 8604SOL    HW237446   2.222   0.261  17.498 -1.0874  1.4790  1.7106
 8605SOL     OW37447   2.710   2.033   7.242 -0.6811 -0.3490  0.0860
 8605SOL    HW137448   2.787   2.056   7.191  0.1827  0.5238  1.8129
 8605SOL    HW237449   2.682   2.121   7.266 -1.6011 -1.2070  2.2116
 8606SOL     OW37450   3.781   2.857   3.576 -0.8414 -0.1167 -0.1810
 8606SOL    HW137451   3.745   2.845   3.663 -0.3181 -0.0092  0.0493
 8606SOL    HW237452   3.738   2.785   3.530  0.5029 -1.2184  0.3048
 8607SOL     OW37453   0.961   3.257   2.722 -0.0676  0.4637  0.5251
 8607SOL    HW137454   0.953   3.167   2.753  2.4446  0.3267  0.7341
 8607SOL    HW237455   0.899   3.298   2.783  1.3436  0.6712  1.8075
 8608SOL     OW37456   4.419   2.496   2.927 -0.5199  0.4956  0.4124
 8608SOL    HW137457   4.421   2.530   2.838 -0.1936 -0.6114 -0.0048
 8608SOL    HW237458   4.431   2.578   2.976  0.3050  1.0317 -0.6938
 8609SOL     OW37459   3.725   1.665   5.000  0.1446  0.2670  0.4012
 8609SOL    HW137460   3.807   1.628   5.032  0.4257 -0.9784 -1.8066
 8609SOL    HW237461   3.735   1.657   4.906 -0.1379 -1.6775  0.5359
 8610SOL     OW37462   1.787   4.338  12.150 -0.3990  0.0666  0.5467
 8610SOL    HW137463   1.740   4.256  12.135 -2.4507  0.9632  1.9227
 8610SOL    HW237464   1.831   4.313  12.231 -1.1338  0.7277  1.1582
 8611SOL     OW37465   4.223   4.438   2.207  0.5138 -0.1508 -0.3605
 8611SOL    HW137466   4.160   4.452   2.136  0.1667 -3.1218 -0.6537
 8611SOL    HW237467   4.299   4.463   2.155  0.7818 -2.3963 -1.0651
 8612SOL     OW37468   3.730   1.938   7.650 -0.3975 -0.3431  1.0219
 8612SOL    HW137469   3.821   1.929   7.676  0.0387  2.2263  0.4032
 8612SOL    HW237470   3.733   1.916   7.557  0.9079 -0.6557  1.1422
 8613SOL     OW37471   2.497   0.075   9.787 -0.6324  0.9732  0.4728
 8613SOL    HW137472   2.487   0.094   9.693  2.1025 -0.2911 -0.0670
 8613SOL    HW237473   2.576   0.125   9.807 -0.3300  0.4567  0.5552
 8614SOL     OW37474   2.966   3.925   9.563 -0.3288 -0.1595 -0.3050
 8614SOL    HW137475   3.041   3.901   9.509  0.4515 -0.0304  0.7075
 8614SOL    HW237476   2.979   4.020   9.572 -1.9822  0.2316 -2.1085
 8615SOL     OW37477   3.647   1.322   7.187  0.5789  0.4812 -0.5292
 8615SOL    HW137478   3.654   1.418   7.188 -0.7262  0.5810 -0.1804
 8615SOL    HW237479   3.706   1.295   7.256 -0.3274 -0.9774 -0.3377
 8616SOL     OW37480   2.447   1.057   2.358 -0.0647  0.2569 -0.5503
 8616SOL    HW137481   2.541   1.047   2.345  0.0086  0.3317 -0.0818
 8616SOL    HW237482   2.414   1.061   2.269  1.5060  0.4993 -1.1262
 8617SOL     OW37483   2.521   3.178   2.312  0.6569 -0.0590 -0.5218
 8617SOL    HW137484   2.584   3.204   2.380 -0.2287  2.9433 -0.8199
 8617SOL    HW237485   2.524   3.258   2.259 -0.3018  2.6951  3.5830
 8618SOL     OW37486   2.696   2.248   1.661 -0.4568 -0.0515 -0.3390
 8618SOL    HW137487   2.641   2.294   1.598  0.9563  1.3852 -0.5308
 8618SOL    HW237488   2.686   2.296   1.744 -0.1840  1.5259 -1.2208
 8619SOL     OW37489   0.878   1.397  16.900  0.7704  1.0423 -0.1813
 8619SOL    HW137490   0.927   1.474  16.870  1.3224  0.3492 -1.0349
 8619SOL    HW237491   0.858   1.361  16.814  1.9211  1.4237 -0.6068
 8620SOL     OW37492   1.289   1.701   1.827 -0.1089  0.1086  0.0392
 8620SOL    HW137493   1.204   1.665   1.852 -0.0361 -0.7697 -0.9660
 8620SOL    HW237494   1.275   1.793   1.849 -0.5014  0.3251 -1.1255
 8621SOL     OW37495   2.191   3.641  10.697  0.0991 -0.0637 -0.4523
 8621SOL    HW137496   2.175   3.552  10.728 -1.0210  0.3027  0.0245
 8621SOL    HW237497   2.150   3.688  10.769 -1.6846  1.5389 -2.5260
 8622SOL     OW37498   1.930   4.640   3.970  0.3608 -0.0314 -0.1885
 8622SOL    HW137499   1.857   4.702   3.973  1.3540  1.0640  1.4036
 8622SOL    HW237500   2.005   4.692   3.940  2.2307 -0.7025  3.3132
 8623SOL     OW37501   1.215   0.562   1.472  0.9163  0.0199  0.2790
 8623SOL    HW137502   1.165   0.643   1.458  2.0182  1.0227  2.0588
 8623SOL    HW237503   1.271   0.570   1.394 -0.8596  2.7250 -0.7399
 8624SOL     OW37504   1.560   4.242   3.707  0.3303  0.3257 -0.2982
 8624SOL    HW137505   1.499   4.257   3.635 -0.9513 -0.3733  0.6368
 8624SOL    HW237506   1.612   4.168   3.674 -1.2795 -1.1796  0.4994
 8625SOL     OW37507   1.783   0.608   8.474 -0.2754  0.8202  0.4731
 8625SOL    HW137508   1.746   0.667   8.540  0.3956  1.3953  0.3290
 8625SOL    HW237509   1.843   0.555   8.526 -2.5366 -0.4777  1.7642
 8626SOL     OW37510   4.609   4.399  10.392 -0.2537 -0.1342  0.8680
 8626SOL    HW137511   4.641   4.315  10.361 -1.6794 -0.1384 -0.6145
 8626SOL    HW237512   4.579   4.428  10.305  0.7847 -1.2837  0.1440
 8627SOL     OW37513   0.924   2.491   3.321 -0.1517  0.4549 -0.2577
 8627SOL    HW137514   0.898   2.427   3.386  1.4127 -0.8698 -0.9322
 8627SOL    HW237515   1.007   2.528   3.353  0.9577 -0.6212 -1.8643
 8628SOL     OW37516   1.435   2.764   3.606  0.0677  0.2203  0.2526
 8628SOL    HW137517   1.366   2.831   3.606 -0.1994 -0.0682 -1.1612
 8628SOL    HW237518   1.421   2.733   3.696  1.3398  0.8137  0.6559
 8629SOL     OW37519   2.637   2.636   9.340  0.0793 -0.3854 -0.1580
 8629SOL    HW137520   2.721   2.643   9.294  0.5037  1.4962  0.8784
 8629SOL    HW237521   2.575   2.669   9.275 -0.4887  1.4677  1.3088
 8630SOL     OW37522   3.447   0.874   7.449 -0.4163 -0.1802 -0.4765
 8630SOL    HW137523   3.396   0.943   7.406  2.1441  1.1450 -1.3802
 8630SOL    HW237524   3.406   0.791   7.425  0.9694 -1.3778  1.2598
 8631SOL     OW37525   0.661   2.257   3.268 -0.0182  0.3130  0.2691
 8631SOL    HW137526   0.699   2.180   3.226  1.2831  0.3764  1.3179
 8631SOL    HW237527   0.658   2.243   3.362  0.8847 -0.3411  0.2036
 8632SOL     OW37528   1.457   3.850   3.409 -0.8112 -0.3195  0.1685
 8632SOL    HW137529   1.528   3.832   3.472  0.4427 -0.8105 -1.3729
 8632SOL    HW237530   1.492   3.925   3.361 -0.1495  0.3650  1.7464
 8633SOL     OW37531   1.365   3.999   2.508 -0.3448  0.0600  0.0557
 8633SOL    HW137532   1.327   4.006   2.420 -1.2167  1.0256  0.4988
 8633SOL    HW237533   1.306   4.054   2.561 -0.0284 -0.8520  1.3586
 8634SOL     OW37534   4.260   2.422   3.679  0.6288 -0.2996  0.6538
 8634SOL    HW137535   4.238   2.358   3.746  0.4652 -1.7895 -0.8435
 8634SOL    HW237536   4.283   2.491   3.741  1.6431 -0.9052  0.9515
 8635SOL     OW37537   4.280   1.012   3.804  0.2113 -0.2424  0.9750
 8635SOL    HW137538   4.292   1.063   3.884 -1.2839  0.5576  0.6844
 8635SOL    HW237539   4.190   0.985   3.819  0.2023  0.0835  1.4884
 8636SOL     OW37540   0.784   1.272   1.529  0.4400  0.4377 -0.1368
 8636SOL    HW137541   0.737   1.208   1.476  0.4781  0.1854  0.1325
 8636SOL    HW237542   0.719   1.302   1.592 -1.1476 -0.8918 -1.1730
 8637SOL     OW37543   3.517   2.068   6.152 -0.0361  0.3820 -0.4967
 8637SOL    HW137544   3.519   2.122   6.231  0.0051  0.7799 -0.7703
 8637SOL    HW237545   3.422   2.075   6.141 -0.4830 -2.0001  1.5815
 8638SOL     OW37546   0.235   4.279   2.492 -0.1368  0.4236 -0.3325
 8638SOL    HW137547   0.140   4.267   2.480  0.1100 -2.1577  0.2950
 8638SOL    HW237548   0.231   4.361   2.541  3.8099  0.0178  0.6185
 8639SOL     OW37549   2.704   2.210   2.601 -0.0593 -0.2062  0.2545
 8639SOL    HW137550   2.702   2.259   2.683  1.5747  1.9598 -1.0074
 8639SOL    HW237551   2.620   2.165   2.601  0.2621 -0.8076  0.2294
 8640SOL     OW37552   1.184   1.982   7.055  0.1579 -0.2928 -1.0312
 8640SOL    HW137553   1.265   2.008   7.099 -0.1839 -1.3496  0.2183
 8640SOL    HW237554   1.213   1.913   6.995 -0.8802 -1.3355 -0.3324
 8641SOL     OW37555   4.471   1.316   8.535 -0.6544  0.4762  0.3377
 8641SOL    HW137556   4.397   1.352   8.585 -1.1522 -0.9839  0.6572
 8641SOL    HW237557   4.475   1.389   8.474  1.7753 -1.8008 -2.2089
 8642SOL     OW37558   2.521   2.133   5.044 -0.1265  0.0929  0.1959
 8642SOL    HW137559   2.587   2.106   5.108 -0.1266  1.8550  0.9383
 8642SOL    HW237560   2.437   2.133   5.090 -0.4273  3.6791 -0.3796
 8643SOL     OW37561   3.625   3.212   5.995 -0.0118 -0.1153 -0.8572
 8643SOL    HW137562   3.668   3.152   5.933 -1.3424  0.2552 -2.1444
 8643SOL    HW237563   3.558   3.159   6.038 -0.6570  0.0146 -1.6763
 8644SOL     OW37564   4.321   0.628   3.254 -0.3152  0.1226  0.3067
 8644SOL    HW137565   4.387   0.637   3.323  1.5089 -4.6371 -0.8079
 8644SOL    HW237566   4.324   0.715   3.214  0.0938  0.4431  1.0395
 8645SOL     OW37567   4.668   1.232   0.438  0.0383  0.6790 -0.2428
 8645SOL    HW137568   4.661   1.248   0.344  0.8598 -0.7459 -0.5414
 8645SOL    HW237569   4.694   1.141   0.430 -1.5273  0.3378 -1.2895
 8646SOL     OW37570   3.993   4.630   2.663 -0.0343  0.7193 -0.2645
 8646SOL    HW137571   4.028   4.573   2.731  2.8463  2.5562 -0.2314
 8646SOL    HW237572   4.032   4.592   2.584 -1.0283  0.2782 -0.5449
 8647SOL     OW37573   1.789   0.232  16.379  0.0413  0.0561 -0.2957
 8647SOL    HW137574   1.801   0.306  16.438  0.6174  0.7916 -1.3477
 8647SOL    HW237575   1.878   0.205  16.356 -0.0562  0.3263 -0.9922
 8648SOL     OW37576   1.183   1.018   4.539 -0.5386 -0.2190 -0.1650
 8648SOL    HW137577   1.183   1.095   4.597 -0.0776 -0.3382 -0.0036
 8648SOL    HW237578   1.091   0.994   4.536 -0.4223 -0.8101  1.0511
 8649SOL     OW37579   3.207   4.480   6.264 -0.0760  0.0337  0.0330
 8649SOL    HW137580   3.257   4.554   6.298 -0.8269 -0.0055  1.2115
 8649SOL    HW237581   3.124   4.524   6.244 -0.0711 -0.3552 -0.8585
 8650SOL     OW37582   0.870   1.112  12.715  0.4941  0.1582  0.4176
 8650SOL    HW137583   0.889   1.109  12.621  1.4856 -0.2942  0.6301
 8650SOL    HW237584   0.953   1.154  12.737  0.8698  0.6711 -1.9962
 8651SOL     OW37585   1.894   1.517   9.015 -0.2803  0.2663  0.6138
 8651SOL    HW137586   1.916   1.454   8.947 -2.7456  0.2203 -0.1184
 8651SOL    HW237587   1.879   1.594   8.960 -0.6439  0.1560  0.5622
 8652SOL     OW37588   3.626   4.698  14.942 -0.5036  0.2079  0.2460
 8652SOL    HW137589   3.608   4.732  15.029 -2.5834 -0.3730  0.0398
 8652SOL    HW237590   3.538   4.714  14.907 -1.3927 -0.0722  2.3473
 8653SOL     OW37591   1.162   4.252   5.413  0.0943  0.0026 -0.0559
 8653SOL    HW137592   1.141   4.316   5.482 -1.8063 -1.2632  0.5374
 8653SOL    HW237593   1.100   4.272   5.343  1.2296  2.4114 -0.3934
 8654SOL     OW37594   0.823   4.116   8.703 -0.6220  0.6621 -0.1916
 8654SOL    HW137595   0.769   4.195   8.693 -0.8775  0.3818 -0.9795
 8654SOL    HW237596   0.760   4.055   8.666 -1.0706  0.6443  0.5944
 8655SOL     OW37597   4.173   4.159  14.115 -0.4701  0.2402  0.1365
 8655SOL    HW137598   4.081   4.176  14.092 -1.1407 -0.8904  2.0151
 8655SOL    HW237599   4.203   4.249  14.130  1.4848 -0.6542  1.5485
 8656SOL     OW37600   2.833   1.978   7.772 -0.4006 -0.2514  0.1349
 8656SOL    HW137601   2.768   2.048   7.784  0.7133  0.9968 -1.0930
 8656SOL    HW237602   2.840   1.957   7.865 -0.4666 -1.8349 -0.2182
 8657SOL     OW37603   1.992   1.697   1.829  0.2598  0.1120  0.0545
 8657SOL    HW137604   1.901   1.718   1.808  0.6315  1.6387 -0.0615
 8657SOL    HW237605   1.999   1.731   1.918 -0.1039  2.3057 -0.7492
 8658SOL     OW37606   2.718   3.560   5.033 -0.2471 -0.0786  0.1507
 8658SOL    HW137607   2.705   3.633   4.973 -0.4658  0.2995  0.6628
 8658SOL    HW237608   2.796   3.514   5.002 -0.0229 -0.6163  1.5387
 8659SOL     OW37609   4.559   4.715   2.768  0.1943 -0.1851 -0.1532
 8659SOL    HW137610   4.494   4.705   2.698  2.1365  0.3228 -2.0311
 8659SOL    HW237611   4.638   4.695   2.718  0.1613  1.1474 -0.7353
 8660SOL     OW37612   2.332   3.780  17.417  0.6886  0.2443  0.7699
 8660SOL    HW137613   2.366   3.801  17.504 -0.0895  2.1813  0.6073
 8660SOL    HW237614   2.293   3.862  17.387 -1.5442 -0.8616  0.7133
 8661SOL     OW37615   2.387   3.426   2.359  0.4003  0.4688 -0.7262
 8661SOL    HW137616   2.433   3.413   2.276  0.4778  0.7623 -0.7300
 8661SOL    HW237617   2.315   3.486   2.340  0.3127  0.4412 -0.4875
 8662SOL     OW37618   1.743   3.002   4.042 -0.4298  0.4482 -0.4909
 8662SOL    HW137619   1.768   2.911   4.025  1.8956  1.4454 -2.3690
 8662SOL    HW237620   1.674   3.002   4.108 -1.4391 -0.3135 -1.5405
 8663SOL     OW37621   0.367   0.103   1.546 -0.4128 -0.1016 -0.6821
 8663SOL    HW137622   0.406   0.152   1.474 -0.5774  1.9337  0.6247
 8663SOL    HW237623   0.322   0.036   1.494 -2.5671 -0.2767  1.4446
 8664SOL     OW37624   1.749   0.848   0.169  0.3370 -0.6281 -0.3190
 8664SOL    HW137625   1.823   0.907   0.185 -1.3187  1.4301 -0.2595
 8664SOL    HW237626   1.668   0.892   0.196  1.7222  2.2079 -0.8620
 8665SOL     OW37627   2.868   3.487  16.524  0.3971 -0.3220 -0.3204
 8665SOL    HW137628   2.901   3.516  16.439 -0.7272 -2.1882 -1.4003
 8665SOL    HW237629   2.938   3.429  16.554  0.5366  0.8248  1.5883
 8666SOL     OW37630   0.532   4.036   1.690  1.4465  0.3657  0.2601
 8666SOL    HW137631   0.552   4.093   1.616  2.5400  2.1227  1.8654
 8666SOL    HW237632   0.617   4.052   1.733  1.8786  0.4070 -0.6129
 8667SOL     OW37633   1.012   0.889   5.995  0.0658 -0.6335  0.4698
 8667SOL    HW137634   1.003   0.941   5.916 -0.8609 -0.1904  0.8650
 8667SOL    HW237635   1.049   0.806   5.965  2.5923  0.5393  0.3204
 8668SOL     OW37636   2.018   1.032   6.877  0.3304  0.1575 -0.6433
 8668SOL    HW137637   2.065   0.950   6.888 -1.2700 -0.7480 -0.4976
 8668SOL    HW237638   1.952   1.021   6.946  0.4597  0.3433 -0.4885
 8669SOL     OW37639   0.136   2.097  12.449  0.2661  0.1340  1.1812
 8669SOL    HW137640   0.208   2.043  12.480  0.7687  0.8447  1.2643
 8669SOL    HW237641   0.157   2.116  12.358 -0.6245 -2.9894  0.3465
 8670SOL     OW37642   2.538   2.662   3.313 -1.0470  0.3417 -0.4006
 8670SOL    HW137643   2.455   2.705   3.293 -1.5877 -0.2353  0.6490
 8670SOL    HW237644   2.592   2.732   3.349 -0.4219 -0.4198  0.1164
 8671SOL     OW37645   4.118   2.729   5.896  0.3972 -0.2838 -0.2398
 8671SOL    HW137646   4.099   2.821   5.917 -3.6057 -0.9369 -1.0564
 8671SOL    HW237647   4.212   2.717   5.883  0.6960  1.7317  0.0536
 8672SOL     OW37648   2.968   4.731   5.356  0.1970 -0.6308  0.2291
 8672SOL    HW137649   2.929   0.081   5.378 -0.9894 -1.4885  1.3799
 8672SOL    HW237650   2.973   4.689   5.442 -0.7162 -2.5016 -0.6401
 8673SOL     OW37651   4.018   2.754   8.162 -0.1893  0.0539  0.7185
 8673SOL    HW137652   3.948   2.779   8.101 -1.1989 -2.7120  0.7302
 8673SOL    HW237653   3.980   2.671   8.191  0.0031 -0.0829  0.5743
 8674SOL     OW37654   3.637   2.335  16.059 -0.5714 -0.0838 -0.1209
 8674SOL    HW137655   3.717   2.283  16.073 -1.6953 -0.8681  3.2666
 8674SOL    HW237656   3.663   2.378  15.977  0.7796 -1.5119 -0.4475
 8675SOL     OW37657   1.604   2.264  11.194  0.1285 -0.3061  0.2374
 8675SOL    HW137658   1.632   2.304  11.276 -2.4324 -1.8606  1.8588
 8675SOL    HW237659   1.622   2.338  11.135 -0.5928  0.4662  0.9776
 8676SOL     OW37660   4.065   0.473   6.552 -0.0993  0.0260 -0.0421
 8676SOL    HW137661   4.104   0.408   6.495 -0.4513 -0.9698  0.8455
 8676SOL    HW237662   3.974   0.454   6.529  0.1581 -0.3174 -0.7683
 8677SOL     OW37663   1.896   1.316   2.146 -0.7581 -0.0095  0.1900
 8677SOL    HW137664   1.925   1.370   2.073  0.2323 -3.3869 -1.8876
 8677SOL    HW237665   1.938   1.238   2.110  1.6833  0.4620  2.0037
 8678SOL     OW37666   1.261   1.025   2.430 -0.0590 -0.1039  0.1444
 8678SOL    HW137667   1.271   1.057   2.340  1.7555 -2.6585 -0.5678
 8678SOL    HW237668   1.354   1.021   2.455  0.3302  0.1386 -1.2344
 8679SOL     OW37669   1.782   3.785   0.851 -0.5015  0.5990  0.2973
 8679SOL    HW137670   1.813   3.869   0.885 -2.0976  1.8150 -1.2686
 8679SOL    HW237671   1.772   3.809   0.759  1.0307 -3.0477 -0.8329
 8680SOL     OW37672   3.522   2.533   1.662  0.9376 -0.2574  0.2163
 8680SOL    HW137673   3.475   2.532   1.579 -0.5475  1.1148  1.0175
 8680SOL    HW237674   3.606   2.579   1.654  0.3047  0.7493 -0.5000
 8681SOL     OW37675   1.968   0.273  10.932 -0.2804  0.3153 -0.3114
 8681SOL    HW137676   2.000   0.363  10.923  0.6091 -0.0011 -0.3863
 8681SOL    HW237677   2.035   0.228  10.880 -0.2189 -0.7414  0.6862
 8682SOL     OW37678   2.305   1.340  12.207 -1.0846  0.3949  0.4037
 8682SOL    HW137679   2.233   1.399  12.232 -0.8011  0.9187 -0.0402
 8682SOL    HW237680   2.283   1.270  12.268 -0.5967 -0.2312 -0.1545
 8683SOL     OW37681   0.670   1.615  10.627  0.0304  0.8791  0.3558
 8683SOL    HW137682   0.578   1.623  10.653  0.3194  0.7885  1.4074
 8683SOL    HW237683   0.660   1.562  10.548  1.4272 -0.0552  0.8135
 8684SOL     OW37684   1.257   1.986   2.003 -0.1103 -0.7620  0.6739
 8684SOL    HW137685   1.169   1.995   1.966  0.4072 -1.4774 -0.7359
 8684SOL    HW237686   1.246   2.035   2.084  1.3422  1.9793 -0.7920
 8685SOL     OW37687   1.054   3.062   0.449 -0.6510 -0.3125 -0.4226
 8685SOL    HW137688   1.116   3.130   0.422 -0.2289  0.1840  1.7530
 8685SOL    HW237689   1.083   2.996   0.386  0.8494 -1.0691  1.0490
 8686SOL     OW37690   0.911   2.327   3.544 -0.1671  0.5068 -0.7727
 8686SOL    HW137691   0.984   2.332   3.607  0.2470  0.9136 -1.2897
 8686SOL    HW237692   0.831   2.319   3.595  1.6111 -3.3397  1.4190
 8687SOL     OW37693   1.487   1.912   4.211  0.2961  0.1395  0.7734
 8687SOL    HW137694   1.576   1.890   4.237  0.6616  1.0667  0.3254
 8687SOL    HW237695   1.459   1.834   4.164  0.0230  0.8467 -0.2577
 8688SOL     OW37696   0.329   4.218   2.223  0.2002 -0.5809 -0.0840
 8688SOL    HW137697   0.317   4.253   2.311  2.1170  1.8080 -0.7640
 8688SOL    HW237698   0.241   4.188   2.198  0.0200 -0.6116  0.5856
 8689SOL     OW37699   4.691   2.924   2.569 -0.2858  0.5820 -0.1414
 8689SOL    HW137700   0.044   2.886   2.576 -1.1567 -0.9209  2.5023
 8689SOL    HW237701   4.675   2.950   2.659 -0.9872 -1.7329  0.3899
 8690SOL     OW37702   4.150   0.399   3.165 -0.5260  0.1201  0.7002
 8690SOL    HW137703   4.207   0.466   3.201  1.2483 -0.1019 -1.7334
 8690SOL    HW237704   4.211   0.325   3.174 -0.0885 -0.0820 -3.7918
 8691SOL     OW37705   3.958   0.046   7.897  0.2388  0.0644 -0.6201
 8691SOL    HW137706   3.922   0.055   7.808 -0.0524  2.0931 -0.2954
 8691SOL    HW237707   4.049   0.072   7.882  1.2480 -1.7719  2.4169
 8692SOL     OW37708   4.274   3.734  11.596 -0.6998  0.4580  0.3952
 8692SOL    HW137709   4.183   3.763  11.595 -1.0273 -0.5775  0.5347
 8692SOL    HW237710   4.278   3.658  11.654  1.6847 -0.1618 -0.5927
 8693SOL     OW37711   4.088   3.915   5.705  0.2934 -0.1247  0.4040
 8693SOL    HW137712   4.117   3.951   5.621 -0.5873  2.1339  1.0901
 8693SOL    HW237713   4.073   3.991   5.761  1.6702  0.9574 -0.6949
 8694SOL     OW37714   0.817   0.671   9.350  0.3487  0.2049  0.1497
 8694SOL    HW137715   0.870   0.660   9.271  0.4055  1.2118  0.0518
 8694SOL    HW237716   0.890   0.686   9.411 -1.0982  1.8811  1.4584
 8695SOL     OW37717   2.662   1.163   7.262 -0.0810 -0.1050  0.6770
 8695SOL    HW137718   2.645   1.095   7.328 -0.6277 -0.5960  0.0404
 8695SOL    HW237719   2.746   1.192   7.296 -0.6004  0.4558  1.4758
 8696SOL     OW37720   4.499   1.083   4.426 -0.7297 -0.2485 -0.3448
 8696SOL    HW137721   4.407   1.059   4.417 -1.0609  1.4404 -1.4402
 8696SOL    HW237722   4.492   1.179   4.424  0.7108 -0.1395 -0.4654
 8697SOL     OW37723   0.150   3.275  10.661 -0.3015 -0.3064 -0.3767
 8697SOL    HW137724   0.077   3.278  10.723  0.3046 -0.5223  0.3462
 8697SOL    HW237725   0.212   3.217  10.705  0.5102  0.9133  0.0852
 8698SOL     OW37726   0.109   2.923   9.254 -0.0240  0.8000  0.4593
 8698SOL    HW137727   0.176   2.963   9.198 -0.8936  1.7516  0.0914
 8698SOL    HW237728   0.137   2.948   9.342 -1.8413 -2.6815  2.0071
 8699SOL     OW37729   0.627   4.332   7.475 -0.2579 -0.0953  0.4990
 8699SOL    HW137730   0.607   4.281   7.554 -1.9152  1.3138  0.9833
 8699SOL    HW237731   0.594   4.414   7.512 -1.8074 -0.4276 -0.1558
 8700SOL     OW37732   4.693   2.848   8.207  0.1236 -0.3481 -0.3955
 8700SOL    HW137733   4.633   2.835   8.133 -1.3837  3.1105  0.2644
 8700SOL    HW237734   0.000   2.927   8.173 -1.3047  0.6613  0.1947
 8701SOL     OW37735   3.808   0.501   5.179 -0.0891 -0.4347 -0.5160
 8701SOL    HW137736   3.833   0.440   5.110 -0.4954 -0.6507 -0.4688
 8701SOL    HW237737   3.751   0.449   5.236  2.4785 -0.7594  1.7768
 8702SOL     OW37738   3.167   0.546   9.407  0.1085  0.0593  0.3147
 8702SOL    HW137739   3.190   0.618   9.348 -0.3428  0.9706  1.2481
 8702SOL    HW237740   3.257   0.520   9.427  0.0712 -0.2982  0.0118
 8703SOL     OW37741   3.952   3.901   6.072  0.2389 -0.4116 -0.2555
 8703SOL    HW137742   3.928   3.817   6.033  3.0116 -1.5380  0.4460
 8703SOL    HW237743   3.924   3.872   6.158  0.2393  1.9497  0.5532
 8704SOL     OW37744   2.433   3.884   6.714  0.1063  0.0282 -0.0418
 8704SOL    HW137745   2.402   3.835   6.638 -0.3159  1.6219 -0.9034
 8704SOL    HW237746   2.461   3.967   6.675 -1.5287  0.4358 -0.3610
 8705SOL     OW37747   2.133   0.607   9.221 -0.7001  0.2098  0.3889
 8705SOL    HW137748   2.069   0.678   9.221 -2.1702 -1.1032 -1.6292
 8705SOL    HW237749   2.197   0.634   9.287 -0.4823 -0.2299  0.3568
 8706SOL     OW37750   0.284   3.917   7.926 -0.0972 -0.7296  0.4151
 8706SOL    HW137751   0.282   3.867   8.008  1.7387  1.8564  2.0124
 8706SOL    HW237752   0.217   3.873   7.874  1.1583  0.2722 -2.0899
 8707SOL     OW37753   0.474   0.261   4.310  0.2265  0.3944  0.4189
 8707SOL    HW137754   0.507   0.344   4.344 -0.2120  0.5019  0.5722
 8707SOL    HW237755   0.446   0.215   4.389  1.7599 -3.7498 -1.4326
 8708SOL     OW37756   3.625   3.851  16.101  0.0229 -0.2978  0.8292
 8708SOL    HW137757   3.709   3.889  16.130  0.0042 -1.1605  2.0236
 8708SOL    HW237758   3.636   3.757  16.112  2.6951  0.1016  1.6424
 8709SOL     OW37759   2.635   2.167   7.809 -0.3596 -0.5725 -0.4915
 8709SOL    HW137760   2.539   2.170   7.814 -0.3203 -1.7564  0.9962
 8709SOL    HW237761   2.654   2.196   7.898 -2.1521 -1.4643  0.2010
 8710SOL     OW37762   1.515   4.549   3.420 -0.3301 -0.3104  0.3354
 8710SOL    HW137763   1.450   4.587   3.361  1.1498  1.0354 -0.4266
 8710SOL    HW237764   1.548   4.630   3.460 -1.0249  0.0657  0.1305
 8711SOL     OW37765   1.410   0.745   0.700 -0.2399  0.0564  0.5490
 8711SOL    HW137766   1.326   0.713   0.734 -1.6216  0.8967 -2.0915
 8711SOL    HW237767   1.479   0.715   0.760 -3.7311 -3.4729  2.8192
 8712SOL     OW37768   4.597   3.943   3.026  0.0383  0.1795 -0.4105
 8712SOL    HW137769   4.578   3.955   2.932 -0.2166 -0.9797 -0.5012
 8712SOL    HW237770   4.543   4.015   3.060 -2.6525 -2.6115  1.2649
 8713SOL     OW37771   4.270   1.349   1.667  0.0979  0.2065 -0.2686
 8713SOL    HW137772   4.328   1.412   1.624  1.7669 -1.8048 -0.9630
 8713SOL    HW237773   4.333   1.284   1.696 -0.8144  0.0730  1.4174
 8714SOL     OW37774   3.223   1.945   8.102  0.2842 -0.3411 -0.0267
 8714SOL    HW137775   3.234   1.851   8.119 -0.8661 -0.2491  1.2205
 8714SOL    HW237776   3.301   1.972   8.054  0.0335  1.8677  0.8385
 8715SOL     OW37777   1.628   3.010   4.507 -0.7809 -0.0278  0.2821
 8715SOL    HW137778   1.626   3.072   4.580  0.4809  0.0105  0.2732
 8715SOL    HW237779   1.590   2.937   4.555 -0.3189  0.3982  1.3017
 8716SOL     OW37780   2.669   4.657  10.982 -0.3192 -0.5169  0.4666
 8716SOL    HW137781   2.716   4.692  11.057 -1.5485  0.9095  0.5764
 8716SOL    HW237782   2.739   4.594  10.961  3.0463  2.9632  1.3401
 8717SOL     OW37783   1.996   3.705   8.517 -0.2647  0.2306 -0.4487
 8717SOL    HW137784   2.014   3.797   8.533 -2.0277  0.6305 -0.7980
 8717SOL    HW237785   1.950   3.673   8.595 -1.6522  1.1608 -0.8886
 8718SOL     OW37786   3.153   4.439   5.794  0.2166  0.1176 -0.5845
 8718SOL    HW137787   3.134   4.370   5.858 -2.1459  2.2134  0.9677
 8718SOL    HW237788   3.236   4.479   5.821  0.1042 -1.1278  1.6152
 8719SOL     OW37789   3.570   0.625   5.388 -0.2014  0.0236  0.0309
 8719SOL    HW137790   3.621   0.578   5.453 -1.5513 -1.7640 -0.2093
 8719SOL    HW237791   3.534   0.560   5.328  0.6666  1.2708 -1.8413
 8720SOL     OW37792   1.443   0.424   5.162  0.2049  0.1368  0.0742
 8720SOL    HW137793   1.513   0.361   5.144  2.0312  1.9064  0.9461
 8720SOL    HW237794   1.432   0.462   5.075  0.2074 -1.9904 -0.8644
 8721SOL     OW37795   1.953   0.218   9.644  0.1426 -0.3559 -0.0458
 8721SOL    HW137796   1.951   0.287   9.710  1.6113  0.0938 -0.4607
 8721SOL    HW237797   2.016   0.156   9.680  0.3709  0.0152  0.2009
 8722SOL     OW37798   1.254   1.992  17.258 -0.3248  0.0228  0.1860
 8722SOL    HW137799   1.215   1.911  17.291  0.5918 -0.1407  0.8628
 8722SOL    HW237800   1.187   2.013  17.193  0.2385  0.0550 -0.3850
 8723SOL     OW37801   4.391   3.049   4.750 -0.3580 -0.0343  0.4690
 8723SOL    HW137802   4.369   3.141   4.733 -1.5784 -0.2694  0.7568
 8723SOL    HW237803   4.328   3.011   4.689 -0.8789  0.8181  0.4590
 8724SOL     OW37804   1.961   4.405   4.710  0.1332 -0.1666 -0.2942
 8724SOL    HW137805   2.015   4.380   4.785 -0.4623  0.0859  0.2082
 8724SOL    HW237806   2.025   4.460   4.665  0.7625  0.7325  1.7186
 8725SOL     OW37807   2.967   0.244   9.002  0.4789  0.1993 -0.5536
 8725SOL    HW137808   2.915   0.175   8.961  1.5190 -1.6842  1.2843
 8725SOL    HW237809   2.938   0.315   8.945  2.3119  0.6761 -0.8999
 8726SOL     OW37810   0.511   2.470   0.440 -0.1903  0.5860  0.1237
 8726SOL    HW137811   0.542   2.555   0.408 -2.0921  0.8441 -1.0286
 8726SOL    HW237812   0.474   2.504   0.522 -1.3180  0.7945 -0.4775
 8727SOL     OW37813   3.587   0.361   5.295 -0.2136 -0.0315 -0.2029
 8727SOL    HW137814   3.498   0.327   5.300 -2.0236  4.7607 -0.6449
 8727SOL    HW237815   3.617   0.321   5.377  0.9769  0.5684 -0.3493
 8728SOL     OW37816   3.790   0.924  12.360  0.4572 -0.6461 -0.3985
 8728SOL    HW137817   3.871   0.887  12.327  1.0635  1.0083 -0.8030
 8728SOL    HW237818   3.796   1.010  12.318 -1.8938 -1.1350 -1.7300
 8729SOL     OW37819   3.722   0.344  14.927  0.6707 -0.0268  0.2424
 8729SOL    HW137820   3.717   0.342  15.023  1.1639 -0.6461  0.2500
 8729SOL    HW237821   3.807   0.307  14.904  0.8698  0.9032 -0.5272
 8730SOL     OW37822   1.197   2.238   2.164  0.1418 -1.0185 -0.5420
 8730SOL    HW137823   1.209   2.232   2.259  1.1589 -1.3804 -0.6914
 8730SOL    HW237824   1.287   2.263   2.145 -0.3366  0.7288 -0.4446
 8731SOL     OW37825   3.928   2.229  12.416 -0.0455  0.0381  0.0742
 8731SOL    HW137826   4.011   2.194  12.447  0.8348  2.2731  0.2048
 8731SOL    HW237827   3.869   2.219  12.491  0.0808 -0.6161  0.0796
 8732SOL     OW37828   2.423   0.558   7.726  0.1312 -0.4952 -0.0433
 8732SOL    HW137829   2.378   0.638   7.756 -1.1181 -1.0276 -0.4881
 8732SOL    HW237830   2.457   0.529   7.811 -1.0984  0.0194  0.6354
 8733SOL     OW37831   1.030   1.772   0.690 -0.3672  0.6814  0.2863
 8733SOL    HW137832   1.062   1.797   0.777  1.5098 -0.1487 -0.1672
 8733SOL    HW237833   1.072   1.843   0.641  1.1804 -0.1291  0.4254
 8734SOL     OW37834   3.396   2.993   8.126 -0.5507  0.0265 -0.2622
 8734SOL    HW137835   3.460   3.023   8.062 -1.7138 -0.7791 -1.7936
 8734SOL    HW237836   3.347   3.070   8.156  0.3052 -0.0892  1.4412
 8735SOL     OW37837   4.562   4.226   7.237 -0.5689  0.1208  0.2823
 8735SOL    HW137838   4.603   4.162   7.179 -4.7561 -0.3711 -2.0982
 8735SOL    HW237839   4.489   4.262   7.186  1.3761  1.2774 -1.6497
 8736SOL     OW37840   0.087   2.475   4.668 -0.1555  0.2832  0.1283
 8736SOL    HW137841   0.106   2.382   4.680 -2.5312 -0.3081 -0.5966
 8736SOL    HW237842   4.730   2.458   4.647 -0.3999  0.0605  1.4102
 8737SOL     OW37843   2.225   2.562   7.172 -0.3233 -0.3759  0.0818
 8737SOL    HW137844   2.242   2.469   7.186 -1.3856 -0.3436  1.5663
 8737SOL    HW237845   2.157   2.584   7.236  0.0894  0.0513  0.3728
 8738SOL     OW37846   0.156   2.871  12.337 -0.0818  0.1545 -0.0310
 8738SOL    HW137847   0.205   2.876  12.419  1.4023 -2.9309 -0.7254
 8738SOL    HW237848   0.215   2.923  12.283 -0.3899  0.6515  0.1096
 8739SOL     OW37849   0.581   0.255   0.519 -0.3693  0.4345 -0.4323
 8739SOL    HW137850   0.559   0.313   0.446  0.2305 -0.1605 -1.0853
 8739SOL    HW237851   0.673   0.240   0.498 -0.4399 -0.6841  0.0531
 8740SOL     OW37852   2.583   2.567   5.380  0.7698 -0.2130  0.1791
 8740SOL    HW137853   2.674   2.554   5.407  1.1245  0.9793 -0.4411
 8740SOL    HW237854   2.541   2.609   5.455 -0.7832  1.0355 -1.3989
 8741SOL     OW37855   1.334   0.740   5.761  0.6032  0.1168  0.6791
 8741SOL    HW137856   1.385   0.705   5.688  0.5382 -2.3398  1.8196
 8741SOL    HW237857   1.245   0.731   5.728  0.5997 -0.6985  0.9046
 8742SOL     OW37858   2.264   4.467   9.074  0.6772 -0.1730 -0.9803
 8742SOL    HW137859   2.171   4.479   9.052  0.4268  0.1517  0.2178
 8742SOL    HW237860   2.292   4.533   9.010 -1.7842  0.4000 -1.4992
 8743SOL     OW37861   0.595   1.886   4.615  0.7283  0.0686  0.4998
 8743SOL    HW137862   0.550   1.966   4.640 -0.2402  0.0116 -1.0466
 8743SOL    HW237863   0.685   1.919   4.612  0.9341 -0.6118 -1.0113
 8744SOL     OW37864   2.239   3.054  16.707  0.3980  0.2755  0.7856
 8744SOL    HW137865   2.311   3.111  16.680 -0.8647  2.1671  1.4048
 8744SOL    HW237866   2.254   2.989  16.638 -1.3322 -0.7790  1.4083
 8745SOL     OW37867   1.176   1.488   2.097 -0.2174 -0.2781 -0.2193
 8745SOL    HW137868   1.242   1.433   2.055 -0.3577 -0.5023 -0.1501
 8745SOL    HW237869   1.169   1.453   2.186  1.3762 -0.2824 -0.0924
 8746SOL     OW37870   0.064   2.551   4.962 -0.3372 -0.4082  0.6676
 8746SOL    HW137871   0.090   2.461   4.982 -0.5224 -0.8129 -0.8917
 8746SOL    HW237872   0.131   2.570   4.896 -0.3772 -0.6579  0.5514
 8747SOL     OW37873   2.587   3.855  15.379  0.4877 -0.5311 -0.3264
 8747SOL    HW137874   2.677   3.886  15.364  0.1015  1.2085  0.8644
 8747SOL    HW237875   2.598   3.774  15.428 -0.4423 -2.0308 -2.6174
 8748SOL     OW37876   3.328   2.331   3.909  0.0706 -0.4612 -0.3346
 8748SOL    HW137877   3.411   2.360   3.871  0.4171 -0.1406  0.6617
 8748SOL    HW237878   3.292   2.285   3.833 -1.7668  0.8849 -0.2797
 8749SOL     OW37879   0.470   1.107   4.975 -0.2273  0.2889 -0.1595
 8749SOL    HW137880   0.487   1.084   5.067 -2.2254 -0.9526 -0.0954
 8749SOL    HW237881   0.422   1.186   5.000 -2.1277 -1.3684  1.4627
 8750SOL     OW37882   2.323   3.323  11.180  0.0529  0.4308  0.7547
 8750SOL    HW137883   2.327   3.228  11.179 -0.1803  0.4511 -2.0780
 8750SOL    HW237884   2.375   3.337  11.101 -0.4242  0.4839  0.4483
 8751SOL     OW37885   1.367   3.589   7.365  0.5020  0.2634 -0.0114
 8751SOL    HW137886   1.338   3.611   7.453 -3.9712 -1.1477 -1.0896
 8751SOL    HW237887   1.382   3.674   7.324 -1.1370  0.4702 -0.1982
 8752SOL     OW37888   4.196   3.570  12.043  0.0063 -0.3387  0.0376
 8752SOL    HW137889   4.204   3.666  12.046 -0.1063 -0.3895  1.9467
 8752SOL    HW237890   4.213   3.557  12.136  0.0844 -0.5159 -0.0017
 8753SOL     OW37891   2.231   2.500   4.850 -0.0233  0.6705 -0.2704
 8753SOL    HW137892   2.242   2.575   4.909 -1.7856  1.0445 -0.3888
 8753SOL    HW237893   2.212   2.543   4.766  1.7067 -0.1921 -1.0862
 8754SOL     OW37894   4.648   1.002   2.902  0.1892 -0.0815 -0.9568
 8754SOL    HW137895   4.599   0.933   2.946  3.5456 -1.1095  1.1754
 8754SOL    HW237896   4.718   0.960   2.853  2.4808  2.0615  0.4380
 8755SOL     OW37897   3.268   3.014   5.959  0.0200 -0.6534  0.6550
 8755SOL    HW137898   3.293   3.106   5.947 -0.0346 -0.9574 -1.9456
 8755SOL    HW237899   3.207   3.030   6.030  0.2232  5.2279 -0.4474
 8756SOL     OW37900   1.235   0.353   7.079  0.0639 -0.3077  0.4658
 8756SOL    HW137901   1.228   0.448   7.086 -0.6670  0.0604 -5.0201
 8756SOL    HW237902   1.149   0.326   7.110 -0.3300  1.2449  0.7478
 8757SOL     OW37903   3.173   0.251  14.433  0.0992  0.0528 -0.0922
 8757SOL    HW137904   3.256   0.283  14.467  0.4484  0.7322 -1.5857
 8757SOL    HW237905   3.181   0.264  14.338 -0.8448  1.6281  0.0452
 8758SOL     OW37906   0.921   2.917   6.748 -0.3416 -0.5205  0.7408
 8758SOL    HW137907   0.906   3.002   6.791  0.5373 -1.3702  2.7435
 8758SOL    HW237908   1.008   2.929   6.711  0.7744  0.1193  3.5523
 8759SOL     OW37909   1.717   3.064   9.307  0.4808  0.1540 -0.2667
 8759SOL    HW137910   1.638   3.011   9.303  0.5782  0.0341 -0.6468
 8759SOL    HW237911   1.702   3.103   9.393 -0.8539 -1.1955  0.1060
 8760SOL     OW37912   4.163   0.788   8.878 -0.2594  0.0345 -0.2523
 8760SOL    HW137913   4.152   0.878   8.848  1.6961 -0.2615 -1.8812
 8760SOL    HW237914   4.185   0.793   8.971  0.6581  0.7733 -0.5006
 8761SOL     OW37915   2.200   1.586  14.062  0.1463  0.4095  0.4723
 8761SOL    HW137916   2.282   1.547  14.094  0.2949  0.7179  0.4692
 8761SOL    HW237917   2.232   1.620  13.979 -0.7147 -1.0384 -0.4448
 8762SOL     OW37918   1.670   0.724   8.677 -0.2149  0.0702 -0.1102
 8762SOL    HW137919   1.673   0.688   8.765  0.1082  2.1431  0.7226
 8762SOL    HW237920   1.745   0.782   8.688  0.7864 -1.3418  0.5891
 8763SOL     OW37921   2.612   2.968   6.325  0.0011  0.1398 -0.3046
 8763SOL    HW137922   2.540   3.009   6.372  0.5064  0.9105 -0.1893
 8763SOL    HW237923   2.558   2.901   6.282 -0.4027  0.6848 -0.6521
 8764SOL     OW37924   2.193   0.754   9.590  1.2545 -0.2799 -0.1952
 8764SOL    HW137925   2.256   0.737   9.659  1.9424  1.3027 -0.4215
 8764SOL    HW237926   2.119   0.702   9.622  0.2781  1.9284  1.1859
 8765SOL     OW37927   1.882   4.659  10.437  0.2544 -0.4976 -0.0304
 8765SOL    HW137928   1.813   4.602  10.470  1.1564 -0.8957  1.1830
 8765SOL    HW237929   1.864   4.733  10.495  2.9297  1.9048 -2.1839
 8766SOL     OW37930   0.380   2.484   3.232  1.0388  0.0387  0.4152
 8766SOL    HW137931   0.413   2.401   3.198  0.9671 -0.1092  0.7075
 8766SOL    HW237932   0.290   2.457   3.247  1.4794 -1.7424 -0.1309
 8767SOL     OW37933   3.862   0.585   2.452  0.0953 -0.1125  0.0053
 8767SOL    HW137934   3.811   0.591   2.371 -0.0912  0.1449  0.1450
 8767SOL    HW237935   3.930   0.526   2.418 -2.0678 -1.6114 -1.8061
 8768SOL     OW37936   2.140   0.013   9.715  0.1973 -0.4002 -0.3119
 8768SOL    HW137937   2.196   4.696   9.772 -0.4171 -3.6685 -2.7131
 8768SOL    HW237938   2.193   0.092   9.706  0.1096 -0.5082 -1.7408
 8769SOL     OW37939   4.377   2.564   3.901  0.2804 -0.1709  0.2157
 8769SOL    HW137940   4.312   2.613   3.850  1.6297  1.5248  0.1130
 8769SOL    HW237941   4.347   2.574   3.991  1.3549  1.2082  0.4301
 8770SOL     OW37942   4.179   4.591   7.151  0.7085  0.0826 -0.1779
 8770SOL    HW137943   4.161   4.671   7.200  0.1101 -0.9139  1.2405
 8770SOL    HW237944   4.165   4.525   7.219 -0.8658  0.7516  0.1391
 8771SOL     OW37945   2.644   2.460   3.133 -0.0523 -0.4331  0.7928
 8771SOL    HW137946   2.648   2.529   3.066  1.2351 -0.0707  1.2489
 8771SOL    HW237947   2.615   2.521   3.201 -1.1714 -1.0395  0.8543
 8772SOL     OW37948   4.659   3.577   5.549 -0.4413 -0.3025  0.0120
 8772SOL    HW137949   4.616   3.582   5.464  0.2357 -1.5159 -0.3928
 8772SOL    HW237950   4.711   3.657   5.552 -1.9294  0.6326  0.6526
 8773SOL     OW37951   4.555   0.868   4.613  0.1538  0.1225  0.1734
 8773SOL    HW137952   4.603   0.794   4.577 -2.4769 -1.3927 -0.1934
 8773SOL    HW237953   4.571   0.925   4.537  0.8324 -0.2804  0.0142
 8774SOL     OW37954   3.232   1.112  15.233 -0.1163 -0.7740  0.2035
 8774SOL    HW137955   3.172   1.186  15.242 -2.3047 -2.2570 -2.1702
 8774SOL    HW237956   3.254   1.113  15.140  0.8304  3.1020  0.4626
 8775SOL     OW37957   2.928   4.150   9.091 -0.0058  0.2349 -0.7142
 8775SOL    HW137958   2.920   4.068   9.140  0.9251  2.2443  2.7584
 8775SOL    HW237959   2.983   4.121   9.019 -0.2394 -2.0395  0.0200
 8776SOL     OW37960   1.845   0.790   3.878  0.0729 -0.0835 -0.3968
 8776SOL    HW137961   1.760   0.803   3.836 -0.2811 -0.7237  0.1117
 8776SOL    HW237962   1.884   0.877   3.872  0.7580 -0.4499 -1.2325
 8777SOL     OW37963   1.628   3.768   8.645 -0.7275  0.0511 -0.3586
 8777SOL    HW137964   1.567   3.758   8.719 -0.5123  0.8211 -0.0772
 8777SOL    HW237965   1.666   3.680   8.641 -3.7297 -1.2615 -0.5778
 8778SOL     OW37966   2.453   3.976   7.345  0.3172  0.0343  0.4490
 8778SOL    HW137967   2.389   4.017   7.287  0.6454 -2.0950 -1.4472
 8778SOL    HW237968   2.418   3.887   7.348 -2.0234  0.8415 -3.0799
 8779SOL     OW37969   4.125   4.329   1.427 -0.0453  0.5301 -0.4979
 8779SOL    HW137970   4.143   4.313   1.334  2.5409  0.7699 -0.0565
 8779SOL    HW237971   4.098   4.420   1.430  1.9832  1.1899 -1.7306
 8780SOL     OW37972   0.230   0.558   4.238  0.9462  0.0690  0.3064
 8780SOL    HW137973   0.284   0.482   4.216  1.2885 -0.4211  2.8499
 8780SOL    HW237974   0.153   0.522   4.281 -0.5173  1.6314 -0.9936
 8781SOL     OW37975   0.471   2.939   5.001  0.3770  0.5409  0.4225
 8781SOL    HW137976   0.561   2.939   5.034 -0.2076 -2.0662  2.0111
 8781SOL    HW237977   0.492   2.963   4.911  1.1922 -1.1263  0.1579
 8782SOL     OW37978   0.385   2.959   4.167 -0.5738 -0.2946 -0.2775
 8782SOL    HW137979   0.416   2.874   4.136 -1.5089 -0.6608 -0.2197
 8782SOL    HW237980   0.462   2.990   4.215 -0.8870  0.9197 -0.5633
 8783SOL     OW37981   0.407   4.118   2.622  0.4603 -0.3524  0.0037
 8783SOL    HW137982   0.352   4.187   2.584 -0.8486 -0.6445  1.3889
 8783SOL    HW237983   0.482   4.169   2.654 -0.8840 -0.1380  2.8060
 8784SOL     OW37984   3.577   3.816   6.997 -0.1264 -0.5857 -0.2751
 8784SOL    HW137985   3.603   3.793   6.908 -0.1996 -0.3188 -0.3644
 8784SOL    HW237986   3.517   3.889   6.983  1.1286  0.4657 -0.1718
 8785SOL     OW37987   1.312   2.029   5.129  0.1540  0.1447  0.3229
 8785SOL    HW137988   1.367   2.026   5.051 -0.4773 -0.2164 -0.1061
 8785SOL    HW237989   1.347   1.951   5.171  2.1920  1.9832  2.0086
 8786SOL     OW37990   4.181   2.810   8.591 -0.4829  0.3243 -0.4644
 8786SOL    HW137991   4.128   2.811   8.511 -0.0691  0.9146 -0.7336
 8786SOL    HW237992   4.149   2.729   8.631 -1.7758  1.9702  1.8084
 8787SOL     OW37993   3.600   0.256   6.695 -0.0800 -0.1038 -0.0997
 8787SOL    HW137994   3.520   0.234   6.743  0.2425 -0.3108  0.3476
 8787SOL    HW237995   3.565   0.256   6.606  1.4169 -0.2033 -0.6929
 8788SOL     OW37996   3.104   2.809   5.908 -0.2851 -0.4128 -0.4749
 8788SOL    HW137997   3.171   2.769   5.853 -0.0746 -1.2060  0.3607
 8788SOL    HW237998   3.124   2.900   5.883  2.5539 -0.2262  2.3570
 8789SOL     OW37999   4.520   3.910   5.093 -0.3020 -0.5763  0.1567
 8789SOL    HW138000   4.542   3.964   5.017 -0.0396 -0.2347  0.4737
 8789SOL    HW238001   4.528   3.979   5.159 -2.0568  0.4878 -0.7594
 8790SOL     OW38002   4.470   0.926   5.653 -0.0984  0.3376  0.0859
 8790SOL    HW138003   4.451   0.935   5.559  0.1701 -1.1426 -0.1221
 8790SOL    HW238004   4.386   0.897   5.689  0.1673  0.8333  1.0843
 8791SOL     OW38005   4.237   3.009   9.785 -0.0927 -0.4224 -0.3364
 8791SOL    HW138006   4.312   3.067   9.772  1.0575 -1.5579  1.1262
 8791SOL    HW238007   4.231   2.959   9.704  0.6805  2.4408 -2.1361
 8792SOL     OW38008   3.123   2.443   9.242  0.3650  0.9751 -0.3018
 8792SOL    HW138009   3.044   2.390   9.231 -0.7734  2.6331 -0.0659
 8792SOL    HW238010   3.146   2.466   9.152  3.2674  0.1329  0.2413
 8793SOL     OW38011   2.811   2.638   0.215  0.4987  0.3300  0.1351
 8793SOL    HW138012   2.849   2.624   0.129  1.1189  1.1749  0.2713
 8793SOL    HW238013   2.836   2.728   0.235  0.2572  0.1026  1.4810
 8794SOL     OW38014   0.930   0.114   3.836  0.1195  0.3627  0.1734
 8794SOL    HW138015   0.922   0.086   3.927 -0.2931 -0.7688 -0.2142
 8794SOL    HW238016   0.977   0.034   3.815 -0.9192 -0.4982  1.1255
 8795SOL     OW38017   1.079   1.271  17.250 -0.0385 -0.6250 -0.0043
 8795SOL    HW138018   1.142   1.341  17.231  2.2256 -2.5659  0.3847
 8795SOL    HW238019   1.002   1.310  17.209  1.2428  1.3727 -0.5170
 8796SOL     OW38020   2.414   0.987   8.370  0.5393  0.1995  0.0128
 8796SOL    HW138021   2.339   1.043   8.351  2.3078  1.5701 -2.9439
 8796SOL    HW238022   2.477   1.040   8.419  0.3061 -0.9233  1.5018
 8797SOL     OW38023   2.632   3.626  17.604 -0.0932  0.4041  0.2327
 8797SOL    HW138024   2.692   3.686  17.650 -0.1343  0.9194 -0.3923
 8797SOL    HW238025   2.550   3.649  17.648 -0.7937 -0.3065 -0.7161
 8798SOL     OW38026   1.401   1.436  16.672  0.4599  1.0522  0.5228
 8798SOL    HW138027   1.414   1.367  16.737 -0.1389  0.3481 -0.0961
 8798SOL    HW238028   1.471   1.493  16.703 -1.5055  2.7476  1.8836
 8799SOL     OW38029   2.663   0.373   7.038 -0.2134  0.7958  0.1586
 8799SOL    HW138030   2.607   0.367   6.960  1.2689 -0.5542 -0.7980
 8799SOL    HW238031   2.739   0.419   7.002 -0.7220 -0.4754 -2.5060
 8800SOL     OW38032   3.328   2.621   3.951 -0.2891  0.0760  0.4108
 8800SOL    HW138033   3.414   2.606   3.992 -0.3807 -1.2766  0.0932
 8800SOL    HW238034   3.284   2.536   3.951  0.5684 -0.3651  2.2692
 8801SOL     OW38035   1.757   0.621  17.733 -0.4225  0.2127 -0.2746
 8801SOL    HW138036   1.770   0.691   0.058 -1.0335 -0.0592  0.1451
 8801SOL    HW238037   1.677   0.577   0.022 -1.1755  2.0748  0.4729
 8802SOL     OW38038   0.304   0.696  10.169 -0.1899  0.2612  0.0841
 8802SOL    HW138039   0.274   0.718  10.257 -1.1761 -1.8751  0.2756
 8802SOL    HW238040   0.294   0.774  10.115 -0.5712 -0.8266 -1.4268
 8803SOL     OW38041   3.039   1.337   6.908  0.3532  0.0394 -0.1205
 8803SOL    HW138042   2.985   1.309   6.834  1.0386  2.0668 -1.3931
 8803SOL    HW238043   3.081   1.418   6.879 -1.7551  0.9259 -0.7553
 8804SOL     OW38044   1.860   3.883   6.273  0.4447 -0.6373  0.3111
 8804SOL    HW138045   1.923   3.952   6.250  0.5511 -0.4656  1.1050
 8804SOL    HW238046   1.876   3.862   6.365 -0.6050 -0.3682  0.5505
 8805SOL     OW38047   4.496   1.752  12.660  0.3563 -0.6061 -0.2017
 8805SOL    HW138048   4.584   1.789  12.659  0.3092 -0.4479  1.0894
 8805SOL    HW238049   4.498   1.684  12.727  3.1733  0.8292  1.1719
 8806SOL     OW38050   0.260   2.445  12.131  0.2410 -0.5792 -0.0620
 8806SOL    HW138051   0.181   2.449  12.076 -0.0283 -0.2604  0.3427
 8806SOL    HW238052   0.324   2.489  12.075 -0.4408 -1.0695 -1.2500
 8807SOL     OW38053   0.258   2.277   0.035  0.6617 -0.7719  0.2013
 8807SOL    HW138054   0.262   2.226   0.116 -0.2230 -2.0852 -0.5834
 8807SOL    HW238055   0.169   2.267   0.002  0.4466 -1.4564  0.9811
 8808SOL     OW38056   4.688   3.878   6.313  0.0325 -0.3598  0.0446
 8808SOL    HW138057   4.631   3.877   6.236 -1.7791  1.5559  1.3583
 8808SOL    HW238058   4.638   3.812   6.361 -0.4253  0.0909  0.1862
 8809SOL     OW38059   2.266   0.733   7.852 -0.4582 -0.4606  0.0622
 8809SOL    HW138060   2.292   0.710   7.941  1.1567  1.4237  0.0987
 8809SOL    HW238061   2.173   0.747   7.871 -0.6880  2.9221 -3.5939
 8810SOL     OW38062   1.796   4.084   7.374 -0.3035 -0.0139  0.1432
 8810SOL    HW138063   1.719   4.131   7.344 -0.3107 -0.2056 -0.1359
 8810SOL    HW238064   1.853   4.118   7.305 -0.7029 -0.8504 -0.5928
 8811SOL     OW38065   4.243   0.111   6.940 -0.6228 -0.7885 -0.5961
 8811SOL    HW138066   4.272   0.181   6.882  1.0822  0.0473  1.2582
 8811SOL    HW238067   4.235   0.158   7.023  3.1309 -0.6264 -0.3257
 8812SOL     OW38068   2.214   0.295   9.763 -0.2573  0.2489  0.3119
 8812SOL    HW138069   2.280   0.344   9.714  1.0621 -0.1369  1.7115
 8812SOL    HW238070   2.214   0.348   9.842  2.3321  2.2445 -1.0045
 8813SOL     OW38071   1.353   1.026   2.882 -0.6407  0.1235 -0.2448
 8813SOL    HW138072   1.366   1.028   2.977  0.7407  2.7534 -0.4751
 8813SOL    HW238073   1.347   1.117   2.854 -1.1348  0.3576  0.6081
 8814SOL     OW38074   4.134   0.306   1.524 -0.2983 -0.2495 -0.4156
 8814SOL    HW138075   4.205   0.321   1.461  0.2671  1.7148  0.7167
 8814SOL    HW238076   4.164   0.227   1.569  3.0909  1.2838 -0.0390
 8815SOL     OW38077   0.904   2.393   2.474  0.4683 -0.1092 -0.4041
 8815SOL    HW138078   0.871   2.397   2.384  0.1822  0.1704 -0.2877
 8815SOL    HW238079   0.826   2.365   2.521 -0.3526  3.3108  0.2799
 8816SOL     OW38080   3.711   4.470  15.259  0.5050 -0.0734  0.1173
 8816SOL    HW138081   3.803   4.468  15.287  1.2214  1.8165 -2.1166
 8816SOL    HW238082   3.711   4.408  15.186  0.1467  0.2237 -0.1326
 8817SOL     OW38083   0.515   3.965   6.235  0.1089  0.0876  0.4736
 8817SOL    HW138084   0.526   4.046   6.284 -1.3146  1.1483 -0.9446
 8817SOL    HW238085   0.425   3.948   6.264  0.0607 -0.6339 -0.0945
 8818SOL     OW38086   2.095   4.014   4.959  0.1326 -0.4483 -0.5706
 8818SOL    HW138087   2.031   4.009   4.888 -0.3793 -1.7125 -0.0185
 8818SOL    HW238088   2.100   4.107   4.980  2.1288 -1.3401  2.8626
 8819SOL     OW38089   4.555   2.278   4.719  0.0394  0.0129 -0.5012
 8819SOL    HW138090   4.484   2.315   4.771  0.1046 -0.2583 -0.2174
 8819SOL    HW238091   4.552   2.190   4.756  0.0814  0.4993  0.6578
 8820SOL     OW38092   2.320   4.619   7.056  0.3747 -0.2128  0.4591
 8820SOL    HW138093   2.353   4.564   6.984 -1.1032  1.0904 -1.2116
 8820SOL    HW238094   2.326   4.702   7.010  4.1077 -0.9137 -0.3109
 8821SOL     OW38095   4.576   1.610   4.986 -0.1919  0.3321 -0.4243
 8821SOL    HW138096   4.488   1.596   4.951 -0.0576 -1.7023  0.0586
 8821SOL    HW238097   4.563   1.572   5.072  1.0734 -0.4647 -0.5846
 8822SOL     OW38098   2.592   3.044   7.924 -0.1928  0.1477  0.3768
 8822SOL    HW138099   2.628   2.960   7.953 -1.7155 -0.6184  0.0401
 8822SOL    HW238100   2.610   3.037   7.831 -1.6776  0.1443  0.0963
 8823SOL     OW38101   2.852   2.536  16.235 -0.5666  0.1330  0.3153
 8823SOL    HW138102   2.800   2.616  16.223  3.5961  2.3827 -2.7762
 8823SOL    HW238103   2.937   2.563  16.201 -0.8947 -1.2733 -1.6167
 8824SOL     OW38104   0.967   3.699   6.953  0.9624 -0.4556  0.7362
 8824SOL    HW138105   0.933   3.626   6.901  0.5005  0.1850  0.1455
 8824SOL    HW238106   1.039   3.662   7.004 -1.6642 -2.0074  3.3316
 8825SOL     OW38107   1.660   4.340   6.374 -0.4631 -0.3625 -0.2300
 8825SOL    HW138108   1.642   4.411   6.312 -0.3466 -1.1182 -1.1328
 8825SOL    HW238109   1.694   4.385   6.452  0.3205 -2.6064  0.7417
 8826SOL     OW38110   4.727   4.514   5.134  0.0839  0.2905 -0.7902
 8826SOL    HW138111   4.696   4.605   5.137  1.1661  0.5922  0.8935
 8826SOL    HW238112   0.035   4.515   5.219 -1.7368 -1.7099  0.1385
 8827SOL     OW38113   3.322   0.354  13.448  0.6068  0.5259  0.1673
 8827SOL    HW138114   3.406   0.340  13.404 -0.2918 -0.6576 -1.1478
 8827SOL    HW238115   3.343   0.399  13.531  0.4254 -0.6137  0.8315
 8828SOL     OW38116   1.104   1.811   9.421 -0.3578 -0.0784  0.5671
 8828SOL    HW138117   1.078   1.898   9.451 -3.5570 -0.5012 -0.9387
 8828SOL    HW238118   1.194   1.805   9.454 -0.1401  0.0398  0.0033
 8829SOL     OW38119   2.155   4.201   6.585  0.4451 -0.4809  0.1783
 8829SOL    HW138120   2.199   4.286   6.580  0.2064 -0.2358  1.9510
 8829SOL    HW238121   2.065   4.231   6.577  1.6080  2.8401 -0.3517
 8830SOL     OW38122   2.765   1.508   8.185 -0.9637  0.0788 -0.4165
 8830SOL    HW138123   2.711   1.429   8.198 -0.1924 -0.6113 -1.4554
 8830SOL    HW238124   2.844   1.474   8.143 -0.5883 -1.0060  1.1663
 8831SOL     OW38125   2.149   0.102   9.029  0.0370 -0.1638  0.3349
 8831SOL    HW138126   2.071   0.157   9.018 -0.3185 -0.3436  1.9819
 8831SOL    HW238127   2.132   0.058   9.112 -0.8800  1.3299  0.9389
 8832SOL     OW38128   0.470   1.774  16.846  0.1979 -0.7091  0.4649
 8832SOL    HW138129   0.478   1.869  16.857  3.9041 -0.7135 -1.9300
 8832SOL    HW238130   0.562   1.749  16.844  0.1595 -0.7657 -1.5155
 8833SOL     OW38131   4.539   1.895   1.769 -0.1592  0.3356 -0.2893
 8833SOL    HW138132   4.607   1.903   1.701 -2.0712 -0.0482 -2.2362
 8833SOL    HW238133   4.584   1.842   1.835  1.0996 -0.0629 -1.4605
 8834SOL     OW38134   3.873   0.867   4.804  0.0057 -0.6205 -0.1428
 8834SOL    HW138135   3.826   0.799   4.755 -1.4358 -0.2604  0.7084
 8834SOL    HW238136   3.943   0.896   4.746  0.3652 -0.2428  0.4864
 8835SOL     OW38137   4.357   0.944   1.790  0.0090  0.3920  0.0980
 8835SOL    HW138138   4.341   1.028   1.832 -2.9193 -0.0315 -0.1387
 8835SOL    HW238139   4.267   0.925   1.765 -0.5625  1.3421  1.4270
 8836SOL     OW38140   2.014   3.080  17.156  0.3409 -0.1659  0.6122
 8836SOL    HW138141   2.028   3.145  17.225  1.2318  0.5801 -0.2754
 8836SOL    HW238142   2.061   3.001  17.185 -1.8606 -2.1750 -1.2872
 8837SOL     OW38143   0.631   4.496   4.077  0.1895 -0.3160 -0.2346
 8837SOL    HW138144   0.661   4.587   4.071  3.3636 -1.3435  0.0307
 8837SOL    HW238145   0.701   4.440   4.044  2.5148  0.5197  3.2469
 8838SOL     OW38146   2.182   2.002   6.118 -0.1067 -0.6835  0.4562
 8838SOL    HW138147   2.191   2.092   6.150  0.6089 -0.1500 -1.2403
 8838SOL    HW238148   2.204   1.968   6.205  3.0395 -0.1353 -0.1134
 8839SOL     OW38149   0.662   2.390   3.796 -0.1876  0.1784  0.0970
 8839SOL    HW138150   0.729   2.451   3.828 -0.5422 -0.5208  2.1921
 8839SOL    HW238151   0.702   2.309   3.827 -1.3964 -0.4490  0.0154
 8840SOL     OW38152   2.785   4.703   3.307  0.0128  0.0708  0.0402
 8840SOL    HW138153   2.782   4.637   3.238 -0.4723 -0.1537  0.2747
 8840SOL    HW238154   2.847   0.031   3.270  0.5874  0.1876  1.2026
 8841SOL     OW38155   2.805   0.521   1.526 -0.3653 -0.1157 -0.1611
 8841SOL    HW138156   2.720   0.482   1.543 -0.9364  1.1305 -0.2025
 8841SOL    HW238157   2.794   0.605   1.570  0.8061  1.5888 -3.1173
 8842SOL     OW38158   1.253   1.915   3.550 -0.4898 -0.1667 -0.0966
 8842SOL    HW138159   1.342   1.929   3.519 -1.1941 -2.8055 -3.2550
 8842SOL    HW238160   1.252   1.975   3.624  1.2216 -1.6823  1.1539
 8843SOL     OW38161   1.162   3.390   8.346  0.0384  0.1514 -0.1889
 8843SOL    HW138162   1.255   3.373   8.358  0.0009 -0.3558 -0.6066
 8843SOL    HW238163   1.147   3.465   8.403  1.6664  1.0874 -0.9936
 8844SOL     OW38164   0.250   2.892   2.942 -0.7364  0.8462 -0.4086
 8844SOL    HW138165   0.342   2.877   2.963 -0.5752  0.6248 -1.2893
 8844SOL    HW238166   0.218   2.951   3.011  1.7176  0.7017  0.8790
 8845SOL     OW38167   4.525   1.142   2.677 -0.1082 -0.3458  0.2817
 8845SOL    HW138168   4.558   1.082   2.743 -0.9936 -0.1971  0.8655
 8845SOL    HW238169   4.435   1.134   2.708 -0.7660  0.2610 -1.4649
 8846SOL     OW38170   3.257   1.753   2.885 -0.1810  0.7998  0.2295
 8846SOL    HW138171   3.202   1.828   2.861  0.9867  1.8068  0.7028
 8846SOL    HW238172   3.285   1.788   2.970  0.6976  0.3731  0.1147
 8847SOL     OW38173   0.644   3.444  14.797 -0.1841  0.4624 -0.0201
 8847SOL    HW138174   0.643   3.364  14.744  0.5909  0.4605 -0.0432
 8847SOL    HW238175   0.656   3.502  14.722 -0.3552  1.0233  0.3873
 8848SOL     OW38176   0.412   2.788   3.675 -0.4180  0.1419  0.2481
 8848SOL    HW138177   0.506   2.771   3.664 -0.1837  0.5990  1.5658
 8848SOL    HW238178   0.378   2.700   3.661 -2.3200  1.3685 -2.7692
 8849SOL     OW38179   1.959   2.718   7.695 -0.7557 -0.3192 -0.1946
 8849SOL    HW138180   1.926   2.780   7.760 -1.1184 -0.5421 -0.1669
 8849SOL    HW238181   2.026   2.673   7.746 -2.0586 -0.0246  1.7766
 8850SOL     OW38182   1.178   1.562   3.442 -0.0855 -0.8565 -0.2373
 8850SOL    HW138183   1.128   1.586   3.364 -2.3773 -1.4674  1.0222
 8850SOL    HW238184   1.124   1.592   3.516  0.5048  2.6406 -1.2418
 8851SOL     OW38185   2.272   4.240   4.640 -0.0884  0.0266 -0.5746
 8851SOL    HW138186   2.278   4.333   4.619 -1.5924  0.5788  1.5036
 8851SOL    HW238187   2.215   4.209   4.569  1.3593  0.5557 -1.9683
 8852SOL     OW38188   4.366   0.948   7.738 -0.2525  0.3274  0.2520
 8852SOL    HW138189   4.365   1.011   7.666 -1.4732 -2.8201 -2.5055
 8852SOL    HW238190   4.311   0.990   7.804  0.8338  1.2498  0.5627
 8853SOL     OW38191   1.193   0.157  17.664  0.2379 -0.3732 -0.0843
 8853SOL    HW138192   1.261   0.172  17.730 -2.9399  0.3145  3.0294
 8853SOL    HW238193   1.206   0.238  17.614  0.0878  1.5380  2.9906
 8854SOL     OW38194   1.316   4.458   6.056  0.2190  0.2690 -0.4964
 8854SOL    HW138195   1.281   4.373   6.081 -0.1805  0.1145 -1.6022
 8854SOL    HW238196   1.295   4.471   5.964 -2.9212 -0.1850  0.1461
 8855SOL     OW38197   4.623   2.586   5.418  0.4651 -0.7174  0.9418
 8855SOL    HW138198   4.698   2.538   5.384 -0.8138 -1.0259 -1.3792
 8855SOL    HW238199   4.620   2.647   5.345 -1.9246  0.1294  1.7392
 8856SOL     OW38200   3.466   4.183  17.215 -0.4991  0.6822 -0.0305
 8856SOL    HW138201   3.491   4.249  17.150  3.0052  0.7955  1.4501
 8856SOL    HW238202   3.378   4.211  17.240 -0.1733  0.2582  1.5933
 8857SOL     OW38203   2.961   0.714   1.293 -0.0909 -0.2868  0.2192
 8857SOL    HW138204   3.021   0.787   1.276  1.0813 -1.3575 -0.2573
 8857SOL    HW238205   2.898   0.766   1.343  1.3605 -1.1127  2.8996
 8858SOL     OW38206   1.720   2.972   3.656 -0.1299 -0.2120  0.1389
 8858SOL    HW138207   1.703   2.945   3.746 -1.9035 -1.9320 -0.7203
 8858SOL    HW238208   1.778   2.902   3.624 -0.6853 -0.5023 -0.2453
 8859SOL     OW38209   0.457   0.319   8.547 -0.4753  0.1185 -0.1162
 8859SOL    HW138210   0.515   0.246   8.527 -1.0387 -0.5942  0.8637
 8859SOL    HW238211   0.483   0.338   8.637  0.1166 -1.7002  0.0911
 8860SOL     OW38212   1.080   0.029  10.426 -0.0168  0.3313 -0.3377
 8860SOL    HW138213   1.171   0.031  10.397  0.3581  3.4557  0.9648
 8860SOL    HW238214   1.024   4.730  10.356 -0.1258 -1.4647  0.6177
 8861SOL     OW38215   1.176   1.403   4.132  0.2950  0.0698  0.3351
 8861SOL    HW138216   1.165   1.415   4.038  0.2972  0.3666  0.3750
 8861SOL    HW238217   1.087   1.394   4.166 -0.6936 -1.4610 -2.6846
 8862SOL     OW38218   3.403   3.850   7.908 -0.0224  0.0297 -0.1215
 8862SOL    HW138219   3.402   3.857   7.812 -2.5723 -1.1193 -0.1812
 8862SOL    HW238220   3.441   3.765   7.928 -0.1623  0.5882  2.5291
 8863SOL     OW38221   2.115   1.419   0.396 -0.0433 -0.5355  0.7750
 8863SOL    HW138222   2.092   1.512   0.405 -0.6488 -1.0089  3.8496
 8863SOL    HW238223   2.046   1.412   0.330  1.5220 -1.8895 -0.7064
 8864SOL     OW38224   1.994   4.598   6.647  0.2324 -0.3347  0.0399
 8864SOL    HW138225   2.007   4.669   6.584 -1.4510 -0.0724  0.0044
 8864SOL    HW238226   1.932   4.542   6.599 -0.3484  1.9334 -1.8472
 8865SOL     OW38227   4.163   4.068   6.158 -0.2305  0.0054 -0.3720
 8865SOL    HW138228   4.241   4.051   6.106 -0.1592 -0.7885 -0.0064
 8865SOL    HW238229   4.113   3.989   6.140  1.8058 -0.5516 -3.4809
 8866SOL     OW38230   3.662   2.231   7.402 -0.7864  0.7796 -0.1155
 8866SOL    HW138231   3.634   2.140   7.388 -1.3856  0.3268  4.0418
 8866SOL    HW238232   3.649   2.254   7.310  1.1716  1.6839 -0.1565
 8867SOL     OW38233   1.719   1.896  17.528 -0.1616  0.2370  0.2398
 8867SOL    HW138234   1.779   1.970  17.518 -2.2821  2.0902  1.1478
 8867SOL    HW238235   1.642   1.942  17.561 -0.3115 -1.0557  1.6826
 8868SOL     OW38236   0.415   0.008  12.157  0.7068  0.3035 -0.0740
 8868SOL    HW138237   0.387   0.037  12.070 -1.5236 -0.0888  0.5379
 8868SOL    HW238238   0.509   0.028  12.154  0.6566  0.2583 -1.9698
 8869SOL     OW38239   2.408   4.193  16.312  0.0034  0.2561 -0.0546
 8869SOL    HW138240   2.313   4.204  16.308  0.3612  2.8034 -1.7338
 8869SOL    HW238241   2.435   4.237  16.231 -0.0389  0.6214  0.1304
 8870SOL     OW38242   0.024   0.159   9.684 -0.4108 -0.2699 -0.3996
 8870SOL    HW138243   0.026   0.076   9.637 -1.3858 -1.7885  2.2644
 8870SOL    HW238244   0.097   0.204   9.642 -1.2510  0.3504 -1.2022
 8871SOL     OW38245   2.761   1.213   4.129  0.5761  0.1760 -0.1204
 8871SOL    HW138246   2.717   1.143   4.178 -1.3585  1.5175  0.0666
 8871SOL    HW238247   2.692   1.280   4.130 -0.7503 -1.1852 -0.1027
 8872SOL     OW38248   3.609   4.197   3.415  0.3757  0.3627  0.1154
 8872SOL    HW138249   3.653   4.263   3.469  0.9494 -1.2858  1.6447
 8872SOL    HW238250   3.665   4.202   3.337  0.6811 -0.3223  0.2904
 8873SOL     OW38251   3.790   1.635   2.770 -0.1098  0.4852 -0.0998
 8873SOL    HW138252   3.784   1.712   2.713 -0.9551  0.7497  0.3491
 8873SOL    HW238253   3.729   1.577   2.724 -0.9371  2.5796 -1.6689
 8874SOL     OW38254   0.277   4.625   0.578  0.1862  0.1851  0.1230
 8874SOL    HW138255   0.196   4.653   0.535  0.0768  0.3550  0.4388
 8874SOL    HW238256   0.268   4.680   0.656  0.0104  0.7983 -0.3232
 8875SOL     OW38257   1.085   2.700  11.999 -0.3012  0.1580 -0.5481
 8875SOL    HW138258   1.024   2.630  11.975 -1.1920  1.2483 -1.4050
 8875SOL    HW238259   1.141   2.643  12.053  0.2188  2.2181  1.0721
 8876SOL     OW38260   1.385   1.994   9.356 -0.2700  0.0498 -0.4120
 8876SOL    HW138261   1.399   1.980   9.450  1.8576  1.9295 -0.4335
 8876SOL    HW238262   1.429   1.917   9.322 -2.2176 -1.1599 -0.1530
 8877SOL     OW38263   0.744   2.333  16.298 -0.1831 -0.6069 -0.3361
 8877SOL    HW138264   0.743   2.252  16.347  1.4633 -0.6629 -0.3759
 8877SOL    HW238265   0.657   2.369  16.311 -0.5228 -1.2694 -0.7721
 8878SOL     OW38266   0.170   0.281  10.111 -0.8575 -0.0420 -0.0480
 8878SOL    HW138267   0.088   0.244  10.143 -0.2694  0.0173  1.5315
 8878SOL    HW238268   0.223   0.231  10.173 -0.9987 -1.5296 -1.1318
 8879SOL     OW38269   0.654   4.678   6.683  0.2275 -0.6303  0.2184
 8879SOL    HW138270   0.666   4.685   6.778  0.0735  1.0565  0.1212
 8879SOL    HW238271   0.612   4.592   6.679  0.0691 -0.6140  1.4945
 8880SOL     OW38272   3.861   3.906   0.662  0.4879  0.3448  0.9202
 8880SOL    HW138273   3.815   3.932   0.583  0.9862 -0.7779  0.2518
 8880SOL    HW238274   3.854   3.990   0.706  0.3855  1.6208 -1.5783
 8881SOL     OW38275   1.768   0.915  11.775 -0.2021 -0.5376 -0.7042
 8881SOL    HW138276   1.755   0.886  11.684 -0.0142 -1.2395 -0.5074
 8881SOL    HW238277   1.778   1.009  11.757 -0.6442 -0.7424 -2.0322
 8882SOL     OW38278   3.428   0.842   5.098 -0.1049  0.2088  0.5326
 8882SOL    HW138279   3.420   0.923   5.149  0.9808  1.1469 -0.7909
 8882SOL    HW238280   3.519   0.817   5.112 -0.9184 -2.1805  1.6114
 8883SOL     OW38281   0.025   3.641  13.726  0.5218 -0.2205 -0.2053
 8883SOL    HW138282   0.105   3.594  13.700  1.1997  0.5856  0.4143
 8883SOL    HW238283   4.689   3.595  13.681  0.0057  0.7674 -0.3990
 8884SOL     OW38284   2.424   1.335   7.495  0.2149 -0.2586  0.1643
 8884SOL    HW138285   2.483   1.382   7.436 -0.3684 -1.4768 -1.3769
 8884SOL    HW238286   2.424   1.388   7.575  1.2099 -1.1587  0.7560
 8885SOL     OW38287   1.901   1.810   6.410  0.3023  0.1213 -0.1419
 8885SOL    HW138288   1.901   1.787   6.503  1.2256 -2.0970 -0.6655
 8885SOL    HW238289   1.849   1.732   6.387  1.8872 -0.4431 -1.8282
 8886SOL     OW38290   4.002   3.265   5.430 -0.0240  0.0610 -0.6653
 8886SOL    HW138291   4.084   3.309   5.453 -0.4869  0.4301  0.2734
 8886SOL    HW238292   3.984   3.307   5.345  0.2022  0.2561 -0.6178
 8887SOL     OW38293   2.681   2.822   5.203  0.3285 -0.7221  0.8731
 8887SOL    HW138294   2.593   2.793   5.227  0.8949 -1.1559  2.4510
 8887SOL    HW238295   2.696   2.885   5.274  0.2577  0.7986 -0.4644
 8888SOL     OW38296   2.396   4.006  11.956 -0.1317 -0.4794  0.0470
 8888SOL    HW138297   2.489   4.028  11.957 -0.6596  1.6795  2.0910
 8888SOL    HW238298   2.379   3.973  12.044  0.3573 -2.0725 -0.4581
 8889SOL     OW38299   1.157   0.199   5.433  0.5054 -0.4736 -0.1399
 8889SOL    HW138300   1.087   0.178   5.494  0.7796 -1.3732 -0.1255
 8889SOL    HW238301   1.185   0.112   5.406  0.6413 -0.2208 -0.8182
 8890SOL     OW38302   3.407   0.173   3.645  0.1732 -0.4053 -0.4469
 8890SOL    HW138303   3.353   0.094   3.635 -0.8749 -0.0127  2.0829
 8890SOL    HW238304   3.479   0.132   3.692 -1.0045  0.7517  2.3465
 8891SOL     OW38305   4.342   2.978   9.106  0.5780 -0.6778  0.5729
 8891SOL    HW138306   4.418   3.034   9.098  0.4293 -0.3916  1.1746
 8891SOL    HW238307   4.303   2.999   9.191  0.2658  1.5140 -0.1246
 8892SOL     OW38308   4.389   4.473   2.588  0.5077  0.6976 -0.1877
 8892SOL    HW138309   4.337   4.500   2.512 -2.9649 -1.5788  1.3473
 8892SOL    HW238310   4.466   4.505   2.541  0.3654  0.3104 -0.6805
 8893SOL     OW38311   3.408   4.694  14.784  0.0787 -0.5758 -0.0511
 8893SOL    HW138312   3.446   0.001  14.707 -0.0031 -1.4403 -0.5660
 8893SOL    HW238313   3.318   4.694  14.750  0.2940  2.9701 -0.6269
 8894SOL     OW38314   1.260   0.349   2.588 -0.6556 -1.1878  0.1275
 8894SOL    HW138315   1.288   0.331   2.498  1.5466 -1.4717  0.8725
 8894SOL    HW238316   1.180   0.401   2.573 -0.8501 -1.6967 -0.6019
 8895SOL     OW38317   3.613   1.259   3.892  0.6154  0.0793 -0.3772
 8895SOL    HW138318   3.577   1.219   3.813  1.3345 -1.8953  0.2835
 8895SOL    HW238319   3.533   1.258   3.944  1.2174 -1.6165  0.5279
 8896SOL     OW38320   2.914   0.668  13.006  0.2391  0.0509  0.4216
 8896SOL    HW138321   2.836   0.710  13.045  1.7799  1.1122  2.3546
 8896SOL    HW238322   2.935   0.592  13.060 -1.7270 -0.4300  0.5274
 8897SOL     OW38323   4.179   0.900  15.024  0.6331 -0.4593  0.0237
 8897SOL    HW138324   4.151   0.880  14.935  0.8558 -1.8012  0.2663
 8897SOL    HW238325   4.119   0.845  15.074 -0.6361  0.5703 -0.3437
 8898SOL     OW38326   4.215   3.327   4.476  0.7896 -0.1001  0.2998
 8898SOL    HW138327   4.217   3.341   4.570  1.6940 -0.0044  0.2680
 8898SOL    HW238328   4.301   3.365   4.457 -1.4486  3.4630 -2.9587
 8899SOL     OW38329   3.480   3.781   9.447 -0.1240 -0.9792 -0.2649
 8899SOL    HW138330   3.473   3.807   9.355  2.1767  0.5022 -0.0205
 8899SOL    HW238331   3.553   3.719   9.441  1.2714  0.6279  0.4329
 8900SOL     OW38332   0.641   0.387   0.248 -0.3594  0.3405  0.6623
 8900SOL    HW138333   0.693   0.336   0.186  0.3378  0.0303  1.4993
 8900SOL    HW238334   0.563   0.407   0.196  0.1097 -1.1464 -0.6178
 8901SOL     OW38335   3.001   3.500   5.870  0.5454  0.3560  0.6085
 8901SOL    HW138336   2.990   3.577   5.926 -1.6975 -0.6974  1.5768
 8901SOL    HW238337   3.091   3.517   5.841  0.3648 -0.5551 -0.5060
 8902SOL     OW38338   4.434   4.136   3.090  0.1467 -0.1203  0.0840
 8902SOL    HW138339   4.422   4.205   3.156  1.0813 -0.3445  0.4943
 8902SOL    HW238340   4.353   4.159   3.044 -0.1808  0.2413  0.8288
 8903SOL     OW38341   3.849   0.564  10.131 -0.0732 -0.1082 -0.1242
 8903SOL    HW138342   3.754   0.564  10.138 -0.1238 -0.4184 -0.7717
 8903SOL    HW238343   3.864   0.575  10.225 -0.2510 -1.3103  0.0501
 8904SOL     OW38344   0.622   0.854   7.981  0.2498 -0.2256 -0.4337
 8904SOL    HW138345   0.598   0.940   8.014 -1.6025 -1.4445  1.4147
 8904SOL    HW238346   0.550   0.833   7.922 -1.3753 -2.5863  2.3638
 8905SOL     OW38347   4.689   3.906  12.065  0.0756 -0.3023  0.1992
 8905SOL    HW138348   4.656   3.984  12.110  1.7322  0.4017  0.1978
 8905SOL    HW238349   0.006   3.955  12.002  1.7763 -1.8267  0.4320
 8906SOL     OW38350   2.497   2.094  14.946 -0.0504  0.0645  0.0217
 8906SOL    HW138351   2.556   2.087  14.871  1.3288 -1.3176  1.2314
 8906SOL    HW238352   2.416   2.099  14.896  0.6402  4.5113 -0.6319
 8907SOL     OW38353   3.248   3.673   6.142 -0.3307  0.5891 -0.0932
 8907SOL    HW138354   3.163   3.665   6.099  0.4577 -0.1547 -1.5322
 8907SOL    HW238355   3.292   3.591   6.122 -1.5828  0.2369 -1.4237
 8908SOL     OW38356   0.050   3.585   4.807 -0.2703  0.2074 -0.9649
 8908SOL    HW138357   0.113   3.513   4.804 -1.0015 -0.4035 -2.0359
 8908SOL    HW238358   4.706   3.555   4.760 -1.6047  2.6456 -0.2760
 8909SOL     OW38359   0.084   0.586  15.322 -0.0622 -0.4539  0.1058
 8909SOL    HW138360   0.126   0.537  15.251  1.5148  0.6559  0.2716
 8909SOL    HW238361   4.723   0.583  15.317  0.0182  0.1311 -1.7135
 8910SOL     OW38362   2.924   2.916  16.688 -0.2037 -0.3009 -0.1929
 8910SOL    HW138363   2.877   2.981  16.637  0.6770 -0.1881 -0.8590
 8910SOL    HW238364   2.963   2.973  16.754  0.1705 -1.6325  0.7436
 8911SOL     OW38365   1.911   1.110   0.993  0.3347  0.0157  0.0756
 8911SOL    HW138366   1.909   1.134   1.085  0.8076  0.0361  0.0805
 8911SOL    HW238367   2.005   1.123   0.976  0.1801  1.1170  0.0739
 8912SOL     OW38368   3.718   1.154   4.335  0.2936  0.0983 -0.1123
 8912SOL    HW138369   3.721   1.086   4.268 -3.3039 -0.3401  0.1839
 8912SOL    HW238370   3.698   1.233   4.285  0.3613  0.4161  0.3623
 8913SOL     OW38371   0.057   2.800   7.895 -0.0058  0.6250 -0.1342
 8913SOL    HW138372   0.031   2.785   7.805 -0.1102  0.2823 -0.0448
 8913SOL    HW238373   4.710   2.783   7.942  0.4125 -0.6675  0.1127
 8914SOL     OW38374   4.488   3.008   3.033  0.2766 -0.3809 -0.2108
 8914SOL    HW138375   4.410   3.020   2.978 -0.6842 -0.0360  1.2096
 8914SOL    HW238376   4.472   3.060   3.112 -0.5333  1.9915 -1.9241
 8915SOL     OW38377   2.435   3.654   5.175  0.5700 -0.3365  0.8988
 8915SOL    HW138378   2.422   3.670   5.082  1.0805 -4.0263  0.1781
 8915SOL    HW238379   2.341   3.657   5.196  0.6563 -0.5094  1.3117
 8916SOL     OW38380   1.547   4.516  15.019  0.3293  0.4450  0.2952
 8916SOL    HW138381   1.593   4.492  14.939  2.0111  0.6031  1.2105
 8916SOL    HW238382   1.615   4.521  15.086 -0.2230 -2.7201  1.0905
 8917SOL     OW38383   2.753   4.724   6.312 -0.3487 -0.4362 -0.0244
 8917SOL    HW138384   2.743   0.055   6.242 -1.4472  0.2360  0.7682
 8917SOL    HW238385   2.662   4.707   6.333 -0.1832 -0.2068  0.8623
 8918SOL     OW38386   0.630   0.007  11.890  0.4797 -0.9169  0.4557
 8918SOL    HW138387   0.618   4.649  11.906 -0.2351 -1.0984 -1.1830
 8918SOL    HW238388   0.722   0.009  11.864  0.5373  0.8447  0.7372
 8919SOL     OW38389   4.305   2.137   2.226  0.3270 -0.0363  0.2266
 8919SOL    HW138390   4.393   2.117   2.259  0.5785 -1.5204 -1.2960
 8919SOL    HW238391   4.256   2.057   2.245 -0.9074  0.2165 -1.9041
 8920SOL     OW38392   1.713   3.563   8.327  0.1443  0.0116 -0.2454
 8920SOL    HW138393   1.690   3.644   8.281 -0.8479 -1.4121 -2.2583
 8920SOL    HW238394   1.647   3.556   8.396  2.2490 -0.3950  1.7509
 8921SOL     OW38395   2.279   4.118  15.834 -0.3984 -0.6280  0.2281
 8921SOL    HW138396   2.184   4.109  15.840 -0.5047  0.1604 -0.2205
 8921SOL    HW238397   2.276   4.147  15.742 -0.8135 -0.4418  0.3011
 8922SOL     OW38398   2.230   0.912  16.510 -0.3129 -0.5542 -0.3812
 8922SOL    HW138399   2.230   1.007  16.506 -2.0098 -0.4873  0.7476
 8922SOL    HW238400   2.297   0.885  16.572 -0.2287  0.1567 -0.1637
 8923SOL     OW38401   0.747   2.610  11.035  0.1639 -0.1403  0.3501
 8923SOL    HW138402   0.827   2.630  10.987  0.9635  0.3184  1.8492
 8923SOL    HW238403   0.676   2.648  10.983  0.8622  0.0710 -0.4354
 8924SOL     OW38404   1.564   0.801   9.953 -0.1670 -0.1941  0.0135
 8924SOL    HW138405   1.485   0.762   9.991  0.7850 -1.6087  0.5284
 8924SOL    HW238406   1.523   0.859   9.889 -1.6885 -1.1501  0.1209
 8925SOL     OW38407   3.335   1.618   3.815 -0.6426  0.1610 -0.1262
 8925SOL    HW138408   3.418   1.653   3.848 -0.5986 -1.4262  1.4120
 8925SOL    HW238409   3.278   1.614   3.891  1.1634 -0.9046  1.1665
 8926SOL     OW38410   0.401   3.038  12.323  0.1892 -0.2301  0.2571
 8926SOL    HW138411   0.468   3.090  12.367 -1.8279  0.8522  2.0004
 8926SOL    HW238412   0.446   2.956  12.301 -1.5675 -0.3818 -2.7082
 8927SOL     OW38413   3.737   0.550   5.848  0.6021  0.3823  0.0510
 8927SOL    HW138414   3.809   0.529   5.908  2.6669  1.0782 -2.2311
 8927SOL    HW238415   3.666   0.571   5.909 -0.3252  0.0474 -0.9214
 8928SOL     OW38416   1.771   3.565   5.230  0.7785 -0.4186  0.5998
 8928SOL    HW138417   1.845   3.537   5.178 -0.5845 -1.8772 -0.5645
 8928SOL    HW238418   1.699   3.568   5.167  1.3391  0.9724  0.0289
 8929SOL     OW38419   4.293   4.265   6.554  0.1301 -0.2111  0.4496
 8929SOL    HW138420   4.295   4.220   6.638 -1.0347  0.0913  0.6418
 8929SOL    HW238421   4.200   4.265   6.529  0.3724 -0.9813 -0.4312
 8930SOL     OW38422   0.214   0.247   2.631  0.4534 -0.0399  0.4782
 8930SOL    HW138423   0.301   0.208   2.641  1.2937  1.8848  0.6610
 8930SOL    HW238424   0.174   0.164   2.603 -2.4153  2.0030 -1.5130
 8931SOL     OW38425   3.238   2.423   8.206  0.1027 -0.2601  0.2037
 8931SOL    HW138426   3.278   2.404   8.121 -1.6131  2.6989 -1.2674
 8931SOL    HW238427   3.147   2.417   8.179  0.0064 -1.2145  0.7399
 8932SOL     OW38428   3.602   4.441   4.157 -0.0965  0.4004  0.0753
 8932SOL    HW138429   3.581   4.348   4.170 -1.0451  0.6332  0.1827
 8932SOL    HW238430   3.695   4.441   4.180 -0.0110  0.5615 -0.2670
 8933SOL     OW38431   4.066   1.035   9.056 -0.5340 -0.5562  0.0551
 8933SOL    HW138432   4.100   1.124   9.045 -0.8129 -0.4605 -0.0524
 8933SOL    HW238433   4.141   0.979   9.075  0.7168  0.5115 -1.7144
 8934SOL     OW38434   3.362   1.507  12.349 -0.0603  0.7736 -0.2243
 8934SOL    HW138435   3.398   1.469  12.430 -0.1068  0.5826 -0.2940
 8934SOL    HW238436   3.271   1.493  12.373  1.0647 -4.4689  0.9283
 8935SOL     OW38437   2.184   3.685   4.570 -0.1017  0.0276 -0.1634
 8935SOL    HW138438   2.266   3.708   4.526  0.1830  1.0223  0.8958
 8935SOL    HW238439   2.157   3.767   4.610  0.8358 -0.0478  0.6400
 8936SOL     OW38440   1.950   0.388   6.862  0.1321  0.1172 -0.1889
 8936SOL    HW138441   1.986   0.322   6.921 -2.8204  0.5492  2.1526
 8936SOL    HW238442   1.919   0.450   6.928 -1.7096  0.2170 -1.1403
 8937SOL     OW38443   0.107   2.494  11.511 -0.1303 -0.0355 -0.3420
 8937SOL    HW138444   0.023   2.474  11.553 -0.8796  0.6040 -1.5491
 8937SOL    HW238445   0.087   2.566  11.451  1.7090 -0.8659 -1.9469
 8938SOL     OW38446   3.088   3.381  15.853  0.3073 -0.3197  0.8131
 8938SOL    HW138447   3.119   3.303  15.807 -0.3925 -0.2296  0.1777
 8938SOL    HW238448   3.009   3.376  15.798 -0.1759  3.0038  1.2094
 8939SOL     OW38449   1.764   0.602   1.937  0.4522 -0.0586 -0.3639
 8939SOL    HW138450   1.784   0.684   1.892 -0.0637  0.6871  0.7480
 8939SOL    HW238451   1.721   0.633   2.017 -0.8513  2.2064 -1.9236
 8940SOL     OW38452   2.555   4.445   9.525 -0.1768 -0.1088 -0.1614
 8940SOL    HW138453   2.481   4.414   9.578  0.7238 -0.5476  0.8375
 8940SOL    HW238454   2.518   4.446   9.436  0.1708  0.5607 -0.2935
 8941SOL     OW38455   1.387   0.429   3.689  0.2194  0.0463  0.1776
 8941SOL    HW138456   1.441   0.354   3.712 -0.4616 -0.1708  1.0539
 8941SOL    HW238457   1.306   0.392   3.655  0.2339  0.0238  0.1677
 8942SOL     OW38458   0.285   0.323   4.118  0.1535 -0.2652 -0.6544
 8942SOL    HW138459   0.335   0.358   4.045 -0.2632 -1.5703 -1.5728
 8942SOL    HW238460   0.349   0.292   4.183 -0.1902  2.5826  1.0160
 8943SOL     OW38461   1.345   0.244   7.475  0.1643  0.3316 -0.3409
 8943SOL    HW138462   1.253   0.268   7.489 -0.3566 -0.8816 -1.7613
 8943SOL    HW238463   1.335   0.164   7.423 -0.4639 -0.8063  1.5438
 8944SOL     OW38464   3.208   1.041   6.786 -0.0765 -0.3032 -0.4544
 8944SOL    HW138465   3.209   1.095   6.706 -1.0718 -2.0797 -1.6679
 8944SOL    HW238466   3.257   0.960   6.767 -0.1919 -0.2309 -1.0616
 8945SOL     OW38467   2.160   0.303   8.516 -0.2380  0.2218 -0.5436
 8945SOL    HW138468   2.162   0.214   8.480 -3.9792  0.0063 -0.1773
 8945SOL    HW238469   2.255   0.310   8.529 -0.2532 -0.1082 -0.2619
 8946SOL     OW38470   0.725   0.931   6.293  0.6182 -0.7207  0.7403
 8946SOL    HW138471   0.677   0.866   6.242 -0.8119 -0.4939  1.8048
 8946SOL    HW238472   0.683   0.908   6.376  1.6687  1.9014  2.0003
 8947SOL     OW38473   2.458   3.095   7.310 -0.1014  0.3218  0.0357
 8947SOL    HW138474   2.382   3.146   7.282  0.2989  0.7282 -0.3155
 8947SOL    HW238475   2.420   3.014   7.343 -1.9806  0.6169 -1.4053
 8948SOL     OW38476   2.429   2.641   5.628 -0.3070  0.2791  1.1280
 8948SOL    HW138477   2.335   2.629   5.639 -0.2307 -1.4330 -0.0407
 8948SOL    HW238478   2.454   2.718   5.678  1.5387  0.8670 -0.6787
 8949SOL     OW38479   0.750   4.167  11.406  0.0184 -0.2313 -0.0367
 8949SOL    HW138480   0.692   4.238  11.378 -0.9952 -1.9038 -2.2024
 8949SOL    HW238481   0.719   4.091  11.358  0.8339 -1.5369  1.5065
 8950SOL     OW38482   2.954   2.047   5.473 -0.1047 -0.5212  0.1540
 8950SOL    HW138483   2.993   1.974   5.423  1.0686 -0.3979  0.9052
 8950SOL    HW238484   3.007   2.119   5.440  1.4992 -1.7165  0.1084
 8951SOL     OW38485   4.178   2.656   9.267 -0.2302  0.3313  0.1523
 8951SOL    HW138486   4.238   2.585   9.291 -2.2685 -1.3519  0.2580
 8951SOL    HW238487   4.137   2.680   9.350  1.1116 -1.4135  1.3266
 8952SOL     OW38488   2.425   0.119  10.847 -0.2874 -0.1755 -0.1446
 8952SOL    HW138489   2.478   0.111  10.927 -2.9534 -0.6014  1.5533
 8952SOL    HW238490   2.503   0.125  10.791  0.9126 -0.2842  1.5376
 8953SOL     OW38491   1.837   2.947   6.981 -0.0651  0.9998 -0.4031
 8953SOL    HW138492   1.793   2.964   7.064  0.1231  0.5223 -0.2029
 8953SOL    HW238493   1.758   2.948   6.927 -0.1755  3.9335 -0.1740
 8954SOL     OW38494   1.324   4.041   8.630 -0.2125  0.1829 -0.4507
 8954SOL    HW138495   1.340   4.044   8.724  0.5130 -0.2314 -0.5576
 8954SOL    HW238496   1.236   4.077   8.632 -0.5076 -0.3542 -3.4502
 8955SOL     OW38497   2.642   3.417  14.574  0.1345 -0.1358  0.3367
 8955SOL    HW138498   2.672   3.327  14.591  2.1363  0.7059  1.3461
 8955SOL    HW238499   2.554   3.394  14.545 -0.5392  0.8427  1.6380
 8956SOL     OW38500   4.654   3.076  16.728  0.0205  0.9430  0.7118
 8956SOL    HW138501   4.682   3.034  16.809  2.5542  2.5552  0.6697
 8956SOL    HW238502   4.660   3.164  16.764  2.1581  1.6148 -1.3165
 8957SOL     OW38503   0.928   2.976  13.101  0.0766  0.6689 -0.2473
 8957SOL    HW138504   0.930   2.960  13.006 -1.8923  0.8160 -0.3235
 8957SOL    HW238505   0.869   3.052  13.109  1.1187  1.3085  1.3839
 8958SOL     OW38506   2.073   4.250  13.951  0.7575 -0.0658  0.4373
 8958SOL    HW138507   2.073   4.318  14.019 -2.7604  1.4129 -0.9990
 8958SOL    HW238508   1.992   4.204  13.972  0.0710  0.9267  0.0051
 8959SOL     OW38509   3.602   3.590  11.406  0.5735 -0.3541 -0.0957
 8959SOL    HW138510   3.629   3.541  11.329 -0.4093 -2.5197  0.9403
 8959SOL    HW238511   3.545   3.528  11.451  1.1506  0.6238  1.9987
 8960SOL     OW38512   1.569   4.561  13.510 -0.0470 -0.4922 -0.4737
 8960SOL    HW138513   1.528   4.603  13.586  0.8937 -0.1533 -0.1444
 8960SOL    HW238514   1.660   4.575  13.538 -0.5144 -0.9442  1.2937
 8961SOL     OW38515   2.953   3.611   0.617 -0.1909  0.1015 -0.2890
 8961SOL    HW138516   2.883   3.661   0.658 -1.1833 -0.6426 -1.0637
 8961SOL    HW238517   2.956   3.530   0.668 -3.7176  1.1130  1.5239
 8962SOL     OW38518   4.185   1.588   5.364  0.0067 -0.4019 -0.0014
 8962SOL    HW138519   4.267   1.598   5.413 -0.3184  0.0368  0.4611
 8962SOL    HW238520   4.209   1.606   5.274  0.8029 -1.7649 -0.0671
 8963SOL     OW38521   0.864   1.453   3.221 -0.3741  0.0507 -0.5941
 8963SOL    HW138522   0.842   1.368   3.259 -0.5049  0.1796 -0.3788
 8963SOL    HW238523   0.891   1.419   3.136 -1.1469 -1.4611 -0.2404
 8964SOL     OW38524   4.592   2.368   0.620  0.2897  0.3592 -0.3874
 8964SOL    HW138525   4.634   2.307   0.560  0.6319  2.0396 -1.8516
 8964SOL    HW238526   4.501   2.346   0.601 -0.2199  1.0885  1.1489
 8965SOL     OW38527   4.178   1.037   8.712 -0.1495  0.3905 -0.7593
 8965SOL    HW138528   4.231   1.021   8.634  1.0563 -1.1032  0.3768
 8965SOL    HW238529   4.226   1.113   8.744 -0.9422  0.1129  1.0806
 8966SOL     OW38530   4.406   0.687   7.759  0.9065 -0.4020 -0.4847
 8966SOL    HW138531   4.398   0.781   7.749  0.3281 -0.2689  1.2007
 8966SOL    HW238532   4.314   0.666   7.774  1.1238 -0.8430  0.2439
 8967SOL     OW38533   2.131   4.537   9.522 -0.0096 -0.3938 -0.7546
 8967SOL    HW138534   2.100   4.612   9.573 -0.3250 -0.2488 -1.1550
 8967SOL    HW238535   2.050   4.508   9.480 -0.2541  0.2695 -0.7377
 8968SOL     OW38536   2.360   2.861   7.389  0.2584 -0.2943  0.0682
 8968SOL    HW138537   2.277   2.843   7.344 -0.9295  1.8323  1.4230
 8968SOL    HW238538   2.312   2.874   7.471  1.0003  0.8478  0.3177
 8969SOL     OW38539   4.344   3.948   6.747 -0.9092  0.0333  0.3352
 8969SOL    HW138540   4.257   3.973   6.717 -0.8415 -1.7409 -1.3650
 8969SOL    HW238541   4.333   3.854   6.733  0.1547 -0.0848  0.3002
 8970SOL     OW38542   3.700   3.581  16.136 -0.1371 -0.4183 -0.0528
 8970SOL    HW138543   3.637   3.529  16.086 -1.4807  1.1301  0.0246
 8970SOL    HW238544   3.656   3.554  16.217  3.2376  0.7431  2.1458
 8971SOL     OW38545   4.349   2.332   6.433  0.2782  0.2928 -0.3081
 8971SOL    HW138546   4.366   2.420   6.401  1.2444  0.9805  2.1416
 8971SOL    HW238547   4.420   2.280   6.396 -1.2058 -2.7190  1.0099
 8972SOL     OW38548   0.225   3.087  16.559 -0.2283 -0.2515 -0.5805
 8972SOL    HW138549   0.204   3.091  16.466 -0.6068 -2.7312 -0.6141
 8972SOL    HW238550   0.149   3.139  16.586 -0.2792  0.2013 -1.5822
 8973SOL     OW38551   1.713   4.613  15.987 -0.1736 -0.1360 -0.2482
 8973SOL    HW138552   1.676   4.650  15.907  1.0497  1.2059 -0.1989
 8973SOL    HW238553   1.805   4.638  15.988  0.0582 -0.9593 -0.8862
 8974SOL     OW38554   4.647   0.123   0.919 -0.3502 -0.2076 -0.2744
 8974SOL    HW138555   4.727   0.071   0.919  2.0015  3.4142  0.4375
 8974SOL    HW238556   4.600   0.074   0.986  0.5318 -1.4947 -0.6014
 8975SOL     OW38557   0.455   4.729  10.973  0.4559  0.0909 -0.1997
 8975SOL    HW138558   0.431   4.638  10.990 -1.0395  0.3954 -0.6163
 8975SOL    HW238559   0.397   0.010  10.898 -0.5462  2.0674  0.9982
 8976SOL     OW38560   0.140   3.784  10.033 -0.3080  0.2209  0.2899
 8976SOL    HW138561   0.111   3.797   9.943 -0.7016 -1.6351  0.1669
 8976SOL    HW238562   0.232   3.756  10.024 -1.0474 -1.7605 -1.1016
 8977SOL     OW38563   2.122   0.907   5.300  0.2983  0.2566 -0.4612
 8977SOL    HW138564   2.049   0.913   5.362 -0.2216  2.3108 -1.2917
 8977SOL    HW238565   2.182   0.856   5.355 -0.1512  0.7390  0.4786
 8978SOL     OW38566   3.107   2.150   8.864 -0.4618 -0.2546 -0.1604
 8978SOL    HW138567   3.024   2.134   8.908 -0.4825  0.1937 -0.0386
 8978SOL    HW238568   3.070   2.148   8.776  0.4174 -0.9085 -0.5159
 8979SOL     OW38569   3.834   0.303   4.994  0.1823  0.2748 -0.4798
 8979SOL    HW138570   3.803   0.230   5.047 -1.4710  0.1152 -1.6769
 8979SOL    HW238571   3.836   0.250   4.915  0.7670  1.4477 -1.2606
 8980SOL     OW38572   2.804   4.485   6.046 -0.2110  0.4963 -0.6722
 8980SOL    HW138573   2.772   4.564   6.002  0.4994  1.7654  1.1223
 8980SOL    HW238574   2.808   4.433   5.965  0.4286 -0.5588  0.0444
 8981SOL     OW38575   1.820   2.768   1.696  0.4907 -0.0894  0.0361
 8981SOL    HW138576   1.729   2.741   1.709  0.5463 -0.8911 -1.2803
 8981SOL    HW238577   1.876   2.721   1.758 -1.5551 -0.6093  1.4901
 8982SOL     OW38578   4.101   1.901  16.622  0.1079 -0.4588  0.1951
 8982SOL    HW138579   4.069   1.860  16.702 -2.0567  1.3533  0.2978
 8982SOL    HW238580   4.132   1.822  16.578 -0.0021 -1.0923  1.2606
 8983SOL     OW38581   3.976   4.055   9.186  0.4476  0.2925 -0.1064
 8983SOL    HW138582   4.035   4.113   9.235  0.7686  1.2574 -1.6519
 8983SOL    HW238583   4.046   4.030   9.126  0.7846  0.3739  0.2492
 8984SOL     OW38584   1.562   1.208  17.110  0.3901  0.3532 -0.3407
 8984SOL    HW138585   1.560   1.233  17.203 -0.5334  2.0375 -0.8166
 8984SOL    HW238586   1.531   1.117  17.116  0.5616  0.4649  2.4353
 8985SOL     OW38587   1.738   4.206   5.585 -0.2431  0.1040 -0.4375
 8985SOL    HW138588   1.807   4.147   5.614  1.0391  1.2042 -1.2630
 8985SOL    HW238589   1.771   4.230   5.499 -0.3228 -0.7885 -0.7195
 8986SOL     OW38590   0.666   1.524   2.362  0.7187 -0.0071 -0.2243
 8986SOL    HW138591   0.636   1.435   2.384  0.0800  0.5288  1.0268
 8986SOL    HW238592   0.641   1.532   2.270  0.5320 -0.8648 -0.2531
 8987SOL     OW38593   3.534   0.408   3.292  0.0002 -0.9200  0.2916
 8987SOL    HW138594   3.535   0.406   3.196 -0.0234 -0.4936  0.2865
 8987SOL    HW238595   3.594   0.483   3.298  0.2299 -0.9317 -1.7192
 8988SOL     OW38596   4.517   1.508   5.212 -0.3511  0.2811  0.5639
 8988SOL    HW138597   4.438   1.562   5.211 -0.0481  0.7224  0.4410
 8988SOL    HW238598   4.540   1.506   5.305 -0.5732  0.2388  0.6165
 8989SOL     OW38599   4.386   2.384   6.739 -0.1893 -0.5072  0.5438
 8989SOL    HW138600   4.460   2.446   6.733 -0.5789 -0.0271  0.6893
 8989SOL    HW238601   4.347   2.383   6.652 -0.0459  0.5593  0.4564
 8990SOL     OW38602   1.901   2.592   5.265 -0.2522 -0.4458  0.3392
 8990SOL    HW138603   1.859   2.668   5.224  2.0344 -0.9553 -2.9922
 8990SOL    HW238604   1.994   2.616   5.256 -0.3627  0.2922  1.2136
 8991SOL     OW38605   3.675   3.054   8.072  0.5676 -0.4982 -0.3356
 8991SOL    HW138606   3.759   3.091   8.046  1.4872 -1.5194  1.1511
 8991SOL    HW238607   3.685   3.051   8.167 -1.1087  0.8333 -0.1054
 8992SOL     OW38608   4.351   2.952   7.813  0.1830 -0.1138 -0.4240
 8992SOL    HW138609   4.413   2.912   7.873  0.5463  0.6833 -0.2706
 8992SOL    HW238610   4.280   2.888   7.818 -1.1838  1.4247 -0.2080
 8993SOL     OW38611   1.032   2.311  11.698  0.3338  0.6702  1.3170
 8993SOL    HW138612   1.104   2.319  11.760  1.5120 -0.3368  0.1015
 8993SOL    HW238613   1.079   2.351  11.625 -0.8941  0.5214  0.4340
 8994SOL     OW38614   3.836   4.041  15.105 -0.1664  0.0832  0.3768
 8994SOL    HW138615   3.861   4.016  15.194 -0.8714  2.6256  1.3031
 8994SOL    HW238616   3.821   4.134  15.124 -1.8068  0.0350 -0.6702
 8995SOL     OW38617   0.792   1.248   5.152  0.1123 -0.8695  0.2093
 8995SOL    HW138618   0.774   1.155   5.158 -0.1712 -0.9266 -1.5407
 8995SOL    HW238619   0.865   1.251   5.214  0.2064 -0.4186  0.0817
 8996SOL     OW38620   2.371   3.338   9.053 -0.1527 -0.3491 -0.7479
 8996SOL    HW138621   2.429   3.400   9.007  0.9740 -0.9673 -0.1527
 8996SOL    HW238622   2.376   3.264   8.993  0.0293 -1.2767  0.4175
 8997SOL     OW38623   4.322   1.817  14.321  0.1533  0.2531  0.0930
 8997SOL    HW138624   4.331   1.723  14.306 -1.3253  0.0742  0.2880
 8997SOL    HW238625   4.342   1.838  14.412 -1.3607  2.4444 -0.0705
 8998SOL     OW38626   1.217   4.094   9.514 -0.4448 -0.5168 -0.7896
 8998SOL    HW138627   1.184   4.147   9.586 -1.4382 -1.4394 -0.5577
 8998SOL    HW238628   1.282   4.153   9.477  1.1902 -0.9107  1.4938
 8999SOL     OW38629   0.793   3.055   4.190 -0.2716  0.1732 -0.0557
 8999SOL    HW138630   0.811   3.056   4.096  0.6445  2.4096  0.1587
 8999SOL    HW238631   0.725   3.121   4.200 -0.3333  0.3185 -1.4655
 9000SOL     OW38632   3.865   4.542   2.180  0.3738  0.4946  0.1093
 9000SOL    HW138633   3.913   4.540   2.097 -1.1377  0.7034 -0.7849
 9000SOL    HW238634   3.902   4.622   2.217 -0.6728  0.8187  0.4551
 9001SOL     OW38635   1.755   0.985  14.879 -0.1181 -0.1084  0.0047
 9001SOL    HW138636   1.716   0.996  14.792  0.1909 -1.9903 -0.3749
 9001SOL    HW238637   1.767   1.075  14.909 -0.0528 -0.2006  0.2577
 9002SOL     OW38638   0.896   1.405   6.718  0.5943 -0.9273 -0.1476
 9002SOL    HW138639   0.888   1.326   6.664  0.1690 -1.1294  0.2157
 9002SOL    HW238640   0.881   1.469   6.648  0.9525 -0.5509  0.1126
 9003SOL     OW38641   2.022   0.897  14.836  0.2355 -0.1160 -0.1742
 9003SOL    HW138642   1.992   0.857  14.754 -1.4049  1.7000 -0.4466
 9003SOL    HW238643   1.943   0.936  14.873 -0.7941 -0.6976 -1.7269
 9004SOL     OW38644   3.515   1.225   4.860 -0.0275  0.3710 -0.9729
 9004SOL    HW138645   3.499   1.210   4.766  0.9439 -0.6426 -0.9819
 9004SOL    HW238646   3.603   1.191   4.872  0.7689  1.8489 -2.7020
 9005SOL     OW38647   0.948   2.287  17.230  0.3178  0.1249 -0.1497
 9005SOL    HW138648   0.915   2.375  17.250 -0.9618 -0.9151  2.3927
 9005SOL    HW238649   0.953   2.252  17.319  1.4051 -0.1429 -0.3192
 9006SOL     OW38650   0.473   0.258  15.051  0.2279  0.1029 -0.6231
 9006SOL    HW138651   0.499   0.208  15.128  0.6039  1.1035 -0.1003
 9006SOL    HW238652   0.559   0.267  15.010 -0.2899  0.2099 -1.6777
 9007SOL     OW38653   3.935   1.750  14.023  0.4339 -0.3476  0.0580
 9007SOL    HW138654   3.902   1.698  13.950 -1.2153 -2.8070  2.5377
 9007SOL    HW238655   3.962   1.684  14.087 -1.4087 -0.1159  1.0824
 9008SOL     OW38656   1.410   1.647   0.609  0.5716  0.5801 -0.2068
 9008SOL    HW138657   1.394   1.554   0.594 -0.0236  0.3283  1.9665
 9008SOL    HW238658   1.398   1.662   0.515  1.6834 -1.0656 -0.6138
 9009SOL     OW38659   4.121   2.066   1.699 -0.0945 -0.0561 -0.5103
 9009SOL    HW138660   4.031   2.033   1.701 -0.6487  1.5841  1.9238
 9009SOL    HW238661   4.157   2.022   1.776 -1.2129 -0.0707  0.0144
 9010SOL     OW38662   0.315   3.989  15.308 -0.4066  0.5956  0.0144
 9010SOL    HW138663   0.363   3.968  15.388  0.0073  0.1208 -0.3629
 9010SOL    HW238664   0.281   4.075  15.331 -1.1568  0.2375  0.2540
 9011SOL     OW38665   1.569   3.527   7.657 -0.6779 -0.2170 -0.3815
 9011SOL    HW138666   1.476   3.547   7.670 -0.2187  1.3764  0.4074
 9011SOL    HW238667   1.596   3.573   7.578  0.8489 -0.2183  0.1468
 9012SOL     OW38668   0.920   3.399  13.174  0.3071  0.3915  0.0303
 9012SOL    HW138669   0.998   3.349  13.149 -0.0388 -0.6701  1.0814
 9012SOL    HW238670   0.960   3.486  13.163  1.9848 -0.1239  2.1693
 9013SOL     OW38671   1.675   1.929   2.938 -0.4649  0.1079  0.9507
 9013SOL    HW138672   1.614   1.953   2.868 -0.4512 -3.5227 -0.3000
 9013SOL    HW238673   1.671   2.003   2.998 -0.7577 -0.0239  1.0925
 9014SOL     OW38674   2.387   0.822   3.462  0.0738  0.0913 -0.1764
 9014SOL    HW138675   2.376   0.820   3.367 -0.7983 -1.8495 -0.0508
 9014SOL    HW238676   2.335   0.898   3.488 -0.1727 -0.0387 -0.2944
 9015SOL     OW38677   0.962   3.996   6.283  0.3673 -0.1998 -0.4142
 9015SOL    HW138678   0.888   4.048   6.314 -0.0903 -0.1295 -1.6119
 9015SOL    HW238679   0.926   3.915   6.246  0.7447  0.1588 -1.5723
 9016SOL     OW38680   4.160   3.193   3.104  0.2584 -0.2501 -0.4793
 9016SOL    HW138681   4.248   3.230   3.102  0.1201  0.2419  2.6800
 9016SOL    HW238682   4.112   3.276   3.100  0.5013  0.0654  2.9017
 9017SOL     OW38683   0.071   4.529   4.125 -0.2667  0.3415 -0.6597
 9017SOL    HW138684   0.050   4.508   4.034  0.6320  0.0460 -0.7895
 9017SOL    HW238685   0.144   4.589   4.115  0.0947 -0.2266 -1.3791
 9018SOL     OW38686   1.811   1.313   1.732  0.1847 -0.1900 -0.0536
 9018SOL    HW138687   1.749   1.345   1.797 -0.4020 -2.1335  0.3284
 9018SOL    HW238688   1.758   1.325   1.653 -1.2422 -1.8879  0.6556
 9019SOL     OW38689   2.089   2.308  13.858 -0.3727  0.1386 -0.2903
 9019SOL    HW138690   2.080   2.227  13.808  0.0202  1.0067 -1.7623
 9019SOL    HW238691   2.004   2.319  13.899 -0.8683  0.6660 -1.4635
 9020SOL     OW38692   4.730   3.259  10.389 -0.5784 -0.3164  0.3549
 9020SOL    HW138693   4.716   3.177  10.340  1.4025 -1.5027  1.7819
 9020SOL    HW238694   0.011   3.220  10.475 -0.1813 -0.1325  0.3657
 9021SOL     OW38695   2.642   1.077   0.286 -0.2575 -0.0824  1.2359
 9021SOL    HW138696   2.638   1.100   0.379  2.3714  0.7034  1.1453
 9021SOL    HW238697   2.603   0.990   0.280 -1.1381  0.2060  2.7670
 9022SOL     OW38698   2.472   1.802   3.077 -0.8521  0.0048 -0.4550
 9022SOL    HW138699   2.483   1.845   3.162 -0.1171  3.0071 -2.0579
 9022SOL    HW238700   2.558   1.813   3.035  0.1277  0.8463  1.7887
 9023SOL     OW38701   2.690   1.978   3.538 -0.1811 -0.1451  1.1792
 9023SOL    HW138702   2.700   2.041   3.610  3.6615  0.9187 -0.2981
 9023SOL    HW238703   2.772   1.932   3.554  1.3689  1.7982 -1.1268
 9024SOL     OW38704   3.796   1.474   4.763 -0.6532  0.2506 -0.1664
 9024SOL    HW138705   3.776   1.404   4.701 -0.8535  0.2515 -0.1023
 9024SOL    HW238706   3.888   1.491   4.744 -1.0295 -2.0353 -4.1394
 9025SOL     OW38707   1.785   4.565  15.176  0.3813 -0.0407 -0.2627
 9025SOL    HW138708   1.830   4.571  15.261 -2.3481  1.4436  1.0815
 9025SOL    HW238709   1.856   4.568  15.112  1.5055 -0.8899  0.9407
 9026SOL     OW38710   0.362   1.319  10.047 -0.0562  0.0288 -0.1952
 9026SOL    HW138711   0.424   1.292   9.979 -0.1316  0.3382 -0.3875
 9026SOL    HW238712   0.335   1.398  10.000  2.8609  0.0921 -1.7080
 9027SOL     OW38713   1.419   0.768   1.931 -0.1614  0.4840  0.0982
 9027SOL    HW138714   1.453   0.746   1.845 -1.3795 -1.2261  0.0592
 9027SOL    HW238715   1.329   0.741   1.916 -0.3193  1.6759 -1.0986
 9028SOL     OW38716   1.607   2.422   4.330 -0.5045 -0.0108 -0.0445
 9028SOL    HW138717   1.642   2.349   4.280  2.3724  0.6284  0.9927
 9028SOL    HW238718   1.519   2.391   4.351  0.2485 -0.0798  3.0436
 9029SOL     OW38719   2.272   0.866   4.818 -0.3405  0.1761 -0.1095
 9029SOL    HW138720   2.355   0.884   4.862  0.1573  0.8569 -1.3249
 9029SOL    HW238721   2.307   0.821   4.740  0.6941  1.0004 -0.1290
 9030SOL     OW38722   0.939   0.296   1.932 -0.0970  0.0652 -0.5443
 9030SOL    HW138723   0.863   0.345   1.902  0.2484  0.0575 -1.4511
 9030SOL    HW238724   0.989   0.307   1.851  0.6397  0.1161 -0.0814
 9031SOL     OW38725   1.170   0.921   7.059 -0.0409 -0.3184  0.3185
 9031SOL    HW138726   1.161   1.016   7.061 -0.5615 -0.3999  1.6651
 9031SOL    HW238727   1.231   0.907   6.986  0.1339  0.5446  0.3041
 9032SOL     OW38728   4.387   3.100   7.579  0.0256 -0.4177  0.0118
 9032SOL    HW138729   4.373   3.065   7.666 -0.2272 -0.4632 -0.0474
 9032SOL    HW238730   4.476   3.133   7.586  0.1063 -0.2485 -1.7188
 9033SOL     OW38731   1.871   1.269  15.908 -0.1872  0.5816 -0.2198
 9033SOL    HW138732   1.843   1.259  15.817 -1.1237 -1.7807  0.3531
 9033SOL    HW238733   1.909   1.357  15.899  1.9350 -0.0487  2.5562
 9034SOL     OW38734   0.838   2.654   7.051 -0.8486  0.2088 -0.3402
 9034SOL    HW138735   0.856   2.574   7.101 -1.6716  1.4080  1.8937
 9034SOL    HW238736   0.872   2.712   7.120  0.2891  0.6303 -1.2574
 9035SOL     OW38737   0.237   4.245   9.370 -0.3375 -0.3973  0.4000
 9035SOL    HW138738   0.256   4.202   9.453  0.8014  2.0853  1.4354
 9035SOL    HW238739   0.311   4.209   9.321 -1.4788 -2.6204  0.3342
 9036SOL     OW38740   4.496   3.425   9.949 -0.4233 -0.3735  0.5235
 9036SOL    HW138741   4.574   3.380   9.980  0.2152 -1.1366 -2.1525
 9036SOL    HW238742   4.512   3.509   9.990 -0.0164 -0.8268  1.2979
 9037SOL     OW38743   2.527   2.445   8.895 -0.0593  0.2284 -0.1079
 9037SOL    HW138744   2.468   2.371   8.910  0.5097  0.4181  3.1428
 9037SOL    HW238745   2.518   2.502   8.971  1.6660 -0.4185  0.5912
 9038SOL     OW38746   4.491   0.689   6.190 -0.7476  0.2701  0.2773
 9038SOL    HW138747   4.544   0.686   6.270  0.7198  0.0806 -0.7089
 9038SOL    HW238748   4.538   0.758   6.144  1.4297  0.1401  2.3113
 9039SOL     OW38749   2.323   0.165   5.043  0.3526  0.3466 -0.2127
 9039SOL    HW138750   2.417   0.171   5.060  0.8925 -0.4097 -2.8329
 9039SOL    HW238751   2.300   0.258   5.036  1.3535  0.6462  0.4443
 9040SOL     OW38752   0.378   2.969  14.100 -0.3520  0.2362  0.2199
 9040SOL    HW138753   0.376   3.047  14.044  0.5125  0.6190  0.7153
 9040SOL    HW238754   0.286   2.946  14.111 -0.3391  0.2186  0.2873
 9041SOL     OW38755   3.556   4.539   7.124  0.0613  0.3553 -0.0499
 9041SOL    HW138756   3.490   4.598   7.086  0.5949  0.7451 -0.3634
 9041SOL    HW238757   3.513   4.535   7.209 -2.7810 -0.9388 -1.5408
 9042SOL     OW38758   0.935   0.793   9.565 -0.4452  0.1684  0.0893
 9042SOL    HW138759   0.908   0.885   9.561  1.5700  0.8403  1.5460
 9042SOL    HW238760   0.910   0.770   9.655  1.7413 -2.7028 -0.0455
 9043SOL     OW38761   3.710   2.938   8.693 -0.3624 -0.3565  0.7311
 9043SOL    HW138762   3.728   3.026   8.658  2.4743 -0.3927  2.0600
 9043SOL    HW238763   3.622   2.942   8.731 -0.3783  0.3752  0.6284
 9044SOL     OW38764   2.110   3.228   2.650  0.0909 -0.0436  0.1694
 9044SOL    HW138765   2.154   3.313   2.654 -2.3589  1.2653 -0.0771
 9044SOL    HW238766   2.159   3.181   2.583  0.0722 -0.2249  0.2841
 9045SOL     OW38767   1.255   0.733   8.370 -0.5187 -0.1955 -0.1296
 9045SOL    HW138768   1.283   0.751   8.459  1.3386  1.1730 -0.9854
 9045SOL    HW238769   1.321   0.769   8.310  1.0781 -1.6606  0.7345
 9046SOL     OW38770   2.238   1.117   2.658 -0.5995  0.1992 -0.3510
 9046SOL    HW138771   2.184   1.038   2.654 -1.1770  0.5658  0.2989
 9046SOL    HW238772   2.318   1.081   2.617 -1.6130 -2.7231  0.2571
 9047SOL     OW38773   2.500   1.553  16.710  0.8047  0.1426 -0.4677
 9047SOL    HW138774   2.410   1.547  16.680  0.6742  0.2528 -0.0907
 9047SOL    HW238775   2.526   1.462  16.726 -0.0075  0.0678  0.3570
 9048SOL     OW38776   3.719   4.007   9.938  0.1351 -0.2336 -0.1939
 9048SOL    HW138777   3.743   3.941  10.003 -1.5572 -0.7295 -0.0965
 9048SOL    HW238778   3.734   3.958   9.858  1.2907  0.1501 -0.2185
 9049SOL     OW38779   1.538   4.336   5.030 -0.5431 -0.5267  0.1086
 9049SOL    HW138780   1.602   4.280   4.985 -2.6639  0.4038 -4.0878
 9049SOL    HW238781   1.586   4.419   5.040  0.7299 -0.9378 -2.4703
 9050SOL     OW38782   3.935   4.072   3.650 -0.2698  0.8222 -0.8060
 9050SOL    HW138783   3.936   4.074   3.555  0.7924 -3.9693 -0.8883
 9050SOL    HW238784   4.002   4.137   3.671  0.5649 -0.8628  1.8233
 9051SOL     OW38785   1.398   3.624   2.317 -0.6732  0.2509  0.1227
 9051SOL    HW138786   1.358   3.595   2.235  0.3737  1.3727 -0.7860
 9051SOL    HW238787   1.347   3.565   2.373 -0.0977  0.3906  0.7944
 9052SOL     OW38788   1.394   1.577   9.417  0.2407  0.0174 -0.0549
 9052SOL    HW138789   1.305   1.546   9.403  0.4231 -0.6313  0.2463
 9052SOL    HW238790   1.446   1.497   9.426  0.5598  0.1599 -0.5999
 9053SOL     OW38791   1.301   3.400  11.738  0.0158  0.3141 -0.4371
 9053SOL    HW138792   1.325   3.309  11.757  1.4833  1.2524  2.2434
 9053SOL    HW238793   1.373   3.437  11.686 -0.1686  2.5819  0.9159
 9054SOL     OW38794   4.435   1.190   9.265 -0.6281  0.2111  0.2110
 9054SOL    HW138795   4.527   1.162   9.265 -0.4068  0.9315  0.7878
 9054SOL    HW238796   4.431   1.243   9.186 -2.7269 -2.0630 -1.1958
 9055SOL     OW38797   2.602   0.207   8.099  0.3183 -0.2831 -0.3814
 9055SOL    HW138798   2.683   0.225   8.147 -1.6067  2.1074  2.0619
 9055SOL    HW238799   2.551   0.280   8.136 -1.0258 -1.4684  0.1280
 9056SOL     OW38800   1.513   1.391   4.416 -0.3927  0.2916  0.1477
 9056SOL    HW138801   1.601   1.425   4.400 -0.4739 -1.4401 -3.8621
 9056SOL    HW238802   1.485   1.351   4.334 -1.9198  0.5661  0.5352
 9057SOL     OW38803   1.188   0.759   6.271 -0.5155  0.5784 -0.0735
 9057SOL    HW138804   1.201   0.736   6.178  2.5059  0.3267  0.4074
 9057SOL    HW238805   1.152   0.847   6.264  0.4854  1.0737  1.0205
 9058SOL     OW38806   2.333   1.744   1.457  0.3402 -0.3656 -0.3862
 9058SOL    HW138807   2.381   1.761   1.537 -1.1458 -0.3973  0.5126
 9058SOL    HW238808   2.241   1.744   1.485 -0.7887  2.6637 -4.0151
 9059SOL     OW38809   2.223   0.258   9.405 -0.0348 -0.2939 -0.2113
 9059SOL    HW138810   2.266   0.326   9.355 -0.5242  0.3023  0.1854
 9059SOL    HW238811   2.136   0.254   9.368  0.3504 -0.4295 -1.0985
 9060SOL     OW38812   0.282   3.901   9.100  0.0260 -0.0681 -0.4893
 9060SOL    HW138813   0.229   3.951   9.038 -0.9595 -1.3220 -0.6439
 9060SOL    HW238814   0.350   3.965   9.121  0.0390 -0.4300  0.5706
 9061SOL     OW38815   1.165   1.742   3.232  0.3106  0.2588  0.2929
 9061SOL    HW138816   1.179   1.734   3.138 -0.0838  3.4790 -0.0320
 9061SOL    HW238817   1.252   1.712   3.256  0.2992 -0.2514 -0.2820
 9062SOL     OW38818   1.340   0.317  11.903  0.3307 -0.6648 -0.1591
 9062SOL    HW138819   1.382   0.309  11.817 -0.5252  0.1219 -0.6412
 9062SOL    HW238820   1.406   0.289  11.966  0.5616  0.8079  0.2473
 9063SOL     OW38821   2.870   0.374   4.317 -0.4445 -0.0478  0.8235
 9063SOL    HW138822   2.778   0.383   4.342 -0.5291 -0.6086  0.6937
 9063SOL    HW238823   2.876   0.288   4.277  2.1718 -0.6621  2.5171
 9064SOL     OW38824   2.007   0.376   9.276  0.3151 -0.0251 -0.1553
 9064SOL    HW138825   2.031   0.465   9.251 -0.3501  0.2764  0.2618
 9064SOL    HW238826   1.993   0.342   9.187 -1.1306 -4.4577  1.7664
 9065SOL     OW38827   4.397   0.938   5.388 -0.0732 -0.3309  0.8476
 9065SOL    HW138828   4.445   0.942   5.305 -2.3242 -0.1105 -0.4514
 9065SOL    HW238829   4.315   0.897   5.360  1.3996 -1.9863 -0.9683
 9066SOL     OW38830   2.376   0.557  16.564  0.5874 -0.0233 -0.5934
 9066SOL    HW138831   2.450   0.508  16.527  2.0245  0.4513  1.6824
 9066SOL    HW238832   2.375   0.639  16.515 -0.8791  1.1471  1.4173
 9067SOL     OW38833   1.257   0.633   6.998  0.1471  0.7420 -0.0169
 9067SOL    HW138834   1.229   0.713   6.954 -0.6766  1.6661  2.1719
 9067SOL    HW238835   1.324   0.593   6.943  0.5407  0.6732  0.5054
 9068SOL     OW38836   3.685   1.949   2.147  0.2830  0.4703 -0.2851
 9068SOL    HW138837   3.747   1.991   2.207  0.2368  0.1737 -0.0292
 9068SOL    HW238838   3.740   1.878   2.114 -1.1000 -0.0731 -1.4458
 9069SOL     OW38839   1.377   3.257   2.910  0.2067  0.0209  1.1021
 9069SOL    HW138840   1.456   3.226   2.867  0.3631  1.3946  0.3944
 9069SOL    HW238841   1.312   3.203   2.865  1.8380 -2.4810  1.7975
 9070SOL     OW38842   0.438   0.597   0.114 -0.3881  0.5608  0.1284
 9070SOL    HW138843   0.383   0.656   0.166  1.4144 -1.5577  4.4578
 9070SOL    HW238844   0.523   0.638   0.131 -1.1628  1.3093  2.2963
 9071SOL     OW38845   2.334   2.319   5.226  0.0276 -0.1252 -0.5333
 9071SOL    HW138846   2.267   2.388   5.218 -0.4335 -0.6088 -0.8666
 9071SOL    HW238847   2.411   2.375   5.214 -0.9081  1.4186  0.5785
 9072SOL     OW38848   0.368   3.977   4.063 -0.1390 -0.6296  0.2018
 9072SOL    HW138849   0.461   3.975   4.040 -0.2585  0.9562 -0.4568
 9072SOL    HW238850   0.348   3.905   4.123 -0.4379  0.3582  1.3012
 9073SOL     OW38851   3.312   4.067   5.047 -0.1749 -0.2814  0.3897
 9073SOL    HW138852   3.335   4.094   5.136 -1.1025  0.5198  0.3818
 9073SOL    HW238853   3.282   3.980   5.074 -4.6365  0.9761 -0.5860
 9074SOL     OW38854   4.282   3.945  15.900 -0.2666 -0.1753  0.3490
 9074SOL    HW138855   4.214   4.004  15.931  1.8180  1.8394  1.1428
 9074SOL    HW238856   4.347   3.982  15.960 -1.0020 -1.4719  1.9543
 9075SOL     OW38857   4.477   3.139   8.631  0.0492 -0.2079  0.5799
 9075SOL    HW138858   4.393   3.183   8.617 -0.1069 -0.2636  1.3626
 9075SOL    HW238859   4.443   3.067   8.684 -2.6681 -0.4295 -1.4738
 9076SOL     OW38860   3.263   3.953   9.168  0.2568  0.1594 -0.3594
 9076SOL    HW138861   3.215   3.892   9.224  1.0896 -2.2683 -2.2993
 9076SOL    HW238862   3.297   4.018   9.230 -2.1039  0.5561  0.5464
 9077SOL     OW38863   0.227   0.582   8.386 -0.3638  0.1620 -0.4403
 9077SOL    HW138864   0.297   0.516   8.380 -1.3086 -0.8852  0.0929
 9077SOL    HW238865   0.212   0.612   8.296 -1.5206  0.2318 -0.2179
 9078SOL     OW38866   2.453   3.896  15.826 -0.0779  0.9389 -0.2212
 9078SOL    HW138867   2.420   3.975  15.868 -1.5242  0.7748 -1.0638
 9078SOL    HW238868   2.392   3.889  15.752  1.6964  1.6586 -1.7411
 9079SOL     OW38869   3.485   2.319   2.936  0.3242  0.1762  0.3519
 9079SOL    HW138870   3.481   2.382   2.863 -1.8646 -2.4003 -1.7733
 9079SOL    HW238871   3.553   2.350   2.995  1.2820 -1.1330 -0.0587
 9080SOL     OW38872   4.335   0.454   2.172  0.1018  0.0850 -0.5252
 9080SOL    HW138873   4.377   0.496   2.097 -0.5866 -1.0030 -1.5194
 9080SOL    HW238874   4.404   0.401   2.213 -1.5557 -1.4219  0.3132
 9081SOL     OW38875   1.711   0.661   8.974 -0.6962  0.7533 -0.1842
 9081SOL    HW138876   1.793   0.622   8.943 -2.2394 -0.8147 -2.3189
 9081SOL    HW238877   1.719   0.640   9.066 -0.5698  1.6605  0.0152
 9082SOL     OW38878   0.588   3.721  12.089  0.0317 -0.3746 -0.1131
 9082SOL    HW138879   0.681   3.709  12.071 -0.3543 -2.4707 -0.7103
 9082SOL    HW238880   0.587   3.696  12.181 -2.4885 -0.7115 -0.2228
 9083SOL     OW38881   4.722   2.605   8.334 -0.7269  0.1002 -0.0923
 9083SOL    HW138882   4.630   2.585   8.350 -0.7785 -0.3463 -0.9533
 9083SOL    HW238883   4.709   2.692   8.297  0.2487  0.1941 -0.2113
 9084SOL     OW38884   0.651   3.222   2.698 -0.3286 -0.0331  0.1502
 9084SOL    HW138885   0.622   3.314   2.697 -2.5369 -0.7223  1.1575
 9084SOL    HW238886   0.637   3.200   2.790  0.1569  0.0752  0.2520
 9085SOL     OW38887   4.501   1.829   9.723  0.2126 -0.7603 -0.1554
 9085SOL    HW138888   4.474   1.783   9.643  0.1039 -1.1272  0.0920
 9085SOL    HW238889   4.492   1.918   9.689  0.3003 -0.3903  0.8070
 9086SOL     OW38890   4.440   2.590  12.287  0.0061  0.5147  0.2823
 9086SOL    HW138891   4.362   2.643  12.268  0.3359  0.7064 -0.5389
 9086SOL    HW238892   4.508   2.633  12.235  1.7677 -0.7371  1.5521
 9087SOL     OW38893   3.651   2.096   8.847  0.3062  0.6370 -0.1384
 9087SOL    HW138894   3.577   2.135   8.895  0.4768  4.0686 -2.6907
 9087SOL    HW238895   3.608   2.093   8.762 -1.4683  1.5569  0.7135
 9088SOL     OW38896   4.140   2.590  12.311  0.0312 -0.1457  0.0604
 9088SOL    HW138897   4.129   2.658  12.245 -1.1430 -0.7289 -0.3447
 9088SOL    HW238898   4.127   2.511  12.259 -1.1805 -0.7420  1.2465
 9089SOL     OW38899   3.933   4.253   7.969 -0.0066  0.7691  0.1039
 9089SOL    HW138900   4.009   4.280   8.021  0.0766  0.3671  0.1925
 9089SOL    HW238901   3.857   4.283   8.018 -0.3958 -0.5931  0.3407
 9090SOL     OW38902   4.459   3.387   5.642 -0.0142 -0.3562  0.0692
 9090SOL    HW138903   4.493   3.311   5.690 -1.8144 -0.0772  1.7675
 9090SOL    HW238904   4.531   3.450   5.652  0.7916 -1.7365  3.0061
 9091SOL     OW38905   0.306   1.258   8.571 -0.3876 -0.2280 -0.3087
 9091SOL    HW138906   0.276   1.201   8.642 -1.6010  0.7497 -0.0413
 9091SOL    HW238907   0.241   1.234   8.505  0.0173 -0.5222 -0.5980
 9092SOL     OW38908   2.812   0.185   6.914  0.1037  0.5700  0.7775
 9092SOL    HW138909   2.804   0.091   6.896  0.7324  0.6146  0.2626
 9092SOL    HW238910   2.732   0.200   6.965 -0.3917  0.8535 -0.0948
 9093SOL     OW38911   1.324   2.709  16.326 -0.3743  0.2378 -0.0402
 9093SOL    HW138912   1.397   2.671  16.278 -1.2222  0.9410 -1.8899
 9093SOL    HW238913   1.358   2.789  16.364 -0.1513  1.4553 -2.7865
 9094SOL     OW38914   2.681   0.551   5.862 -0.6632  0.0195 -0.1692
 9094SOL    HW138915   2.659   0.644   5.855  1.2134  0.4192 -0.7946
 9094SOL    HW238916   2.688   0.536   5.767 -2.3914 -0.1103 -0.2817
 9095SOL     OW38917   4.634   3.922  15.812 -0.2817 -0.0623 -0.5780
 9095SOL    HW138918   4.641   3.917  15.907 -0.4755 -1.2606 -0.6215
 9095SOL    HW238919   4.636   4.016  15.796 -0.3135  0.2907  1.5058
 9096SOL     OW38920   2.799   2.770  15.567 -0.0933  0.5674 -0.2615
 9096SOL    HW138921   2.718   2.779  15.517 -0.8695  1.5081  1.1735
 9096SOL    HW238922   2.839   2.709  15.504 -1.4548  0.5887 -1.1382
 9097SOL     OW38923   0.380   2.541   0.675 -0.5486 -0.5284 -0.1690
 9097SOL    HW138924   0.463   2.497   0.694  1.1830  3.1655  0.9217
 9097SOL    HW238925   0.330   2.523   0.754  1.1846  0.0849  1.0583
 9098SOL     OW38926   3.134   3.452   7.548 -0.8860 -0.0597  0.1514
 9098SOL    HW138927   3.123   3.466   7.454 -0.3675  1.2738  0.2896
 9098SOL    HW238928   3.178   3.367   7.545  1.1369  0.9317  1.9190
 9099SOL     OW38929   2.646   0.182   1.915  0.1690 -0.9016  0.0903
 9099SOL    HW138930   2.704   0.146   1.981 -0.0824  1.7423  1.7476
 9099SOL    HW238931   2.682   0.269   1.900 -0.5872 -0.6617 -0.3386
 9100SOL     OW38932   2.880   4.285   7.808 -0.0477 -0.6925 -0.6242
 9100SOL    HW138933   2.975   4.300   7.803  0.1138 -1.1959  0.8507
 9100SOL    HW238934   2.858   4.333   7.887 -0.3697 -0.5611 -0.7959
 9101SOL     OW38935   0.184   1.262   6.774 -0.3767  0.6409  0.5970
 9101SOL    HW138936   0.259   1.321   6.767 -0.2988  0.6201  1.2862
 9101SOL    HW238937   0.166   1.251   6.681 -3.5629 -0.5111  1.3484
 9102SOL     OW38938   3.811   0.625   2.109 -0.4767  0.2527  0.4763
 9102SOL    HW138939   3.719   0.653   2.108 -0.5098  0.0732 -1.1481
 9102SOL    HW238940   3.815   0.576   2.027 -1.5610 -0.2410  0.7204
 9103SOL     OW38941   1.456   0.615   2.659  0.3180 -0.0424  0.3726
 9103SOL    HW138942   1.457   0.521   2.641 -0.8194 -0.0186  0.2015
 9103SOL    HW238943   1.521   0.654   2.600  0.8690  0.6152  1.4084
 9104SOL     OW38944   3.289   0.147   9.492 -0.2605 -0.0564 -0.3591
 9104SOL    HW138945   3.217   0.200   9.457 -0.6718 -2.1530 -2.7080
 9104SOL    HW238946   3.247   0.062   9.504 -0.6466 -0.0353 -1.6107
 9105SOL     OW38947   1.866   0.872   3.020 -0.2269  0.1611  0.0319
 9105SOL    HW138948   1.908   0.809   3.079 -3.0712 -1.2341  0.5637
 9105SOL    HW238949   1.777   0.865   3.053  1.4169 -0.1010  4.3586
 9106SOL     OW38950   4.297   1.515  12.557 -0.5439 -0.0930 -0.2069
 9106SOL    HW138951   4.375   1.487  12.605 -0.4685  2.4525  1.1395
 9106SOL    HW238952   4.230   1.457  12.594  0.0122 -1.9534 -2.1405
 9107SOL     OW38953   0.873   4.333   8.368 -0.1017  0.1150  1.2323
 9107SOL    HW138954   0.935   4.334   8.440  0.9839 -0.0895  0.3048
 9107SOL    HW238955   0.806   4.295   8.425  0.8263  0.8143  2.7879
 9108SOL     OW38956   1.294   4.321   1.647 -0.3123 -0.3279 -0.4732
 9108SOL    HW138957   1.278   4.378   1.572  2.0065  1.1370  0.1412
 9108SOL    HW238958   1.336   4.377   1.712  1.3420  0.4707 -2.2623
 9109SOL     OW38959   1.135   3.652  13.719 -0.3228 -0.5345  0.5108
 9109SOL    HW138960   1.164   3.568  13.684 -0.1348  0.1496 -0.9918
 9109SOL    HW238961   1.040   3.642  13.732 -0.7446  1.1282 -1.2740
 9110SOL     OW38962   4.240   3.140   7.028  0.3122 -0.1343  0.5988
 9110SOL    HW138963   4.303   3.112   6.962 -1.5971 -3.3996  0.1805
 9110SOL    HW238964   4.276   3.078   7.091  2.7172  0.6632  0.0143
 9111SOL     OW38965   2.750   3.103  15.579 -0.3344 -0.3801 -0.5514
 9111SOL    HW138966   2.657   3.115  15.598  0.7976  0.4653  4.4330
 9111SOL    HW238967   2.743   3.052  15.498  2.3135 -4.1914  1.5807
 9112SOL     OW38968   3.903   4.451   8.455 -0.7364 -0.1249 -0.4670
 9112SOL    HW138969   3.903   4.413   8.543 -1.1231 -1.3864 -1.0197
 9112SOL    HW238970   3.989   4.493   8.450 -0.8467  0.2564  0.8844
 9113SOL     OW38971   1.989   1.430   1.912 -0.0128  0.1937 -0.0315
 9113SOL    HW138972   1.932   1.392   1.845  1.6660 -0.1335 -1.2713
 9113SOL    HW238973   2.002   1.521   1.887  0.7964 -0.1391 -0.8279
 9114SOL     OW38974   3.037   4.024   3.352 -0.0747 -0.0820 -0.4698
 9114SOL    HW138975   2.963   4.050   3.407 -0.6868 -2.6290 -0.0868
 9114SOL    HW238976   2.998   3.948   3.309  0.9355 -1.4730  1.0600
 9115SOL     OW38977   1.613   1.367   1.900 -0.4703  0.2306 -0.5953
 9115SOL    HW138978   1.584   1.454   1.926 -1.5549 -0.4473  0.4447
 9115SOL    HW238979   1.528   1.324   1.906  0.6322 -1.5221  2.0397
 9116SOL     OW38980   0.506   0.954   9.538 -0.2020  0.3876 -0.2458
 9116SOL    HW138981   0.438   0.988   9.595 -0.0770 -0.3793  0.3632
 9116SOL    HW238982   0.471   0.962   9.449 -0.1489 -0.3577 -0.3317
 9117SOL     OW38983   0.200   0.370   6.646  0.3360 -0.0660 -0.0610
 9117SOL    HW138984   0.262   0.298   6.655 -1.7404 -2.1257 -2.3963
 9117SOL    HW238985   0.143   0.347   6.720 -1.1413 -3.0132 -2.1378
 9118SOL     OW38986   3.714   1.625  16.974  0.2878 -0.2352 -0.3030
 9118SOL    HW138987   3.785   1.645  17.036 -1.0575 -0.6335  1.3752
 9118SOL    HW238988   3.644   1.662  17.028  0.1725  0.0756 -0.6711
 9119SOL     OW38989   0.516   1.225   6.714  0.1211  0.3011 -0.2460
 9119SOL    HW138990   0.514   1.319   6.732  2.0891  0.2377  0.3587
 9119SOL    HW238991   0.593   1.219   6.658 -0.3242  1.5099 -0.9708
 9120SOL     OW38992   1.177   4.446   9.157  0.0332 -0.4573  0.0301
 9120SOL    HW138993   1.270   4.429   9.140 -0.1684  0.0417 -1.5424
 9120SOL    HW238994   1.143   4.453   9.068 -1.4367  1.7755  0.7663
 9121SOL     OW38995   4.231   0.307   7.807 -0.0025 -0.1384 -0.3036
 9121SOL    HW138996   4.247   0.212   7.815  1.2395  0.2991  2.4485
 9121SOL    HW238997   4.313   0.327   7.762 -0.0027  1.4719  0.4333
 9122SOL     OW38998   1.583   2.173   7.553  0.5383  0.2779  0.0417
 9122SOL    HW138999   1.651   2.212   7.608 -1.0575  3.4370 -0.2214
 9122SOL    HW239000   1.557   2.252   7.505  0.1349 -0.2421 -0.6010
 9123SOL     OW39001   1.673   4.712   3.715 -0.6568  0.0183 -0.3380
 9123SOL    HW139002   1.723   4.638   3.749 -1.0238  1.1943  2.7342
 9123SOL    HW239003   1.737   0.027   3.665  0.9363  0.8871  2.5756
 9124SOL     OW39004   3.611   4.220  11.159  0.3666  0.1146  0.0940
 9124SOL    HW139005   3.637   4.204  11.069  3.0594 -0.9909  1.0545
 9124SOL    HW239006   3.585   4.312  11.149  0.4811  0.0684 -0.6147
 9125SOL     OW39007   4.508   3.719  12.539 -0.6812 -0.2374  0.1350
 9125SOL    HW139008   4.515   3.777  12.464  0.1190  0.6909  0.9180
 9125SOL    HW239009   4.552   3.641  12.508  1.4067  0.4852  1.2693
 9126SOL     OW39010   1.079   4.368   7.331  0.8433  0.0470  0.7130
 9126SOL    HW139011   0.990   4.397   7.354 -0.0237 -2.4405  0.4647
 9126SOL    HW239012   1.066   4.392   7.239 -0.0400 -0.1761  0.7733
 9127SOL     OW39013   1.192   0.944  13.128  0.0710  0.4142  0.6887
 9127SOL    HW139014   1.280   0.963  13.095 -0.4641 -3.1931 -2.7056
 9127SOL    HW239015   1.146   1.027  13.116 -1.8086 -0.6007  1.0202
 9128SOL     OW39016   0.207   4.401   6.990  0.1089 -0.3583  0.9337
 9128SOL    HW139017   0.164   4.327   7.034  1.7844 -1.5121  0.6318
 9128SOL    HW239018   0.296   4.366   6.986  0.3369  0.1211  1.6031
 9129SOL     OW39019   2.690   1.267   3.384 -1.0082  0.3057  0.5506
 9129SOL    HW139020   2.735   1.187   3.410 -0.9230 -0.0673 -0.7327
 9129SOL    HW239021   2.608   1.226   3.356 -0.3638 -1.1603  0.8474
 9130SOL     OW39022   0.034   2.580   3.201 -0.6991 -0.0588  0.9163
 9130SOL    HW139023   0.038   2.609   3.110  1.6402 -0.9282  0.7346
 9130SOL    HW239024   0.091   2.645   3.242  0.4433 -0.7490  0.4214
 9131SOL     OW39025   0.428   4.612  16.882 -0.1124 -0.7440  0.0091
 9131SOL    HW139026   0.505   4.652  16.842 -0.7564 -1.3700 -1.8918
 9131SOL    HW239027   0.446   4.614  16.976  0.2134 -3.7407  0.0212
 9132SOL     OW39028   1.753   0.949   1.881 -0.1402 -0.4418  0.0146
 9132SOL    HW139029   1.671   0.975   1.838  0.1847  0.2323 -0.1897
 9132SOL    HW239030   1.764   1.030   1.930 -1.9912  1.8424 -3.3687
 9133SOL     OW39031   1.066   4.382   3.685 -0.5211  0.4312  0.2068
 9133SOL    HW139032   1.121   4.348   3.756 -0.1097  0.7313  0.0319
 9133SOL    HW239033   1.036   4.303   3.641  2.1776 -0.6842  0.3658
 9134SOL     OW39034   3.693   2.257   4.869  0.2746  0.3563  0.4446
 9134SOL    HW139035   3.646   2.198   4.809  1.6449 -0.5550  0.2813
 9134SOL    HW239036   3.742   2.313   4.809  0.6499  1.3748  1.7025
 9135SOL     OW39037   3.404   2.060   2.921  0.1701  0.3083 -0.4261
 9135SOL    HW139038   3.374   2.051   2.831 -0.7477  3.1319 -0.3904
 9135SOL    HW239039   3.444   2.147   2.923  2.7054 -0.8272 -2.4837
 9136SOL     OW39040   2.044   0.572  12.168  0.0882  0.6018  0.6531
 9136SOL    HW139041   2.060   0.509  12.098 -0.4209 -0.8394  1.8438
 9136SOL    HW239042   2.134   0.602  12.180  0.2154  0.0689  1.0145
 9137SOL     OW39043   0.997   1.061   2.912 -0.5624 -0.3232  0.1382
 9137SOL    HW139044   0.903   1.066   2.932 -0.2594  0.0829  1.4686
 9137SOL    HW239045   0.999   1.054   2.816 -0.7012 -2.5686  0.3052
 9138SOL     OW39046   2.000   4.148   6.232 -0.1295 -0.3540 -0.3417
 9138SOL    HW139047   1.986   4.214   6.165  3.0886 -1.2314 -1.8893
 9138SOL    HW239048   2.083   4.105   6.211 -0.1870  0.3129 -1.8773
 9139SOL     OW39049   2.444   2.931   8.641 -0.5794 -0.2471 -0.1161
 9139SOL    HW139050   2.533   2.899   8.629 -0.6306  0.3243 -2.0622
 9139SOL    HW239051   2.414   2.949   8.552  1.5693 -0.1135 -0.8012
 9140SOL     OW39052   4.733   0.160   5.436  0.2211 -0.4918 -0.9352
 9140SOL    HW139053   4.646   0.133   5.407  0.4304 -2.9422  0.8102
 9140SOL    HW239054   0.052   0.082   5.421  2.1355  0.6486  0.0795
 9141SOL     OW39055   0.184   1.123   5.982 -0.0801 -0.1100  0.3372
 9141SOL    HW139056   0.127   1.177   5.928 -1.0769 -1.2014  0.3143
 9141SOL    HW239057   0.210   1.058   5.917  0.1397  0.3338 -0.0196
 9142SOL     OW39058   3.616   3.362  17.115  0.1279 -0.5022  0.2125
 9142SOL    HW139059   3.542   3.308  17.143 -0.4974  0.1264 -0.2484
 9142SOL    HW239060   3.679   3.351  17.186 -0.3664 -0.7356  0.6142
 9143SOL     OW39061   1.928   1.999   7.002  0.2699 -0.2172  0.4975
 9143SOL    HW139062   1.850   2.021   7.053 -1.6555 -0.4171 -2.3793
 9143SOL    HW239063   1.980   2.070   7.041 -1.0331  0.3574  1.1638
 9144SOL     OW39064   1.595   1.662   1.598 -0.1239 -0.0696  0.3411
 9144SOL    HW139065   1.677   1.613   1.603 -0.8944 -1.5548 -1.4345
 9144SOL    HW239066   1.637   1.718   1.663 -1.2418  0.6878  0.4079
 9145SOL     OW39067   1.403   3.681   4.774  0.7308 -0.0892 -0.2548
 9145SOL    HW139068   1.321   3.632   4.767 -0.1333  0.9749  2.7456
 9145SOL    HW239069   1.381   3.766   4.735  1.7295  0.8711  1.2909
 9146SOL     OW39070   0.366   0.171   1.809 -0.3480  0.0277 -0.4979
 9146SOL    HW139071   0.398   0.171   1.718 -1.3163  2.2221 -0.8410
 9146SOL    HW239072   0.273   0.194   1.798 -0.8886 -1.9570  0.0708
 9147SOL     OW39073   0.116   1.963   8.403  0.5690  0.6305 -0.1062
 9147SOL    HW139074   0.205   1.940   8.431  1.0742  3.0324  0.3146
 9147SOL    HW239075   0.110   1.906   8.326  1.8175  0.1879  0.1208
 9148SOL     OW39076   4.663   2.918  11.126 -0.5333 -0.1971 -0.2217
 9148SOL    HW139077   4.576   2.918  11.167 -0.1094 -0.6967  0.6639
 9148SOL    HW239078   4.686   2.826  11.133 -1.9465 -0.5272 -0.0173
 9149SOL     OW39079   3.888   2.838   6.925 -0.3538 -0.0575 -0.4388
 9149SOL    HW139080   3.937   2.920   6.916 -2.7826  1.3102 -1.0420
 9149SOL    HW239081   3.961   2.776   6.927  1.5397  2.1601 -1.2617
 9150SOL     OW39082   1.232   0.328   2.849  0.3306 -0.0985 -0.3916
 9150SOL    HW139083   1.203   0.417   2.833 -0.5063 -0.2583  0.2289
 9150SOL    HW239084   1.258   0.300   2.761  0.4691 -2.0422  0.2552
 9151SOL     OW39085   2.328   1.551  11.839 -0.1962  0.2450  0.2284
 9151SOL    HW139086   2.331   1.579  11.748  0.0351 -1.3176 -0.2421
 9151SOL    HW239087   2.262   1.482  11.841 -2.2338  2.1224 -3.1241
 9152SOL     OW39088   3.523   2.216   6.371  0.4911 -0.2142 -0.1240
 9152SOL    HW139089   3.604   2.267   6.367  1.0658 -1.0497  0.8539
 9152SOL    HW239090   3.508   2.214   6.466  0.0989 -0.7034 -0.1956
 9153SOL     OW39091   1.593   3.567   3.303 -0.2038 -0.0471 -0.7620
 9153SOL    HW139092   1.553   3.482   3.283 -0.7571  0.0749 -0.1447
 9153SOL    HW239093   1.579   3.576   3.397 -1.0766 -0.4378 -0.8602
 9154SOL     OW39094   1.085   0.629   5.929  0.1925 -0.1676  0.7641
 9154SOL    HW139095   1.160   0.573   5.948  1.7446  1.6141 -0.1265
 9154SOL    HW239096   1.020   0.559   5.925  0.6346 -0.5680  0.5543
 9155SOL     OW39097   4.029   2.205   5.154 -0.1122  0.1830  1.1224
 9155SOL    HW139098   3.935   2.216   5.166 -0.3385 -1.0475  0.4372
 9155SOL    HW239099   4.062   2.261   5.225 -2.4156  1.8342  0.8890
 9156SOL     OW39100   3.313   1.447  15.333  0.8197  0.2656 -0.1276
 9156SOL    HW139101   3.290   1.520  15.276 -1.1738 -0.4885 -0.3048
 9156SOL    HW239102   3.389   1.490  15.372  1.1175 -0.0285 -0.3815
 9157SOL     OW39103   0.953   2.039   3.432 -0.3247 -0.2462  0.0448
 9157SOL    HW139104   0.937   2.125   3.470 -0.3663 -0.8037  1.2945
 9157SOL    HW239105   1.024   2.051   3.368 -0.3152  0.5175  0.2079
 9158SOL     OW39106   0.570   0.010   0.848  0.1291 -0.1974 -0.3745
 9158SOL    HW139107   0.485   0.050   0.829 -0.4697 -1.0875  0.4073
 9158SOL    HW239108   0.531   4.680   0.906 -1.1557  1.1433  0.2776
 9159SOL     OW39109   3.546   3.318   8.173  0.3522  0.2547  0.2599
 9159SOL    HW139110   3.499   3.333   8.091 -0.6158  1.6490  1.0769
 9159SOL    HW239111   3.580   3.234   8.142  0.4965  0.1852  0.6026
 9160SOL     OW39112   4.063   3.934   8.381  0.6027  0.4494  0.3057
 9160SOL    HW139113   4.119   3.859   8.404  2.3436  1.9260  0.8713
 9160SOL    HW239114   4.109   3.961   8.302  2.6339 -1.2773  0.8910
 9161SOL     OW39115   3.206   3.213  13.301  0.0627 -0.0864  0.5409
 9161SOL    HW139116   3.151   3.283  13.336 -1.9905 -0.4315 -2.0339
 9161SOL    HW239117   3.169   3.203  13.214  0.0749 -1.3143  0.6871
 9162SOL     OW39118   1.697   2.192   8.165  0.0292  0.3291 -0.2975
 9162SOL    HW139119   1.659   2.274   8.195 -1.9103 -0.7428  0.1717
 9162SOL    HW239120   1.732   2.167   8.250 -0.1460  1.9696  0.2386
 9163SOL     OW39121   4.028   4.458   9.725  1.1618 -0.1124  0.2165
 9163SOL    HW139122   4.100   4.521   9.724  0.7775  0.3451  2.1617
 9163SOL    HW239123   4.000   4.457   9.817  0.9989  0.7746  0.1777
 9164SOL     OW39124   3.696   0.577   7.334  0.5654  0.0816 -0.8862
 9164SOL    HW139125   3.639   0.522   7.280 -2.1578  1.9080  0.1529
 9164SOL    HW239126   3.765   0.600   7.272  0.4192  0.0149 -1.0738
 9165SOL     OW39127   0.518   2.012  16.610 -0.0816  0.5650 -0.3755
 9165SOL    HW139128   0.531   2.033  16.703  0.4693 -0.2609 -0.2687
 9165SOL    HW239129   0.478   2.096  16.586  4.5610  3.0766  0.6406
 9166SOL     OW39130   1.445   1.761   9.229  0.2415  0.2733  0.2456
 9166SOL    HW139131   1.424   1.701   9.300 -0.2425  1.0767  0.7878
 9166SOL    HW239132   1.369   1.737   9.175 -0.3371 -0.5500  1.4209
 9167SOL     OW39133   0.276   2.410   2.549  0.5864 -0.5647 -0.2641
 9167SOL    HW139134   0.351   2.470   2.542 -0.4562  0.8911  0.9097
 9167SOL    HW239135   0.232   2.438   2.469 -0.0248  0.0800  0.2915
 9168SOL     OW39136   1.446   2.037  12.847  0.2537  0.0594 -0.1254
 9168SOL    HW139137   1.488   2.064  12.929  0.7714 -1.6061  0.1722
 9168SOL    HW239138   1.504   1.968  12.816  0.4968 -0.2616  1.0245
 9169SOL     OW39139   4.070   2.753   0.431  0.3156  0.6618 -0.4274
 9169SOL    HW139140   4.133   2.824   0.413  0.8671  0.7724  1.9039
 9169SOL    HW239141   4.062   2.732   0.338 -0.9147 -2.2615  0.3412
 9170SOL     OW39142   3.598   2.119  15.009 -0.7434  0.7263 -0.1301
 9170SOL    HW139143   3.549   2.066  14.945  0.5407  1.8280 -2.0232
 9170SOL    HW239144   3.536   2.139  15.079  0.7058 -0.9994  1.6225
 9171SOL     OW39145   3.109   3.286   2.455 -0.2108 -0.1816  0.2023
 9171SOL    HW139146   3.087   3.331   2.536  2.4864  1.9779 -0.2847
 9171SOL    HW239147   3.063   3.346   2.396  0.5495  0.1635 -0.0337
 9172SOL     OW39148   2.862   2.863  13.848 -0.0433  0.1719 -0.0835
 9172SOL    HW139149   2.920   2.867  13.772  0.0010 -0.2015 -0.0654
 9172SOL    HW239150   2.838   2.771  13.850  1.2347 -0.1269  1.3060
 9173SOL     OW39151   3.900   4.032   3.378  0.1526  0.1391 -0.5682
 9173SOL    HW139152   3.976   4.023   3.321  1.5021 -0.8146  1.3723
 9173SOL    HW239153   3.827   3.997   3.326 -0.7708  0.9405  0.1797
 9174SOL     OW39154   4.060   1.414   9.495 -0.0973  0.0399  0.0579
 9174SOL    HW139155   4.102   1.355   9.432  1.0535  1.8808 -0.9055
 9174SOL    HW239156   3.973   1.412   9.454  0.9252 -0.9594 -2.0822
 9175SOL     OW39157   3.032   2.704   8.722  0.7000  0.1802 -0.0864
 9175SOL    HW139158   3.106   2.693   8.782  1.2042  2.0025 -0.3855
 9175SOL    HW239159   2.956   2.708   8.781  1.1586 -2.9170  0.6922
 9176SOL     OW39160   2.101   3.499   2.600 -0.3745  0.2177 -0.2069
 9176SOL    HW139161   2.119   3.544   2.518 -0.0160 -2.0222 -1.3388
 9176SOL    HW239162   2.051   3.556   2.659 -0.6748  1.1461 -1.3750
 9177SOL     OW39163   1.168   1.584   6.154  0.5374 -0.0871  0.2951
 9177SOL    HW139164   1.162   1.503   6.204 -2.3239 -0.1855 -0.2144
 9177SOL    HW239165   1.224   1.634   6.213  0.9608 -1.1994  0.8308
 9178SOL     OW39166   3.319   3.879   2.824  0.1793  0.0805 -0.3816
 9178SOL    HW139167   3.265   3.857   2.748 -2.3558 -0.3686  1.5303
 9178SOL    HW239168   3.287   3.966   2.847 -1.2733 -1.3238  2.9598
 9179SOL     OW39169   0.214   2.093  11.914  0.1670  0.4412  0.3147
 9179SOL    HW139170   0.309   2.104  11.920  0.2350  0.4879 -0.8246
 9179SOL    HW239171   0.181   2.183  11.916 -0.3261  0.2402  1.0898
 9180SOL     OW39172   1.975   3.490  17.445 -0.3829  0.5085 -0.1423
 9180SOL    HW139173   1.958   3.561  17.383 -2.7771 -0.0667 -0.1318
 9180SOL    HW239174   1.886   3.458  17.434  0.2413 -1.1406 -0.4380
 9181SOL     OW39175   3.782   2.897   2.601  0.4741  0.6263 -0.0839
 9181SOL    HW139176   3.687   2.889   2.609  0.5734 -0.3597  0.1124
 9181SOL    HW239177   3.801   2.973   2.656  0.6366 -0.7789  1.8490
 9182SOL     OW39178   1.951   0.746   1.428  0.1072  0.4026  0.4388
 9182SOL    HW139179   2.034   0.710   1.399 -0.3297  0.0931 -0.4359
 9182SOL    HW239180   1.970   0.840   1.435  0.4283  0.2330  1.7002
 9183SOL     OW39181   1.577   1.305   5.671 -0.5928 -0.7474 -0.4556
 9183SOL    HW139182   1.562   1.396   5.645  0.5872 -0.8821 -1.5562
 9183SOL    HW239183   1.504   1.257   5.632 -1.5757  1.3627 -1.2019
 9184SOL     OW39184   0.469   0.113   4.540  0.5140 -0.2208  0.0884
 9184SOL    HW139185   0.529   0.080   4.607  0.3947 -0.8827 -0.1304
 9184SOL    HW239186   0.408   0.040   4.529  0.3956  0.4138 -3.3148
 9185SOL     OW39187   0.194   0.234   3.365  0.6981  0.0346  0.3089
 9185SOL    HW139188   0.283   0.214   3.336  0.8176 -0.0044  0.6997
 9185SOL    HW239189   0.214   0.314   3.414  0.7945 -0.2221  0.6858
 9186SOL     OW39190   1.968   4.413   8.252 -0.5907 -0.2139  0.2429
 9186SOL    HW139191   2.024   4.394   8.327 -0.2295 -0.0141  0.0212
 9186SOL    HW239192   2.000   4.354   8.184 -1.2450  1.8446 -1.8390
 9187SOL     OW39193   4.048   2.322   4.435 -0.2267  0.0609  0.7246
 9187SOL    HW139194   4.002   2.405   4.422  0.3987  0.3388  0.3024
 9187SOL    HW239195   4.095   2.355   4.512  1.8210 -0.2844 -0.3871
 9188SOL     OW39196   1.546   3.263   2.476 -0.3661  0.4533 -0.3043
 9188SOL    HW139197   1.639   3.285   2.486  0.1115 -2.0498  0.7892
 9188SOL    HW239198   1.510   3.322   2.542 -1.0920  1.0784 -1.2628
 9189SOL     OW39199   0.568   0.431   5.115  0.0159 -0.3879 -0.5634
 9189SOL    HW139200   0.477   0.410   5.138  0.0918  1.6508  1.5944
 9189SOL    HW239201   0.588   0.349   5.072  0.2509  1.0414 -3.1851
 9190SOL     OW39202   4.506   3.829   6.129  0.8508 -0.6884  0.3859
 9190SOL    HW139203   4.472   3.899   6.073 -1.0307 -2.1458 -0.3062
 9190SOL    HW239204   4.519   3.770   6.055  0.9482 -3.5897  2.7341
 9191SOL     OW39205   0.004   0.844   8.196 -0.0649  0.1799 -0.2249
 9191SOL    HW139206   0.075   0.786   8.170 -0.4284  0.5762 -2.0916
 9191SOL    HW239207   4.707   0.802   8.276 -0.2780 -1.2823 -1.0918
 9192SOL     OW39208   4.360   1.381   0.894  0.1439  0.3119 -0.2200
 9192SOL    HW139209   4.350   1.288   0.913  3.1318  0.3885  1.8289
 9192SOL    HW239210   4.406   1.376   0.810 -1.3387  3.7835 -1.2466
 9193SOL     OW39211   4.446   4.597   6.691  0.6224  0.0859 -0.7666
 9193SOL    HW139212   4.378   4.633   6.633 -0.2805 -1.2272 -0.5283
 9193SOL    HW239213   4.401   4.538   6.753  0.6670  2.6685  1.6986
 9194SOL     OW39214   1.523   1.632   3.229 -0.3947  0.0313  0.3736
 9194SOL    HW139215   1.598   1.598   3.181 -0.3492  0.6261  0.0179
 9194SOL    HW239216   1.480   1.547   3.239 -2.1533  0.7055 -1.2295
 9195SOL     OW39217   0.746   2.140   9.195 -0.0462  0.1702  0.2662
 9195SOL    HW139218   0.791   2.197   9.257  1.2630 -1.4656  0.8211
 9195SOL    HW239219   0.733   2.204   9.124  1.3193 -0.9931 -1.0494
 9196SOL     OW39220   1.115   1.533   9.369  0.2392  0.0117  0.4123
 9196SOL    HW139221   1.036   1.495   9.332 -0.1318 -1.6068  2.9291
 9196SOL    HW239222   1.080   1.621   9.384 -0.8572 -0.2567 -0.5834
 9197SOL     OW39223   2.756   1.476   6.741  0.8545  0.2268  0.2332
 9197SOL    HW139224   2.684   1.539   6.743  1.3303  0.8604 -2.7927
 9197SOL    HW239225   2.731   1.401   6.795  0.3663 -0.8641 -1.4917
 9198SOL     OW39226   1.819   1.323   4.779 -0.4960  0.5034 -0.1311
 9198SOL    HW139227   1.804   1.260   4.708 -1.4239  0.1119  0.4085
 9198SOL    HW239228   1.744   1.300   4.834 -1.1221 -0.9897 -1.5931
 9199SOL     OW39229   2.070   3.113   5.185  0.0849  0.0674 -0.4591
 9199SOL    HW139230   2.009   3.146   5.119  1.5948  0.9729 -1.3959
 9199SOL    HW239231   2.043   3.175   5.252 -0.7684 -0.0568 -0.6866
 9200SOL     OW39232   1.936   0.266   4.584 -0.3221  0.0658  0.0090
 9200SOL    HW139233   1.897   0.338   4.534 -0.8676 -0.2445 -0.0168
 9200SOL    HW239234   1.865   0.235   4.640  0.2127  0.5969  0.9705
 9201SOL     OW39235   0.758   4.552   5.862  0.1030  0.0915  0.2457
 9201SOL    HW139236   0.673   4.593   5.881  0.5820  1.7858 -1.2206
 9201SOL    HW239237   0.775   4.511   5.946 -0.6633 -0.3772  0.1766
 9202SOL     OW39238   0.988   2.154   8.943 -0.5455 -0.1167 -0.4538
 9202SOL    HW139239   1.017   2.101   9.017 -0.5051  0.2788 -0.1828
 9202SOL    HW239240   1.058   2.130   8.882  0.0050 -0.0489  0.1458
 9203SOL     OW39241   2.572   4.499   3.724  0.6440 -0.0513  0.0149
 9203SOL    HW139242   2.665   4.522   3.719  0.7923 -0.6664 -0.0043
 9203SOL    HW239243   2.569   4.411   3.762  2.0109 -0.4003 -0.6689
 9204SOL     OW39244   0.227   4.423   1.028 -0.5498 -0.1427 -0.3489
 9204SOL    HW139245   0.152   4.370   1.055 -2.2282  1.9607 -0.9219
 9204SOL    HW239246   0.250   4.372   0.950  0.5955  0.9053 -0.6879
 9205SOL     OW39247   1.817   3.816   7.215 -0.0568  0.3155 -0.4238
 9205SOL    HW139248   1.726   3.814   7.185 -0.5778 -1.6044  1.2758
 9205SOL    HW239249   1.815   3.887   7.279 -1.6104  0.5262 -0.7025
 9206SOL     OW39250   1.534   3.985   6.022  0.7241  0.1178  0.0712
 9206SOL    HW139251   1.599   4.021   6.082  0.9138 -0.9392  0.5057
 9206SOL    HW239252   1.516   3.903   6.068  0.3062 -1.0621 -2.2268
 9207SOL     OW39253   4.439   0.846   8.215 -0.0712 -0.1596  0.2676
 9207SOL    HW139254   4.368   0.786   8.194 -0.2594  0.4825 -0.9050
 9207SOL    HW239255   4.501   0.799   8.271  0.5007  0.9109  0.5330
 9208SOL     OW39256   3.677   2.564   5.261  0.4035 -1.0024 -0.1124
 9208SOL    HW139257   3.601   2.506   5.251 -0.6974  0.8913 -2.5957
 9208SOL    HW239258   3.637   2.650   5.255  0.1094 -1.1942 -0.9422
 9209SOL     OW39259   1.130   3.323   6.780  0.0098 -0.1272 -0.2666
 9209SOL    HW139260   1.168   3.251   6.830  0.3174 -0.3487 -0.8183
 9209SOL    HW239261   1.190   3.393   6.808 -0.0132 -0.1920 -0.0540
 9210SOL     OW39262   0.397   4.141  11.646 -0.1249 -0.1093 -0.3217
 9210SOL    HW139263   0.472   4.188  11.683 -0.6205  1.5399 -1.4122
 9210SOL    HW239264   0.378   4.078  11.715 -1.5398  1.1244  0.4081
 9211SOL     OW39265   3.230   2.765   8.202 -0.2565 -0.5451 -0.3549
 9211SOL    HW139266   3.300   2.829   8.190 -0.2599 -0.1772  1.5875
 9211SOL    HW239267   3.266   2.691   8.153 -0.2614 -0.2834 -0.7503
 9212SOL     OW39268   4.467   2.949   4.404 -0.0990  0.9989  0.0681
 9212SOL    HW139269   4.374   2.938   4.425 -0.4471  1.6212 -1.1459
 9212SOL    HW239270   4.460   3.023   4.343 -0.5036 -0.5553 -1.7542
 9213SOL     OW39271   2.172   2.238   1.440 -0.3505  0.1541  0.2397
 9213SOL    HW139272   2.218   2.160   1.473 -1.5535 -1.2555 -1.4443
 9213SOL    HW239273   2.118   2.205   1.368 -0.4604  0.0514  0.3688
 9214SOL     OW39274   2.327   0.601   2.153  0.0368  0.5994  0.3238
 9214SOL    HW139275   2.251   0.592   2.210  1.0239  1.7773  1.8095
 9214SOL    HW239276   2.378   0.645   2.220 -1.1953 -0.4283  1.9300
 9215SOL     OW39277   0.098   4.091   3.220 -0.3199 -0.0655  0.6000
 9215SOL    HW139278   0.097   4.098   3.315 -0.7768  2.3837  0.4080
 9215SOL    HW239279   0.089   3.996   3.219  3.4514 -0.4206  1.2092
 9216SOL     OW39280   0.138   0.735  16.554  0.2862 -0.2165  0.1666
 9216SOL    HW139281   0.188   0.719  16.474 -1.7505  0.5251 -1.2449
 9216SOL    HW239282   0.067   0.673  16.538 -1.8649  2.6782 -1.4057
 9217SOL     OW39283   0.813   2.315  13.777 -0.5970 -0.2019  0.1667
 9217SOL    HW139284   0.800   2.342  13.686  2.5608 -0.4589 -0.3635
 9217SOL    HW239285   0.727   2.284  13.805 -0.3056 -2.0085 -0.9623
 9218SOL     OW39286   1.964   2.876   4.424 -0.1304 -0.4998 -0.8631
 9218SOL    HW139287   1.914   2.796   4.410 -1.5925  0.5547 -1.7089
 9218SOL    HW239288   1.970   2.863   4.519  2.6536  1.2727 -0.7836
 9219SOL     OW39289   2.474   4.632  13.552 -0.3061  0.3595 -0.7769
 9219SOL    HW139290   2.407   4.602  13.613 -0.3332 -0.7179 -1.3340
 9219SOL    HW239291   2.425   4.687  13.492  0.5715  1.1241 -0.7886
 9220SOL     OW39292   1.407   4.127   3.924 -0.8608 -0.0511  0.1754
 9220SOL    HW139293   1.367   4.053   3.879  1.2148 -0.8016 -0.4410
 9220SOL    HW239294   1.444   4.166   3.844  0.0807 -0.8731  0.2103
 9221SOL     OW39295   3.191   4.657   3.232 -0.5723 -0.1353 -0.5130
 9221SOL    HW139296   3.115   4.677   3.176  1.0590  0.7032 -2.4356
 9221SOL    HW239297   3.252   4.718   3.192 -1.4676  1.3850  0.4085
 9222SOL     OW39298   2.149   0.307   2.647  0.3053  0.6497 -0.2909
 9222SOL    HW139299   2.124   0.369   2.715 -1.3249  0.1484 -0.4418
 9222SOL    HW239300   2.229   0.346   2.611  0.1789  0.5496 -0.6748
 9223SOL     OW39301   2.292   0.454   5.290 -0.8663 -0.2150 -0.1623
 9223SOL    HW139302   2.228   0.508   5.336  0.5706 -0.4192  2.0818
 9223SOL    HW239303   2.259   0.440   5.201  1.0544  1.4272 -1.1232
 9224SOL     OW39304   0.015   0.807   7.810  0.0887 -0.2337 -0.4616
 9224SOL    HW139305   4.716   0.850   7.731 -1.6902 -0.3360  0.2459
 9224SOL    HW239306   4.713   0.865   7.876 -2.7968 -0.2715 -2.0477
 9225SOL     OW39307   1.304   1.604  14.646 -0.0987  0.6157  0.4521
 9225SOL    HW139308   1.242   1.545  14.689  2.0863 -3.1653 -1.5733
 9225SOL    HW239309   1.336   1.657  14.719 -1.9090 -0.6211  2.1606
 9226SOL     OW39310   4.162   3.184   7.482  0.8194  0.1979  0.1601
 9226SOL    HW139311   4.253   3.157   7.495  1.1389  0.4345 -1.5625
 9226SOL    HW239312   4.147   3.193   7.388  1.6773  4.3092  0.4508
 9227SOL     OW39313   1.551   0.279   4.217 -0.3878 -0.7844 -0.3111
 9227SOL    HW139314   1.547   0.321   4.131  0.3727  2.1388  1.0769
 9227SOL    HW239315   1.646   0.280   4.230 -0.4061 -2.6156  0.0286
 9228SOL     OW39316   0.359   1.791  16.555 -0.1564 -0.0878  0.0381
 9228SOL    HW139317   0.297   1.805  16.626 -1.3542 -1.3416 -0.7419
 9228SOL    HW239318   0.441   1.836  16.574 -0.4774  0.9769 -1.0951
 9229SOL     OW39319   2.310   1.589   8.751  0.0196  0.6536 -0.3209
 9229SOL    HW139320   2.281   1.503   8.723  0.1768  0.4928  0.0090
 9229SOL    HW239321   2.254   1.644   8.697 -0.2978  0.2070 -0.4403
 9230SOL     OW39322   2.599   4.582   8.685  0.1553 -0.2142 -0.0003
 9230SOL    HW139323   2.687   4.546   8.679  0.2993  0.0147  0.6728
 9230SOL    HW239324   2.540   4.506   8.680  0.8561 -0.8851  1.5993
 9231SOL     OW39325   4.067   2.638   6.263  0.0072 -0.1517 -0.4226
 9231SOL    HW139326   4.129   2.566   6.256  0.7040  0.4692 -0.5682
 9231SOL    HW239327   3.993   2.589   6.227  0.4167 -1.7533  0.8895
 9232SOL     OW39328   2.250   4.154   2.535 -0.7448 -0.5584  0.1998
 9232SOL    HW139329   2.285   4.213   2.603 -1.8861 -0.0534  0.3576
 9232SOL    HW239330   2.336   4.128   2.502 -0.5636 -0.9301  0.9669
 9233SOL     OW39331   3.956   3.590   6.307  0.1090 -0.3623 -0.0525
 9233SOL    HW139332   3.974   3.632   6.391  1.8834  0.0622 -0.6372
 9233SOL    HW239333   4.034   3.534   6.307  2.4080  2.8432 -0.4388
 9234SOL     OW39334   3.244   3.389   5.591  0.1808  0.0491 -0.1637
 9234SOL    HW139335   3.256   3.450   5.664  1.5805  0.2261 -0.5382
 9234SOL    HW239336   3.279   3.435   5.515  1.0142  0.1831  0.2986
 9235SOL     OW39337   1.971   2.951  14.207 -0.0240 -0.2071  0.2930
 9235SOL    HW139338   1.905   2.955  14.277 -0.0276 -0.9036  0.3321
 9235SOL    HW239339   1.991   2.858  14.195 -1.0618 -0.3589 -0.3698
 9236SOL     OW39340   3.512   4.555   2.674  0.2141  0.4166  0.1283
 9236SOL    HW139341   3.583   4.542   2.736 -0.0189  0.7217  0.4576
 9236SOL    HW239342   3.475   4.630   2.721 -2.6354  0.0324 -1.5481
 9237SOL     OW39343   3.887   1.196   9.721 -0.3344  0.2398 -0.2187
 9237SOL    HW139344   3.947   1.151   9.661 -0.4948  1.2370 -1.1258
 9237SOL    HW239345   3.816   1.221   9.662 -0.8708 -1.1338 -0.1632
 9238SOL     OW39346   2.342   0.460   4.764  0.4552  0.9613  0.5527
 9238SOL    HW139347   2.390   0.378   4.771  1.7911  1.6788 -0.1899
 9238SOL    HW239348   2.287   0.449   4.686  1.7073  0.7318 -0.2948
 9239SOL     OW39349   3.867   1.252  17.262  0.5937 -0.0233  0.0292
 9239SOL    HW139350   3.801   1.296  17.315  1.4187 -1.7335  2.4817
 9239SOL    HW239351   3.876   1.173  17.316 -2.2066  0.4266  1.1640
 9240SOL     OW39352   3.778   0.351  17.070 -0.4157  0.2034 -0.1735
 9240SOL    HW139353   3.777   0.363  17.165 -0.0295  0.1559 -0.1629
 9240SOL    HW239354   3.684   0.349  17.053 -0.5092  0.2962  0.3396
 9241SOL     OW39355   4.637   2.472  16.588 -0.3986 -0.2494  0.5586
 9241SOL    HW139356   4.633   2.559  16.547 -1.2793  0.1005  1.3832
 9241SOL    HW239357   4.581   2.470  16.666  0.6222  3.1613  1.3870
 9242SOL     OW39358   2.432   2.784   2.059  0.2873  0.5743  0.6079
 9242SOL    HW139359   2.358   2.743   2.014  2.4202 -3.3341  0.6941
 9242SOL    HW239360   2.397   2.869   2.086 -0.0736  0.9369 -0.9862
 9243SOL     OW39361   1.217   4.571   9.768  0.2381  0.1595  0.8879
 9243SOL    HW139362   1.192   4.503   9.829 -1.7492  0.2905  0.2284
 9243SOL    HW239363   1.278   4.524   9.711  0.0536  0.0965  0.7444
 9244SOL     OW39364   4.296   0.648   2.394  0.2127 -0.4468  0.1305
 9244SOL    HW139365   4.217   0.596   2.399 -1.9437  2.6138 -1.9481
 9244SOL    HW239366   4.364   0.585   2.371 -0.0162 -0.5470 -0.2714
 9245SOL     OW39367   2.679   3.054   5.358 -0.4277  0.4355  0.7492
 9245SOL    HW139368   2.639   3.108   5.290 -1.9301  0.8632  1.9749
 9245SOL    HW239369   2.752   3.115   5.372 -0.1424  0.3294 -0.2511
 9246SOL     OW39370   1.483   1.473   3.902 -0.8077 -0.2456  0.1835
 9246SOL    HW139371   1.528   1.554   3.875  1.5838 -0.9772  1.9410
 9246SOL    HW239372   1.462   1.502   3.991 -1.5861  0.5114 -0.2484
 9247SOL     OW39373   3.932   3.084   3.633  0.2769  0.8971  0.2351
 9247SOL    HW139374   3.856   3.094   3.691  0.0976  1.5948 -0.1125
 9247SOL    HW239375   3.899   3.025   3.565  1.1381  0.4388  0.2115
 9248SOL     OW39376   2.199   0.855   0.910 -0.0428  0.5034  0.4374
 9248SOL    HW139377   2.129   0.843   0.846  0.3757  0.1053  0.0581
 9248SOL    HW239378   2.171   0.823   0.996  1.3371 -2.7648 -0.3447
 9249SOL     OW39379   3.818   3.403   3.779 -0.2396  0.7586 -0.3293
 9249SOL    HW139380   3.789   3.312   3.771  3.3453 -0.2632 -1.6045
 9249SOL    HW239381   3.879   3.403   3.852 -0.5812 -1.4556 -0.0385
 9250SOL     OW39382   1.171   4.145   2.616 -0.2706  0.5086 -0.1555
 9250SOL    HW139383   1.100   4.178   2.561 -1.3816 -0.6845  0.5801
 9250SOL    HW239384   1.146   4.190   2.697 -1.2763 -0.9815  0.3736
 9251SOL     OW39385   4.451   2.491  16.126 -0.4321 -0.4476  0.6002
 9251SOL    HW139386   4.489   2.419  16.177 -3.0307 -0.7869  2.0963
 9251SOL    HW239387   4.419   2.458  16.043 -0.1775 -0.4113  0.4881
 9252SOL     OW39388   2.483   2.339   2.825  0.4300 -0.0787 -0.0711
 9252SOL    HW139389   2.463   2.324   2.917 -0.5455  0.3285 -0.2185
 9252SOL    HW239390   2.540   2.415   2.836  1.2857 -0.6754 -0.3657
 9253SOL     OW39391   2.144   1.257   4.540  0.4855  0.3961 -0.5151
 9253SOL    HW139392   2.122   1.309   4.463 -1.3249  0.2464 -0.1207
 9253SOL    HW239393   2.124   1.311   4.616  1.1628 -1.3249  0.8694
 9254SOL     OW39394   3.277   3.021   9.365  0.1175  0.2086 -0.1575
 9254SOL    HW139395   3.184   3.044   9.374 -0.1515 -0.1147 -2.1619
 9254SOL    HW239396   3.321   3.078   9.428  1.4453 -0.3221 -0.6130
 9255SOL     OW39397   2.362   3.322   9.600 -0.1841 -0.4032  0.3069
 9255SOL    HW139398   2.436   3.331   9.540  0.3126  0.8241  1.1026
 9255SOL    HW239399   2.383   3.261   9.671 -1.2151  0.0250  0.9785
 9256SOL     OW39400   0.525   2.549   2.428  0.0414  0.5049  0.0619
 9256SOL    HW139401   0.523   2.595   2.512  1.2378  2.8393 -1.2033
 9256SOL    HW239402   0.559   2.615   2.369  2.0664 -1.9810 -1.5550
 9257SOL     OW39403   1.970   4.091   5.716  0.0521  0.5770 -0.8982
 9257SOL    HW139404   2.010   4.075   5.631 -1.4268 -2.0519 -1.0730
 9257SOL    HW239405   2.020   4.164   5.754 -0.2997 -0.3769  1.4134
 9258SOL     OW39406   4.716   4.110  10.908  0.1511 -0.6432  0.3435
 9258SOL    HW139407   4.711   4.038  10.845  0.2521 -0.9582  0.6957
 9258SOL    HW239408   0.076   4.122  10.918  0.2460  0.4661 -1.9591
 9259SOL     OW39409   0.649   0.682   6.205 -0.4433  0.1520 -0.0874
 9259SOL    HW139410   0.572   0.646   6.160 -1.7533  0.5675  1.8250
 9259SOL    HW239411   0.636   0.661   6.298 -1.8968  0.7490 -0.1609
 9260SOL     OW39412   4.060   4.371   9.992 -0.1987 -0.2502 -0.1613
 9260SOL    HW139413   4.120   4.437  10.030  1.2718 -1.0111 -1.1582
 9260SOL    HW239414   3.990   4.376  10.056 -2.0677  0.9135 -2.3122
 9261SOL     OW39415   2.660   3.869  12.290 -0.0261  0.6204  0.0091
 9261SOL    HW139416   2.711   3.904  12.216 -0.7105 -1.2112 -1.3173
 9261SOL    HW239417   2.728   3.852  12.355 -0.7975 -0.4068  0.5340
 9262SOL     OW39418   0.865   1.176   8.178 -0.2527  0.2970 -0.0885
 9262SOL    HW139419   0.892   1.131   8.098 -1.2975  0.7585 -0.7054
 9262SOL    HW239420   0.865   1.268   8.151 -2.1364  0.5311  0.7282
 9263SOL     OW39421   4.505   4.426   4.764 -0.2277  0.2176  0.1972
 9263SOL    HW139422   4.588   4.388   4.795 -1.1410 -0.9631  1.1804
 9263SOL    HW239423   4.532   4.518   4.764 -2.3539  0.8345 -2.2284
 9264SOL     OW39424   1.808   0.952   0.826 -0.2086 -0.2532  0.4514
 9264SOL    HW139425   1.769   1.005   0.756 -1.5754 -0.4674  1.0450
 9264SOL    HW239426   1.845   1.011   0.892 -1.8910 -0.0460  1.2260
 9265SOL     OW39427   2.443   0.207   4.284 -0.0919 -0.3291 -0.1087
 9265SOL    HW139428   2.494   0.225   4.205 -2.1312 -0.9681 -1.5724
 9265SOL    HW239429   2.364   0.251   4.253 -0.0207 -2.2870 -2.9869
 9266SOL     OW39430   2.349   2.551   8.087  0.2507  0.5512 -0.1429
 9266SOL    HW139431   2.305   2.472   8.055  0.0271  0.9877 -0.8940
 9266SOL    HW239432   2.432   2.547   8.041 -0.0848  0.0339 -0.7070
 9267SOL     OW39433   0.839   0.270   8.473 -0.0451  0.1762 -0.2463
 9267SOL    HW139434   0.916   0.214   8.459  0.4516  0.5540  1.0118
 9267SOL    HW239435   0.763   0.212   8.470 -1.1313  1.5156  1.5114
 9268SOL     OW39436   0.039   2.993   5.318  0.1882  0.7165  0.3564
 9268SOL    HW139437   0.110   3.019   5.259 -0.1866 -0.2413 -0.5283
 9268SOL    HW239438   4.699   2.992   5.258  1.3041 -0.9472 -0.9996
 9269SOL     OW39439   0.890   0.826   8.338  0.0040  0.7274 -0.1615
 9269SOL    HW139440   0.810   0.864   8.300 -0.1876 -0.5317 -1.0323
 9269SOL    HW239441   0.945   0.904   8.340  0.1200  0.6367  0.1150
 9270SOL     OW39442   4.600   0.499   8.795 -0.1581  0.4663 -0.5207
 9270SOL    HW139443   4.524   0.557   8.784 -1.5024 -1.3454 -0.7282
 9270SOL    HW239444   4.619   0.477   8.704 -1.7822 -0.1140 -0.7149
 9271SOL     OW39445   4.420   2.242  12.066  0.5522  0.1579 -0.1688
 9271SOL    HW139446   4.354   2.175  12.082  0.5575 -0.1708 -1.4572
 9271SOL    HW239447   4.400   2.308  12.132  1.7274 -1.8507  2.1917
 9272SOL     OW39448   0.982   4.349   6.460  0.6113 -0.0036 -0.5785
 9272SOL    HW139449   1.004   4.412   6.529  1.1053 -1.3671  0.4975
 9272SOL    HW239450   0.918   4.402   6.413  0.8302  0.3885 -0.4379
 9273SOL     OW39451   4.315   0.011   3.036 -0.4763 -0.8966  0.5607
 9273SOL    HW139452   4.371   4.671   3.016 -0.5747 -0.7222 -0.3734
 9273SOL    HW239453   4.227   4.714   3.058 -0.2324 -1.3732  0.8547
 9274SOL     OW39454   1.676   2.416   3.461 -0.3210 -0.1440  0.1827
 9274SOL    HW139455   1.733   2.381   3.393 -0.3823 -0.2870  0.2064
 9274SOL    HW239456   1.688   2.511   3.448  2.7433 -0.6276 -0.4545
 9275SOL     OW39457   2.666   2.164   1.198 -0.2656  0.7603  0.1648
 9275SOL    HW139458   2.610   2.169   1.275  0.8227  0.6927  0.9544
 9275SOL    HW239459   2.643   2.247   1.156  0.6711  0.3438 -1.1859
 9276SOL     OW39460   2.641   0.944   8.653 -0.3276  0.1600 -0.3438
 9276SOL    HW139461   2.647   1.004   8.579 -1.5299 -0.3509 -0.8513
 9276SOL    HW239462   2.551   0.962   8.680 -0.8489 -1.0994 -1.2093
 9277SOL     OW39463   0.223   2.872  12.612 -0.5049  0.7340  0.0544
 9277SOL    HW139464   0.272   2.876  12.694  0.3258  1.6532 -0.4821
 9277SOL    HW239465   0.197   2.781  12.603  0.2702  0.5233 -0.0319
 9278SOL     OW39466   3.147   0.527   2.817 -0.2342  0.2873 -0.3752
 9278SOL    HW139467   3.156   0.433   2.804 -0.3428  0.2286 -0.0388
 9278SOL    HW239468   3.067   0.554   2.772 -0.9766  0.8597  1.2788
 9279SOL     OW39469   2.388   0.731  16.261  0.3073  0.5968  0.1210
 9279SOL    HW139470   2.456   0.776  16.310  2.3737 -1.4420 -0.9140
 9279SOL    HW239471   2.334   0.807  16.240  0.9028  0.5341 -1.6069
 9280SOL     OW39472   2.685   4.083   6.118 -0.6609  0.4119 -1.2031
 9280SOL    HW139473   2.763   4.106   6.169  0.3725  0.2917 -2.7323
 9280SOL    HW239474   2.717   4.067   6.029 -0.7959  2.9722 -1.7200
 9281SOL     OW39475   4.713   2.968   6.973 -0.3206  0.0297  1.0426
 9281SOL    HW139476   4.704   2.874   6.983 -0.5160 -0.1732 -0.9812
 9281SOL    HW239477   4.669   2.988   6.890 -0.7437  0.1892  1.3020
 9282SOL     OW39478   3.961   4.060  17.159  0.6627  0.5956 -0.4747
 9282SOL    HW139479   3.988   3.990  17.219  0.6467 -0.6372 -1.9021
 9282SOL    HW239480   4.038   4.112  17.179  0.3256  1.7496 -2.2260
 9283SOL     OW39481   2.887   3.708   3.340 -0.5285  0.2091  0.1825
 9283SOL    HW139482   2.904   3.752   3.423  0.2020 -0.5110  0.4145
 9283SOL    HW239483   2.846   3.634   3.383  1.6782 -0.9744  0.2594
 9284SOL     OW39484   1.334   1.352   5.017  0.3791  0.1639  0.0273
 9284SOL    HW139485   1.255   1.394   4.983  1.3545  2.4296  0.5620
 9284SOL    HW239486   1.407   1.404   4.986  0.1523 -0.8349 -2.1843
 9285SOL     OW39487   3.631   2.874  13.285  0.1538  0.1893 -0.4572
 9285SOL    HW139488   3.577   2.909  13.214  0.1656 -0.3498 -0.7298
 9285SOL    HW239489   3.563   2.837  13.340 -0.1602  0.7506 -0.4657
 9286SOL     OW39490   4.305   1.732   3.830 -0.5977  0.0378  0.2525
 9286SOL    HW139491   4.244   1.762   3.764 -0.2725  1.5473  0.6311
 9286SOL    HW239492   4.319   1.640   3.809 -0.3489 -0.4502  2.5524
 9287SOL     OW39493   4.585   2.803  14.258 -0.9394  0.0901  0.1674
 9287SOL    HW139494   4.515   2.851  14.215 -0.5283  1.4240  0.9738
 9287SOL    HW239495   4.582   2.719  14.212  2.0340  1.1236 -1.8743
 9288SOL     OW39496   4.574   0.893   9.134  0.2244 -0.3258  0.0072
 9288SOL    HW139497   4.631   0.956   9.177 -2.7122  1.2459  1.5643
 9288SOL    HW239498   4.509   0.943   9.084  0.1043  0.0310  0.5205
 9289SOL     OW39499   2.434   3.374   6.649 -0.2914  0.0290  0.0391
 9289SOL    HW139500   2.376   3.436   6.604  1.2914  1.6825  0.2578
 9289SOL    HW239501   2.393   3.385   6.735 -1.3605 -0.3904 -0.4232
 9290SOL     OW39502   0.329   1.988   5.075  0.1347  0.3875 -0.2253
 9290SOL    HW139503   0.307   1.920   5.011  1.4565  0.1590 -0.4358
 9290SOL    HW239504   0.279   1.965   5.153  0.1096 -1.3118 -0.7278
 9291SOL     OW39505   3.346   1.560  12.644  0.2218 -0.1396 -0.0126
 9291SOL    HW139506   3.289   1.635  12.660  0.0436  0.1013 -1.8217
 9291SOL    HW239507   3.281   1.499  12.609  0.1233 -1.1114  1.8611
 9292SOL     OW39508   0.425   3.266   8.538 -0.6144 -0.1093 -0.0708
 9292SOL    HW139509   0.391   3.327   8.603  0.3598  0.5124 -0.1529
 9292SOL    HW239510   0.514   3.261   8.571 -0.2864 -0.1002 -0.9416
 9293SOL     OW39511   4.462   0.490  17.023  0.1520 -0.2609  0.4469
 9293SOL    HW139512   4.499   0.567  16.979 -2.8658 -0.5394 -2.5686
 9293SOL    HW239513   4.479   0.428  16.952  1.4459  0.4028  0.1721
 9294SOL     OW39514   0.719   2.933  12.364  0.4467 -0.2623 -0.1437
 9294SOL    HW139515   0.671   2.916  12.446  2.0574 -0.2256  0.7961
 9294SOL    HW239516   0.656   2.898  12.301  0.0422  0.5074 -0.1666
 9295SOL     OW39517   1.646   0.550   6.902 -0.3859  0.3075 -0.0760
 9295SOL    HW139518   1.720   0.579   6.956 -0.0747  1.4210 -1.1076
 9295SOL    HW239519   1.585   0.621   6.923  1.0428  1.7630 -0.8106
 9296SOL     OW39520   4.344   0.425  13.660 -0.1377 -0.6850  0.1679
 9296SOL    HW139521   4.258   0.420  13.701 -0.7404 -2.9721 -1.3565
 9296SOL    HW239522   4.355   0.334  13.632  0.6008 -0.3869 -0.5162
 9297SOL     OW39523   2.075   2.877   5.546  0.2630  0.4142  0.4732
 9297SOL    HW139524   2.131   2.816   5.496 -0.1634 -0.0772  0.5924
 9297SOL    HW239525   2.102   2.964   5.519  2.5765 -1.6451 -3.9126
 9298SOL     OW39526   4.264   0.312   7.245 -0.3092  0.2798  0.3321
 9298SOL    HW139527   4.348   0.330   7.203 -1.9096  1.7601 -2.2048
 9298SOL    HW239528   4.275   0.348   7.333 -1.2057  2.1314 -0.3183
 9299SOL     OW39529   3.130   3.981   6.040 -0.1931  0.0404 -0.1071
 9299SOL    HW139530   3.115   3.913   5.975  0.0667  0.5453 -0.6896
 9299SOL    HW239531   3.187   3.955   6.113 -1.0991 -1.6084  0.0105
 9300SOL     OW39532   2.519   2.556   7.892 -0.0867 -0.4449 -0.4081
 9300SOL    HW139533   2.577   2.588   7.823 -0.8466  2.0542  0.1070
 9300SOL    HW239534   2.458   2.505   7.839 -0.2879 -1.5972  0.9451
 9301SOL     OW39535   3.962   0.295  14.785  0.2784 -0.0541  0.2504
 9301SOL    HW139536   4.021   0.335  14.849 -0.6422  0.9734  0.4481
 9301SOL    HW239537   3.953   0.366  14.721 -1.6846  0.0358  0.6332
 9302SOL     OW39538   0.150   3.028   8.883 -0.9880  0.0952  0.0461
 9302SOL    HW139539   0.192   3.031   8.969  0.0964  0.0086 -0.4869
 9302SOL    HW239540   0.209   2.962   8.847 -1.9904 -0.0300 -1.3776
 9303SOL     OW39541   4.197   3.494   9.121 -0.7406 -0.3102 -0.2312
 9303SOL    HW139542   4.160   3.577   9.152 -0.5234  0.1855 -1.2788
 9303SOL    HW239543   4.271   3.510   9.180 -1.2173 -1.5372  0.6849
 9304SOL     OW39544   4.010   2.793   3.159 -0.2743 -0.1677 -0.0102
 9304SOL    HW139545   4.005   2.859   3.090  0.3690 -0.8031 -0.6652
 9304SOL    HW239546   4.104   2.779   3.163 -0.6636 -2.2005  2.2686
 9305SOL     OW39547   4.489   2.673   8.863  0.3067 -0.4501  0.1217
 9305SOL    HW139548   4.422   2.673   8.931  1.0297  0.1626  0.8330
 9305SOL    HW239549   4.485   2.762   8.829 -0.3211 -0.5258  0.0009
 9306SOL     OW39550   3.012   2.592   6.923  0.2415  0.1311 -0.1391
 9306SOL    HW139551   3.090   2.568   6.973  0.2136  0.2674 -0.0287
 9306SOL    HW239552   2.958   2.513   6.926 -0.4326  0.6264  0.6279
 9307SOL     OW39553   0.166   2.841   5.747  0.4255 -0.0064  0.1457
 9307SOL    HW139554   0.149   2.822   5.655  0.7290 -1.7673  0.4529
 9307SOL    HW239555   0.162   2.936   5.755 -1.0451 -0.1042  0.6513
 9308SOL     OW39556   0.651   3.597   9.762  0.0237  0.5452  0.0674
 9308SOL    HW139557   0.666   3.635   9.675  1.2538 -2.7472 -1.1800
 9308SOL    HW239558   0.604   3.517   9.736  0.0974  1.3984 -2.7357
 9309SOL     OW39559   1.034   4.384   1.448 -0.0318  0.1420 -0.7433
 9309SOL    HW139560   1.110   4.441   1.439  1.4891 -1.8703 -0.8131
 9309SOL    HW239561   1.010   4.381   1.355 -1.3063  0.1054 -0.4172
 9310SOL     OW39562   2.756   1.952   9.357  0.1319  0.1521  0.1552
 9310SOL    HW139563   2.726   2.043   9.363  0.6650  0.4285 -1.2267
 9310SOL    HW239564   2.692   1.921   9.293 -1.0301 -0.0741  1.4384
 9311SOL     OW39565   1.247   0.559   9.224 -0.7225  0.3650  0.0420
 9311SOL    HW139566   1.305   0.622   9.267 -0.0890  0.8312 -1.4668
 9311SOL    HW239567   1.257   0.484   9.282  0.4895  2.1968  2.2203
 9312SOL     OW39568   1.277   2.858   6.282 -0.0025  0.5946 -0.2745
 9312SOL    HW139569   1.282   2.814   6.366 -2.2227  0.2624 -0.3062
 9312SOL    HW239570   1.337   2.932   6.293  0.9780 -0.0513 -1.3501
 9313SOL     OW39571   0.059   2.023   9.477 -0.1436  0.1115 -0.2596
 9313SOL    HW139572   0.107   1.962   9.532  0.9604 -0.0197 -1.3619
 9313SOL    HW239573   0.032   1.959   9.412 -2.1118  0.2072  0.4772
 9314SOL     OW39574   1.257   1.239  17.491  0.5627 -0.4424  0.0286
 9314SOL    HW139575   1.221   1.173  17.431  1.5876 -1.8612  0.9559
 9314SOL    HW239576   1.188   1.247  17.557  2.3082 -2.0338  2.0113
 9315SOL     OW39577   3.394   4.460  16.077 -0.1081 -0.1433 -0.0588
 9315SOL    HW139578   3.381   4.365  16.067 -0.4905 -0.0927 -0.0614
 9315SOL    HW239579   3.306   4.492  16.058 -0.1477  0.4197  1.1145
 9316SOL     OW39580   4.381   2.172   7.646 -0.5772  0.5038 -0.1454
 9316SOL    HW139581   4.304   2.229   7.643 -0.2899  0.7876 -2.0637
 9316SOL    HW239582   4.351   2.093   7.600  1.4145 -0.1480 -0.3104
 9317SOL     OW39583   1.712   3.081   5.722 -0.1831 -0.2649  0.0436
 9317SOL    HW139584   1.697   3.023   5.648 -0.0090  1.0773 -1.0504
 9317SOL    HW239585   1.622   3.092   5.754  0.1694 -0.3318  1.0650
 9318SOL     OW39586   2.593   1.504   1.928 -0.3887 -0.2803 -0.2310
 9318SOL    HW139587   2.684   1.475   1.928 -0.1716  0.3959 -4.4306
 9318SOL    HW239588   2.569   1.523   2.019  0.3829  0.5365 -0.1950
 9319SOL     OW39589   3.329   0.794   5.455 -0.2186  0.1845  0.2943
 9319SOL    HW139590   3.360   0.831   5.537 -3.0737 -0.6735  1.7635
 9319SOL    HW239591   3.412   0.763   5.419  0.6918  0.6391  2.0127
 9320SOL     OW39592   4.540   4.611   7.936 -0.8813 -0.1812  0.0798
 9320SOL    HW139593   4.604   4.653   7.993 -2.0155  1.0476  0.4417
 9320SOL    HW239594   4.473   4.679   7.944  0.0728  0.8781 -0.9274
 9321SOL     OW39595   1.350   0.921   4.311 -0.2152 -0.3885  0.1302
 9321SOL    HW139596   1.327   0.968   4.391  1.8626 -0.8402  0.9782
 9321SOL    HW239597   1.338   0.832   4.344 -0.0447 -0.4351  0.0649
 9322SOL     OW39598   4.017   2.169   6.711 -0.2304 -0.0171 -0.4977
 9322SOL    HW139599   4.020   2.258   6.676  1.3973 -0.0332 -0.3939
 9322SOL    HW239600   4.085   2.170   6.777 -2.9387  0.5532  2.2750
 9323SOL     OW39601   0.342   4.300  12.818  0.2164  0.0190 -0.0902
 9323SOL    HW139602   0.391   4.316  12.737 -2.1361 -0.3084 -1.6060
 9323SOL    HW239603   0.403   4.284  12.890 -1.3789 -3.1011  0.5616
 9324SOL     OW39604   2.218   1.666   6.740  0.7109 -0.3591 -0.2277
 9324SOL    HW139605   2.250   1.751   6.709 -1.0605  0.6211  0.6817
 9324SOL    HW239606   2.169   1.693   6.817 -1.2301  1.1016 -1.9599
 9325SOL     OW39607   4.090   3.638   5.474 -0.5399 -0.4909 -0.3357
 9325SOL    HW139608   4.020   3.687   5.518  0.4231  1.0794 -0.5868
 9325SOL    HW239609   4.137   3.696   5.414 -2.5180  0.5023 -0.9295
 9326SOL     OW39610   3.711   0.451  12.507  0.2521 -0.0995  0.0676
 9326SOL    HW139611   3.735   0.426  12.596 -1.6842 -1.0754  0.3021
 9326SOL    HW239612   3.665   0.532  12.532  0.6471  0.4807 -1.0791
 9327SOL     OW39613   0.084   1.214  10.027 -0.0897  0.8062 -0.3554
 9327SOL    HW139614   0.035   1.211  10.109 -0.4841  0.0903 -0.6144
 9327SOL    HW239615   0.167   1.251  10.058 -0.0766 -1.6849  2.5496
 9328SOL     OW39616   2.451   4.089  10.392 -0.1656  0.3099  0.0946
 9328SOL    HW139617   2.377   4.123  10.442  0.4043 -0.4273  1.4283
 9328SOL    HW239618   2.519   4.057  10.450 -0.1899 -0.5779 -0.3744
 9329SOL     OW39619   0.432   1.219   5.504  0.1669  0.1675 -0.4811
 9329SOL    HW139620   0.494   1.285   5.472 -0.0077 -0.3645 -1.9274
 9329SOL    HW239621   0.470   1.182   5.584 -0.5922  0.5022  0.0283
 9330SOL     OW39622   3.267   4.554  15.001 -0.3368  0.2549  0.1187
 9330SOL    HW139623   3.330   4.566  14.930 -2.0234 -0.5963 -1.5134
 9330SOL    HW239624   3.190   4.525  14.952 -0.8333 -1.0111  1.6548
 9331SOL     OW39625   3.654   3.648   7.796  0.5283 -0.2826 -0.3817
 9331SOL    HW139626   3.650   3.662   7.701  0.3876 -2.3329 -0.6790
 9331SOL    HW239627   3.742   3.611   7.804 -0.1024 -2.2429 -2.2870
 9332SOL     OW39628   3.664   0.723   6.139  0.3524 -0.2881 -0.2012
 9332SOL    HW139629   3.743   0.676   6.111  1.3726  0.3896  1.5619
 9332SOL    HW239630   3.639   0.660   6.206  2.0495 -0.6791  0.0676
 9333SOL     OW39631   0.324   3.447   8.741  0.2579 -0.5448  0.5745
 9333SOL    HW139632   0.290   3.404   8.819  0.9903 -1.1383  0.5580
 9333SOL    HW239633   0.268   3.525   8.736  0.7477 -0.0805  2.3926
 9334SOL     OW39634   2.538   3.419   8.287 -0.0831 -0.1246  0.1928
 9334SOL    HW139635   2.549   3.388   8.197  2.6267 -0.6534  0.7148
 9334SOL    HW239636   2.631   3.441   8.293  0.2267 -1.6315  0.8788
 9335SOL     OW39637   4.280   0.270   8.273 -0.0778  0.2080  0.2903
 9335SOL    HW139638   4.285   0.351   8.223 -0.4326  1.6530  2.5854
 9335SOL    HW239639   4.184   0.269   8.276 -0.0762  0.7632  0.5839
 9336SOL     OW39640   3.882   1.560   5.994  0.5161 -0.2325  0.7668
 9336SOL    HW139641   3.789   1.582   6.000  0.5295  0.2511 -0.6607
 9336SOL    HW239642   3.908   1.611   5.917 -2.0224 -1.7336 -1.1153
 9337SOL     OW39643   2.994   0.405   2.075 -0.1073  0.3262 -0.0445
 9337SOL    HW139644   3.087   0.410   2.053  0.3567  0.0246  1.8034
 9337SOL    HW239645   2.992   0.459   2.154 -0.2026  3.7060 -2.3722
 9338SOL     OW39646   4.176   1.938  14.045 -0.3885 -0.2660 -0.3320
 9338SOL    HW139647   4.102   1.887  14.076 -0.0434 -0.8008 -0.3820
 9338SOL    HW239648   4.191   1.988  14.125  0.3089  2.5166 -2.2053
 9339SOL     OW39649   0.455   3.730   5.204 -0.2689  0.8776 -0.3812
 9339SOL    HW139650   0.365   3.704   5.184 -0.1582  0.8366 -0.8228
 9339SOL    HW239651   0.454   3.744   5.299  2.0370  1.2809 -0.4354
 9340SOL     OW39652   3.609   1.983   3.945 -0.4705  0.0061 -0.0288
 9340SOL    HW139653   3.643   1.986   4.035  5.2033 -0.0062 -2.2374
 9340SOL    HW239654   3.618   2.076   3.928 -0.4768 -0.1011 -0.6150
 9341SOL     OW39655   2.880   4.505   4.763 -0.7017  0.2519 -1.1623
 9341SOL    HW139656   2.832   4.426   4.737 -0.6356  0.1098 -0.8525
 9341SOL    HW239657   2.960   4.491   4.713  0.4161 -0.5868  0.8553
 9342SOL     OW39658   2.200   4.699   1.583 -0.0662 -0.8221 -0.2788
 9342SOL    HW139659   2.180   0.042   1.635 -1.3674 -0.2156 -1.6903
 9342SOL    HW239660   2.147   4.720   1.506 -1.9305 -1.7426  0.7400
 9343SOL     OW39661   2.778   0.097   3.812  0.1880 -0.0073 -0.2128
 9343SOL    HW139662   2.870   0.122   3.813  0.2874 -0.4245  1.6642
 9343SOL    HW239663   2.763   0.064   3.724  0.9825  0.2291 -0.4287
 9344SOL     OW39664   3.688   1.937   6.525 -0.2932 -0.1631 -0.4173
 9344SOL    HW139665   3.647   1.881   6.460  0.8032 -1.5293  0.0756
 9344SOL    HW239666   3.755   1.970   6.466  1.8603  0.6071  2.4549
 9345SOL     OW39667   4.259   2.960   0.399  0.0720 -0.7093  0.0563
 9345SOL    HW139668   4.335   3.001   0.440  0.1325 -0.2400 -0.5154
 9345SOL    HW239669   4.221   3.042   0.367  1.5037 -1.6821 -4.1039
 9346SOL     OW39670   4.013   3.670   6.586 -0.0490  0.1837 -0.2504
 9346SOL    HW139671   4.074   3.743   6.581  0.3582 -0.1044  0.6049
 9346SOL    HW239672   3.959   3.674   6.665 -2.5824  0.6271 -1.9815
 9347SOL     OW39673   4.073   4.539   5.569 -0.2594 -0.3815 -0.2549
 9347SOL    HW139674   4.076   4.616   5.513 -2.0139 -0.3094 -0.2413
 9347SOL    HW239675   4.085   4.576   5.656 -1.2498 -2.8686  0.9506
 9348SOL     OW39676   1.346   1.792   9.570 -0.2692 -0.0340 -0.2614
 9348SOL    HW139677   1.291   1.737   9.626 -1.0423  1.4074  0.4168
 9348SOL    HW239678   1.392   1.718   9.532  0.3959  0.3705 -0.2374
 9349SOL     OW39679   3.817   0.657  15.395 -0.7256 -0.2506  0.2841
 9349SOL    HW139680   3.819   0.725  15.327 -1.9081  1.2365  1.7398
 9349SOL    HW239681   3.738   0.685  15.442  0.6224 -1.8155  3.4725
 9350SOL     OW39682   0.186   2.315   1.704 -0.2367 -0.0168 -0.4557
 9350SOL    HW139683   0.260   2.287   1.650  0.6028  2.5359 -0.6401
 9350SOL    HW239684   0.142   2.369   1.639  0.3470  1.4012  0.3214
 9351SOL     OW39685   1.279   3.023   8.872 -0.1662 -0.7548 -0.0487
 9351SOL    HW139686   1.191   3.057   8.864 -0.7199 -1.7009  1.9784
 9351SOL    HW239687   1.323   3.103   8.902 -0.6773 -0.7752  0.7454
 9352SOL     OW39688   3.960   2.631   9.047 -0.0310  1.0836 -0.5222
 9352SOL    HW139689   3.883   2.687   9.034 -0.4800  0.7095  0.5301
 9352SOL    HW239690   3.993   2.655   9.134 -1.1162 -1.4141  0.5913
 9353SOL     OW39691   1.099   3.157  13.359 -0.1107 -0.5455  0.1602
 9353SOL    HW139692   1.087   3.082  13.301 -1.2237 -0.2530  0.0223
 9353SOL    HW239693   1.158   3.118  13.425  1.3348 -1.7822 -1.8792
 9354SOL     OW39694   1.050   0.625  16.931  0.3211 -0.3595  0.0420
 9354SOL    HW139695   1.101   0.705  16.935  2.2832 -1.5722 -0.8720
 9354SOL    HW239696   1.017   0.629  16.841  0.1790  2.6823  0.2588
 9355SOL     OW39697   3.954   0.425   9.860 -0.0644 -0.3759 -0.2358
 9355SOL    HW139698   3.951   0.447   9.953 -1.1091  0.1870 -0.3957
 9355SOL    HW239699   3.887   0.479   9.817  0.1811 -0.7706 -1.1193
 9356SOL     OW39700   3.806   0.940   2.462  0.3496  0.2625 -0.2483
 9356SOL    HW139701   3.859   0.861   2.450  0.6624  0.3466  0.6376
 9356SOL    HW239702   3.742   0.931   2.391  2.3143 -0.7484 -1.8978
 9357SOL     OW39703   1.232   0.819   7.315  0.2346  0.0500  0.2259
 9357SOL    HW139704   1.322   0.816   7.346  0.5072  1.9694 -0.3975
 9357SOL    HW239705   1.227   0.821   7.219  0.2590  1.0061  0.2482
 9358SOL     OW39706   1.118   4.650  14.567 -0.0726 -0.4611  0.1357
 9358SOL    HW139707   1.206   4.615  14.575 -0.5552 -1.1225  2.3788
 9358SOL    HW239708   1.126   4.730  14.618 -1.8252 -0.5461  0.5370
 9359SOL     OW39709   2.879   4.507   9.666  0.2113  0.1042 -0.7154
 9359SOL    HW139710   2.903   4.559   9.589  2.2620  0.6241  0.2564
 9359SOL    HW239711   2.846   4.584   9.713 -2.9686 -0.9098 -1.2830
 9360SOL     OW39712   2.409   4.293   1.826  0.1202  0.0562 -0.0891
 9360SOL    HW139713   2.443   4.276   1.738  0.3878  2.9111 -0.5479
 9360SOL    HW239714   2.320   4.317   1.801 -0.1246  0.8117  1.4771
 9361SOL     OW39715   2.617   1.601   2.347 -0.6433  0.2788  0.4458
 9361SOL    HW139716   2.589   1.648   2.268 -2.2834  0.3334  1.0563
 9361SOL    HW239717   2.534   1.554   2.358 -0.5188  0.4099  1.9034
 9362SOL     OW39718   1.765   1.463   4.365  0.1499 -0.4601 -0.6367
 9362SOL    HW139719   1.796   1.509   4.287  0.1186  0.7308  0.0497
 9362SOL    HW239720   1.813   1.505   4.437  0.9364 -1.7574 -0.4013
 9363SOL     OW39721   4.271   3.850  14.632  0.5878  0.5263  0.1206
 9363SOL    HW139722   4.316   3.802  14.564 -1.4101 -0.6877 -0.3340
 9363SOL    HW239723   4.279   3.941  14.603 -2.2863  0.5005 -0.7201
 9364SOL     OW39724   0.932   4.070   4.040  0.0341  0.4133 -0.1097
 9364SOL    HW139725   0.991   4.097   3.970 -0.5424 -0.2246 -0.8436
 9364SOL    HW239726   0.973   3.985   4.059 -2.0908 -0.7630 -0.8235
 9365SOL     OW39727   1.420   1.082   3.397  0.0073  0.0306  0.5404
 9365SOL    HW139728   1.394   1.110   3.485  0.9839 -1.0166  1.1501
 9365SOL    HW239729   1.490   1.023   3.424  1.7539  1.2920 -1.1920
 9366SOL     OW39730   3.707   4.143   4.957 -0.3812 -0.2738 -0.1568
 9366SOL    HW139731   3.679   4.079   4.892  0.4223 -1.3953  0.6032
 9366SOL    HW239732   3.674   4.111   5.040  2.0047  1.6239  1.5465
 9367SOL     OW39733   2.795   0.122   4.187 -0.4396  0.8541 -0.1560
 9367SOL    HW139734   2.701   0.111   4.171 -0.2314 -1.4554  0.2250
 9367SOL    HW239735   2.839   0.043   4.155 -0.8016  1.4437 -2.0845
 9368SOL     OW39736   0.676   1.410   8.363 -0.5535  0.3282 -0.1447
 9368SOL    HW139737   0.644   1.343   8.423  0.0387  0.3249  0.1618
 9368SOL    HW239738   0.602   1.470   8.362 -2.6780 -2.3151 -2.7968
 9369SOL     OW39739   3.974   4.402   8.822 -0.0138 -0.1837 -0.3319
 9369SOL    HW139740   3.936   4.387   8.909  1.3452 -1.0173  0.1274
 9369SOL    HW239741   3.987   4.314   8.786  1.2365  0.3360 -1.1536
 9370SOL     OW39742   4.686   0.318   2.751 -0.3658  0.2893 -0.7097
 9370SOL    HW139743   4.602   0.348   2.716 -1.0708  0.1580  0.8952
 9370SOL    HW239744   0.005   0.289   2.677  0.2801 -0.6691  0.1340
 9371SOL     OW39745   3.467   0.520   5.062 -0.2349  0.2367  0.5551
 9371SOL    HW139746   3.401   0.588   5.070  1.3718  1.9873 -0.9960
 9371SOL    HW239747   3.548   0.564   5.087  0.3096 -0.5673  0.1916
 9372SOL     OW39748   1.407   2.048   6.574  0.9831  0.0224 -0.3397
 9372SOL    HW139749   1.340   1.985   6.549  0.0074  1.5453 -1.5251
 9372SOL    HW239750   1.344   2.119   6.576 -0.1422 -0.9908  0.1394
 9373SOL     OW39751   4.685   3.422   5.817 -0.1045  0.2012 -0.1290
 9373SOL    HW139752   4.688   3.513   5.786 -1.9964  0.8231  1.5643
 9373SOL    HW239753   4.625   3.416   5.890  0.1153 -0.3743  0.0070
 9374SOL     OW39754   2.095   2.925   7.203 -0.2811 -0.0652 -0.1650
 9374SOL    HW139755   2.097   2.845   7.150 -0.9578  0.8755 -1.6405
 9374SOL    HW239756   2.028   2.884   7.258  0.1572  0.0822  0.4720
 9375SOL     OW39757   0.731   0.576   7.346 -0.1806  0.2976 -0.0072
 9375SOL    HW139758   0.653   0.527   7.319  0.6360 -0.4296 -1.0342
 9375SOL    HW239759   0.744   0.548   7.437 -1.2078 -0.3130 -0.0549
 9376SOL     OW39760   0.185   1.639   8.157 -0.0374 -0.1040  0.9174
 9376SOL    HW139761   0.237   1.703   8.206  0.3311  0.6128 -0.3974
 9376SOL    HW239762   0.105   1.690   8.166  0.2572  0.5759 -0.3086
 9377SOL     OW39763   3.857   1.379  11.511  0.2644 -0.1599  0.3949
 9377SOL    HW139764   3.900   1.451  11.463  2.2303 -1.8477 -0.3814
 9377SOL    HW239765   3.920   1.362  11.581 -1.5021  1.0942  2.2703
 9378SOL     OW39766   2.163   1.257   6.855  0.0784 -0.2176 -0.2487
 9378SOL    HW139767   2.247   1.229   6.819 -0.4584 -2.1345  0.0127
 9378SOL    HW239768   2.112   1.176   6.851  0.6450 -0.6580  1.2361
 9379SOL     OW39769   2.461   0.070   0.481  0.1727  0.7865 -0.0476
 9379SOL    HW139770   2.383   0.119   0.508  0.5239  1.0078  0.5743
 9379SOL    HW239771   2.451   4.716   0.514  0.0522  1.6196  2.1242
 9380SOL     OW39772   4.212   0.138   5.171  0.0939  0.0338 -0.0549
 9380SOL    HW139773   4.169   0.216   5.136  0.8908 -0.9105 -3.1897
 9380SOL    HW239774   4.159   0.077   5.119  1.8965 -1.6373  0.0691
 9381SOL     OW39775   3.727   0.355  13.020 -0.1262 -0.2008  0.0537
 9381SOL    HW139776   3.721   0.260  13.032 -1.1659 -0.4049 -2.0228
 9381SOL    HW239777   3.755   0.384  13.107 -0.2678 -0.1192  0.0726
 9382SOL     OW39778   4.324   4.040   7.908 -0.2875 -0.5332  0.2457
 9382SOL    HW139779   4.385   3.989   7.854 -0.3893 -1.3448  0.9162
 9382SOL    HW239780   4.377   4.108   7.950  1.0882  0.1585 -2.5808
 9383SOL     OW39781   1.577   3.669   5.040 -0.2117  0.2153  0.3877
 9383SOL    HW139782   1.652   3.729   5.036 -1.2678  1.6774  2.5460
 9383SOL    HW239783   1.542   3.666   4.951 -2.9272 -0.5633  1.4871
 9384SOL     OW39784   1.622   2.682   1.899  1.1314  0.3220 -0.2231
 9384SOL    HW139785   1.554   2.698   1.835 -1.0818 -0.0600  2.0320
 9384SOL    HW239786   1.565   2.627   1.952 -0.4065  1.2522 -0.9201
 9385SOL     OW39787   1.278   3.352  15.824 -0.3602 -0.0598  0.2192
 9385SOL    HW139788   1.219   3.314  15.889 -4.0208  2.3166 -1.7442
 9385SOL    HW239789   1.233   3.424  15.781  3.4934  1.9901 -0.3658
 9386SOL     OW39790   0.176   0.751  15.693  0.0425  0.0727 -0.3621
 9386SOL    HW139791   0.234   0.755  15.617  1.0737 -1.8353  0.3263
 9386SOL    HW239792   0.184   0.845  15.709 -1.8714  0.4546 -1.7117
 9387SOL     OW39793   2.146   1.055   8.001  0.7922  0.3454 -0.3141
 9387SOL    HW139794   2.134   0.969   8.043  0.3964 -1.0257 -3.2339
 9387SOL    HW239795   2.145   1.025   7.910  0.9321 -1.0046  0.1328
 9388SOL     OW39796   0.941   0.421   1.605 -0.6546 -0.6510  0.2323
 9388SOL    HW139797   0.860   0.427   1.657 -0.3438  0.7311  0.5624
 9388SOL    HW239798   0.980   0.508   1.619 -0.3237 -0.9892  1.4523
 9389SOL     OW39799   3.592   4.173  13.582 -0.3804  0.0571  0.8108
 9389SOL    HW139800   3.630   4.253  13.617  0.0375 -0.4486  1.5050
 9389SOL    HW239801   3.629   4.166  13.494 -0.2423 -2.9655  1.0904
 9390SOL     OW39802   0.591   2.644   4.456  0.6668  0.2747 -0.0714
 9390SOL    HW139803   0.639   2.724   4.479 -2.0444  1.5695  1.0381
 9390SOL    HW239804   0.517   2.691   4.419  1.0935  0.7738 -0.2819
 9391SOL     OW39805   0.383   2.411  11.564  0.6987 -0.2793  0.2858
 9391SOL    HW139806   0.291   2.415  11.538 -0.0405 -0.3439  2.8046
 9391SOL    HW239807   0.386   2.322  11.600 -0.8355  0.1337  1.4760
 9392SOL     OW39808   0.307   2.242   4.040  0.0976 -0.0347  0.2015
 9392SOL    HW139809   0.356   2.322   4.019  2.2515 -1.2405  0.6781
 9392SOL    HW239810   0.221   2.263   4.002 -0.4033 -1.1118  0.7469
 9393SOL     OW39811   3.554   1.964   9.569  0.1243 -0.0853 -0.2644
 9393SOL    HW139812   3.649   1.959   9.583  0.1112 -2.7250 -1.2194
 9393SOL    HW239813   3.555   1.944   9.475  0.3530  1.8376 -0.6670
 9394SOL     OW39814   4.680   3.617   9.358  0.0415 -0.7025 -0.8528
 9394SOL    HW139815   4.672   3.696   9.411 -1.0310 -0.9404 -0.6700
 9394SOL    HW239816   0.033   3.640   9.328 -0.3833  0.7719 -0.9440
 9395SOL     OW39817   3.447   4.033   3.970  0.4851 -0.0868  0.0890
 9395SOL    HW139818   3.467   3.939   3.972  0.2454 -0.1835 -1.8038
 9395SOL    HW239819   3.449   4.068   3.881  3.0489 -0.6014 -0.0530
 9396SOL     OW39820   3.058   3.075   3.388 -0.2039 -0.8993  0.0242
 9396SOL    HW139821   3.091   3.061   3.299 -1.0522 -0.0386 -0.4173
 9396SOL    HW239822   3.126   3.128   3.430 -0.3785  2.1286 -3.4720
 9397SOL     OW39823   1.190   2.808  15.639  0.2411 -1.1788  0.1535
 9397SOL    HW139824   1.222   2.719  15.653 -0.2964 -1.4916 -0.5851
 9397SOL    HW239825   1.173   2.812  15.545  1.6011 -1.1812 -0.0809
 9398SOL     OW39826   0.585   2.953   5.995 -0.0166  0.4894 -0.0797
 9398SOL    HW139827   0.678   2.955   6.018  0.3749 -2.1457 -1.3423
 9398SOL    HW239828   0.579   3.010   5.918  1.7991 -1.3196 -1.5996
 9399SOL     OW39829   0.027   1.081   7.714  0.4109  0.4477  0.2134
 9399SOL    HW139830   0.015   1.167   7.673  0.6943  1.2024  1.6768
 9399SOL    HW239831   0.109   1.052   7.675 -0.8522 -2.3030 -0.4007
 9400SOL     OW39832   0.514   1.323   1.707  0.0075 -0.9702 -0.2225
 9400SOL    HW139833   0.566   1.327   1.787 -0.9836 -1.4341  0.4501
 9400SOL    HW239834   0.470   1.407   1.718  4.5888  1.1178  2.0254
 9401SOL     OW39835   2.805   1.115   2.998  0.2628  0.4081  0.0933
 9401SOL    HW139836   2.851   1.031   2.990  1.4298  0.9022  1.6952
 9401SOL    HW239837   2.759   1.107   3.082  1.5288  0.1095  0.7543
 9402SOL     OW39838   0.178   4.081   8.876  0.2016  0.0730  0.1790
 9402SOL    HW139839   0.273   4.081   8.876  0.1942 -0.2503 -1.6449
 9402SOL    HW239840   0.156   4.050   8.788 -0.4903  0.0073  0.3729
 9403SOL     OW39841   3.239   2.605   2.880 -0.1666  0.1998  0.3509
 9403SOL    HW139842   3.175   2.659   2.833  0.8558  1.8519  0.8555
 9403SOL    HW239843   3.188   2.524   2.885 -0.0069  0.0741 -0.0170
 9404SOL     OW39844   1.882   4.272   7.790 -0.1823  0.5077 -0.4208
 9404SOL    HW139845   1.894   4.218   7.711 -0.5518  0.6938 -0.6071
 9404SOL    HW239846   1.943   4.344   7.775  1.6375 -0.8955  0.2372
 9405SOL     OW39847   4.300   4.097   4.140  0.2154  0.2462 -0.0211
 9405SOL    HW139848   4.235   4.057   4.082  0.4271 -2.3467  1.5433
 9405SOL    HW239849   4.260   4.181   4.161 -0.3752 -0.0331 -0.0183
 9406SOL     OW39850   1.610   1.996   5.920 -0.0686 -0.1958 -0.1157
 9406SOL    HW139851   1.543   2.058   5.892 -0.5631  0.2438  2.1129
 9406SOL    HW239852   1.550   1.938   5.966 -0.0199  0.8717  1.2812
 9407SOL     OW39853   0.543   0.995   3.307 -0.1559 -0.3391 -0.1374
 9407SOL    HW139854   0.458   0.957   3.286 -0.3265 -1.0125  1.7689
 9407SOL    HW239855   0.545   1.085   3.274  0.4358  0.1441  1.2212
 9408SOL     OW39856   1.867   0.929   5.435  0.0208  0.2655 -0.3471
 9408SOL    HW139857   1.835   0.914   5.347 -2.0419  3.3431 -0.1037
 9408SOL    HW239858   1.833   0.856   5.487  1.0042 -1.6974 -2.5033
 9409SOL     OW39859   1.428   4.389   8.855  0.5622  0.3668 -0.3975
 9409SOL    HW139860   1.403   4.436   8.934  0.2656  2.4822 -1.7513
 9409SOL    HW239861   1.369   4.314   8.852 -0.5868  1.4149 -3.6747
 9410SOL     OW39862   0.676   2.883   1.242  0.4692 -0.0885  0.4542
 9410SOL    HW139863   0.619   2.878   1.165  1.1224  0.7348 -0.0802
 9410SOL    HW239864   0.732   2.951   1.206  1.7373 -0.7713  1.1659
 9411SOL     OW39865   4.688   0.538   7.642  0.3354 -0.8559 -0.0841
 9411SOL    HW139866   4.715   0.543   7.733  1.8256  3.2538 -0.8000
 9411SOL    HW239867   4.710   0.628   7.618  2.8819 -1.4515  0.0978
 9412SOL     OW39868   3.315   3.574  15.869  0.2057  0.0949 -0.1911
 9412SOL    HW139869   3.240   3.517  15.855 -0.4354  0.9797 -0.3759
 9412SOL    HW239870   3.346   3.603  15.783 -1.5054 -1.1629 -1.2231
 9413SOL     OW39871   3.872   0.309   6.441 -0.0232  0.6122 -0.6326
 9413SOL    HW139872   3.836   0.246   6.503  1.4995  0.6744  0.3224
 9413SOL    HW239873   3.901   0.256   6.367  2.6662  1.8483 -0.4487
 9414SOL     OW39874   1.902   2.409   1.615 -0.3050  0.1762  0.0677
 9414SOL    HW139875   1.986   2.363   1.614 -2.0595 -3.0783  1.3181
 9414SOL    HW239876   1.876   2.412   1.707  1.9548 -1.3572  0.7560
 9415SOL     OW39877   1.065   0.114   8.428  0.2605  0.2007 -0.0506
 9415SOL    HW139878   1.154   0.113   8.392  0.1123 -1.2538 -0.3799
 9415SOL    HW239879   1.047   0.032   8.383  0.6369 -0.0259  0.2152
 9416SOL     OW39880   3.249   3.241   3.481  0.3428  0.3034 -0.1597
 9416SOL    HW139881   3.235   3.300   3.407 -3.3973 -0.5096 -0.1056
 9416SOL    HW239882   3.275   3.298   3.553 -0.9915  1.2346 -0.4231
 9417SOL     OW39883   2.352   3.604   6.162  0.3068 -1.1420 -0.3492
 9417SOL    HW139884   2.259   3.600   6.185 -0.0345 -2.2531 -1.9590
 9417SOL    HW239885   2.365   3.514   6.132  2.6264 -0.2546 -2.1000
 9418SOL     OW39886   1.955   1.864   6.042  0.2887 -0.3261  0.5681
 9418SOL    HW139887   2.045   1.856   6.075 -0.0244  2.7003  2.1787
 9418SOL    HW239888   1.938   1.778   6.003  0.4168 -0.5565  1.0213
 9419SOL     OW39889   0.013   1.349   2.783 -0.8469  0.4124  0.5055
 9419SOL    HW139890   0.038   1.365   2.874 -0.0586 -1.0228  0.5437
 9419SOL    HW239891   4.654   1.333   2.791 -0.6629 -2.1980 -2.5988
 9420SOL     OW39892   0.940   2.175   7.618  0.3305 -0.0853 -0.1154
 9420SOL    HW139893   0.897   2.100   7.578 -1.6649  0.0858  1.6911
 9420SOL    HW239894   0.951   2.139   7.706  0.0173 -0.9833 -0.4420
 9421SOL     OW39895   4.647   2.189   6.237 -0.3847 -0.0320  0.2715
 9421SOL    HW139896   4.580   2.140   6.285 -3.2320  1.2738 -2.3308
 9421SOL    HW239897   4.705   2.124   6.198 -2.6406 -1.4762 -0.6879
 9422SOL     OW39898   1.126   4.230   6.153 -0.0849  0.1343 -0.1868
 9422SOL    HW139899   1.190   4.187   6.096  0.4965 -0.9171  1.2538
 9422SOL    HW239900   1.062   4.160   6.167  0.5956 -0.2737  0.8558
 9423SOL     OW39901   3.533   3.477  17.407  0.1030  0.0731  0.1153
 9423SOL    HW139902   3.530   3.561  17.454  1.9768 -0.7489  1.7116
 9423SOL    HW239903   3.457   3.481  17.350  0.1191 -0.9876  0.0314
 9424SOL     OW39904   4.703   1.794   0.487 -0.1796 -0.3568  0.0829
 9424SOL    HW139905   0.031   1.837   0.545 -0.6417  1.1277 -0.5163
 9424SOL    HW239906   4.624   1.848   0.496  0.2244  0.1437  0.6639
 9425SOL     OW39907   0.841   1.233   6.325 -0.2774  0.1669  0.3570
 9425SOL    HW139908   0.762   1.216   6.274 -1.1970  2.7511  0.8904
 9425SOL    HW239909   0.904   1.184   6.273 -0.3876  0.9140 -0.4804
 9426SOL     OW39910   0.147   0.082   8.805  0.0876 -0.1064  0.1138
 9426SOL    HW139911   0.184   0.114   8.887 -0.3087 -1.1312  0.6843
 9426SOL    HW239912   0.061   0.048   8.831  0.0504 -1.7166 -2.0856
 9427SOL     OW39913   0.840   0.064   8.813 -0.3601  0.4829  0.2708
 9427SOL    HW139914   0.913   0.109   8.770 -2.3541  0.4035 -3.2464
 9427SOL    HW239915   0.878   4.720   8.852 -0.2093 -0.4379 -1.6938
 9428SOL     OW39916   0.492   3.097   2.516  0.8186 -0.0098 -0.1129
 9428SOL    HW139917   0.537   3.095   2.431  1.5385  4.4178  0.1533
 9428SOL    HW239918   0.554   3.143   2.572  0.2057  1.0069 -0.2699
 9429SOL     OW39919   2.258   3.720   6.957 -0.1021  0.1733 -0.0090
 9429SOL    HW139920   2.222   3.749   7.041  1.9915  1.8098  0.3229
 9429SOL    HW239921   2.181   3.731   6.901  0.3160  1.6408 -0.2777
 9430SOL     OW39922   0.086   0.279  10.631  0.3267 -0.5547  0.4441
 9430SOL    HW139923   0.143   0.356  10.629  2.2544 -1.9722  0.3184
 9430SOL    HW239924   0.004   0.324  10.611  1.0617 -0.3882 -2.2245
 9431SOL     OW39925   3.510   3.726  15.353 -0.5772  0.7790 -0.2123
 9431SOL    HW139926   3.490   3.817  15.331 -0.3275  1.4771  2.5140
 9431SOL    HW239927   3.512   3.691  15.263 -0.9474 -0.7327  0.3620
 9432SOL     OW39928   3.286   1.464   2.167  0.7384  0.0300  1.0339
 9432SOL    HW139929   3.358   1.422   2.120 -1.4308 -0.8470 -1.4799
 9432SOL    HW239930   3.300   1.434   2.257 -1.3718  0.3062  1.4506
 9433SOL     OW39931   2.604   1.887   5.688  0.2769 -0.2073  0.5294
 9433SOL    HW139932   2.569   1.802   5.716  1.0409 -1.2536 -1.6855
 9433SOL    HW239933   2.519   1.930   5.676  0.7946  0.5087 -0.5371
 9434SOL     OW39934   3.238   3.228   9.595 -0.1640 -0.0780 -0.1581
 9434SOL    HW139935   3.151   3.265   9.582  0.6214  2.4088  1.8695
 9434SOL    HW239936   3.291   3.307   9.584  0.8154 -1.0022 -2.1417
 9435SOL     OW39937   4.040   1.788  15.748  0.3305  0.0612 -0.1185
 9435SOL    HW139938   4.078   1.717  15.799 -0.0404  0.9692  1.3974
 9435SOL    HW239939   4.100   1.788  15.673  1.0968  1.1588  0.4982
 9436SOL     OW39940   0.892   0.708   2.317 -0.5049  0.1066 -0.1815
 9436SOL    HW139941   0.864   0.693   2.407 -1.3522  1.2601 -0.2516
 9436SOL    HW239942   0.962   0.644   2.303  0.5182  0.8689  1.4307
 9437SOL     OW39943   2.029   1.392  17.702 -0.5586 -0.5915  0.0596
 9437SOL    HW139944   2.024   1.412  17.609 -0.5334  0.2306  0.2321
 9437SOL    HW239945   2.103   1.333  17.715  0.0888  0.1975 -0.0710
 9438SOL     OW39946   0.047   4.429   5.979 -0.3420  0.8362  0.2229
 9438SOL    HW139947   0.065   4.367   6.050 -2.1734 -0.1942 -0.2084
 9438SOL    HW239948   4.686   4.429   5.976 -0.3356  0.5662  0.0447
 9439SOL     OW39949   0.271   4.170   8.061  0.0587 -0.1979  0.4244
 9439SOL    HW139950   0.275   4.081   8.027  0.5512 -0.6311  1.6020
 9439SOL    HW239951   0.201   4.202   8.006  2.5732  3.3179 -0.7105
 9440SOL     OW39952   4.156   1.091   5.023 -0.1136  0.3061  0.1290
 9440SOL    HW139953   4.177   1.184   5.015  0.1204  0.2267 -0.1877
 9440SOL    HW239954   4.126   1.066   4.935 -3.2759 -2.2531  1.9458
 9441SOL     OW39955   3.237   2.934  11.644 -0.6318  0.6449 -0.1259
 9441SOL    HW139956   3.288   2.967  11.718  0.7428 -0.4685 -0.5756
 9441SOL    HW239957   3.209   3.016  11.605 -0.4396  0.6085 -0.3430
 9442SOL     OW39958   3.544   0.961  14.837 -0.0144  0.1927 -0.2446
 9442SOL    HW139959   3.539   0.960  14.741  1.9462  1.0204 -0.3533
 9442SOL    HW239960   3.469   0.906  14.862  0.6667 -0.5961  0.0385
 9443SOL     OW39961   0.707   2.628   3.439  0.1343  0.7940  0.1963
 9443SOL    HW139962   0.786   2.578   3.418  0.2589 -0.0686  2.7309
 9443SOL    HW239963   0.726   2.666   3.525  1.1772  2.6413 -0.8591
 9444SOL     OW39964   3.651   3.238   2.840  0.8386 -0.1185  0.6547
 9444SOL    HW139965   3.578   3.300   2.849  0.7245 -0.3591  1.3521
 9444SOL    HW239966   3.629   3.178   2.911 -0.2633 -1.6652 -1.0203
 9445SOL     OW39967   2.337   2.727   6.436 -0.2514  0.4444  0.2123
 9445SOL    HW139968   2.342   2.756   6.528 -0.4789 -1.0656  0.6909
 9445SOL    HW239969   2.415   2.672   6.432  0.6350  1.7393 -0.4726
 9446SOL     OW39970   3.712   3.838   8.669 -0.3769 -0.3659 -0.7731
 9446SOL    HW139971   3.799   3.868   8.693  0.9260 -4.8484  0.1593
 9446SOL    HW239972   3.703   3.861   8.577 -2.9103 -0.5759 -0.5914
 9447SOL     OW39973   2.509   4.347   4.348 -0.0089 -0.1072  0.4580
 9447SOL    HW139974   2.513   4.439   4.375 -0.5035  0.5822 -1.7452
 9447SOL    HW239975   2.543   4.298   4.423  1.7479  2.5832  1.4129
 9448SOL     OW39976   1.775   3.360   8.827  0.4597  0.9092  0.3631
 9448SOL    HW139977   1.687   3.364   8.789  0.9073 -2.4316 -0.9900
 9448SOL    HW239978   1.798   3.276   8.788 -2.3248  1.3053 -2.0897
 9449SOL     OW39979   3.068   3.696   0.862  0.1874 -0.6163 -0.3105
 9449SOL    HW139980   2.995   3.711   0.922  0.7936  0.5962  0.1216
 9449SOL    HW239981   3.027   3.648   0.790 -0.0363  0.0255 -0.6204
 9450SOL     OW39982   2.084   1.274   4.818  0.6077  0.4925 -0.0041
 9450SOL    HW139983   2.048   1.197   4.862  2.2403  0.1206  0.6609
 9450SOL    HW239984   2.004   1.324   4.798 -0.8884 -1.7952  0.2041
 9451SOL     OW39985   3.695   0.528   6.340 -0.2344  0.0021 -0.1203
 9451SOL    HW139986   3.759   0.457   6.326 -0.7816 -0.7167  1.0422
 9451SOL    HW239987   3.725   0.577   6.416  0.7763  0.2875 -0.6931
 9452SOL     OW39988   0.430   4.092  14.034 -0.3303 -0.5168 -0.0633
 9452SOL    HW139989   0.394   4.177  14.059 -1.3463 -0.9665  0.0176
 9452SOL    HW239990   0.440   4.042  14.115  1.3691  1.0353  0.6695
 9453SOL     OW39991   4.632   0.020   6.858  0.0118  0.6934  0.0909
 9453SOL    HW139992   4.585   0.021   6.941  0.1183  0.0372  0.1609
 9453SOL    HW239993   4.587   4.690   6.803  2.1060  0.3207 -1.2104
 9454SOL     OW39994   3.019   2.045   7.559 -0.2464 -0.3024  0.3960
 9454SOL    HW139995   2.969   1.973   7.521 -0.0594  0.1194 -0.6594
 9454SOL    HW239996   2.982   2.049   7.647 -2.0113 -2.5488 -0.2536
 9455SOL     OW39997   0.224   3.057   3.182  0.4091 -0.6984 -0.2887
 9455SOL    HW139998   0.305   3.095   3.216 -0.8115  1.1537  0.4985
 9455SOL    HW239999   0.167   3.134   3.181  0.2977 -0.7425  2.4800
 9456SOL     OW40000   4.042   3.762   4.270  0.0155  0.3267  0.5804
 9456SOL    HW140001   3.992   3.683   4.250  1.9096 -0.4652 -1.0443
 9456SOL    HW240002   4.103   3.779   4.198  0.0831  0.3227  0.6365
 9457SOL     OW40003   0.481   2.841   5.303 -0.2074 -0.3172 -0.4766
 9457SOL    HW140004   0.497   2.802   5.217 -0.1788  0.1069 -0.6653
 9457SOL    HW240005   0.421   2.783   5.351 -1.5813 -0.1540 -2.0050
 9458SOL     OW40006   0.730   4.246   0.675 -0.3245 -0.0173  0.3491
 9458SOL    HW140007   0.766   4.162   0.647 -0.9442 -0.1721 -0.0015
 9458SOL    HW240008   0.775   4.287   0.601  1.6114 -1.1161  0.9100
 9459SOL     OW40009   1.721   0.951  14.048  0.1037  0.1137  0.0095
 9459SOL    HW140010   1.794   0.957  13.986 -0.7582  1.8015 -0.8369
 9459SOL    HW240011   1.697   1.043  14.044 -3.4871 -0.8682 -1.0318
 9460SOL     OW40012   4.613   0.649  16.512 -0.3353 -0.2543  0.3661
 9460SOL    HW140013   4.592   0.607  16.428 -2.3344 -0.5992  1.0433
 9460SOL    HW240014   4.635   0.568  16.558  3.7354 -0.3984 -1.7888
 9461SOL     OW40015   3.516   2.842  14.646  0.1006 -0.1628  0.0730
 9461SOL    HW140016   3.446   2.835  14.710 -0.8435  0.2351 -0.9108
 9461SOL    HW240017   3.470   2.846  14.562  0.3553 -2.7410 -0.1933
 9462SOL     OW40018   1.561   2.553   5.633 -0.2071 -0.0979  0.0668
 9462SOL    HW140019   1.644   2.526   5.595 -0.1203 -0.6443  0.6436
 9462SOL    HW240020   1.525   2.619   5.574  0.5082 -0.2147 -0.4978
 9463SOL     OW40021   1.411   0.752  17.481 -0.1086 -0.4794  0.2301
 9463SOL    HW140022   1.418   0.844  17.509  2.3391 -1.0166  1.3784
 9463SOL    HW240023   1.317   0.740  17.470 -0.5680  1.8307  1.4564
 9464SOL     OW40024   3.489   1.753   9.279  0.0716 -0.6036 -0.1951
 9464SOL    HW140025   3.499   1.664   9.244 -0.2567 -0.2179 -1.2628
 9464SOL    HW240026   3.395   1.760   9.295  0.0150  0.1760 -0.9216
 9465SOL     OW40027   4.707   2.698  16.813  0.1267 -0.3831 -0.0154
 9465SOL    HW140028   4.654   2.714  16.735 -1.2611  0.6522  1.1406
 9465SOL    HW240029   0.060   2.709  16.776 -1.0342 -0.6884 -2.8915
 9466SOL     OW40030   2.351   3.493  11.396 -0.0859 -0.0535  0.2340
 9466SOL    HW140031   2.339   3.427  11.328  1.8411  0.1467 -0.3119
 9466SOL    HW240032   2.284   3.560  11.380  0.2884 -0.0023 -1.1484
 9467SOL     OW40033   0.705   3.866   3.533 -0.6303  0.4715  0.1350
 9467SOL    HW140034   0.649   3.866   3.455 -0.9344 -0.4204  0.3515
 9467SOL    HW240035   0.790   3.864   3.490 -0.2800 -0.9335  0.8756
 9468SOL     OW40036   0.162   1.510   7.206  0.1769  0.3091 -0.3952
 9468SOL    HW140037   0.093   1.448   7.231  0.7919  0.0759  0.7319
 9468SOL    HW240038   0.239   1.457   7.187 -0.2643 -0.8952  1.1822
 9469SOL     OW40039   1.428   2.802   2.926  0.1139  0.4892  0.3985
 9469SOL    HW140040   1.362   2.733   2.928  1.6277 -0.9897 -0.7786
 9469SOL    HW240041   1.426   2.837   3.015  2.4988  1.7717 -0.0339
 9470SOL     OW40042   2.329   4.471   8.316  0.0735  0.4885  0.7677
 9470SOL    HW140043   2.234   4.463   8.326  0.1819 -0.5209  0.9979
 9470SOL    HW240044   2.370   4.457   8.401  2.1875 -3.5505 -0.9124
 9471SOL     OW40045   0.425   3.772   5.467  0.4210 -0.4795  0.3103
 9471SOL    HW140046   0.499   3.808   5.515 -0.8051  1.6492  0.5944
 9471SOL    HW240047   0.392   3.699   5.519 -1.4889 -0.5981 -1.0806
 9472SOL     OW40048   1.559   0.429   2.462 -0.3189  0.3921 -0.6523
 9472SOL    HW140049   1.482   0.404   2.410 -0.6408 -1.4293  0.7371
 9472SOL    HW240050   1.604   0.345   2.459 -0.4227  0.2827  1.4389
 9473SOL     OW40051   1.988   2.595   7.303 -0.3628 -0.1893 -0.2094
 9473SOL    HW140052   1.961   2.674   7.350 -0.6133 -1.2251  1.4052
 9473SOL    HW240053   1.906   2.547   7.305  1.2200 -2.9552 -2.9525
 9474SOL     OW40054   0.162   3.892   2.221 -0.5379  0.3504  0.2843
 9474SOL    HW140055   0.246   3.877   2.263  0.4847 -2.2344 -2.7063
 9474SOL    HW240056   0.112   3.922   2.297 -0.1821  0.9005  0.2982
 9475SOL     OW40057   4.431   2.983  16.267  0.1512 -0.0279 -0.0950
 9475SOL    HW140058   4.338   2.991  16.247  0.1454 -2.2870 -0.9563
 9475SOL    HW240059   4.448   2.894  16.237  1.8521 -0.1152  1.0838
 9476SOL     OW40060   2.670   2.187   3.121 -0.2058  0.5934 -0.7820
 9476SOL    HW140061   2.689   2.272   3.160 -0.9162  0.7192 -0.6936
 9476SOL    HW240062   2.702   2.131   3.193  1.7813  2.1305 -0.4837
 9477SOL     OW40063   2.558   0.019   8.471 -0.1212 -0.5492  0.5890
 9477SOL    HW140064   2.591   4.688   8.532 -0.5141 -0.7619  0.5707
 9477SOL    HW240065   2.611   0.096   8.493 -0.5110 -0.4785  1.3066
 9478SOL     OW40066   1.935   0.792   7.471  0.1043 -0.5045 -0.2220
 9478SOL    HW140067   1.957   0.882   7.497  1.1601 -0.2918 -1.8092
 9478SOL    HW240068   1.871   0.786   7.541  2.5143 -0.1437  2.0057
 9479SOL     OW40069   4.273   3.584   3.162  0.2042 -0.0711  1.0569
 9479SOL    HW140070   4.283   3.648   3.232 -0.9676  1.3688 -0.1071
 9479SOL    HW240071   4.249   3.652   3.099 -0.3504  0.1136  1.4675
 9480SOL     OW40072   0.303   1.300   9.043 -0.2234 -0.7231 -0.1106
 9480SOL    HW140073   0.275   1.246   9.116 -0.1305 -2.1841 -1.1488
 9480SOL    HW240074   0.232   1.362   9.025  0.1913 -0.1529  0.2081
 9481SOL     OW40075   0.279   4.585  10.217 -0.0730  0.3700 -0.1263
 9481SOL    HW140076   0.322   4.513  10.262  0.5570  1.1492  0.5266
 9481SOL    HW240077   0.332   4.595  10.137 -0.3193 -2.5555 -0.6452
 9482SOL     OW40078   4.343   1.096   9.557 -0.3293  0.2330  0.2026
 9482SOL    HW140079   4.384   1.058   9.634 -1.6140  1.0740  1.2990
 9482SOL    HW240080   4.399   1.054   9.491 -0.1954  2.9178 -1.3978
 9483SOL     OW40081   1.707   2.430  16.282  0.1368 -0.2467  0.1702
 9483SOL    HW140082   1.683   2.351  16.332 -0.2664 -0.5459 -0.4863
 9483SOL    HW240083   1.796   2.415  16.250  0.7859 -2.9653  3.2555
 9484SOL     OW40084   2.784   2.281   3.674 -0.2402 -0.5817  0.1921
 9484SOL    HW140085   2.760   2.372   3.690  0.7242 -0.3908  0.5621
 9484SOL    HW240086   2.756   2.247   3.759  0.3990 -1.3818  0.0782
 9485SOL     OW40087   3.654   1.179  14.644 -0.3337 -0.3690  0.0160
 9485SOL    HW140088   3.581   1.217  14.595  0.6392  0.1733 -1.0257
 9485SOL    HW240089   3.629   1.087  14.636  2.4200 -1.0617 -0.8251
 9486SOL     OW40090   1.550   1.760   8.587  0.8935 -0.1626  0.9387
 9486SOL    HW140091   1.526   1.724   8.502  0.8258 -0.2570  0.9976
 9486SOL    HW240092   1.497   1.720   8.657  0.2768 -0.2020  0.4477
 9487SOL     OW40093   1.826   0.705   5.614  0.3419  0.0406  0.9927
 9487SOL    HW140094   1.793   0.617   5.631  0.9068 -0.1666  1.0065
 9487SOL    HW240095   1.828   0.735   5.705  0.7218 -0.0082  1.0004
 9488SOL     OW40096   2.141   1.941  15.001 -0.2530 -0.0520  0.0708
 9488SOL    HW140097   2.179   1.984  15.078 -0.8100  0.5489  0.0077
 9488SOL    HW240098   2.050   1.950  15.027 -0.2361 -1.9370  0.7244
 9489SOL     OW40099   2.760   2.265   6.095  0.0543 -0.0473  0.4110
 9489SOL    HW140100   2.791   2.197   6.035  1.0657  1.6367 -0.9964
 9489SOL    HW240101   2.725   2.321   6.026  2.2148 -1.1307 -1.5515
 9490SOL     OW40102   2.300   3.294   6.020  0.3135 -0.5122 -0.3119
 9490SOL    HW140103   2.279   3.248   5.939 -0.9561 -0.9672  0.2677
 9490SOL    HW240104   2.251   3.250   6.089  2.2504 -2.1479  0.0253
 9491SOL     OW40105   0.023   1.315  15.553  0.3284  0.1112 -0.0216
 9491SOL    HW140106   4.693   1.305  15.484  0.4165  1.7633 -0.3391
 9491SOL    HW240107   4.714   1.268  15.624  2.3683 -1.9627 -0.1344
 9492SOL     OW40108   1.202   1.363   6.326 -0.2316  0.2154 -0.6229
 9492SOL    HW140109   1.133   1.403   6.378 -0.3889 -0.2160 -0.4991
 9492SOL    HW240110   1.211   1.279   6.371 -1.3140 -0.3558 -1.4743
 9493SOL     OW40111   3.340   3.175  13.551 -0.6810  0.3353 -0.3848
 9493SOL    HW140112   3.329   3.171  13.456 -2.0553 -0.9299 -0.1807
 9493SOL    HW240113   3.385   3.255  13.578 -0.9459 -0.5601  2.7121
 9494SOL     OW40114   4.592   4.618   9.993  0.0065  0.7077  0.5477
 9494SOL    HW140115   4.543   4.641   9.914  3.0318  0.9787 -1.2879
 9494SOL    HW240116   4.682   4.631   9.963  0.9549 -2.0766  2.2504
 9495SOL     OW40117   3.225   2.970   9.689 -0.3459 -0.0496  0.1000
 9495SOL    HW140118   3.169   2.941   9.616  0.5071  0.2995 -0.6916
 9495SOL    HW240119   3.211   3.065   9.683 -0.6420 -0.0633  0.5556
 9496SOL     OW40120   0.425   2.734   4.026 -0.2005 -0.1813 -0.0809
 9496SOL    HW140121   0.352   2.719   4.086  0.0480  2.9817  1.0083
 9496SOL    HW240122   0.433   2.645   3.992 -0.2037  0.5271 -1.9421
 9497SOL     OW40123   1.542   1.836   4.915  0.2497 -0.3642 -0.0307
 9497SOL    HW140124   1.605   1.766   4.898  1.8520  1.2985 -0.9898
 9497SOL    HW240125   1.453   1.801   4.919  0.0115  0.2020 -0.4085
 9498SOL     OW40126   1.000   0.702  11.883  0.0374  0.2110  0.0203
 9498SOL    HW140127   1.050   0.643  11.939  2.1584  0.9954 -1.0543
 9498SOL    HW240128   0.999   0.777  11.943 -1.5179 -0.6342  1.0436
 9499SOL     OW40129   2.484   2.172  16.014  0.1524 -0.4121 -0.2179
 9499SOL    HW140130   2.401   2.172  16.062 -0.4083  1.7884 -1.2046
 9499SOL    HW240131   2.521   2.099  16.064 -0.7628  0.6623  2.0637
 9500SOL     OW40132   4.215   2.377   8.329  0.3508  0.1748 -0.1084
 9500SOL    HW140133   4.193   2.290   8.361  1.8433  0.8506  2.7318
 9500SOL    HW240134   4.132   2.424   8.327 -0.3229 -1.1067 -2.1722
 9501SOL     OW40135   2.931   0.141  11.563  0.0849  0.6670  0.4836
 9501SOL    HW140136   2.912   0.063  11.510  1.0729 -0.8410  2.3714
 9501SOL    HW240137   3.010   0.181  11.527  1.3425 -1.4962  0.8279
 9502SOL     OW40138   0.383   0.267   5.212 -0.2888  0.9391 -0.0786
 9502SOL    HW140139   0.332   0.201   5.260  1.9664  2.3546  4.2835
 9502SOL    HW240140   0.354   0.233   5.127 -0.6097 -1.3974  0.9535
 9503SOL     OW40141   1.429   3.174   7.694  0.4995  0.0069  0.0806
 9503SOL    HW140142   1.372   3.159   7.618  0.4658  0.5630 -0.0045
 9503SOL    HW240143   1.370   3.191   7.767  0.1413  1.3342 -0.5099
 9504SOL     OW40144   0.659   1.997   0.071  0.3653  0.3926  0.0868
 9504SOL    HW140145   0.661   1.908   0.109 -0.7428  1.7416  3.3068
 9504SOL    HW240146   0.696   2.044   0.146  0.0794  0.1274  0.3998
 9505SOL     OW40147   3.651   2.332   3.652 -0.1405 -0.7261 -0.0516
 9505SOL    HW140148   3.722   2.301   3.595 -0.0704  1.8178 -1.3710
 9505SOL    HW240149   3.579   2.319   3.590  1.1727 -1.0127 -1.5302
 9506SOL     OW40150   0.174   0.113   5.718  0.3663 -0.6606  1.2646
 9506SOL    HW140151   0.116   0.062   5.662  2.6372 -4.4515  2.3304
 9506SOL    HW240152   0.158   0.064   5.799 -0.5157  0.3832  1.7224
 9507SOL     OW40153   1.511   3.917   7.517 -0.1275 -0.0318  0.1974
 9507SOL    HW140154   1.495   3.969   7.438  0.4170  0.1152  0.1879
 9507SOL    HW240155   1.552   3.836   7.488  0.0999  0.2052 -0.1469
 9508SOL     OW40156   2.423   1.374   3.311 -0.2461 -0.0998 -0.3308
 9508SOL    HW140157   2.405   1.443   3.375 -1.4889  1.1983 -2.0726
 9508SOL    HW240158   2.452   1.433   3.241  0.2706  0.0963  0.0507
 9509SOL     OW40159   0.847   0.549   0.037 -0.0624  0.8680  0.5348
 9509SOL    HW140160   0.863   0.469  17.726  2.1392 -0.4108  3.3211
 9509SOL    HW240161   0.939   0.573   0.050  0.7588 -1.6434 -0.6285
 9510SOL     OW40162   1.700   0.334   4.823  0.8244  0.1235  0.0695
 9510SOL    HW140163   1.658   0.248   4.811  1.3485 -0.3370  1.6560
 9510SOL    HW240164   1.675   0.389   4.748 -0.4632 -0.9228 -0.2807
 9511SOL     OW40165   1.478   2.216   2.586 -0.3106  0.4757 -0.2246
 9511SOL    HW140166   1.416   2.250   2.651 -0.7423 -0.9142  0.1068
 9511SOL    HW240167   1.531   2.285   2.548  0.3382  0.7466  1.1711
 9512SOL     OW40168   3.969   3.465   7.302  0.1712 -0.3798  0.1813
 9512SOL    HW140169   3.886   3.431   7.269  0.1471  1.6102 -1.8176
 9512SOL    HW240170   4.023   3.386   7.298  1.2754  0.4264 -0.7732
 9513SOL     OW40171   0.403   2.109   5.529 -0.6357  0.0706  0.1093
 9513SOL    HW140172   0.412   2.070   5.442  0.5039 -0.7443  0.5799
 9513SOL    HW240173   0.490   2.089   5.564 -0.4081  0.0947 -0.4308
 9514SOL     OW40174   0.351   1.158  10.284 -0.5186  0.3351 -0.3360
 9514SOL    HW140175   0.357   1.208  10.365 -3.0641  0.2046 -0.0444
 9514SOL    HW240176   0.373   1.224  10.218  0.6559  3.0995  2.7988
 9515SOL     OW40177   3.296   3.561   5.856  0.3895 -0.4863 -0.2364
 9515SOL    HW140178   3.341   3.523   5.932  0.9970 -1.3433 -1.0108
 9515SOL    HW240179   3.336   3.648   5.850 -2.9899  1.2010  1.9370
 9516SOL     OW40180   2.851   4.628  17.306  0.3039 -0.3088 -0.2831
 9516SOL    HW140181   2.823   4.663  17.221 -1.1515 -0.0124  0.3123
 9516SOL    HW240182   2.891   4.546  17.279  1.1986  0.4812 -1.3706
 9517SOL     OW40183   2.530   1.776   3.675  0.0574  0.6743  0.5689
 9517SOL    HW140184   2.505   1.868   3.662  2.3699  0.7269 -3.6323
 9517SOL    HW240185   2.563   1.778   3.765  0.3571 -1.6273  0.5022
 9518SOL     OW40186   0.543   2.077   8.634 -0.2207 -0.2067 -0.3350
 9518SOL    HW140187   0.513   2.164   8.610 -2.5064 -0.2268  2.3577
 9518SOL    HW240188   0.613   2.092   8.697 -0.5862  1.0078 -0.2274
 9519SOL     OW40189   2.397   3.946   5.161  0.5449 -0.0585 -0.1794
 9519SOL    HW140190   2.446   3.883   5.213  2.1177  1.8899  0.7266
 9519SOL    HW240191   2.316   3.896   5.150 -0.3752  1.5301 -0.6908
 9520SOL     OW40192   0.318   0.535   6.462 -0.2868  0.3946  0.2876
 9520SOL    HW140193   0.410   0.516   6.443 -0.3376 -0.6200  1.0137
 9520SOL    HW240194   0.284   0.464   6.517  1.8406 -0.5785  0.3512
 9521SOL     OW40195   2.379   1.828   6.005 -0.9149  0.4184  0.3802
 9521SOL    HW140196   2.309   1.856   6.064 -0.8290  0.5279  0.4309
 9521SOL    HW240197   2.339   1.755   5.957  1.0057  0.1628 -0.8406
 9522SOL     OW40198   1.231   3.622  16.296  0.0007 -0.4320  0.4889
 9522SOL    HW140199   1.263   3.695  16.349 -0.8211 -0.7876  1.4656
 9522SOL    HW240200   1.297   3.552  16.298  0.7357  0.2548  0.0709
 9523SOL     OW40201   0.142   2.061   5.556 -0.2218  0.3876  0.2372
 9523SOL    HW140202   0.130   1.983   5.502  0.5600  1.7115 -1.8369
 9523SOL    HW240203   0.237   2.073   5.552  0.3940 -4.4515  0.0676
 9524SOL     OW40204   4.389   2.571   5.175 -0.3985  0.1475 -0.8284
 9524SOL    HW140205   4.468   2.623   5.157 -0.5277  0.5420 -0.2594
 9524SOL    HW240206   4.432   2.490   5.203  0.0937  1.5507  2.4947
 9525SOL     OW40207   1.760   3.057   2.556  0.1538 -0.1410  0.5598
 9525SOL    HW140208   1.715   3.001   2.492 -2.6077  2.0363  0.5969
 9525SOL    HW240209   1.800   3.128   2.506 -0.7255 -0.4241 -0.5396
 9526SOL     OW40210   0.883   0.021  11.823 -0.8024 -0.4808  0.5082
 9526SOL    HW140211   0.920   4.669  11.841  1.0836  0.3007  0.4464
 9526SOL    HW240212   0.962   0.075  11.820 -0.4905 -0.9903 -0.1630
 9527SOL     OW40213   0.029   1.947  17.349 -0.0960 -0.2892 -0.3734
 9527SOL    HW140214   0.086   1.924  17.422 -0.4933 -1.9066 -0.5774
 9527SOL    HW240215   0.080   1.958  17.269  0.2853 -0.0263 -0.0935
 9528SOL     OW40216   2.122   2.699  13.330 -0.1154  0.3002  0.0009
 9528SOL    HW140217   2.203   2.723  13.286  0.0237 -1.6246 -0.7737
 9528SOL    HW240218   2.084   2.782  13.358 -0.1058  0.5906 -0.8338
 9529SOL     OW40219   1.927   2.323   4.915 -0.3751  0.9163 -0.3308
 9529SOL    HW140220   1.845   2.365   4.892 -0.9163 -1.1257 -2.1870
 9529SOL    HW240221   1.960   2.319   4.825 -0.2093  0.0281 -0.2340
 9530SOL     OW40222   2.314   2.728  12.197 -0.5979 -0.3238  0.1949
 9530SOL    HW140223   2.357   2.701  12.116  1.5061  1.9968  0.5027
 9530SOL    HW240224   2.358   2.813  12.206 -0.3531 -0.4745  0.4324
 9531SOL     OW40225   2.944   1.699   0.040  0.4873 -0.0676 -0.0023
 9531SOL    HW140226   2.899   1.690  17.694  1.0333 -0.0090 -0.2954
 9531SOL    HW240227   2.878   1.689   0.109  2.1590 -0.4965  1.5025
 9532SOL     OW40228   3.751   3.711   9.462 -0.3396 -0.0378  0.1635
 9532SOL    HW140229   3.739   3.637   9.402 -2.1603 -0.9712  1.6603
 9532SOL    HW240230   3.835   3.692   9.503 -0.6647  0.5902  1.1279
 9533SOL     OW40231   2.727   2.653   8.052  0.2057  0.1374  0.1243
 9533SOL    HW140232   2.738   2.732   7.999  0.6132 -0.9282 -1.3622
 9533SOL    HW240233   2.651   2.617   8.006 -0.2527  0.7840  0.3654
 9534SOL     OW40234   3.651   2.628   8.479 -0.3271  0.2984 -0.4544
 9534SOL    HW140235   3.732   2.666   8.512  1.0286 -2.5847 -0.4284
 9534SOL    HW240236   3.584   2.666   8.535  0.6160  2.5561 -0.8613
 9535SOL     OW40237   0.418   4.336  13.709  0.0368  0.0277  0.3225
 9535SOL    HW140238   0.425   4.387  13.789  0.5392  2.5716 -1.3347
 9535SOL    HW240239   0.333   4.293  13.723 -0.6548  1.0007 -0.7933
 9536SOL     OW40240   0.254   2.712  12.860  0.0394  0.1469  0.2056
 9536SOL    HW140241   0.317   2.728  12.930 -1.0885  1.1247  1.0002
 9536SOL    HW240242   0.267   2.620  12.837 -1.5326 -0.2456  0.8673
 9537SOL     OW40243   2.203   3.134   0.742 -0.0180 -0.8469 -0.1077
 9537SOL    HW140244   2.140   3.117   0.812 -0.2918  0.7559  0.0274
 9537SOL    HW240245   2.262   3.060   0.759 -0.3647 -0.9881  0.4651
 9538SOL     OW40246   3.597   1.991   9.144  0.1818  0.4917 -0.8757
 9538SOL    HW140247   3.508   2.025   9.144  0.6019  1.5600  1.1909
 9538SOL    HW240248   3.571   1.902   9.167  1.1785  0.0513 -1.4405
 9539SOL     OW40249   0.645   1.263  10.245 -0.0646  0.0833 -0.7103
 9539SOL    HW140250   0.728   1.230  10.213  0.6109  0.7537  0.3330
 9539SOL    HW240251   0.596   1.181  10.250  0.2390  0.1349  2.8155
 9540SOL     OW40252   1.551   1.941   3.525  0.3859  0.3173  0.8569
 9540SOL    HW140253   1.554   2.028   3.566  0.9426 -0.2313  1.9742
 9540SOL    HW240254   1.618   1.891   3.571  0.8833 -0.2969 -0.5363
 9541SOL     OW40255   1.046   3.970  17.228  0.4013  0.0503  0.1941
 9541SOL    HW140256   1.023   4.055  17.264  0.0829  0.7246 -1.5935
 9541SOL    HW240257   0.967   3.919  17.248 -0.6935  1.2151 -1.1289
 9542SOL     OW40258   1.560   3.441   4.834 -0.3094 -0.1668 -0.3419
 9542SOL    HW140259   1.546   3.509   4.767 -1.5623  0.7665  0.8433
 9542SOL    HW240260   1.480   3.431   4.887  0.7494  0.3055  1.3534
 9543SOL     OW40261   2.885   3.317  15.690  0.4287 -0.6668  0.3833
 9543SOL    HW140262   2.858   3.230  15.660  0.4126 -0.1978 -0.9706
 9543SOL    HW240263   2.797   3.352  15.703 -0.6095 -1.7529 -3.7516
 9544SOL     OW40264   0.533   2.034   0.443  0.2688 -0.2990 -0.1942
 9544SOL    HW140265   0.465   2.085   0.486  2.8068  0.8668  2.4856
 9544SOL    HW240266   0.563   2.108   0.390  1.3362 -0.1802  0.5733
 9545SOL     OW40267   3.912   4.224   2.683  0.0205 -0.0205  0.2077
 9545SOL    HW140268   3.975   4.162   2.648 -1.5724 -1.1092 -0.7180
 9545SOL    HW240269   3.888   4.271   2.603 -0.2005  0.1249  0.3571
 9546SOL     OW40270   0.650   2.950  14.640 -0.3684 -0.3867 -0.8952
 9546SOL    HW140271   0.658   3.009  14.714 -0.4363 -1.7877  0.2314
 9546SOL    HW240272   0.593   2.879  14.670  2.2340 -0.8558  2.8670
 9547SOL     OW40273   3.848   4.707   3.695 -0.4785 -0.4133 -0.4991
 9547SOL    HW140274   3.893   0.056   3.690  0.7647 -0.9352  2.2782
 9547SOL    HW240275   3.901   4.640   3.651 -0.6772 -0.2063 -1.0545
 9548SOL     OW40276   0.718   2.122   4.932  0.5674  0.2935 -0.2139
 9548SOL    HW140277   0.800   2.165   4.957 -0.0047  0.4396  1.4564
 9548SOL    HW240278   0.686   2.192   4.875  0.3713  0.5090  0.1573
 9549SOL     OW40279   4.637   4.450  15.384 -0.1703 -0.4696 -0.0761
 9549SOL    HW140280   4.647   4.453  15.480  2.1490  0.5915 -0.3242
 9549SOL    HW240281   4.654   4.359  15.362  3.1911  0.5534 -1.7252
 9550SOL     OW40282   2.692   2.744   7.154 -0.6945 -0.9618  1.1578
 9550SOL    HW140283   2.686   2.825   7.204  4.1269 -0.3525  0.7025
 9550SOL    HW240284   2.757   2.702   7.211  2.0669  1.2227 -0.3802
 9551SOL     OW40285   2.089   3.902   2.969 -0.2524  0.0255  0.4163
 9551SOL    HW140286   2.031   3.914   2.895  1.8803 -1.0510 -1.4320
 9551SOL    HW240287   2.148   3.977   2.970 -0.3643  0.1096  1.9747
 9552SOL     OW40288   1.886   4.422   9.464  0.0254 -0.0793 -0.5300
 9552SOL    HW140289   1.858   4.357   9.529 -1.4248  1.6413  0.5822
 9552SOL    HW240290   1.809   4.438   9.410  1.2450  0.4493 -2.0944
 9553SOL     OW40291   3.110   3.693  10.777  0.5612 -0.1256 -0.0400
 9553SOL    HW140292   3.176   3.672  10.843  0.2089  1.3748  0.7851
 9553SOL    HW240293   3.163   3.759  10.733  1.3920  0.0428  1.2044
 9554SOL     OW40294   1.087   1.354   5.920 -0.1818  0.1966  0.0444
 9554SOL    HW140295   1.017   1.294   5.945 -1.5870  1.0212 -1.9262
 9554SOL    HW240296   1.162   1.303   5.951 -1.0041 -1.2965 -0.4211
 9555SOL     OW40297   2.257   1.354  11.476 -0.2402 -0.1210  0.1151
 9555SOL    HW140298   2.279   1.437  11.520 -1.9594 -0.2744  1.2852
 9555SOL    HW240299   2.232   1.384  11.389 -1.6337  1.3356  1.0121
 9556SOL     OW40300   0.910   3.487   6.465 -1.1205 -0.4793  0.2495
 9556SOL    HW140301   0.953   3.505   6.381  0.7116 -3.5244  0.5502
 9556SOL    HW240302   0.832   3.437   6.444 -0.6880 -0.6809 -0.8779
 9557SOL     OW40303   1.820   3.825   5.002 -0.1394 -0.0219 -0.6424
 9557SOL    HW140304   1.813   3.825   4.906  0.3686  1.1305 -0.6768
 9557SOL    HW240305   1.882   3.755   5.018 -1.0761 -0.6052  0.4131
 9558SOL     OW40306   0.477   2.374  16.873  0.0643  0.3768  0.3369
 9558SOL    HW140307   0.549   2.383  16.936 -0.3902  0.8262  0.8004
 9558SOL    HW240308   0.519   2.393  16.789  0.4940  2.7613  1.0834
 9559SOL     OW40309   3.780   4.585   7.966 -0.3556  0.1686 -0.3731
 9559SOL    HW140310   3.749   4.674   7.985 -0.5904 -0.0374  0.1775
 9559SOL    HW240311   3.863   4.605   7.923  0.9124 -3.8135  0.2919
 9560SOL     OW40312   3.064   3.744   1.995  0.2012  0.7878 -0.2487
 9560SOL    HW140313   3.078   3.721   2.087  1.3056  0.3186 -0.5371
 9560SOL    HW240314   2.971   3.728   1.978 -0.0307  2.1141 -0.2788
 9561SOL     OW40315   2.332   4.531   2.441 -0.2363 -0.4929 -0.1934
 9561SOL    HW140316   2.325   4.566   2.352 -0.6627  1.2572  0.5379
 9561SOL    HW240317   2.262   4.466   2.441 -1.2953  0.6375 -0.4693
 9562SOL     OW40318   3.482   1.022   8.007 -0.1189 -0.3119  0.0331
 9562SOL    HW140319   3.394   1.058   7.998 -0.1795 -0.5826 -0.4728
 9562SOL    HW240320   3.528   1.083   7.948  1.7646 -1.3088  0.4630
 9563SOL     OW40321   3.053   2.480   4.858  0.3301 -0.2330  0.2022
 9563SOL    HW140322   2.960   2.496   4.843  0.8483  2.3614 -0.4112
 9563SOL    HW240323   3.045   2.450   4.948 -2.5620  0.2324  0.0704
 9564SOL     OW40324   0.622   1.697  14.093 -0.2155  0.0292  0.0652
 9564SOL    HW140325   0.536   1.672  14.125  0.0916  0.4134  1.1918
 9564SOL    HW240326   0.677   1.630  14.135 -0.7431 -1.4413 -1.5767
 9565SOL     OW40327   0.368   0.321  12.576  0.1210  0.1979 -0.2972
 9565SOL    HW140328   0.368   0.237  12.623 -1.0495  0.8122  0.8109
 9565SOL    HW240329   0.397   0.386  12.640 -2.2187  1.2355 -0.2918
 9566SOL     OW40330   1.407   2.220   4.107  0.6461  0.8840 -0.1721
 9566SOL    HW140331   1.451   2.297   4.073  0.6991  1.9577  2.3129
 9566SOL    HW240332   1.445   2.203   4.193  2.7728 -1.4630 -1.5788
 9567SOL     OW40333   0.452   1.266  11.565 -0.5638 -0.1805  0.0663
 9567SOL    HW140334   0.506   1.259  11.486  0.4803  1.5849  0.6135
 9567SOL    HW240335   0.368   1.260  11.520 -0.1532 -0.0507 -0.7314
 9568SOL     OW40336   0.807   1.109   4.463 -0.1309  0.0679 -0.3175
 9568SOL    HW140337   0.872   1.177   4.481  0.9863 -1.7640  2.4991
 9568SOL    HW240338   0.848   1.046   4.521  2.1685  0.0717 -1.9737
 9569SOL     OW40339   0.135   1.062  16.369  0.0560  0.1778 -0.3444
 9569SOL    HW140340   0.069   1.108  16.421 -0.9475 -1.0286 -0.5337
 9569SOL    HW240341   0.193   1.025  16.437 -0.0094 -1.6185 -1.2534
 9570SOL     OW40342   4.506   0.962   9.767  0.1318  0.0426 -0.1305
 9570SOL    HW140343   4.544   0.882   9.732  0.7856  0.4380 -0.3231
 9570SOL    HW240344   4.455   0.935   9.844  0.3751 -0.6157 -0.2013
 9571SOL     OW40345   3.860   0.411   1.688 -0.3296 -0.7028 -0.4167
 9571SOL    HW140346   3.810   0.429   1.768 -1.2925  0.3881 -1.2668
 9571SOL    HW240347   3.950   0.400   1.717 -1.0546 -3.0974  0.9427
   4.73488   4.73488  17.73844
